<event>
12    6  0.1647231E-007  0.1538227E+04  0.7818608E-02  0.8859423E-01
         -1   -1    0    0    0  501 -0.00000000000E+00  0.00000000000E+00  0.88763965325E+03  0.88763965325E+03  0.00000000000E+00 0.  1.
          2   -1    0    0  501    0  0.00000000000E+00 -0.00000000000E+00 -0.66641437850E+03  0.66641437850E+03  0.00000000000E+00 0. -1.
         24    2    1    2    0    0 -0.33544299159E+03 -0.33588109350E+03  0.23882332667E+03  0.53724764242E+03  0.79122299945E+02 0.  0.
        254    2    1    2    0    0  0.33544299159E+03  0.33588109350E+03 -0.17598051916E+02  0.10168063893E+04  0.89902582408E+03 0.  0.
         23    2    4    4    0    0 -0.14304095618E+03  0.43632391111E+03  0.15180649382E+03  0.49110330268E+03  0.85428167458E+02 0.  0.
         23    2    4    4    0    0  0.47848394777E+03 -0.10044281760E+03 -0.16940454573E+03  0.52570308664E+03  0.92898801470E+02 0.  0.
          2    1    3    3  502    0 -0.69065724246E+02 -0.31436653181E+02  0.26454628037E+02  0.80362832039E+02  0.00000000000E+00 0. -1.
         -1    1    3    3    0  502 -0.26637726734E+03 -0.30444444032E+03  0.21236869863E+03  0.45688481039E+03  0.00000000000E+00 0.  1.
         11    1    5    5    0    0 -0.13570852786E+03  0.39580961594E+03  0.16199004547E+03  0.44869012853E+03  0.00000000000E+00 0. -1.
        -11    1    5    5    0    0 -0.73324283166E+01  0.40514295163E+02 -0.10183551656E+02  0.42413174155E+02  0.00000000000E+00 0.  1.
          4    1    6    6  503    0  0.46028749525E+03 -0.83078163834E+02 -0.17593029193E+03  0.49971794766E+03  0.00000000000E+00 0. -1.
         -4    1    6    6    0  503  0.18196452512E+02 -0.17364653769E+02  0.65257462021E+01  0.25985138984E+02  0.00000000000E+00 0.  1.
<mgrwt>
<rscale>  0 0.15382273E+04</rscale>
<asrwt>0</asrwt>
<pdfrwt beam="1">  1        2 0.10252529E+00 0.15382273E+04</pdfrwt>
<pdfrwt beam="2">  1       -1 0.13655995E+00 0.15382273E+04</pdfrwt>
<totfact> 0.21456983E+01</totfact>
</mgrwt>
</event>
<event>
12    6  0.1647231E-007  0.1973618E+04  0.7818608E-02  0.8619056E-01
          2   -1    0    0  501    0  0.00000000000E+00  0.00000000000E+00  0.12491978323E+04  0.12491978323E+04  0.00000000000E+00 0. -1.
         -1   -1    0    0    0  501 -0.00000000000E+00 -0.00000000000E+00 -0.77953359036E+03  0.77953359036E+03  0.00000000000E+00 0.  1.
         24    2    1    2    0    0  0.26393198962E+03  0.46138149090E+03  0.77209765312E+03  0.94180730519E+03  0.91286575508E+02 0.  0.
        254    2    1    2    0    0 -0.26393198962E+03 -0.46138149090E+03 -0.30243341119E+03  0.10869241175E+04  0.89855722890E+03 0.  0.
         23    2    4    4    0    0  0.15425505888E+03 -0.26119728860E+03 -0.48416759426E+03  0.57869274091E+03  0.91915081967E+02 0.  0.
         23    2    4    4    0    0 -0.41818704850E+03 -0.20018420230E+03  0.18173418307E+03  0.50823137654E+03  0.10157606224E+03 0.  0.
          4    1    3    3  502    0  0.23346028152E+03  0.32862620613E+03  0.57627104336E+03  0.70326893990E+03  0.00000000000E+00 0. -1.
         -3    1    3    3    0  502  0.30471708098E+02  0.13275528477E+03  0.19582660976E+03  0.23853836530E+03  0.00000000000E+00 0.  1.
         11    1    5    5    0    0  0.64600467395E+02 -0.16885595280E+03 -0.34252344180E+03  0.38730848347E+03  0.00000000000E+00 0. -1.
        -11    1    5    5    0    0  0.89654591487E+02 -0.92341335801E+02 -0.14164415245E+03  0.19138425744E+03  0.00000000000E+00 0.  1.
          1    1    6    6  503    0  0.56412793932E+01 -0.26193021358E+01  0.61290410526E+01  0.87321200802E+01  0.00000000000E+00 0. -1.
         -1    1    6    6    0  503 -0.42382832789E+03 -0.19756490016E+03  0.17560514201E+03  0.49949925646E+03  0.00000000000E+00 0.  1.
<mgrwt>
<rscale>  0 0.19736177E+04</rscale>
<asrwt>0</asrwt>
<pdfrwt beam="1">  1        2 0.19218428E+00 0.19736177E+04</pdfrwt>
<pdfrwt beam="2">  1       -1 0.11992824E+00 0.19736177E+04</pdfrwt>
<totfact> 0.11653509E+01</totfact>
</mgrwt>
</event>
<event>
12    6  0.1754344E-007  0.2496920E+04  0.7818608E-02  0.8404084E-01
          2   -1    0    0  501    0  0.00000000000E+00  0.00000000000E+00  0.12527757324E+04  0.12527757324E+04  0.00000000000E+00 0. -1.
         -1   -1    0    0    0  501 -0.00000000000E+00 -0.00000000000E+00 -0.12441590074E+04  0.12441590074E+04  0.00000000000E+00 0.  1.
         24    2    1    2    0    0  0.16902159897E+03 -0.16352069042E+03  0.10615482533E+04  0.10898398301E+04  0.74557655428E+02 0.  0.
        254    2    1    2    0    0 -0.16902159897E+03  0.16352069042E+03 -0.10529315284E+04  0.14070949098E+04  0.90329616658E+03 0.  0.
         23    2    4    4    0    0  0.88808529105E+02  0.42719977102E+03 -0.23238480338E+03  0.50263623409E+03  0.90850909622E+02 0.  0.
         23    2    4    4    0    0 -0.25783012808E+03 -0.26367908060E+03 -0.82054672498E+03  0.90445867567E+03  0.93517568600E+02 0.  0.
          4    1    3    3  502    0  0.92241881509E+02 -0.60361593012E+02  0.62876483333E+03  0.63835515370E+03  0.00000000000E+00 0. -1.
         -3    1    3    3    0  502  0.76779717463E+02 -0.10315909740E+03  0.43278342001E+03  0.45148467640E+03  0.00000000000E+00 0.  1.
         11    1    5    5    0    0 -0.16059288608E+02  0.49625108754E+02 -0.13911795130E+02  0.53982313893E+02  0.00000000000E+00 0. -1.
        -11    1    5    5    0    0  0.10486781771E+03  0.37757466226E+03 -0.21847300825E+03  0.44865392019E+03  0.00000000000E+00 0.  1.
          3    1    6    6  503    0 -0.22813239850E+03 -0.17995805053E+03 -0.59862481910E+03  0.66541788767E+03  0.00000000000E+00 0. -1.
         -3    1    6    6    0  503 -0.29697729581E+02 -0.83721030075E+02 -0.22192190588E+03  0.23904078800E+03  0.00000000000E+00 0.  1.
<mgrwt>
<rscale>  0 0.24969199E+04</rscale>
<asrwt>0</asrwt>
<pdfrwt beam="1">  1        2 0.19273473E+00 0.24969199E+04</pdfrwt>
<pdfrwt beam="2">  1       -1 0.19140908E+00 0.24969199E+04</pdfrwt>
<totfact> 0.30942064E+00</totfact>
</mgrwt>
</event>
<event>
12    6  0.1647231E-007  0.2062838E+04  0.7818608E-02  0.8577793E-01
         -1   -1    0    0    0  501 -0.00000000000E+00  0.00000000000E+00  0.19802894303E+04  0.19802894303E+04  0.00000000000E+00 0.  1.
          2   -1    0    0  501    0  0.00000000000E+00 -0.00000000000E+00 -0.53720672902E+03  0.53720672902E+03  0.00000000000E+00 0. -1.
         24    2    1    2    0    0  0.13968053073E+03  0.81313429994E+03  0.72333853206E+03  0.11001369370E+04  0.79903741031E+02 0.  0.
        254    2    1    2    0    0 -0.13968053073E+03 -0.81313429994E+03  0.71974416922E+03  0.14173592223E+04  0.90009858101E+03 0.  0.
         23    2    4    4    0    0 -0.39918843792E+03 -0.56942256262E+03  0.11639049028E+03  0.71094408726E+03  0.91111388863E+02 0.  0.
         23    2    4    4    0    0  0.25950790720E+03 -0.24371173732E+03  0.60335367893E+03  0.70641513505E+03  0.90812534046E+02 0.  0.
          4    1    3    3  502    0  0.41221022612E+02  0.18114461240E+03  0.20683825538E+03  0.27801907704E+03  0.00000000000E+00 0. -1.
         -3    1    3    3    0  502  0.98459508116E+02  0.63198968754E+03  0.51650027668E+03  0.82211785998E+03  0.00000000000E+00 0.  1.
         11    1    5    5    0    0 -0.90974776732E+02 -0.12990511985E+03 -0.11810508362E+02  0.15903219257E+03  0.00000000000E+00 0.  1.
        -11    1    5    5    0    0 -0.30821366119E+03 -0.43951744277E+03  0.12820099865E+03  0.55191189469E+03  0.00000000000E+00 0. -1.
          3    1    6    6  503    0  0.26460828934E+03 -0.23557049160E+03  0.59886997226E+03  0.69581337079E+03  0.00000000000E+00 0. -1.
         -3    1    6    6    0  503 -0.51003821399E+01 -0.81412457189E+01  0.44837066727E+01  0.10601764257E+02  0.00000000000E+00 0.  1.
<mgrwt>
<rscale>  0 0.20628377E+04</rscale>
<asrwt>0</asrwt>
<pdfrwt beam="1">  1        2 0.82647190E-01 0.20628377E+04</pdfrwt>
<pdfrwt beam="2">  1       -1 0.30465991E+00 0.20628377E+04</pdfrwt>
<totfact> 0.18419815E+00</totfact>
</mgrwt>
</event>
<event>
12    6  0.1647231E-007  0.1541267E+04  0.7818608E-02  0.8857465E-01
          2   -1    0    0  501    0  0.00000000000E+00  0.00000000000E+00  0.19735486868E+04  0.19735486868E+04  0.00000000000E+00 0. -1.
         -1   -1    0    0    0  501 -0.00000000000E+00 -0.00000000000E+00 -0.30091800347E+03  0.30091800347E+03  0.00000000000E+00 0.  1.
         24    2    1    2    0    0  0.46817768583E+03 -0.16043101795E+03  0.41026819856E+03  0.64799702928E+03  0.81557943638E+02 0.  0.
        254    2    1    2    0    0 -0.46817768583E+03  0.16043101795E+03  0.12623624847E+04  0.16264696610E+04  0.89828506507E+03 0.  0.
         23    2    4    4    0    0 -0.24658583039E+03 -0.26662924249E+03  0.13619142268E+03  0.39863373153E+03  0.92005562858E+02 0.  0.
         23    2    4    4    0    0 -0.22159185544E+03  0.42706026044E+03  0.11261710621E+04  0.12278359294E+04  0.88523398917E+02 0.  0.
          2    1    3    3  502    0  0.36047592766E+03 -0.10661031106E+03  0.34883134138E+03  0.51282741500E+03  0.00000000000E+00 0. -1.
         -1    1    3    3    0  502  0.10770175817E+03 -0.53820706892E+02  0.61436857180E+02  0.13516961428E+03  0.00000000000E+00 0.  1.
         11    1    5    5    0    0 -0.12370516733E+03 -0.74026054199E+02  0.32709419993E+02  0.14782669340E+03  0.00000000000E+00 0. -1.
        -11    1    5    5    0    0 -0.12288066307E+03 -0.19260318829E+03  0.10348200269E+03  0.25080703813E+03  0.00000000000E+00 0.  1.
          1    1    6    6  503    0  0.61862542333E+01  0.34260309559E+02  0.69320601178E+02  0.77571800934E+02  0.00000000000E+00 0. -1.
         -1    1    6    6    0  503 -0.22777810967E+03  0.39279995089E+03  0.10568504609E+04  0.11502641285E+04  0.00000000000E+00 0.  1.
<mgrwt>
<rscale>  0 0.15412674E+04</rscale>
<asrwt>0</asrwt>
<pdfrwt beam="1">  1        2 0.30362287E+00 0.15412674E+04</pdfrwt>
<pdfrwt beam="2">  1       -1 0.46295079E-01 0.15412674E+04</pdfrwt>
<totfact> 0.35222132E+01</totfact>
</mgrwt>
</event>
<event>
12    6  0.1647231E-007  0.1810183E+04  0.7818608E-02  0.8700903E-01
          2   -1    0    0  501    0  0.00000000000E+00  0.00000000000E+00  0.16295235145E+04  0.16295235145E+04  0.00000000000E+00 0. -1.
         -1   -1    0    0    0  501 -0.00000000000E+00 -0.00000000000E+00 -0.50271764240E+03  0.50271764240E+03  0.00000000000E+00 0.  1.
         24    2    1    2    0    0 -0.30733711467E+03 -0.55564253919E+03  0.15966477333E+03  0.65953217647E+03  0.79341783103E+02 0.  0.
        254    2    1    2    0    0  0.30733711467E+03  0.55564253919E+03  0.96714109881E+03  0.14727089805E+04  0.91121627659E+03 0.  0.
         23    2    4    4    0    0  0.45653541436E+03  0.72473746047E+03  0.68637697011E+03  0.11007713631E+04  0.83158147819E+02 0.  0.
         23    2    4    4    0    0 -0.14919829969E+03 -0.16909492128E+03  0.28076412870E+03  0.37193761736E+03  0.93036929282E+02 0.  0.
          2    1    3    3  502    0 -0.64018313892E+02 -0.60715090086E+02  0.16677428793E+02  0.89793113928E+02  0.00000000000E+00 0. -1.
         -1    1    3    3    0  502 -0.24331880077E+03 -0.49492744911E+03  0.14298734454E+03  0.56973906254E+03  0.00000000000E+00 0.  1.
         11    1    5    5    0    0  0.41171916884E+03  0.68401276338E+03  0.61931152660E+03  0.10104122433E+04  0.00000000000E+00 0. -1.
        -11    1    5    5    0    0  0.44816245522E+02  0.40724697096E+02  0.67065443509E+02  0.90359119791E+02  0.00000000000E+00 0.  1.
          4    1    6    6  503    0 -0.16126515808E+03 -0.15771731471E+03  0.24815784804E+03  0.33535581121E+03  0.00000000000E+00 0. -1.
         -4    1    6    6    0  503  0.12066858390E+02 -0.11377606574E+02  0.32606280657E+02  0.36581806148E+02  0.00000000000E+00 0.  1.
<mgrwt>
<rscale>  0 0.18101826E+04</rscale>
<asrwt>0</asrwt>
<pdfrwt beam="1">  1        2 0.25069592E+00 0.18101826E+04</pdfrwt>
<pdfrwt beam="2">  1       -1 0.77341176E-01 0.18101826E+04</pdfrwt>
<totfact> 0.19334415E+01</totfact>
</mgrwt>
</event>
<event>
12    6  0.1647231E-007  0.1764743E+04  0.7818608E-02  0.8725277E-01
          2   -1    0    0  501    0  0.00000000000E+00  0.00000000000E+00  0.11847290235E+04  0.11847290235E+04  0.00000000000E+00 0. -1.
         -1   -1    0    0    0  501 -0.00000000000E+00 -0.00000000000E+00 -0.65717941052E+03  0.65717941052E+03  0.00000000000E+00 0.  1.
         24    2    1    2    0    0 -0.13525951813E+03 -0.49931411820E+03  0.62178740416E+03  0.81267234438E+03  0.78784753950E+02 0.  0.
        254    2    1    2    0    0  0.13525951813E+03  0.49931411820E+03 -0.94237791133E+02  0.10292360897E+04  0.88478044800E+03 0.  0.
         23    2    4    4    0    0 -0.25735446128E+03  0.18569692592E+03 -0.32766321128E+03  0.46778179616E+03  0.10364343568E+03 0.  0.
         23    2    4    4    0    0  0.39261397941E+03  0.31361719229E+03  0.23342542015E+03  0.56145429352E+03  0.90785553998E+02 0.  0.
          4    1    3    3  502    0 -0.13889017550E+03 -0.39291590013E+03  0.48973147455E+03  0.64304766743E+03  0.00000000000E+00 0. -1.
         -3    1    3    3    0  502  0.36306573682E+01 -0.10639821808E+03  0.13205592961E+03  0.16962467694E+03  0.00000000000E+00 0.  1.
         11    1    5    5    0    0 -0.14744759824E+03  0.80054109694E+02 -0.23711938670E+03  0.29047385125E+03  0.00000000000E+00 0. -1.
        -11    1    5    5    0    0 -0.10990686303E+03  0.10564281622E+03 -0.90543824580E+02  0.17730794492E+03  0.00000000000E+00 0.  1.
          1    1    6    6  503    0  0.91978480635E+02  0.11221698235E+03  0.37089921732E+02  0.14976099065E+03  0.00000000000E+00 0. -1.
         -1    1    6    6    0  503  0.30063549878E+03  0.20140020994E+03  0.19633549842E+03  0.41169330287E+03  0.00000000000E+00 0.  1.
<mgrwt>
<rscale>  0 0.17647431E+04</rscale>
<asrwt>0</asrwt>
<pdfrwt beam="1">  1        2 0.18226600E+00 0.17647431E+04</pdfrwt>
<pdfrwt beam="2">  1       -1 0.10110452E+00 0.17647431E+04</pdfrwt>
<totfact> 0.19410387E+01</totfact>
</mgrwt>
</event>
<event>
12    6  0.1647231E-007  0.1625678E+04  0.7818608E-02  0.8804926E-01
          2   -1    0    0  501    0  0.00000000000E+00  0.00000000000E+00  0.14000934226E+04  0.14000934226E+04  0.00000000000E+00 0. -1.
         -1   -1    0    0    0  501 -0.00000000000E+00 -0.00000000000E+00 -0.47190247067E+03  0.47190247067E+03  0.00000000000E+00 0.  1.
         24    2    1    2    0    0 -0.13438807905E+02  0.21763489079E+02  0.99884749190E+03  0.10030360171E+04  0.87924334522E+02 0.  0.
        254    2    1    2    0    0  0.13438807905E+02 -0.21763489079E+02 -0.70656539947E+02  0.86895987615E+03  0.86570472374E+03 0.  0.
         23    2    4    4    0    0  0.18649657364E+03  0.88915160405E+02 -0.40595573683E+03  0.46526294669E+03  0.94776956942E+02 0.  0.
         23    2    4    4    0    0 -0.17305776574E+03 -0.11067864948E+03  0.33529919689E+03  0.40369692946E+03  0.91361401531E+02 0.  0.
          2    1    3    3  502    0 -0.76561410466E+01  0.44391834915E+02  0.91172826558E+03  0.91284044704E+03  0.00000000000E+00 0. -1.
         -1    1    3    3    0  502 -0.57826668580E+01 -0.22628345835E+02  0.87119226319E+02  0.90195570099E+02  0.00000000000E+00 0.  1.
         11    1    5    5    0    0  0.57119078181E+02 -0.86021146350E+00 -0.18720003185E+03  0.19572220360E+03  0.00000000000E+00 0.  1.
        -11    1    5    5    0    0  0.12937749546E+03  0.89775371868E+02 -0.21875570498E+03  0.26954074310E+03  0.00000000000E+00 0. -1.
          4    1    6    6  503    0 -0.11234335158E+03 -0.46551959429E+02  0.26231457521E+03  0.28913154435E+03  0.00000000000E+00 0.  1.
         -4    1    6    6    0  503 -0.60714414157E+02 -0.64126690055E+02  0.72984621671E+02  0.11456538511E+03  0.00000000000E+00 0. -1.
<mgrwt>
<rscale>  0 0.16256784E+04</rscale>
<asrwt>0</asrwt>
<pdfrwt beam="1">  1        2 0.21539899E+00 0.16256784E+04</pdfrwt>
<pdfrwt beam="2">  1       -1 0.72600380E-01 0.16256784E+04</pdfrwt>
<totfact> 0.30198088E+01</totfact>
</mgrwt>
</event>
<event>
12    6  0.1647231E-007  0.2078317E+04  0.7818608E-02  0.8570856E-01
         -1   -1    0    0    0  501 -0.00000000000E+00  0.00000000000E+00  0.46446519597E+03  0.46446519597E+03  0.00000000000E+00 0.  1.
          2   -1    0    0  501    0  0.00000000000E+00 -0.00000000000E+00 -0.23249319127E+04  0.23249319127E+04  0.00000000000E+00 0. -1.
         24    2    1    2    0    0  0.83026844045E+03  0.14997864492E+03 -0.68329208287E+03  0.10889124435E+04  0.83683701648E+02 0.  0.
        254    2    1    2    0    0 -0.83026844045E+03 -0.14997864492E+03 -0.11771746339E+04  0.17004846652E+04  0.89110532530E+03 0.  0.
         23    2    4    4    0    0 -0.10018098637E+04 -0.50261677291E+02 -0.98027067856E+03  0.14053325481E+04  0.88767834190E+02 0.  0.
         23    2    4    4    0    0  0.17154142324E+03 -0.99716967630E+02 -0.19690395529E+03  0.29515211705E+03  0.94729462536E+02 0.  0.
          4    1    3    3  502    0  0.47151109658E+03  0.10657161572E+03 -0.34485461888E+03  0.59380546615E+03  0.00000000000E+00 0. -1.
         -3    1    3    3    0  502  0.35875734387E+03  0.43407029198E+02 -0.33843746400E+03  0.49510697733E+03  0.00000000000E+00 0.  1.
         11    1    5    5    0    0 -0.35352413678E+03  0.24194178795E+02 -0.35406049652E+03  0.50092265747E+03  0.00000000000E+00 0.  1.
        -11    1    5    5    0    0 -0.64828572690E+03 -0.74455856086E+02 -0.62621018204E+03  0.90440989065E+03  0.00000000000E+00 0. -1.
          1    1    6    6  503    0  0.17746680865E+03 -0.86399777298E+02 -0.15555739753E+03  0.25131154692E+03  0.00000000000E+00 0. -1.
         -1    1    6    6    0  503 -0.59253854141E+01 -0.13317190332E+02 -0.41346557766E+02  0.43840570135E+02  0.00000000000E+00 0.  1.
<mgrwt>
<rscale>  0 0.20783166E+04</rscale>
<asrwt>0</asrwt>
<pdfrwt beam="1">  1        2 0.35768183E+00 0.20783166E+04</pdfrwt>
<pdfrwt beam="2">  1       -1 0.71456185E-01 0.20783166E+04</pdfrwt>
<totfact> 0.91187857E+00</totfact>
</mgrwt>
</event>
<event>
12    6  0.1647231E-007  0.1403517E+04  0.7818608E-02  0.8951276E-01
          2   -1    0    0  501    0  0.00000000000E+00  0.00000000000E+00  0.22604492286E+04  0.22604492286E+04  0.00000000000E+00 0. -1.
         -1   -1    0    0    0  501 -0.00000000000E+00 -0.00000000000E+00 -0.21786166985E+03  0.21786166985E+03  0.00000000000E+00 0.  1.
         24    2    1    2    0    0 -0.18918882286E+03  0.10454461969E+03  0.12613904742E+02  0.23070011663E+03  0.79633190423E+02 0.  0.
        254    2    1    2    0    0  0.18918882286E+03 -0.10454461969E+03  0.20299736540E+04  0.22476107818E+04  0.94033993980E+03 0.  0.
         23    2    4    4    0    0  0.46786200380E+02 -0.32802540227E+03  0.20313734842E+03  0.39941031042E+03  0.92055421681E+02 0.  0.
         23    2    4    4    0    0  0.14240262248E+03  0.22348078258E+03  0.18268363056E+04  0.18482004714E+04  0.91060024158E+02 0.  0.
          4    1    3    3  502    0 -0.61795060205E+02  0.76688171082E+02  0.18298128153E+02  0.10017248396E+03  0.00000000000E+00 0. -1.
         -3    1    3    3    0  502 -0.12739376266E+03  0.27856448609E+02 -0.56842234109E+01  0.13052763266E+03  0.00000000000E+00 0.  1.
         11    1    5    5    0    0  0.62898364111E+02 -0.17559675063E+03  0.14185466724E+03  0.23433559196E+03  0.00000000000E+00 0. -1.
        -11    1    5    5    0    0 -0.16112163731E+02 -0.15242865164E+03  0.61282681175E+02  0.16507471845E+03  0.00000000000E+00 0.  1.
          3    1    6    6  503    0  0.20049773975E+02  0.69610250072E+02  0.29321622963E+03  0.30203201431E+03  0.00000000000E+00 0. -1.
         -3    1    6    6    0  503  0.12235284851E+03  0.15387053251E+03  0.15336200760E+04  0.15461684571E+04  0.00000000000E+00 0.  1.
<mgrwt>
<rscale>  0 0.14035174E+04</rscale>
<asrwt>0</asrwt>
<pdfrwt beam="1">  1        2 0.34776140E+00 0.14035174E+04</pdfrwt>
<pdfrwt beam="2">  1       -1 0.33517182E-01 0.14035174E+04</pdfrwt>
<totfact> 0.44446211E+01</totfact>
</mgrwt>
</event>
<event>
12    6  0.1647231E-007  0.2419832E+04  0.7818608E-02  0.8432116E-01
         -1   -1    0    0    0  501 -0.00000000000E+00  0.00000000000E+00  0.54143860513E+03  0.54143860513E+03  0.00000000000E+00 0.  1.
          2   -1    0    0  501    0  0.00000000000E+00 -0.00000000000E+00 -0.27037166347E+04  0.27037166347E+04  0.00000000000E+00 0. -1.
         24    2    1    2    0    0 -0.21796828017E+03  0.13685483408E+03 -0.23103763344E+04  0.23260150245E+04  0.79168620742E+02 0.  0.
        254    2    1    2    0    0  0.21796828017E+03 -0.13685483408E+03  0.14809830485E+03  0.91914021539E+03  0.86985413195E+03 0.  0.
         23    2    4    4    0    0  0.15824548883E+03  0.99085437084E+02 -0.32088781398E+03  0.38252891200E+03  0.92194472612E+02 0.  0.
         23    2    4    4    0    0  0.59722791339E+02 -0.23594027116E+03  0.46898611883E+03  0.53661130339E+03  0.93643408260E+02 0.  0.
          4    1    3    3  502    0 -0.21123205784E+03  0.13418674767E+03 -0.22986421730E+04  0.23122242333E+04  0.00000000000E+00 0. -1.
         -3    1    3    3    0  502 -0.67362223298E+01  0.26680864026E+01 -0.11734161399E+02  0.13790791133E+02  0.00000000000E+00 0.  1.
         11    1    5    5    0    0  0.51812645806E+02  0.12362040916E+02 -0.30645485678E+02  0.61453365356E+02  0.00000000000E+00 0. -1.
        -11    1    5    5    0    0  0.10643284302E+03  0.86723396168E+02 -0.29024232830E+03  0.32107554664E+03  0.00000000000E+00 0.  1.
          4    1    6    6  503    0  0.22508408755E+02 -0.14837835307E+02  0.11084084799E+03  0.11407227272E+03  0.00000000000E+00 0. -1.
         -4    1    6    6    0  503  0.37214382584E+02 -0.22110243585E+03  0.35814527084E+03  0.42253903067E+03  0.00000000000E+00 0.  1.
<mgrwt>
<rscale>  0 0.24198319E+04</rscale>
<asrwt>0</asrwt>
<pdfrwt beam="1">  1        2 0.41595641E+00 0.24198319E+04</pdfrwt>
<pdfrwt beam="2">  1       -1 0.83298247E-01 0.24198319E+04</pdfrwt>
<totfact> 0.38590721E+00</totfact>
</mgrwt>
</event>
<event>
12    6  0.1647231E-007  0.1580413E+04  0.7818608E-02  0.8832672E-01
         -1   -1    0    0    0  501 -0.00000000000E+00  0.00000000000E+00  0.21828315609E+03  0.21828315609E+03  0.00000000000E+00 0.  1.
          2   -1    0    0  501    0  0.00000000000E+00 -0.00000000000E+00 -0.28606268618E+04  0.28606268618E+04  0.00000000000E+00 0. -1.
         24    2    1    2    0    0 -0.54970356244E+02 -0.12866401712E+03 -0.16570747253E+04  0.16649265393E+04  0.80669489848E+02 0.  0.
        254    2    1    2    0    0  0.54970356244E+02  0.12866401712E+03 -0.98526898040E+03  0.14139834786E+04  0.10044989520E+04 0.  0.
         23    2    4    4    0    0  0.14530220519E+03 -0.41390272710E+03 -0.34327075493E+03  0.56373231374E+03  0.86781979853E+02 0.  0.
         23    2    4    4    0    0 -0.90331848946E+02  0.54256674422E+03 -0.64199822547E+03  0.85025116487E+03  0.90701747473E+02 0.  0.
          4    1    3    3  502    0 -0.30272770188E+01 -0.91459433520E+02 -0.11881960764E+04  0.11917146925E+04  0.00000000000E+00 0. -1.
         -3    1    3    3    0  502 -0.51943079225E+02 -0.37204583599E+02 -0.46887864888E+03  0.47321184674E+03  0.00000000000E+00 0.  1.
         11    1    5    5    0    0 -0.25774362747E+00 -0.44964047904E+02 -0.65790038572E+02  0.79687898774E+02  0.00000000000E+00 0. -1.
        -11    1    5    5    0    0  0.14555994882E+03 -0.36893867919E+03 -0.27748071636E+03  0.48404441496E+03  0.00000000000E+00 0.  1.
          3    1    6    6  503    0  0.16582502966E+02  0.10312054377E+03 -0.10372622988E+03  0.14720039646E+03  0.00000000000E+00 0. -1.
         -3    1    6    6    0  503 -0.10691435191E+03  0.43944620045E+03 -0.53827199559E+03  0.70305076842E+03  0.00000000000E+00 0.  1.
<mgrwt>
<rscale>  0 0.15804134E+04</rscale>
<asrwt>0</asrwt>
<pdfrwt beam="1">  1        2 0.44009640E+00 0.15804134E+04</pdfrwt>
<pdfrwt beam="2">  1       -1 0.33582027E-01 0.15804134E+04</pdfrwt>
<totfact> 0.19505186E+01</totfact>
</mgrwt>
</event>
<event>
12    6  0.1647231E-007  0.3542091E+04  0.7818608E-02  0.8103887E-01
         -1   -1    0    0    0  501 -0.00000000000E+00  0.00000000000E+00  0.18516600235E+04  0.18516600235E+04  0.00000000000E+00 0.  1.
          2   -1    0    0  501    0  0.00000000000E+00 -0.00000000000E+00 -0.16939401871E+04  0.16939401871E+04  0.00000000000E+00 0. -1.
         24    2    1    2    0    0  0.18559692664E+03  0.14834601714E+04  0.79254310733E+03  0.16932485049E+04  0.62174134131E+02 0.  0.
        254    2    1    2    0    0 -0.18559692664E+03 -0.14834601714E+04 -0.63482327087E+03  0.18523517057E+04  0.89056496514E+03 0.  0.
         23    2    4    4    0    0 -0.44465851369E+03 -0.55167133035E+03 -0.50027689817E+03  0.87204538340E+03  0.90131711080E+02 0.  0.
         23    2    4    4    0    0  0.25906158705E+03 -0.93178884105E+03 -0.13454637269E+03  0.98030632232E+03  0.86916103075E+02 0.  0.
          2    1    3    3  502    0  0.88097237920E+01  0.35382394588E+02  0.10112343671E+02  0.37838929353E+02  0.00000000000E+00 0. -1.
         -1    1    3    3    0  502  0.17678720284E+03  0.14480777768E+04  0.78243076366E+03  0.16554095755E+04  0.00000000000E+00 0.  1.
         11    1    5    5    0    0 -0.42664350042E+03 -0.53573517971E+03 -0.45958238854E+03  0.82477441224E+03  0.00000000000E+00 0. -1.
        -11    1    5    5    0    0 -0.18015013269E+02 -0.15936150637E+02 -0.40694509634E+02  0.47270971162E+02  0.00000000000E+00 0.  1.
          2    1    6    6  503    0  0.25607258247E+03 -0.81766233803E+03 -0.12162603711E+03  0.86541190160E+03  0.00000000000E+00 0. -1.
         -2    1    6    6    0  503  0.29890045816E+01 -0.11412650302E+03 -0.12920335582E+02  0.11489442072E+03  0.00000000000E+00 0.  1.
<mgrwt>
<rscale>  0 0.35420905E+04</rscale>
<asrwt>0</asrwt>
<pdfrwt beam="1">  1        2 0.26060618E+00 0.35420905E+04</pdfrwt>
<pdfrwt beam="2">  1       -1 0.28487077E+00 0.35420905E+04</pdfrwt>
<totfact> 0.38124027E-01</totfact>
</mgrwt>
</event>
<event>
12    6  0.1647231E-007  0.1304424E+04  0.7818608E-02  0.9026064E-01
         -1   -1    0    0    0  501 -0.00000000000E+00  0.00000000000E+00  0.19257695515E+03  0.19257695515E+03  0.00000000000E+00 0.  1.
          2   -1    0    0  501    0  0.00000000000E+00 -0.00000000000E+00 -0.22088859517E+04  0.22088859517E+04  0.00000000000E+00 0. -1.
         24    2    1    2    0    0  0.76724255233E+01 -0.32446857829E+03 -0.78637676276E+03  0.85411446453E+03  0.76055118826E+02 0.  0.
        254    2    1    2    0    0 -0.76724255233E+01  0.32446857829E+03 -0.12299322338E+04  0.15473484423E+04  0.88103074738E+03 0.  0.
         23    2    4    4    0    0  0.42569138208E+02  0.41041772223E+03 -0.13328097729E+03  0.44256612435E+03  0.88578311472E+02 0.  0.
         23    2    4    4    0    0 -0.50241563732E+02 -0.85949143946E+02 -0.10966512565E+04  0.11047823180E+04  0.89378530151E+02 0.  0.
          2    1    3    3  502    0 -0.16837378785E+01 -0.28426028748E+03 -0.73596806319E+03  0.78895864026E+03  0.00000000000E+00 0. -1.
         -1    1    3    3    0  502  0.93561634018E+01 -0.40208290810E+02 -0.50408699570E+02  0.65155824266E+02  0.00000000000E+00 0.  1.
         11    1    5    5    0    0  0.41898886808E+02  0.16943868300E+03 -0.94510262800E+02  0.19848721316E+03  0.00000000000E+00 0. -1.
        -11    1    5    5    0    0  0.67025140049E+00  0.24097903923E+03 -0.38770714491E+02  0.24407891119E+03  0.00000000000E+00 0.  1.
          1    1    6    6  503    0 -0.23593599639E+02 -0.26478939407E+02 -0.10183633446E+03  0.10783520386E+03  0.00000000000E+00 0. -1.
         -1    1    6    6    0  503 -0.26647964093E+02 -0.59470204539E+02 -0.99481492202E+03  0.99694711409E+03  0.00000000000E+00 0.  1.
<mgrwt>
<rscale>  0 0.13044241E+04</rscale>
<asrwt>0</asrwt>
<pdfrwt beam="1">  1        2 0.33982861E+00 0.13044241E+04</pdfrwt>
<pdfrwt beam="2">  1       -1 0.29627224E-01 0.13044241E+04</pdfrwt>
<totfact> 0.59554266E+01</totfact>
</mgrwt>
</event>
<event>
12    6  0.1647231E-007  0.2976167E+04  0.7818608E-02  0.8250569E-01
          2   -1    0    0  501    0  0.00000000000E+00  0.00000000000E+00  0.13290227475E+04  0.13290227475E+04  0.00000000000E+00 0. -1.
         -1   -1    0    0    0  501 -0.00000000000E+00 -0.00000000000E+00 -0.16661815666E+04  0.16661815666E+04  0.00000000000E+00 0.  1.
         24    2    1    2    0    0  0.46309393853E+03  0.11650240818E+04 -0.66431588597E+03  0.14209178697E+04  0.77167927620E+02 0.  0.
        254    2    1    2    0    0 -0.46309393853E+03 -0.11650240818E+04  0.32715706693E+03  0.15742864444E+04  0.89420856381E+03 0.  0.
         23    2    4    4    0    0  0.12882949353E+03 -0.41907362678E+03 -0.19155915829E+03  0.48649229470E+03  0.88091421914E+02 0.  0.
         23    2    4    4    0    0 -0.59192343206E+03 -0.74595045499E+03  0.51871622522E+03  0.10877941497E+04  0.86105511452E+02 0.  0.
          4    1    3    3  502    0  0.44491155999E+03  0.11165097633E+04 -0.61820878517E+03  0.13515629655E+04  0.00000000000E+00 0. -1.
         -3    1    3    3    0  502  0.18182378547E+02  0.48514318478E+02 -0.46107100805E+02  0.69354904165E+02  0.00000000000E+00 0.  1.
         11    1    5    5    0    0 -0.64764339554E+01 -0.11562438758E+02  0.51163500346E+01  0.14206027752E+02  0.00000000000E+00 0. -1.
        -11    1    5    5    0    0  0.13530592748E+03 -0.40751118802E+03 -0.19667550833E+03  0.47228626695E+03  0.00000000000E+00 0.  1.
          1    1    6    6  503    0 -0.11094822338E+03 -0.10862031176E+03  0.11403233420E+03  0.19264281363E+03  0.00000000000E+00 0. -1.
         -1    1    6    6    0  503 -0.48097520868E+03 -0.63733014323E+03  0.40468389102E+03  0.89515133608E+03  0.00000000000E+00 0.  1.
<mgrwt>
<rscale>  0 0.29761675E+04</rscale>
<asrwt>0</asrwt>
<pdfrwt beam="1">  1        2 0.20446504E+00 0.29761675E+04</pdfrwt>
<pdfrwt beam="2">  1       -1 0.25633563E+00 0.29761675E+04</pdfrwt>
<totfact> 0.98462698E-01</totfact>
</mgrwt>
</event>
<event>
12    6  0.1647231E-007  0.1120531E+04  0.7818608E-02  0.9185409E-01
         -1   -1    0    0    0  501 -0.00000000000E+00  0.00000000000E+00  0.56345934998E+03  0.56345934998E+03  0.00000000000E+00 0.  1.
          2   -1    0    0  501    0  0.00000000000E+00 -0.00000000000E+00 -0.55708927081E+03  0.55708927081E+03  0.00000000000E+00 0. -1.
         24    2    1    2    0    0 -0.83662411365E+02 -0.73019988669E+02 -0.13692348036E+03  0.19394642069E+03  0.80844646103E+02 0.  0.
        254    2    1    2    0    0  0.83662411365E+02  0.73019988669E+02  0.14329355953E+03  0.92660220010E+03  0.90869536986E+03 0.  0.
         23    2    4    4    0    0 -0.46083734561E+02 -0.29752594874E+03 -0.21924898099E+03  0.38410600462E+03  0.93925003878E+02 0.  0.
         23    2    4    4    0    0  0.12974614593E+03  0.37054593741E+03  0.36254254052E+03  0.54249619548E+03  0.93416670408E+02 0.  0.
          4    1    3    3  502    0 -0.76219533177E+02 -0.44012754940E+02 -0.13834126775E+03  0.16396599098E+03  0.00000000000E+00 0. -1.
         -3    1    3    3    0  502 -0.74428781882E+01 -0.29007233730E+02  0.14177873920E+01  0.29980429708E+02  0.00000000000E+00 0.  1.
         11    1    5    5    0    0  0.28132784410E+02 -0.10570028179E+03 -0.67922231611E+02  0.12875337928E+03  0.00000000000E+00 0.  1.
        -11    1    5    5    0    0 -0.74216518971E+02 -0.19182566695E+03 -0.15132674938E+03  0.25535262534E+03  0.00000000000E+00 0. -1.
          2    1    6    6  503    0  0.36996192612E+01 -0.48036356558E+01  0.67987312569E+00  0.61011741213E+01  0.00000000000E+00 0. -1.
         -2    1    6    6    0  503  0.12604652667E+03  0.37534957306E+03  0.36186266739E+03  0.53639502136E+03  0.00000000000E+00 0.  1.
<mgrwt>
<rscale>  0 0.11205305E+04</rscale>
<asrwt>0</asrwt>
<pdfrwt beam="1">  1        2 0.85706042E-01 0.11205305E+04</pdfrwt>
<pdfrwt beam="2">  1       -1 0.86686053E-01 0.11205305E+04</pdfrwt>
<totfact> 0.80671903E+01</totfact>
</mgrwt>
</event>
<event>
12    6  0.1647231E-007  0.2081895E+04  0.7818608E-02  0.8569261E-01
         -1   -1    0    0    0  501 -0.00000000000E+00  0.00000000000E+00  0.55144975548E+03  0.55144975548E+03  0.00000000000E+00 0.  1.
          2   -1    0    0  501    0  0.00000000000E+00 -0.00000000000E+00 -0.19649517519E+04  0.19649517519E+04  0.00000000000E+00 0. -1.
         24    2    1    2    0    0 -0.31679446909E+03 -0.22774790202E+03 -0.14647564115E+04  0.15179483621E+04  0.80175073309E+02 0.  0.
        254    2    1    2    0    0  0.31679446909E+03  0.22774790202E+03  0.51254415097E+02  0.99845314529E+03  0.91763490874E+03 0.  0.
         23    2    4    4    0    0  0.35009968491E+02 -0.33468252530E+03 -0.48145208497E+02  0.35490239067E+03  0.10197869958E+03 0.  0.
         23    2    4    4    0    0  0.28178450060E+03  0.56243042732E+03  0.99399623594E+02  0.64355075461E+03  0.92448895299E+02 0.  0.
          2    1    3    3  502    0 -0.18891563087E+03 -0.18199449045E+03 -0.98651295489E+03  0.10207932799E+04  0.00000000000E+00 0. -1.
         -1    1    3    3    0  502 -0.12787883822E+03 -0.45753411572E+02 -0.47824345660E+03  0.49715508216E+03  0.00000000000E+00 0.  1.
         11    1    5    5    0    0  0.26015720108E+02 -0.20993273954E+02 -0.21952379891E+02  0.39993027228E+02  0.00000000000E+00 0.  1.
        -11    1    5    5    0    0  0.89942483833E+01 -0.31368925135E+03 -0.26192828606E+02  0.31490936344E+03  0.00000000000E+00 0. -1.
          3    1    6    6  503    0  0.15660526180E+03  0.27217434460E+03  0.92588735297E+02  0.32737861229E+03  0.00000000000E+00 0. -1.
         -3    1    6    6    0  503  0.12517923880E+03  0.29025608272E+03  0.68108882970E+01  0.31617214232E+03  0.00000000000E+00 0.  1.
<mgrwt>
<rscale>  0 0.20818954E+04</rscale>
<asrwt>0</asrwt>
<pdfrwt beam="1">  1        2 0.30230028E+00 0.20818954E+04</pdfrwt>
<pdfrwt beam="2">  1       -1 0.84838422E-01 0.20818954E+04</pdfrwt>
<totfact> 0.10093294E+01</totfact>
</mgrwt>
</event>
<event>
12    6  0.1647231E-007  0.1436227E+04  0.7818608E-02  0.8928005E-01
          2   -1    0    0  501    0  0.00000000000E+00  0.00000000000E+00  0.36291329756E+04  0.36291329756E+04  0.00000000000E+00 0. -1.
         -1   -1    0    0    0  501 -0.00000000000E+00 -0.00000000000E+00 -0.14209647736E+03  0.14209647736E+03  0.00000000000E+00 0.  1.
         24    2    1    2    0    0 -0.35959832028E+02 -0.21197551783E+03  0.80973818128E+02  0.24286747446E+03  0.78747198339E+02 0.  0.
        254    2    1    2    0    0  0.35959832028E+02  0.21197551783E+03  0.34060626801E+04  0.35283619785E+04  0.89545996045E+03 0.  0.
         23    2    4    4    0    0 -0.40338393176E+03 -0.19086711748E+02  0.14079731033E+04  0.14675266039E+04  0.90350286951E+02 0.  0.
         23    2    4    4    0    0  0.43934376379E+03  0.23106222958E+03  0.19980895767E+04  0.20608353746E+04  0.90927376548E+02 0.  0.
          4    1    3    3  502    0  0.13594978448E+02 -0.21898503752E+02 -0.83321923115E+01  0.27088620014E+02  0.00000000000E+00 0. -1.
         -3    1    3    3    0  502 -0.49554810476E+02 -0.19007701408E+03  0.89306010440E+02  0.21577885444E+03  0.00000000000E+00 0.  1.
         11    1    5    5    0    0 -0.37280495923E+03 -0.42398721902E+02  0.12648299571E+04  0.13193089136E+04  0.00000000000E+00 0. -1.
        -11    1    5    5    0    0 -0.30578972534E+02  0.23312010154E+02  0.14314314626E+03  0.14821769024E+03  0.00000000000E+00 0.  1.
          4    1    6    6  503    0  0.28377056875E+03  0.16278197830E+03  0.14751052508E+04  0.15109464613E+04  0.00000000000E+00 0. -1.
         -4    1    6    6    0  503  0.15557319504E+03  0.68280251283E+02  0.52298432596E+03  0.54988891326E+03  0.00000000000E+00 0.  1.
<mgrwt>
<rscale>  0 0.14362270E+04</rscale>
<asrwt>0</asrwt>
<pdfrwt beam="1">  1        2 0.55832808E+00 0.14362270E+04</pdfrwt>
<pdfrwt beam="2">  1       -1 0.21860999E-01 0.14362270E+04</pdfrwt>
<totfact> 0.13042043E+01</totfact>
</mgrwt>
</event>
<event>
12    6  0.1647231E-007  0.1816541E+04  0.7818608E-02  0.8697552E-01
          2   -1    0    0  501    0  0.00000000000E+00  0.00000000000E+00  0.56279043392E+03  0.56279043392E+03  0.00000000000E+00 0. -1.
         -1   -1    0    0    0  501 -0.00000000000E+00 -0.00000000000E+00 -0.14658301870E+04  0.14658301870E+04  0.00000000000E+00 0.  1.
         24    2    1    2    0    0  0.94918196792E+02  0.37821035468E+03  0.28549761222E+03  0.48965623041E+03  0.78751513774E+02 0.  0.
        254    2    1    2    0    0 -0.94918196792E+02 -0.37821035468E+03 -0.11885373653E+04  0.15389643905E+04  0.89651424419E+03 0.  0.
         23    2    4    4    0    0  0.20502418987E+03 -0.56332283657E+03 -0.65051435668E+03  0.88935478331E+03  0.91735847475E+02 0.  0.
         23    2    4    4    0    0 -0.29994238666E+03  0.18511248189E+03 -0.53802300858E+03  0.64960960716E+03  0.91059418443E+02 0.  0.
          4    1    3    3  502    0  0.81863223822E+02  0.34849250731E+03  0.28436356796E+03  0.45717748616E+03  0.00000000000E+00 0. -1.
         -3    1    3    3    0  502  0.13054972970E+02  0.29717847373E+02  0.11340442610E+01  0.32478744251E+02  0.00000000000E+00 0.  1.
         11    1    5    5    0    0  0.14891989798E+03 -0.47209374693E+03 -0.57258195034E+03  0.75690140161E+03  0.00000000000E+00 0. -1.
        -11    1    5    5    0    0  0.56104291892E+02 -0.91229089641E+02 -0.77932406344E+02  0.13245338170E+03  0.00000000000E+00 0.  1.
          1    1    6    6  503    0 -0.25421200877E+03  0.18737487283E+03 -0.44199163436E+03  0.54322158758E+03  0.00000000000E+00 0. -1.
         -1    1    6    6    0  503 -0.45730377892E+02 -0.22623909484E+01 -0.96031374218E+02  0.10638801958E+03  0.00000000000E+00 0.  1.
<mgrwt>
<rscale>  0 0.18165409E+04</rscale>
<asrwt>0</asrwt>
<pdfrwt beam="1">  1        2 0.86583144E-01 0.18165409E+04</pdfrwt>
<pdfrwt beam="2">  1       -1 0.22551234E+00 0.18165409E+04</pdfrwt>
<totfact> 0.58323784E+00</totfact>
</mgrwt>
</event>
<event>
12    6  0.1647231E-007  0.1455986E+04  0.7818608E-02  0.8914261E-01
          2   -1    0    0  501    0  0.00000000000E+00  0.00000000000E+00  0.12724118447E+04  0.12724118447E+04  0.00000000000E+00 0. -1.
         -1   -1    0    0    0  501 -0.00000000000E+00 -0.00000000000E+00 -0.41651126694E+03  0.41651126694E+03  0.00000000000E+00 0.  1.
         24    2    1    2    0    0 -0.14743989164E+03 -0.19266599272E+03  0.68542009321E+03  0.73155760845E+03  0.80728705635E+02 0.  0.
        254    2    1    2    0    0  0.14743989164E+03  0.19266599272E+03  0.17048048455E+03  0.95736550318E+03  0.91028918739E+03 0.  0.
         23    2    4    4    0    0 -0.20517831316E+03 -0.13476166922E+03  0.34784633927E+03  0.43621956375E+03  0.95034648290E+02 0.  0.
         23    2    4    4    0    0  0.35261820481E+03  0.32742766195E+03 -0.17736585472E+03  0.52114593943E+03  0.92660517979E+02 0.  0.
          2    1    3    3  502    0 -0.14060152356E+03 -0.16751323851E+03  0.65942438114E+03  0.69474454870E+03  0.00000000000E+00 0. -1.
         -1    1    3    3    0  502 -0.68383680807E+01 -0.25152754216E+02  0.25995712066E+02  0.36813059754E+02  0.00000000000E+00 0.  1.
         11    1    5    5    0    0  0.82854176432E+01 -0.29827292608E+01  0.30203825634E+02  0.31461339805E+02  0.00000000000E+00 0. -1.
        -11    1    5    5    0    0 -0.21346373080E+03 -0.13177893996E+03  0.31764251363E+03  0.40475822395E+03  0.00000000000E+00 0.  1.
          1    1    6    6  503    0  0.43162583480E+02  0.48459320109E+02 -0.59784413297E+02  0.88235425943E+02  0.00000000000E+00 0. -1.
         -1    1    6    6    0  503  0.30945562133E+03  0.27896834184E+03 -0.11758144143E+03  0.43291051348E+03  0.00000000000E+00 0.  1.
<mgrwt>
<rscale>  0 0.14559861E+04</rscale>
<asrwt>0</asrwt>
<pdfrwt beam="1">  1        2 0.19575567E+00 0.14559861E+04</pdfrwt>
<pdfrwt beam="2">  1       -1 0.64078657E-01 0.14559861E+04</pdfrwt>
<totfact> 0.46829801E+01</totfact>
</mgrwt>
</event>
<event>
12    6  0.1647231E-007  0.1867074E+04  0.7818608E-02  0.8671422E-01
         -1   -1    0    0    0  501 -0.00000000000E+00  0.00000000000E+00  0.66865592671E+03  0.66865592671E+03  0.00000000000E+00 0.  1.
          2   -1    0    0  501    0  0.00000000000E+00 -0.00000000000E+00 -0.13033476883E+04  0.13033476883E+04  0.00000000000E+00 0. -1.
         24    2    1    2    0    0  0.15996471531E+03  0.56612090264E+03 -0.67241445293E+03  0.89573086727E+03  0.64117107907E+02 0.  0.
        254    2    1    2    0    0 -0.15996471531E+03 -0.56612090264E+03  0.37722691329E+02  0.10762727477E+04  0.90047678457E+03 0.  0.
         23    2    4    4    0    0 -0.20648338384E+03  0.14765485556E+03 -0.17802257563E+03  0.32315089602E+03  0.91088528339E+02 0.  0.
         23    2    4    4    0    0  0.46518668530E+02 -0.71377575820E+03  0.21574526695E+03  0.75312185172E+03  0.94903550066E+02 0.  0.
          2    1    3    3  502    0  0.16148606457E+03  0.53898798018E+03 -0.65484713119E+03  0.86337162164E+03  0.00000000000E+00 0. -1.
         -1    1    3    3    0  502 -0.15213492618E+01  0.27132922455E+02 -0.17567321744E+02  0.32359245631E+02  0.00000000000E+00 0.  1.
         11    1    5    5    0    0 -0.27192971926E+01  0.33461047259E-01 -0.32233432678E+02  0.32347950152E+02  0.00000000000E+00 0. -1.
        -11    1    5    5    0    0 -0.20376408665E+03  0.14762139451E+03 -0.14578914295E+03  0.29080294587E+03  0.00000000000E+00 0.  1.
          4    1    6    6  503    0 -0.20947344439E+02 -0.69690222122E+02  0.35079211728E+02  0.80784091218E+02  0.00000000000E+00 0. -1.
         -4    1    6    6    0  503  0.67466012969E+02 -0.64408553608E+03  0.18066605523E+03  0.67233776051E+03  0.00000000000E+00 0.  1.
<mgrwt>
<rscale>  0 0.18670738E+04</rscale>
<asrwt>0</asrwt>
<pdfrwt beam="1">  1        2 0.20051503E+00 0.18670738E+04</pdfrwt>
<pdfrwt beam="2">  1       -1 0.10287014E+00 0.18670738E+04</pdfrwt>
<totfact> 0.15730934E+01</totfact>
</mgrwt>
</event>
<event>
12    6  0.1647231E-007  0.1259597E+04  0.7818608E-02  0.9062234E-01
         -1   -1    0    0    0  501 -0.00000000000E+00  0.00000000000E+00  0.11676179115E+03  0.11676179115E+03  0.00000000000E+00 0.  1.
          2   -1    0    0  501    0  0.00000000000E+00 -0.00000000000E+00 -0.33970520883E+04  0.33970520883E+04  0.00000000000E+00 0. -1.
         24    2    1    2    0    0  0.12340136904E+03  0.23743022689E+02 -0.16072716313E+04  0.16141360154E+04  0.79506920115E+02 0.  0.
        254    2    1    2    0    0 -0.12340136904E+03 -0.23743022689E+02 -0.16730186659E+04  0.18996778641E+04  0.89106279352E+03 0.  0.
         23    2    4    4    0    0  0.18302045527E+03  0.20998359632E+03 -0.15674711387E+03  0.33241215717E+03  0.91315862581E+02 0.  0.
         23    2    4    4    0    0 -0.30642182431E+03 -0.23372661901E+03 -0.15162715520E+04  0.15672657069E+04  0.93380457543E+02 0.  0.
          4    1    3    3  502    0  0.98709980136E+02 -0.13973863320E+02 -0.12624199223E+04  0.12663502632E+04  0.00000000000E+00 0. -1.
         -3    1    3    3    0  502  0.24691388906E+02  0.37716886009E+02 -0.34485170902E+03  0.34778575214E+03  0.00000000000E+00 0.  1.
         11    1    5    5    0    0 -0.81220858844E+01  0.24518577605E+02 -0.22026238989E+02  0.33945310882E+02  0.00000000000E+00 0. -1.
        -11    1    5    5    0    0  0.19114254116E+03  0.18546501872E+03 -0.13472087488E+03  0.29846684629E+03  0.00000000000E+00 0.  1.
          3    1    6    6  503    0 -0.18199846304E+02 -0.39399337534E+02 -0.10100244379E+03  0.10993196012E+03  0.00000000000E+00 0. -1.
         -3    1    6    6    0  503 -0.28822197801E+03 -0.19432728148E+03 -0.14152691082E+04  0.14573337468E+04  0.00000000000E+00 0.  1.
<mgrwt>
<rscale>  0 0.12595966E+04</rscale>
<asrwt>0</asrwt>
<pdfrwt beam="1">  1        2 0.52262345E+00 0.12595966E+04</pdfrwt>
<pdfrwt beam="2">  1       -1 0.17963351E-01 0.12595966E+04</pdfrwt>
<totfact> 0.26770418E+01</totfact>
</mgrwt>
</event>
<event>
12    6  0.1647231E-007  0.1196473E+04  0.7818608E-02  0.9115949E-01
          2   -1    0    0  501    0  0.00000000000E+00  0.00000000000E+00  0.18307765889E+03  0.18307765889E+03  0.00000000000E+00 0. -1.
         -1   -1    0    0    0  501 -0.00000000000E+00 -0.00000000000E+00 -0.19548371362E+04  0.19548371362E+04  0.00000000000E+00 0.  1.
         24    2    1    2    0    0  0.30931752206E+03 -0.15700338555E+02 -0.31918606942E+03  0.45174508685E+03  0.79183625195E+02 0.  0.
        254    2    1    2    0    0 -0.30931752206E+03  0.15700338555E+02 -0.14525734079E+04  0.16861697083E+04  0.79829502664E+03 0.  0.
         23    2    4    4    0    0  0.22894091490E+03 -0.44398017756E+02 -0.20812229940E+03  0.32563083552E+03  0.91298537987E+02 0.  0.
         23    2    4    4    0    0 -0.53825843696E+03  0.60098356311E+02 -0.12444511085E+04  0.13605388728E+04  0.95254949130E+02 0.  0.
          2    1    3    3  502    0 -0.17426495369E+01  0.50640371418E+01  0.29307891373E+00  0.53635058340E+01  0.00000000000E+00 0. -1.
         -1    1    3    3    0  502  0.31106017160E+03 -0.20764375697E+02 -0.31947914833E+03  0.44638158102E+03  0.00000000000E+00 0.  1.
         11    1    5    5    0    0  0.19839352177E+03 -0.66335119227E+02 -0.19447306306E+03  0.28562232016E+03  0.00000000000E+00 0. -1.
        -11    1    5    5    0    0  0.30547393134E+02  0.21937101471E+02 -0.13649236343E+02  0.40008515356E+02  0.00000000000E+00 0.  1.
          2    1    6    6  503    0 -0.49335230106E+03  0.40594307105E+02 -0.11797965431E+04  0.12794390466E+04  0.00000000000E+00 0. -1.
         -2    1    6    6    0  503 -0.44906135905E+02  0.19504049206E+02 -0.64654565415E+02  0.81099826179E+02  0.00000000000E+00 0.  1.
<mgrwt>
<rscale>  0 0.11964732E+04</rscale>
<asrwt>0</asrwt>
<pdfrwt beam="1">  1        2 0.28165793E-01 0.11964732E+04</pdfrwt>
<pdfrwt beam="2">  1       -1 0.30074418E+00 0.11964732E+04</pdfrwt>
<totfact> 0.71261752E+00</totfact>
</mgrwt>
</event>
<event>
12    6  0.1647231E-007  0.1672570E+04  0.7818608E-02  0.8777165E-01
         -1   -1    0    0    0  501 -0.00000000000E+00  0.00000000000E+00  0.77315445933E+03  0.77315445933E+03  0.00000000000E+00 0.  1.
          2   -1    0    0  501    0  0.00000000000E+00 -0.00000000000E+00 -0.90457066631E+03  0.90457066631E+03  0.00000000000E+00 0. -1.
         24    2    1    2    0    0  0.15503660440E+03 -0.43649464168E+03 -0.41396710998E+03  0.62641133906E+03  0.80364647940E+02 0.  0.
        254    2    1    2    0    0 -0.15503660440E+03  0.43649464168E+03  0.28255090300E+03  0.10513137866E+04  0.90047861948E+03 0.  0.
         23    2    4    4    0    0  0.10842034755E+03  0.53682066449E+03 -0.10257434569E+03  0.56471350392E+03  0.91915436826E+02 0.  0.
         23    2    4    4    0    0 -0.26345695195E+03 -0.10032602281E+03  0.38512524870E+03  0.48660028266E+03  0.94781335262E+02 0.  0.
          2    1    3    3  502    0  0.76766792922E+02 -0.31909237223E+03 -0.30630323333E+03  0.44892622251E+03  0.00000000000E+00 0. -1.
         -1    1    3    3    0  502  0.78269811474E+02 -0.11740226945E+03 -0.10766387665E+03  0.17748511654E+03  0.00000000000E+00 0.  1.
         11    1    5    5    0    0  0.98471571778E+02  0.26316594625E+03 -0.39988107293E+02  0.28381686778E+03  0.00000000000E+00 0. -1.
        -11    1    5    5    0    0  0.99487757752E+01  0.27365471825E+03 -0.62586238400E+02  0.28089663614E+03  0.00000000000E+00 0.  1.
          2    1    6    6  503    0 -0.19619125338E+03 -0.39607155047E+02  0.30946907527E+03  0.36855236152E+03  0.00000000000E+00 0. -1.
         -2    1    6    6    0  503 -0.67265698571E+02 -0.60718867767E+02  0.75656173423E+02  0.11804792113E+03  0.00000000000E+00 0.  1.
<mgrwt>
<rscale>  0 0.16725703E+04</rscale>
<asrwt>0</asrwt>
<pdfrwt beam="1">  1        2 0.13916472E+00 0.16725703E+04</pdfrwt>
<pdfrwt beam="2">  1       -1 0.11894684E+00 0.16725703E+04</pdfrwt>
<totfact> 0.20046830E+01</totfact>
</mgrwt>
</event>
<event>
12    6  0.1647231E-007  0.2217894E+04  0.7818608E-02  0.8511017E-01
          2   -1    0    0  501    0  0.00000000000E+00  0.00000000000E+00  0.79969226313E+03  0.79969226313E+03  0.00000000000E+00 0. -1.
         -1   -1    0    0    0  501 -0.00000000000E+00 -0.00000000000E+00 -0.15377964378E+04  0.15377964378E+04  0.00000000000E+00 0.  1.
         24    2    1    2    0    0 -0.79799168199E+03 -0.14988471854E+03  0.15879836935E+03  0.83131410693E+03  0.81302330204E+02 0.  0.
        254    2    1    2    0    0  0.79799168199E+03  0.14988471854E+03 -0.89690254398E+03  0.15061745940E+04  0.89714635414E+03 0.  0.
         23    2    4    4    0    0  0.51608823527E+03  0.51811208427E+03 -0.50850432081E+03  0.89532805268E+03  0.90821138370E+02 0.  0.
         23    2    4    4    0    0  0.28190344672E+03 -0.36822736574E+03 -0.38839822318E+03  0.61084654130E+03  0.84966882362E+02 0.  0.
          2    1    3    3  502    0 -0.72710480872E+03 -0.11252316751E+03  0.14735851177E+03  0.75037150604E+03  0.00000000000E+00 0. -1.
         -1    1    3    3    0  502 -0.70886873272E+02 -0.37361551023E+02  0.11439857579E+02  0.80942600888E+02  0.00000000000E+00 0.  1.
         11    1    5    5    0    0  0.19275824286E+03  0.20784234416E+03 -0.25020901347E+03  0.37809883713E+03  0.00000000000E+00 0.  1.
        -11    1    5    5    0    0  0.32332999242E+03  0.31026974012E+03 -0.25829530733E+03  0.51722921555E+03  0.00000000000E+00 0. -1.
          4    1    6    6  503    0  0.20840415597E+03 -0.27780250859E+03 -0.23991031923E+03  0.42209416874E+03  0.00000000000E+00 0.  1.
         -4    1    6    6    0  503  0.73499290744E+02 -0.90424857146E+02 -0.14848790394E+03  0.18875237256E+03  0.00000000000E+00 0. -1.
<mgrwt>
<rscale>  0 0.22178944E+04</rscale>
<asrwt>0</asrwt>
<pdfrwt beam="1">  1        2 0.12302958E+00 0.22178944E+04</pdfrwt>
<pdfrwt beam="2">  1       -1 0.23658407E+00 0.22178944E+04</pdfrwt>
<totfact> 0.30640499E+00</totfact>
</mgrwt>
</event>
<event>
12    6  0.1647231E-007  0.1291920E+04  0.7818608E-02  0.9035998E-01
          2   -1    0    0  501    0  0.00000000000E+00  0.00000000000E+00  0.22096084479E+04  0.22096084479E+04  0.00000000000E+00 0. -1.
         -1   -1    0    0    0  501 -0.00000000000E+00 -0.00000000000E+00 -0.18884075175E+03  0.18884075175E+03  0.00000000000E+00 0.  1.
         24    2    1    2    0    0  0.57259580076E+02 -0.20725201133E+03  0.59501532179E+02  0.23750277401E+03  0.81455998051E+02 0.  0.
        254    2    1    2    0    0 -0.57259580076E+02  0.20725201133E+03  0.19612661639E+04  0.21609464256E+04  0.88141501738E+03 0.  0.
         23    2    4    4    0    0 -0.13974750430E+03  0.53279993079E+03  0.11557947266E+04  0.12836377675E+04  0.91974654571E+02 0.  0.
         23    2    4    4    0    0  0.82487924224E+02 -0.32554791947E+03  0.80547143737E+03  0.87730865808E+03  0.90002997745E+02 0.  0.
          4    1    3    3  502    0  0.75354448886E+01 -0.34069379687E+02  0.44714071074E+02  0.56717314058E+02  0.00000000000E+00 0. -1.
         -3    1    3    3    0  502  0.49724135187E+02 -0.17318263164E+03  0.14787461104E+02  0.18078545995E+03  0.00000000000E+00 0.  1.
         11    1    5    5    0    0 -0.62486520327E+02  0.39159436307E+03  0.85501673879E+03  0.94249898357E+03  0.00000000000E+00 0. -1.
        -11    1    5    5    0    0 -0.77260983973E+02  0.14120556773E+03  0.30077798778E+03  0.34113878398E+03  0.00000000000E+00 0.  1.
          1    1    6    6  503    0  0.51269619163E+02 -0.30049863049E+03  0.67085891156E+03  0.73687154918E+03  0.00000000000E+00 0. -1.
         -1    1    6    6    0  503  0.31218305061E+02 -0.25049288976E+02  0.13461252581E+03  0.14043710889E+03  0.00000000000E+00 0.  1.
<mgrwt>
<rscale>  0 0.12919197E+04</rscale>
<asrwt>0</asrwt>
<pdfrwt beam="1">  1        2 0.33993974E+00 0.12919197E+04</pdfrwt>
<pdfrwt beam="2">  1       -1 0.29052425E-01 0.12919197E+04</pdfrwt>
<totfact> 0.61635791E+01</totfact>
</mgrwt>
</event>
<event>
12    6  0.1647231E-007  0.2565598E+04  0.7818608E-02  0.8379981E-01
         -1   -1    0    0    0  501 -0.00000000000E+00  0.00000000000E+00  0.58998030452E+03  0.58998030452E+03  0.00000000000E+00 0.  1.
          2   -1    0    0  501    0  0.00000000000E+00 -0.00000000000E+00 -0.27892009026E+04  0.27892009026E+04  0.00000000000E+00 0. -1.
         24    2    1    2    0    0 -0.10072262726E+04  0.47043712723E+03 -0.11902591309E+04  0.16305822375E+04  0.79156679231E+02 0.  0.
        254    2    1    2    0    0  0.10072262726E+04 -0.47043712723E+03 -0.10089614672E+04  0.17485989696E+04  0.89653737197E+03 0.  0.
         23    2    4    4    0    0  0.65392315936E+03 -0.63968477689E+03 -0.98232876299E+03  0.13454692557E+04  0.92225850125E+02 0.  0.
         23    2    4    4    0    0  0.35330311322E+03  0.16924764966E+03 -0.26632704231E+02  0.40312971387E+03  0.91303934962E+02 0.  0.
          2    1    3    3  502    0 -0.22828136570E+03  0.11358165559E+03 -0.32239818929E+03  0.41103986044E+03  0.00000000000E+00 0. -1.
         -1    1    3    3    0  502 -0.77894490688E+03  0.35685547164E+03 -0.86786094160E+03  0.12195423771E+04  0.00000000000E+00 0.  1.
         11    1    5    5    0    0  0.52049814555E+03 -0.53842902264E+03 -0.84302574970E+03  0.11276154250E+04  0.00000000000E+00 0.  1.
        -11    1    5    5    0    0  0.13342501380E+03 -0.10125575425E+03 -0.13930301329E+03  0.21785383079E+03  0.00000000000E+00 0. -1.
          2    1    6    6  503    0  0.14128925414E+03  0.28765338774E+02 -0.36037889548E+02  0.14862310565E+03  0.00000000000E+00 0. -1.
         -2    1    6    6    0  503  0.21201385909E+03  0.14048231089E+03  0.94051853171E+01  0.25450660822E+03  0.00000000000E+00 0.  1.
<mgrwt>
<rscale>  0 0.25655983E+04</rscale>
<asrwt>0</asrwt>
<pdfrwt beam="1">  1        2 0.42910783E+00 0.25655983E+04</pdfrwt>
<pdfrwt beam="2">  1       -1 0.90766201E-01 0.25655983E+04</pdfrwt>
<totfact> 0.28066982E+00</totfact>
</mgrwt>
</event>
<event>
12    6  0.1647231E-007  0.1643738E+04  0.7818608E-02  0.8794120E-01
         -1   -1    0    0    0  501 -0.00000000000E+00  0.00000000000E+00  0.58790123691E+03  0.58790123691E+03  0.00000000000E+00 0.  1.
          2   -1    0    0  501    0  0.00000000000E+00 -0.00000000000E+00 -0.11489494766E+04  0.11489494766E+04  0.00000000000E+00 0. -1.
         24    2    1    2    0    0 -0.28442191584E+03  0.12721742112E+03  0.31257140924E+03  0.44808423896E+03  0.77449989583E+02 0.  0.
        254    2    1    2    0    0  0.28442191584E+03 -0.12721742112E+03 -0.87361964895E+03  0.12887664746E+04  0.89477798168E+03 0.  0.
         23    2    4    4    0    0  0.42808513224E+03 -0.41790994081E+03 -0.62280148913E+03  0.86861351196E+03  0.93285257247E+02 0.  0.
         23    2    4    4    0    0 -0.14366321641E+03  0.29069251969E+03 -0.25081815982E+03  0.42015296261E+03  0.92073350898E+02 0.  0.
          2    1    3    3  502    0 -0.20382352918E+02 -0.62933077831E+01  0.63084421610E+01  0.22245055087E+02  0.00000000000E+00 0. -1.
         -1    1    3    3    0  502 -0.26403956292E+03  0.13351072890E+03  0.30626296708E+03  0.42583918387E+03  0.00000000000E+00 0.  1.
         11    1    5    5    0    0  0.35098403867E+03 -0.29363663466E+03 -0.49832019392E+03  0.67656136772E+03  0.00000000000E+00 0. -1.
        -11    1    5    5    0    0  0.77101093573E+02 -0.12427330615E+03 -0.12448129521E+03  0.19205214424E+03  0.00000000000E+00 0.  1.
          1    1    6    6  503    0 -0.58181936883E+02  0.48760685723E+02 -0.29989427487E+02  0.81621737378E+02  0.00000000000E+00 0. -1.
         -1    1    6    6    0  503 -0.85481279524E+02  0.24193183396E+03 -0.22082873233E+03  0.33853122523E+03  0.00000000000E+00 0.  1.
<mgrwt>
<rscale>  0 0.16437382E+04</rscale>
<asrwt>0</asrwt>
<pdfrwt beam="1">  1        2 0.17676146E+00 0.16437382E+04</pdfrwt>
<pdfrwt beam="2">  1       -1 0.90446344E-01 0.16437382E+04</pdfrwt>
<totfact> 0.26481535E+01</totfact>
</mgrwt>
</event>
<event>
12    6  0.1647231E-007  0.1636452E+04  0.7818608E-02  0.8798462E-01
         -1   -1    0    0    0  501 -0.00000000000E+00  0.00000000000E+00  0.96567528363E+03  0.96567528363E+03  0.00000000000E+00 0.  1.
          2   -1    0    0  501    0  0.00000000000E+00 -0.00000000000E+00 -0.69329107557E+03  0.69329107557E+03  0.00000000000E+00 0. -1.
         24    2    1    2    0    0  0.41895723589E+03 -0.32140605702E+03  0.31265895863E+03  0.61670508080E+03  0.61176084231E+02 0.  0.
        254    2    1    2    0    0 -0.41895723589E+03  0.32140605702E+03 -0.40274750568E+02  0.10422612784E+04  0.89769677392E+03 0.  0.
         23    2    4    4    0    0  0.75238167207E+02  0.24814504430E+02  0.33016577799E+03  0.35110530999E+03  0.89380961666E+02 0.  0.
         23    2    4    4    0    0 -0.49419540310E+03  0.29659155259E+03 -0.37044052856E+03  0.69115596841E+03  0.90965608608E+02 0.  0.
          4    1    3    3  502    0  0.10191123581E+02 -0.36121696557E+00  0.10294223361E+00  0.10198042687E+02  0.00000000000E+00 0. -1.
         -3    1    3    3    0  502  0.40876611231E+03 -0.32104484006E+03  0.31255601639E+03  0.60650703812E+03  0.00000000000E+00 0.  1.
         11    1    5    5    0    0  0.12522517149E+02 -0.21550150648E+02  0.18168712274E+03  0.18338874828E+03  0.00000000000E+00 0.  1.
        -11    1    5    5    0    0  0.62715650057E+02  0.46364655078E+02  0.14847865525E+03  0.16771656170E+03  0.00000000000E+00 0. -1.
          1    1    6    6  503    0 -0.48025287589E+03  0.29646399962E+03 -0.37362665653E+03  0.67685346001E+03  0.00000000000E+00 0. -1.
         -1    1    6    6    0  503 -0.13942527216E+02  0.12755297552E+00  0.31861279669E+01  0.14302508393E+02  0.00000000000E+00 0.  1.
<mgrwt>
<rscale>  0 0.16364523E+04</rscale>
<asrwt>0</asrwt>
<pdfrwt beam="1">  1        2 0.10666016E+00 0.16364523E+04</pdfrwt>
<pdfrwt beam="2">  1       -1 0.14856543E+00 0.16364523E+04</pdfrwt>
<totfact> 0.16219760E+01</totfact>
</mgrwt>
</event>
<event>
12    6  0.1647231E-007  0.1366904E+04  0.7818608E-02  0.8978130E-01
         -1   -1    0    0    0  501 -0.00000000000E+00  0.00000000000E+00  0.23132484787E+03  0.23132484787E+03  0.00000000000E+00 0.  1.
          2   -1    0    0  501    0  0.00000000000E+00 -0.00000000000E+00 -0.20192669301E+04  0.20192669301E+04  0.00000000000E+00 0. -1.
         24    2    1    2    0    0 -0.63234326774E+02  0.13481008088E+03 -0.10749570799E+04  0.10880997436E+04  0.79094819429E+02 0.  0.
        254    2    1    2    0    0  0.63234326774E+02 -0.13481008088E+03 -0.71298500239E+03  0.11624920344E+04  0.90601753760E+03 0.  0.
         23    2    4    4    0    0  0.12737729642E+03 -0.94358813674E+02 -0.91212262543E+03  0.93030316793E+03  0.91475346836E+02 0.  0.
         23    2    4    4    0    0 -0.64142969641E+02 -0.40451267205E+02  0.19913762304E+03  0.23218886648E+03  0.92223918980E+02 0.  0.
          2    1    3    3  502    0 -0.16463230115E+02  0.33322699714E+02 -0.55634597063E+03  0.55758611828E+03  0.00000000000E+00 0. -1.
         -1    1    3    3    0  502 -0.46771096659E+02  0.10148738116E+03 -0.51861110924E+03  0.53051362531E+03  0.00000000000E+00 0.  1.
         11    1    5    5    0    0 -0.12549170511E+01  0.10697872589E+02 -0.18746759915E+02  0.21620830282E+02  0.00000000000E+00 0.  1.
        -11    1    5    5    0    0  0.12863221347E+03 -0.10505668626E+03 -0.89337586551E+03  0.90868233765E+03  0.00000000000E+00 0. -1.
          3    1    6    6  503    0 -0.80976071988E+02 -0.61976136813E+01  0.13738148805E+03  0.15959075133E+03  0.00000000000E+00 0. -1.
         -3    1    6    6    0  503  0.16833102346E+02 -0.34253653524E+02  0.61756134991E+02  0.72598115150E+02  0.00000000000E+00 0.  1.
<mgrwt>
<rscale>  0 0.13669040E+04</rscale>
<asrwt>0</asrwt>
<pdfrwt beam="1">  1        2 0.31065645E+00 0.13669040E+04</pdfrwt>
<pdfrwt beam="2">  1       -1 0.35588438E-01 0.13669040E+04</pdfrwt>
<totfact> 0.54593871E+01</totfact>
</mgrwt>
</event>
<event>
12    6  0.1647231E-007  0.2345815E+04  0.7818608E-02  0.8460073E-01
         -1   -1    0    0    0  501 -0.00000000000E+00  0.00000000000E+00  0.61786737255E+03  0.61786737255E+03  0.00000000000E+00 0.  1.
          2   -1    0    0  501    0  0.00000000000E+00 -0.00000000000E+00 -0.22265490486E+04  0.22265490486E+04  0.00000000000E+00 0. -1.
         24    2    1    2    0    0  0.25199878097E+03  0.71872267972E+03 -0.14694132936E+04  0.16570488048E+04  0.81053303866E+02 0.  0.
        254    2    1    2    0    0 -0.25199878097E+03 -0.71872267972E+03 -0.13926838245E+03  0.11873676164E+04  0.90021136300E+03 0.  0.
         23    2    4    4    0    0  0.19243142091E+03 -0.68843725939E+03 -0.42765181209E+02  0.72178265853E+03  0.90363895237E+02 0.  0.
         23    2    4    4    0    0 -0.44443020188E+03 -0.30285420328E+02 -0.96503201240E+02  0.46558495783E+03  0.94979335005E+02 0.  0.
          4    1    3    3  502    0  0.20620604841E+03  0.64658514837E+03 -0.13383848354E+04  0.15006222897E+04  0.00000000000E+00 0. -1.
         -3    1    3    3    0  502  0.45792732564E+02  0.72137531348E+02 -0.13102845814E+03  0.15642651511E+03  0.00000000000E+00 0.  1.
         11    1    5    5    0    0  0.19497725031E+02 -0.21892075395E+03 -0.23793100631E+02  0.22107141251E+03  0.00000000000E+00 0.  1.
        -11    1    5    5    0    0  0.17293369588E+03 -0.46951650544E+03 -0.18972080577E+02  0.50071124602E+03  0.00000000000E+00 0. -1.
          4    1    6    6  503    0 -0.26834082517E+03 -0.35407882517E+02 -0.13919476688E+02  0.27102447939E+03  0.00000000000E+00 0. -1.
         -4    1    6    6    0  503 -0.17608937671E+03  0.51224621890E+01 -0.82583724552E+02  0.19456047844E+03  0.00000000000E+00 0.  1.
<mgrwt>
<rscale>  0 0.23458150E+04</rscale>
<asrwt>0</asrwt>
<pdfrwt beam="1">  1        2 0.34254601E+00 0.23458150E+04</pdfrwt>
<pdfrwt beam="2">  1       -1 0.95056518E-01 0.23458150E+04</pdfrwt>
<totfact> 0.54819495E+00</totfact>
</mgrwt>
</event>
<event>
12    6  0.1647231E-007  0.1096609E+04  0.7818608E-02  0.9208504E-01
          2   -1    0    0  501    0  0.00000000000E+00  0.00000000000E+00  0.17123108661E+04  0.17123108661E+04  0.00000000000E+00 0. -1.
         -1   -1    0    0    0  501 -0.00000000000E+00 -0.00000000000E+00 -0.17557419336E+03  0.17557419336E+03  0.00000000000E+00 0.  1.
         24    2    1    2    0    0 -0.19876095364E+02 -0.15956996375E+03  0.33215761350E+03  0.37795251199E+03  0.81619780806E+02 0.  0.
        254    2    1    2    0    0  0.19876095364E+02  0.15956996375E+03  0.12045790593E+04  0.15099325475E+04  0.89611827091E+03 0.  0.
         23    2    4    4    0    0 -0.13071852964E+03 -0.43195098056E+02 -0.89148316549E+02  0.18862368627E+03  0.93157512797E+02 0.  0.
         23    2    4    4    0    0  0.15059462500E+03  0.20276506181E+03  0.12937273758E+04  0.13213088612E+04  0.91291688844E+02 0.  0.
          4    1    3    3  502    0  0.50910323980E+01 -0.11135891911E+03  0.28504951348E+03  0.30607180957E+03  0.00000000000E+00 0. -1.
         -3    1    3    3    0  502 -0.24967127762E+02 -0.48211044641E+02  0.47108100020E+02  0.71880702428E+02  0.00000000000E+00 0.  1.
         11    1    5    5    0    0 -0.26289080967E+02 -0.14363743906E+02  0.19057517754E+02  0.35505237642E+02  0.00000000000E+00 0. -1.
        -11    1    5    5    0    0 -0.10442944867E+03 -0.28831354150E+02 -0.10820583430E+03  0.15311844862E+03  0.00000000000E+00 0.  1.
          4    1    6    6  503    0  0.15983043751E+02  0.90535645110E+01  0.26076058044E+02  0.31896481327E+02  0.00000000000E+00 0. -1.
         -4    1    6    6    0  503  0.13461158125E+03  0.19371149729E+03  0.12676513178E+04  0.12894123799E+04  0.00000000000E+00 0.  1.
<mgrwt>
<rscale>  0 0.10966086E+04</rscale>
<asrwt>0</asrwt>
<pdfrwt beam="1">  1        2 0.26343243E+00 0.10966086E+04</pdfrwt>
<pdfrwt beam="2">  1       -1 0.27011416E-01 0.10966086E+04</pdfrwt>
<totfact> 0.13386181E+02</totfact>
</mgrwt>
</event>
<event>
12    6  0.1647231E-007  0.3547388E+04  0.7818608E-02  0.8102650E-01
         -1   -1    0    0    0  501 -0.00000000000E+00  0.00000000000E+00  0.18477854223E+04  0.18477854223E+04  0.00000000000E+00 0.  1.
          2   -1    0    0  501    0  0.00000000000E+00 -0.00000000000E+00 -0.17025738663E+04  0.17025738663E+04  0.00000000000E+00 0. -1.
         24    2    1    2    0    0  0.13242820192E+04 -0.51687454446E+03  0.90950552088E+03  0.16895035764E+04  0.79623370262E+02 0.  0.
        254    2    1    2    0    0 -0.13242820192E+04  0.51687454446E+03 -0.76429396487E+03  0.18608557122E+04  0.92615147574E+03 0.  0.
         23    2    4    4    0    0 -0.10470550914E+04  0.50486987133E+03 -0.14345306823E+03  0.11747495653E+04  0.90773382036E+02 0.  0.
         23    2    4    4    0    0 -0.27722692777E+03  0.12004673134E+02 -0.62084089664E+03  0.68610614698E+03  0.91100737231E+02 0.  0.
          4    1    3    3  502    0  0.10347760934E+04 -0.37286290836E+03  0.68291330375E+03  0.12946655523E+04  0.00000000000E+00 0. -1.
         -3    1    3    3    0  502  0.28950592576E+03 -0.14401163610E+03  0.22659221713E+03  0.39483802406E+03  0.00000000000E+00 0.  1.
         11    1    5    5    0    0 -0.91910042044E+03  0.44795940039E+03 -0.15541874389E+03  0.10341993005E+04  0.00000000000E+00 0.  1.
        -11    1    5    5    0    0 -0.12795467096E+03  0.56910470943E+02  0.11965675659E+02  0.14055026474E+03  0.00000000000E+00 0. -1.
          1    1    6    6  503    0 -0.26971105103E+01  0.13915888048E+01  0.31116432817E+01  0.43466364490E+01  0.00000000000E+00 0. -1.
         -1    1    6    6    0  503 -0.27452981726E+03  0.10613084329E+02 -0.62395253992E+03  0.68175951053E+03  0.00000000000E+00 0.  1.
<mgrwt>
<rscale>  0 0.35473884E+04</rscale>
<asrwt>0</asrwt>
<pdfrwt beam="1">  1        2 0.26193444E+00 0.35473884E+04</pdfrwt>
<pdfrwt beam="2">  1       -1 0.28427468E+00 0.35473884E+04</pdfrwt>
<totfact> 0.38024297E-01</totfact>
</mgrwt>
</event>
<event>
12    6  0.1647231E-007  0.1954416E+04  0.7818608E-02  0.8628234E-01
         -1   -1    0    0    0  501 -0.00000000000E+00  0.00000000000E+00  0.63549753029E+03  0.63549753029E+03  0.00000000000E+00 0.  1.
          2   -1    0    0  501    0  0.00000000000E+00 -0.00000000000E+00 -0.15026574209E+04  0.15026574209E+04  0.00000000000E+00 0. -1.
         24    2    1    2    0    0  0.18522012410E+03  0.67962851548E+03 -0.62179869373E+03  0.94304662250E+03  0.80634380128E+02 0.  0.
        254    2    1    2    0    0 -0.18522012410E+03 -0.67962851548E+03 -0.24536119689E+03  0.11951083287E+04  0.93374535444E+03 0.  0.
         23    2    4    4    0    0  0.41204939719E+02 -0.85947613661E+03 -0.15810905963E+03  0.87973860287E+03  0.92436238379E+02 0.  0.
         23    2    4    4    0    0 -0.22642506382E+03  0.17984762113E+03 -0.87252137251E+02  0.31536972582E+03  0.90728452858E+02 0.  0.
          4    1    3    3  502    0  0.18152092507E+03  0.59834487181E+03 -0.57333645506E+03  0.84834021628E+03  0.00000000000E+00 0. -1.
         -3    1    3    3    0  502  0.36991990264E+01  0.81283643672E+02 -0.48462238670E+02  0.94706406219E+02  0.00000000000E+00 0.  1.
         11    1    5    5    0    0 -0.10923456891E+02 -0.35888804225E+03 -0.29455344262E+02  0.36026041427E+03  0.00000000000E+00 0. -1.
        -11    1    5    5    0    0  0.52128396610E+02 -0.50058809436E+03 -0.12865371537E+03  0.51947818860E+03  0.00000000000E+00 0.  1.
          1    1    6    6  503    0 -0.45010497304E+02  0.12164259068E+01  0.32995755195E+01  0.45147666143E+02  0.00000000000E+00 0. -1.
         -1    1    6    6    0  503 -0.18141456651E+03  0.17863119523E+03 -0.90551712771E+02  0.27022205968E+03  0.00000000000E+00 0.  1.
<mgrwt>
<rscale>  0 0.19544156E+04</rscale>
<asrwt>0</asrwt>
<pdfrwt beam="1">  1        2 0.23117806E+00 0.19544156E+04</pdfrwt>
<pdfrwt beam="2">  1       -1 0.97768851E-01 0.19544156E+04</pdfrwt>
<totfact> 0.13486638E+01</totfact>
</mgrwt>
</event>
<event>
12    6  0.1647231E-007  0.1035867E+04  0.7818608E-02  0.9270058E-01
         -1   -1    0    0    0  501 -0.00000000000E+00  0.00000000000E+00  0.39525660998E+03  0.39525660998E+03  0.00000000000E+00 0.  1.
          2   -1    0    0  501    0  0.00000000000E+00 -0.00000000000E+00 -0.67868580609E+03  0.67868580609E+03  0.00000000000E+00 0. -1.
         24    2    1    2    0    0 -0.11505521321E+02  0.72921323326E+02  0.30440324197E+02  0.11302198893E+03  0.79984124847E+02 0.  0.
        254    2    1    2    0    0  0.11505521321E+02 -0.72921323326E+02 -0.31386952031E+03  0.96092042715E+03  0.90520942058E+03 0.  0.
         23    2    4    4    0    0 -0.34475438200E+03 -0.34370647371E+02 -0.44237839497E+03  0.56876099393E+03  0.88053952625E+02 0.  0.
         23    2    4    4    0    0  0.35625990332E+03 -0.38550675955E+02  0.12850887466E+03  0.39215943322E+03  0.94165900762E+02 0.  0.
          4    1    3    3  502    0 -0.34107022845E+02  0.95130850770E+01 -0.68530984236E+01  0.36065950050E+02  0.00000000000E+00 0. -1.
         -3    1    3    3    0  502  0.22601501525E+02  0.63408238249E+02  0.37293422621E+02  0.76956038878E+02  0.00000000000E+00 0.  1.
         11    1    5    5    0    0 -0.10698654323E+02 -0.14658995852E+02 -0.49287669705E+02  0.52522583226E+02  0.00000000000E+00 0.  1.
        -11    1    5    5    0    0 -0.33405572767E+03 -0.19711651519E+02 -0.39309072527E+03  0.51623841070E+03  0.00000000000E+00 0. -1.
          1    1    6    6  503    0  0.30249749881E+03 -0.89171702732E+01  0.77629192135E+02  0.31242686213E+03  0.00000000000E+00 0. -1.
         -1    1    6    6    0  503  0.53762404509E+02 -0.29633505682E+02  0.50879682528E+02  0.79732571084E+02  0.00000000000E+00 0.  1.
<mgrwt>
<rscale>  0 0.10358669E+04</rscale>
<asrwt>0</asrwt>
<pdfrwt beam="1">  1        2 0.10441320E+00 0.10358669E+04</pdfrwt>
<pdfrwt beam="2">  1       -1 0.60808710E-01 0.10358669E+04</pdfrwt>
<totfact> 0.13300598E+02</totfact>
</mgrwt>
</event>
<event>
12    6  0.1820607E-007  0.1754862E+04  0.7818608E-02  0.8730678E-01
          2   -1    0    0  501    0  0.00000000000E+00  0.00000000000E+00  0.31341536178E+04  0.31341536178E+04  0.00000000000E+00 0. -1.
         -1   -1    0    0    0  501 -0.00000000000E+00 -0.00000000000E+00 -0.24564379823E+03  0.24564379823E+03  0.00000000000E+00 0.  1.
         24    2    1    2    0    0 -0.64139882147E+02 -0.63515970508E+01  0.22812188179E+04  0.22833441576E+04  0.74478048013E+02 0.  0.
        254    2    1    2    0    0  0.64139882147E+02  0.63515970508E+01  0.60729100168E+03  0.10964532584E+04  0.91063336197E+03 0.  0.
         23    2    4    4    0    0  0.16843599862E+03 -0.28427202158E+03 -0.66975352970E+02  0.34908055298E+03  0.90500092127E+02 0.  0.
         23    2    4    4    0    0 -0.10429611647E+03  0.29062361864E+03  0.67426635465E+03  0.74737270545E+03  0.92688058702E+02 0.  0.
          4    1    3    3  502    0 -0.63114654127E+02 -0.17054581294E+02  0.22323218661E+04  0.22332790314E+04  0.00000000000E+00 0. -1.
         -3    1    3    3    0  502 -0.10252280199E+01  0.10702984243E+02  0.48896951839E+02  0.50065126219E+02  0.00000000000E+00 0.  1.
         11    1    5    5    0    0  0.13529547593E+03 -0.26688494649E+03 -0.37739839084E+02  0.30159034455E+03  0.00000000000E+00 0. -1.
        -11    1    5    5    0    0  0.33140522694E+02 -0.17387075095E+02 -0.29235513886E+02  0.47490208433E+02  0.00000000000E+00 0.  1.
          2    1    6    6  503    0 -0.76379297789E+02  0.27181554494E+03  0.54497582867E+03  0.61377205983E+03  0.00000000000E+00 0. -1.
         -2    1    6    6    0  503 -0.27916818685E+02  0.18808073698E+02  0.12929052598E+03  0.13360064562E+03  0.00000000000E+00 0.  1.
<mgrwt>
<rscale>  0 0.17548623E+04</rscale>
<asrwt>0</asrwt>
<pdfrwt beam="1">  1        2 0.48217745E+00 0.17548623E+04</pdfrwt>
<pdfrwt beam="2">  1       -1 0.37791356E-01 0.17548623E+04</pdfrwt>
<totfact> 0.10482967E+01</totfact>
</mgrwt>
</event>
<event>
12    6  0.1647231E-007  0.1182901E+04  0.7818608E-02  0.9127956E-01
          2   -1    0    0  501    0  0.00000000000E+00  0.00000000000E+00  0.26470174544E+04  0.26470174544E+04  0.00000000000E+00 0. -1.
         -1   -1    0    0    0  501 -0.00000000000E+00 -0.00000000000E+00 -0.13215400260E+03  0.13215400260E+03  0.00000000000E+00 0.  1.
         24    2    1    2    0    0 -0.10463406523E+03 -0.21175556605E+03  0.61044568391E+03  0.65964638957E+03  0.81857919035E+02 0.  0.
        254    2    1    2    0    0  0.10463406523E+03  0.21175556605E+03  0.19044177679E+04  0.21195250675E+04  0.89988375332E+03 0.  0.
         23    2    4    4    0    0 -0.21966827997E+03 -0.20410203783E+03  0.32234665138E+03  0.44943385911E+03  0.90397096125E+02 0.  0.
         23    2    4    4    0    0  0.32430234519E+03  0.41585760388E+03  0.15820711166E+04  0.16700912084E+04  0.90255573953E+02 0.  0.
          2    1    3    3  502    0 -0.48957475234E+02 -0.12501915683E+03  0.44415554415E+03  0.46400514152E+03  0.00000000000E+00 0. -1.
         -1    1    3    3    0  502 -0.55676589993E+02 -0.86736409219E+02  0.16629013975E+03  0.19564124805E+03  0.00000000000E+00 0.  1.
         11    1    5    5    0    0 -0.21547731700E+02 -0.33659314160E+02  0.82161705600E+01  0.40801466025E+02  0.00000000000E+00 0. -1.
        -11    1    5    5    0    0 -0.19812054827E+03 -0.17044272367E+03  0.31413048082E+03  0.40863239309E+03  0.00000000000E+00 0.  1.
          4    1    6    6  503    0  0.68953845176E+02  0.94771896435E+02  0.48113724155E+03  0.49520641184E+03  0.00000000000E+00 0. -1.
         -4    1    6    6    0  503  0.25534850002E+03  0.32108570745E+03  0.11009338750E+04  0.11748847965E+04  0.00000000000E+00 0.  1.
<mgrwt>
<rscale>  0 0.11829014E+04</rscale>
<asrwt>0</asrwt>
<pdfrwt beam="1">  1        2 0.40723342E+00 0.11829014E+04</pdfrwt>
<pdfrwt beam="2">  1       -1 0.20331387E-01 0.11829014E+04</pdfrwt>
<totfact> 0.64492904E+01</totfact>
</mgrwt>
</event>
<event>
12    6  0.1647231E-007  0.1635895E+04  0.7818608E-02  0.8798795E-01
          2   -1    0    0  501    0  0.00000000000E+00  0.00000000000E+00  0.14829631235E+04  0.14829631235E+04  0.00000000000E+00 0. -1.
         -1   -1    0    0    0  501 -0.00000000000E+00 -0.00000000000E+00 -0.45114979526E+03  0.45114979526E+03  0.00000000000E+00 0.  1.
         24    2    1    2    0    0  0.23467448135E+03  0.12430610355E+03  0.93898970956E+03  0.97904959028E+03  0.79450021928E+02 0.  0.
        254    2    1    2    0    0 -0.23467448135E+03 -0.12430610355E+03  0.92823618724E+02  0.95506332853E+03  0.91269141429E+03 0.  0.
         23    2    4    4    0    0  0.21561738800E+03 -0.26251345212E+03 -0.18826404531E+03  0.39868210827E+03  0.89999456369E+02 0.  0.
         23    2    4    4    0    0 -0.45029186935E+03  0.13820734857E+03  0.28108766403E+03  0.55638122026E+03  0.93197363625E+02 0.  0.
          4    1    3    3  502    0  0.12178458925E+03  0.34252778009E+02  0.54322612187E+03  0.55776281559E+03  0.00000000000E+00 0. -1.
         -3    1    3    3    0  502  0.11288989210E+03  0.90053325538E+02  0.39576358769E+03  0.42128677468E+03  0.00000000000E+00 0.  1.
         11    1    5    5    0    0  0.16425188146E+02 -0.10190179978E+02 -0.40499463366E+02  0.44875751877E+02  0.00000000000E+00 0. -1.
        -11    1    5    5    0    0  0.19919219985E+03 -0.25232327214E+03 -0.14776458194E+03  0.35380635639E+03  0.00000000000E+00 0.  1.
          4    1    6    6  503    0 -0.11672357365E+03  0.22263634706E+02  0.11776781348E+03  0.16730008956E+03  0.00000000000E+00 0. -1.
         -4    1    6    6    0  503 -0.33356829570E+03  0.11594371386E+03  0.16331985055E+03  0.38908113070E+03  0.00000000000E+00 0.  1.
<mgrwt>
<rscale>  0 0.16358955E+04</rscale>
<asrwt>0</asrwt>
<pdfrwt beam="1">  1        2 0.22814817E+00 0.16358955E+04</pdfrwt>
<pdfrwt beam="2">  1       -1 0.69407662E-01 0.16358955E+04</pdfrwt>
<totfact> 0.29694971E+01</totfact>
</mgrwt>
</event>
<event>
12    6  0.1647231E-007  0.2520060E+04  0.7818608E-02  0.8395874E-01
         -1   -1    0    0    0  501 -0.00000000000E+00  0.00000000000E+00  0.85528883682E+03  0.85528883682E+03  0.00000000000E+00 0.  1.
          2   -1    0    0  501    0  0.00000000000E+00 -0.00000000000E+00 -0.18563038618E+04  0.18563038618E+04  0.00000000000E+00 0. -1.
         24    2    1    2    0    0 -0.80327248135E+03  0.37037275446E+03 -0.11309648271E+04  0.14380416120E+04  0.80371520026E+02 0.  0.
        254    2    1    2    0    0  0.80327248135E+03 -0.37037275446E+03  0.12994980207E+03  0.12735510866E+04  0.90698553610E+03 0.  0.
         23    2    4    4    0    0 -0.77958819779E+02 -0.27711857818E+03 -0.15274585348E+03  0.33840751183E+03  0.91192457765E+02 0.  0.
         23    2    4    4    0    0  0.88123130113E+03 -0.93254176275E+02  0.28269565555E+03  0.93514357481E+03  0.96497276455E+02 0.  0.
          4    1    3    3  502    0 -0.32816415109E+03  0.18988122321E+03 -0.51381254349E+03  0.63855298828E+03  0.00000000000E+00 0. -1.
         -3    1    3    3    0  502 -0.47510833026E+03  0.18049153125E+03 -0.61715228360E+03  0.79948862374E+03  0.00000000000E+00 0.  1.
         11    1    5    5    0    0 -0.33739297644E+02 -0.15869012956E+03 -0.35680786421E+02  0.16611446639E+03  0.00000000000E+00 0.  1.
        -11    1    5    5    0    0 -0.44219522135E+02 -0.11842844862E+03 -0.11706506706E+03  0.17229304543E+03  0.00000000000E+00 0. -1.
          2    1    6    6  503    0  0.78447488840E+03 -0.74663810757E+02  0.28093943943E+03  0.83660175937E+03  0.00000000000E+00 0. -1.
         -2    1    6    6    0  503  0.96756412728E+02 -0.18590365519E+02  0.17562161247E+01  0.98541815435E+02  0.00000000000E+00 0.  1.
<mgrwt>
<rscale>  0 0.25200603E+04</rscale>
<asrwt>0</asrwt>
<pdfrwt beam="1">  1        2 0.28558521E+00 0.25200603E+04</pdfrwt>
<pdfrwt beam="2">  1       -1 0.13158290E+00 0.25200603E+04</pdfrwt>
<totfact> 0.40020497E+00</totfact>
</mgrwt>
</event>
<event>
12    6  0.1647231E-007  0.2961262E+04  0.7818608E-02  0.8254880E-01
          2   -1    0    0  501    0  0.00000000000E+00  0.00000000000E+00  0.34147703188E+04  0.34147703188E+04  0.00000000000E+00 0. -1.
         -1   -1    0    0    0  501 -0.00000000000E+00 -0.00000000000E+00 -0.64199573847E+03  0.64199573847E+03  0.00000000000E+00 0.  1.
         24    2    1    2    0    0 -0.12176299355E+04 -0.77731429357E+02  0.49008445189E+03  0.13173846812E+04  0.81576917458E+02 0.  0.
        254    2    1    2    0    0  0.12176299355E+04  0.77731429357E+02  0.22826901284E+04  0.27393813760E+04  0.89714617873E+03 0.  0.
         23    2    4    4    0    0  0.11724754616E+04  0.23270458342E+03  0.22535891924E+04  0.25526247859E+04  0.91536431870E+02 0.  0.
         23    2    4    4    0    0  0.45154473915E+02 -0.15497315407E+03  0.29100935958E+02  0.18675659007E+03  0.89305959846E+02 0.  0.
          4    1    3    3  502    0 -0.56869910426E+03 -0.41619918915E+02  0.18562835976E+03  0.59967389203E+03  0.00000000000E+00 0. -1.
         -1    1    3    3    0  502 -0.64893083122E+03 -0.36111510442E+02  0.30445609213E+03  0.71771078920E+03  0.00000000000E+00 0.  1.
         11    1    5    5    0    0  0.11354631411E+03  0.38361764111E+02  0.27773415053E+03  0.30249074162E+03  0.00000000000E+00 0. -1.
        -11    1    5    5    0    0  0.10589291475E+04  0.19434281931E+03  0.19758550419E+04  0.22501340443E+04  0.00000000000E+00 0.  1.
          3    1    6    6  503    0  0.35211232238E+02 -0.12181567366E+03  0.60067880952E+02  0.14031051117E+03  0.00000000000E+00 0. -1.
         -3    1    6    6    0  503  0.99432416772E+01 -0.33157480411E+02 -0.30966944994E+02  0.46446078893E+02  0.00000000000E+00 0.  1.
<mgrwt>
<rscale>  0 0.29612619E+04</rscale>
<asrwt>0</asrwt>
<pdfrwt beam="1">  1        2 0.52534927E+00 0.29612619E+04</pdfrwt>
<pdfrwt beam="2">  1       -1 0.98768578E-01 0.29612619E+04</pdfrwt>
<totfact> 0.89041867E-01</totfact>
</mgrwt>
</event>
<event>
12    6  0.1647231E-007  0.3580477E+04  0.7818608E-02  0.8094978E-01
          2   -1    0    0  501    0  0.00000000000E+00  0.00000000000E+00  0.14930209961E+04  0.14930209961E+04  0.00000000000E+00 0. -1.
         -1   -1    0    0    0  501 -0.00000000000E+00 -0.00000000000E+00 -0.21466232651E+04  0.21466232651E+04  0.00000000000E+00 0.  1.
         24    2    1    2    0    0  0.69609269267E+03  0.13690903983E+04  0.36426038298E+03  0.15807534560E+04  0.84512168063E+02 0.  0.
        254    2    1    2    0    0 -0.69609269267E+03 -0.13690903983E+04 -0.10178626520E+04  0.20588908051E+04  0.91871291145E+03 0.  0.
         23    2    4    4    0    0 -0.63436171044E+03 -0.28777150181E+03 -0.40925377276E+03  0.81293797880E+03  0.90290032334E+02 0.  0.
         23    2    4    4    0    0 -0.61730982235E+02 -0.10813188965E+04 -0.60860887922E+03  0.12459528263E+04  0.94511414631E+02 0.  0.
          4    1    3    3  502    0  0.54234552045E+03  0.10964609368E+04  0.25763381358E+03  0.12500961689E+04  0.00000000000E+00 0. -1.
         -3    1    3    3    0  502  0.15374717222E+03  0.27262946149E+03  0.10662656939E+03  0.33065728714E+03  0.00000000000E+00 0.  1.
         11    1    5    5    0    0 -0.34182144251E+02  0.17956745666E+00 -0.61850738046E+01  0.34737679370E+02  0.00000000000E+00 0.  1.
        -11    1    5    5    0    0 -0.60017956619E+03 -0.28795106927E+03 -0.40306869896E+03  0.77820029943E+03  0.00000000000E+00 0. -1.
          1    1    6    6  503    0  0.89032958608E+00 -0.52914045793E+03 -0.25607597247E+03  0.58784804208E+03  0.00000000000E+00 0. -1.
         -1    1    6    6    0  503 -0.62621311821E+02 -0.55217843858E+03 -0.35253290675E+03  0.65810478427E+03  0.00000000000E+00 0.  1.
<mgrwt>
<rscale>  0 0.35804768E+04</rscale>
<asrwt>0</asrwt>
<pdfrwt beam="1">  1        2 0.22969554E+00 0.35804768E+04</pdfrwt>
<pdfrwt beam="2">  1       -1 0.33024973E+00 0.35804768E+04</pdfrwt>
<totfact> 0.24962924E-01</totfact>
</mgrwt>
</event>
<event>
12    6  0.1647231E-007  0.2341884E+04  0.7818608E-02  0.8461587E-01
          2   -1    0    0  501    0  0.00000000000E+00  0.00000000000E+00  0.23112498257E+04  0.23112498257E+04  0.00000000000E+00 0. -1.
         -1   -1    0    0    0  501 -0.00000000000E+00 -0.00000000000E+00 -0.59323117836E+03  0.59323117836E+03  0.00000000000E+00 0.  1.
         24    2    1    2    0    0  0.85091221234E+03  0.46518953690E+03  0.47753327196E+03  0.10838093286E+04  0.78433006959E+02 0.  0.
        254    2    1    2    0    0 -0.85091221234E+03 -0.46518953690E+03  0.12404853754E+04  0.18206716755E+04  0.91410529208E+03 0.  0.
         23    2    4    4    0    0  0.13591632130E+03 -0.14586681228E+03  0.49134438454E+03  0.53801081805E+03  0.91027264065E+02 0.  0.
         23    2    4    4    0    0 -0.98682853364E+03 -0.31932272462E+03  0.74914099088E+03  0.12826608575E+04  0.90604049349E+02 0.  0.
          4    1    3    3  502    0  0.17296857983E+03  0.13125044586E+03  0.11241753105E+03  0.24450462252E+03  0.00000000000E+00 0. -1.
         -3    1    3    3    0  502  0.67794363250E+03  0.33393909103E+03  0.36511574091E+03  0.83930470607E+03  0.00000000000E+00 0.  1.
         11    1    5    5    0    0 -0.44815498528E+01 -0.20182552597E+02  0.11810788309E+03  0.11990367704E+03  0.00000000000E+00 0.  1.
        -11    1    5    5    0    0  0.14039787116E+03 -0.12568425968E+03  0.37323650145E+03  0.41810714102E+03  0.00000000000E+00 0. -1.
          1    1    6    6  503    0 -0.93313309466E+03 -0.27997280571E+03  0.70922851707E+03  0.12050424199E+04  0.00000000000E+00 0. -1.
         -1    1    6    6    0  503 -0.53695438979E+02 -0.39349918908E+02  0.39912473813E+02  0.77618437571E+02  0.00000000000E+00 0.  1.
<mgrwt>
<rscale>  0 0.23418842E+04</rscale>
<asrwt>0</asrwt>
<pdfrwt beam="1">  1        2 0.35557689E+00 0.23418842E+04</pdfrwt>
<pdfrwt beam="2">  1       -1 0.91266336E-01 0.23418842E+04</pdfrwt>
<totfact> 0.53776504E+00</totfact>
</mgrwt>
</event>
<event>
12    6  0.1647231E-007  0.1895311E+04  0.7818608E-02  0.8657194E-01
         -3   -1    0    0    0  501 -0.00000000000E+00  0.00000000000E+00  0.10238964355E+04  0.10238964355E+04  0.00000000000E+00 0.  1.
          2   -1    0    0  501    0  0.00000000000E+00 -0.00000000000E+00 -0.87709202530E+03  0.87709202530E+03  0.00000000000E+00 0. -1.
         24    2    1    2    0    0 -0.22219862743E+03  0.25169824194E+03 -0.59632395611E+03  0.68935963914E+03  0.83007327512E+02 0.  0.
        254    2    1    2    0    0  0.22219862743E+03 -0.25169824194E+03  0.74312836632E+03  0.12116288217E+04  0.89614753119E+03 0.  0.
         23    2    4    4    0    0 -0.25654693636E+03  0.15770750656E+02 -0.17068504820E+02  0.26998888084E+03  0.80855517995E+02 0.  0.
         23    2    4    4    0    0  0.47874556379E+03 -0.26746899260E+03  0.76019687114E+03  0.94163994083E+03  0.89719108439E+02 0.  0.
          4    1    3    3  502    0 -0.11481521721E+03  0.18060192650E+03 -0.41531144665E+03  0.46720786346E+03  0.00000000000E+00 0. -1.
         -3    1    3    3    0  502 -0.10738341021E+03  0.71096315445E+02 -0.18101250946E+03  0.22215177569E+03  0.00000000000E+00 0.  1.
         11    1    5    5    0    0 -0.20400589393E+03  0.34028708501E+02  0.12107270527E+02  0.20717853113E+03  0.00000000000E+00 0.  1.
        -11    1    5    5    0    0 -0.52541042428E+02 -0.18257957845E+02 -0.29175775347E+02  0.62810349714E+02  0.00000000000E+00 0. -1.
          2    1    6    6  503    0  0.82317911895E+02 -0.21918068243E+02  0.16332928152E+03  0.18420937690E+03  0.00000000000E+00 0. -1.
         -2    1    6    6    0  503  0.39642765189E+03 -0.24555092435E+03  0.59686758962E+03  0.75743056393E+03  0.00000000000E+00 0.  1.
<mgrwt>
<rscale>  0 0.18953115E+04</rscale>
<asrwt>0</asrwt>
<pdfrwt beam="1">  1        2 0.13493723E+00 0.18953115E+04</pdfrwt>
<pdfrwt beam="2">  1       -3 0.15752253E+00 0.18953115E+04</pdfrwt>
<totfact> 0.50937953E+00</totfact>
</mgrwt>
</event>
<event>
12    6  0.1647231E-007  0.3337926E+04  0.7818608E-02  0.8153312E-01
         -3   -1    0    0    0  501 -0.00000000000E+00  0.00000000000E+00  0.10137987445E+04  0.10137987445E+04  0.00000000000E+00 0.  1.
          2   -1    0    0  501    0  0.00000000000E+00 -0.00000000000E+00 -0.27475251087E+04  0.27475251087E+04  0.00000000000E+00 0. -1.
         24    2    1    2    0    0  0.94830576555E+02  0.15227954561E+04 -0.11061249159E+04  0.18862471691E+04  0.80729263028E+02 0.  0.
        254    2    1    2    0    0 -0.94830576555E+02 -0.15227954561E+04 -0.62760144829E+03  0.18750766841E+04  0.89113980611E+03 0.  0.
         23    2    4    4    0    0 -0.38105399773E+03 -0.13563404929E+04 -0.41365597310E+03  0.14711580544E+04  0.91285677606E+02 0.  0.
         23    2    4    4    0    0  0.28622342118E+03 -0.16645496315E+03 -0.21394547520E+03  0.40391862972E+03  0.88014155055E+02 0.  0.
          4    1    3    3  502    0  0.86705585844E+02  0.14384291714E+04 -0.10660087145E+04  0.17924761976E+04  0.00000000000E+00 0. -1.
         -3    1    3    3    0  502  0.81249907109E+01  0.84366284705E+02 -0.40116201415E+02  0.93770971441E+02  0.00000000000E+00 0.  1.
         11    1    5    5    0    0 -0.24437247363E+03 -0.79004451875E+03 -0.28366970090E+03  0.87427498345E+03  0.00000000000E+00 0. -1.
        -11    1    5    5    0    0 -0.13668152410E+03 -0.56629597418E+03 -0.12998627220E+03  0.59688307093E+03  0.00000000000E+00 0.  1.
          1    1    6    6  503    0  0.18449621476E+03 -0.15246718166E+03 -0.13882938582E+03  0.27669241607E+03  0.00000000000E+00 0. -1.
         -1    1    6    6    0  503  0.10172720641E+03 -0.13987781492E+02 -0.75116089374E+02  0.12722621365E+03  0.00000000000E+00 0.  1.
<mgrwt>
<rscale>  0 0.33379260E+04</rscale>
<asrwt>0</asrwt>
<pdfrwt beam="1">  1        2 0.42269616E+00 0.33379260E+04</pdfrwt>
<pdfrwt beam="2">  1       -3 0.15596904E+00 0.33379260E+04</pdfrwt>
<totfact> 0.38350978E-01</totfact>
</mgrwt>
</event>
<event>
12    6  0.1647231E-007  0.4088573E+04  0.7818608E-02  0.7986913E-01
         -1   -1    0    0    0  501 -0.00000000000E+00  0.00000000000E+00  0.28856040969E+04  0.28856040969E+04  0.00000000000E+00 0.  1.
          2   -1    0    0  501    0  0.00000000000E+00 -0.00000000000E+00 -0.14482609677E+04  0.14482609677E+04  0.00000000000E+00 0. -1.
         24    2    1    2    0    0 -0.89199334227E+03 -0.34277792736E+03 -0.11112445176E+04  0.14677856117E+04  0.79883627145E+02 0.  0.
        254    2    1    2    0    0  0.89199334227E+03  0.34277792736E+03  0.25485876469E+04  0.28660794529E+04  0.89775475827E+03 0.  0.
         23    2    4    4    0    0  0.75520740556E+03 -0.33366643437E+02  0.96195536845E+03  0.12270988335E+04  0.94667090174E+02 0.  0.
         23    2    4    4    0    0  0.13678593671E+03  0.37614457079E+03  0.15866322785E+04  0.16389806194E+04  0.93061017596E+02 0.  0.
          4    1    3    3  502    0 -0.45551994021E+03 -0.21537363419E+03 -0.60431384998E+03  0.78681601884E+03  0.00000000000E+00 0. -1.
         -3    1    3    3    0  502 -0.43647340206E+03 -0.12740429317E+03 -0.50693066766E+03  0.68096959289E+03  0.00000000000E+00 0.  1.
         11    1    5    5    0    0  0.68137769989E+03 -0.94788918956E+01  0.89288324536E+03  0.11232123170E+04  0.00000000000E+00 0. -1.
        -11    1    5    5    0    0  0.73829705670E+02 -0.23887751542E+02  0.69072123087E+02  0.10388651645E+03  0.00000000000E+00 0.  1.
          3    1    6    6  503    0  0.12862870308E+03  0.35015654996E+03  0.13434815643E+04  0.13943090283E+04  0.00000000000E+00 0. -1.
         -3    1    6    6    0  503  0.81572336262E+01  0.25988020832E+02  0.24315071420E+03  0.24467159113E+03  0.00000000000E+00 0.  1.
<mgrwt>
<rscale>  0 0.40885732E+04</rscale>
<asrwt>0</asrwt>
<pdfrwt beam="1">  1        2 0.22280938E+00 0.40885732E+04</pdfrwt>
<pdfrwt beam="2">  1       -1 0.44393909E+00 0.40885732E+04</pdfrwt>
<totfact> 0.43172342E-02</totfact>
</mgrwt>
</event>
<event>
12    6  0.1647231E-007  0.3224142E+04  0.7818608E-02  0.8182470E-01
         -1   -1    0    0    0  501 -0.00000000000E+00  0.00000000000E+00  0.99640620088E+03  0.99640620088E+03  0.00000000000E+00 0.  1.
          2   -1    0    0  501    0  0.00000000000E+00 -0.00000000000E+00 -0.26081464645E+04  0.26081464645E+04  0.00000000000E+00 0. -1.
         24    2    1    2    0    0 -0.65704871298E+03 -0.11339228025E+03 -0.21825152766E+04  0.22835146356E+04  0.80593659687E+02 0.  0.
        254    2    1    2    0    0  0.65704871298E+03  0.11339228025E+03  0.57077501303E+03  0.13210380297E+04  0.98731278733E+03 0.  0.
         23    2    4    4    0    0 -0.56641276802E+02  0.30702886608E+03 -0.76007695247E+02  0.33404189289E+03  0.91279009775E+02 0.  0.
         23    2    4    4    0    0  0.71368998979E+03 -0.19363658583E+03  0.64678270828E+03  0.98699613683E+03  0.94789100112E+02 0.  0.
          2    1    3    3  502    0 -0.55446762230E+03 -0.11649638100E+03 -0.19122965572E+04  0.19944633047E+04  0.00000000000E+00 0. -1.
         -1    1    3    3    0  502 -0.10258109068E+03  0.31041007437E+01 -0.27021871945E+03  0.28905133099E+03  0.00000000000E+00 0.  1.
         11    1    5    5    0    0  0.31537129159E-01  0.85333348597E+02 -0.60672403924E+02  0.10470397306E+03  0.00000000000E+00 0.  1.
        -11    1    5    5    0    0 -0.56672813931E+02  0.22169551748E+03 -0.15335291323E+02  0.22933791983E+03  0.00000000000E+00 0. -1.
          4    1    6    6  503    0  0.53524342628E+02 -0.33458094833E+02  0.31905638752E+02  0.70726721597E+02  0.00000000000E+00 0. -1.
         -4    1    6    6    0  503  0.66016564716E+03 -0.16017849099E+03  0.61487706953E+03  0.91626941524E+03  0.00000000000E+00 0.  1.
<mgrwt>
<rscale>  0 0.32241422E+04</rscale>
<asrwt>0</asrwt>
<pdfrwt beam="1">  1        2 0.40125330E+00 0.32241422E+04</pdfrwt>
<pdfrwt beam="2">  1       -1 0.15329326E+00 0.32241422E+04</pdfrwt>
<totfact> 0.94514155E-01</totfact>
</mgrwt>
</event>
<event>
12    6  0.1647231E-007  0.2476308E+04  0.7818608E-02  0.8411475E-01
          2   -1    0    0  501    0  0.00000000000E+00  0.00000000000E+00  0.29865577873E+04  0.29865577873E+04  0.00000000000E+00 0. -1.
         -1   -1    0    0    0  501 -0.00000000000E+00 -0.00000000000E+00 -0.51330837019E+03  0.51330837019E+03  0.00000000000E+00 0.  1.
         24    2    1    2    0    0  0.70982220173E+03 -0.80464233732E+03  0.99029471142E+03  0.14622244090E+04  0.78228881055E+02 0.  0.
        254    2    1    2    0    0 -0.70982220173E+03  0.80464233732E+03  0.14829547057E+04  0.20376417484E+04  0.89528341144E+03 0.  0.
         23    2    4    4    0    0 -0.23286665903E+03  0.85585403757E+03  0.11064129833E+04  0.14210920118E+04  0.92950533749E+02 0.  0.
         23    2    4    4    0    0 -0.47695554270E+03 -0.51211700245E+02  0.37654172233E+03  0.61654973666E+03  0.90778197616E+02 0.  0.
          4    1    3    3  502    0  0.28865631810E+03 -0.32753129942E+03  0.35118247748E+03  0.56029309702E+03  0.00000000000E+00 0. -1.
         -3    1    3    3    0  502  0.42116588363E+03 -0.47711103791E+03  0.63911223394E+03  0.90193131202E+03  0.00000000000E+00 0.  1.
         11    1    5    5    0    0 -0.67141264288E+02  0.31208188817E+03  0.33367622495E+03  0.46178228354E+03  0.00000000000E+00 0. -1.
        -11    1    5    5    0    0 -0.16572539475E+03  0.54377214939E+03  0.77273675839E+03  0.95930972823E+03  0.00000000000E+00 0.  1.
          3    1    6    6  503    0 -0.47159424256E+03 -0.61963909978E+02  0.36228549540E+03  0.59790587548E+03  0.00000000000E+00 0. -1.
         -3    1    6    6    0  503 -0.53613001400E+01  0.10752209733E+02  0.14256226928E+02  0.18643861177E+02  0.00000000000E+00 0.  1.
<mgrwt>
<rscale>  0 0.24763078E+04</rscale>
<asrwt>0</asrwt>
<pdfrwt beam="1">  1        2 0.45947042E+00 0.24763078E+04</pdfrwt>
<pdfrwt beam="2">  1       -1 0.78970520E-01 0.24763078E+04</pdfrwt>
<totfact> 0.28936538E+00</totfact>
</mgrwt>
</event>
<event>
12    6  0.1647231E-007  0.1346177E+04  0.7818608E-02  0.8993727E-01
         -1   -1    0    0    0  501 -0.00000000000E+00  0.00000000000E+00  0.41611816414E+03  0.41611816414E+03  0.00000000000E+00 0.  1.
          2   -1    0    0  501    0  0.00000000000E+00 -0.00000000000E+00 -0.10887493215E+04  0.10887493215E+04  0.00000000000E+00 0. -1.
         24    2    1    2    0    0  0.25347069503E+03 -0.10627564693E+03  0.82018984161E+02  0.29861676356E+03  0.83084001744E+02 0.  0.
        254    2    1    2    0    0 -0.25347069503E+03  0.10627564693E+03 -0.75465014151E+03  0.12062507221E+04  0.90000114558E+03 0.  0.
         23    2    4    4    0    0 -0.15563339176E+03 -0.58843551102E+02  0.17051536833E+03  0.25727242927E+03  0.97104561638E+02 0.  0.
         23    2    4    4    0    0 -0.97837303275E+02  0.16511919804E+03 -0.92516550984E+03  0.94897829279E+03  0.88272827829E+02 0.  0.
          4    1    3    3  502    0  0.37381987590E+02 -0.52000442301E+01 -0.15623879329E+02  0.40847999479E+02  0.00000000000E+00 0. -1.
         -3    1    3    3    0  502  0.21608870744E+03 -0.10107560270E+03  0.97642863490E+02  0.25776876408E+03  0.00000000000E+00 0.  1.
         11    1    5    5    0    0 -0.12673566572E+03 -0.11917228822E+02  0.77131771410E+02  0.14883971066E+03  0.00000000000E+00 0.  1.
        -11    1    5    5    0    0 -0.28897726043E+02 -0.46926322279E+02  0.93383596920E+02  0.10843271862E+03  0.00000000000E+00 0. -1.
          1    1    6    6  503    0 -0.11087875259E+03  0.16274711968E+03 -0.88630648566E+03  0.90792065141E+03  0.00000000000E+00 0. -1.
         -1    1    6    6    0  503  0.13041449311E+02  0.23720783520E+01 -0.38859024178E+02  0.41057641383E+02  0.00000000000E+00 0.  1.
<mgrwt>
<rscale>  0 0.13461774E+04</rscale>
<asrwt>0</asrwt>
<pdfrwt beam="1">  1        2 0.16749989E+00 0.13461774E+04</pdfrwt>
<pdfrwt beam="2">  1       -1 0.64018181E-01 0.13461774E+04</pdfrwt>
<totfact> 0.61048183E+01</totfact>
</mgrwt>
</event>
<event>
12    6  0.1647231E-007  0.2742680E+04  0.7818608E-02  0.8321288E-01
          2   -1    0    0  501    0  0.00000000000E+00  0.00000000000E+00  0.15797173225E+04  0.15797173225E+04  0.00000000000E+00 0. -1.
         -1   -1    0    0    0  501 -0.00000000000E+00 -0.00000000000E+00 -0.11904489405E+04  0.11904489405E+04  0.00000000000E+00 0.  1.
         24    2    1    2    0    0  0.21747752717E+03 -0.62833082218E+03  0.12091894577E+04  0.13828170421E+04  0.89150043475E+02 0.  0.
        254    2    1    2    0    0 -0.21747752717E+03  0.62833082218E+03 -0.81992107579E+03  0.13873492209E+04  0.90020619493E+03 0.  0.
         23    2    4    4    0    0  0.37105332135E+02  0.56241849621E+03 -0.92591308506E+03  0.10885400210E+04  0.99563877714E+02 0.  0.
         23    2    4    4    0    0 -0.25458285930E+03  0.65912325973E+02  0.10599200927E+03  0.29880919991E+03  0.94317362956E+02 0.  0.
          2    1    3    3  502    0  0.21638575373E+03 -0.58560658970E+03  0.11624208598E+04  0.13194620599E+04  0.00000000000E+00 0. -1.
         -1    1    3    3    0  502  0.10917734408E+01 -0.42724232483E+02  0.46768597964E+02  0.63354982172E+02  0.00000000000E+00 0.  1.
         11    1    5    5    0    0  0.62192155889E+02  0.21082185189E+03 -0.36410273914E+03  0.42530521057E+03  0.00000000000E+00 0.  1.
        -11    1    5    5    0    0 -0.25086823754E+02  0.35159664431E+03 -0.56181034593E+03  0.66323481046E+03  0.00000000000E+00 0. -1.
          2    1    6    6  503    0 -0.14372924478E+02 -0.19099350010E+02  0.15105130582E+02  0.28275980951E+02  0.00000000000E+00 0. -1.
         -2    1    6    6    0  503 -0.24020993482E+03  0.85011675983E+02  0.90886878690E+02  0.27053321896E+03  0.00000000000E+00 0.  1.
<mgrwt>
<rscale>  0 0.27426796E+04</rscale>
<asrwt>0</asrwt>
<pdfrwt beam="1">  1        2 0.24303343E+00 0.27426796E+04</pdfrwt>
<pdfrwt beam="2">  1       -1 0.18314599E+00 0.27426796E+04</pdfrwt>
<totfact> 0.22516866E+00</totfact>
</mgrwt>
</event>
<event>
12    6  0.1647231E-007  0.1355523E+04  0.7818608E-02  0.8986658E-01
         -1   -1    0    0    0  501 -0.00000000000E+00  0.00000000000E+00  0.21157516475E+03  0.21157516475E+03  0.00000000000E+00 0.  1.
          2   -1    0    0  501    0  0.00000000000E+00 -0.00000000000E+00 -0.21711462031E+04  0.21711462031E+04  0.00000000000E+00 0. -1.
         24    2    1    2    0    0 -0.28399318497E+03  0.16216759918E+03 -0.87160556009E+03  0.93431593467E+03  0.79369730260E+02 0.  0.
        254    2    1    2    0    0  0.28399318497E+03 -0.16216759918E+03 -0.10879654782E+04  0.14484054332E+04  0.89847590821E+03 0.  0.
         23    2    4    4    0    0  0.19294700819E+03 -0.18182136997E+03  0.65072834505E+02  0.28795871859E+03  0.91641645948E+02 0.  0.
         23    2    4    4    0    0  0.91046176773E+02  0.19653770798E+02 -0.11530383127E+04  0.11604467146E+04  0.91997552618E+02 0.  0.
          2    1    3    3  502    0 -0.19665447703E+03  0.71651105796E+02 -0.58535581238E+03  0.62164965325E+03  0.00000000000E+00 0. -1.
         -1    1    3    3    0  502 -0.87338707938E+02  0.90516493381E+02 -0.28624974771E+03  0.31266628143E+03  0.00000000000E+00 0.  1.
         11    1    5    5    0    0  0.12895757341E+02 -0.31024491281E+02  0.39280082168E+02  0.51688920203E+02  0.00000000000E+00 0. -1.
        -11    1    5    5    0    0  0.18005125085E+03 -0.15079687869E+03  0.25792752337E+02  0.23626979839E+03  0.00000000000E+00 0.  1.
          3    1    6    6  503    0  0.37016173462E+02 -0.23767677153E+02 -0.19482223924E+03  0.19972682463E+03  0.00000000000E+00 0. -1.
         -3    1    6    6    0  503  0.54030003311E+02  0.43421447952E+02 -0.95821607350E+03  0.96071988994E+03  0.00000000000E+00 0.  1.
<mgrwt>
<rscale>  0 0.13555229E+04</rscale>
<asrwt>0</asrwt>
<pdfrwt beam="1">  1        2 0.33402251E+00 0.13555229E+04</pdfrwt>
<pdfrwt beam="2">  1       -1 0.32550023E-01 0.13555229E+04</pdfrwt>
<totfact> 0.52747523E+01</totfact>
</mgrwt>
</event>
<event>
12    6  0.1647231E-007  0.1671611E+04  0.7818608E-02  0.8777723E-01
         -1   -1    0    0    0  501 -0.00000000000E+00  0.00000000000E+00  0.48721500674E+03  0.48721500674E+03  0.00000000000E+00 0.  1.
          2   -1    0    0  501    0  0.00000000000E+00 -0.00000000000E+00 -0.14338044199E+04  0.14338044199E+04  0.00000000000E+00 0. -1.
         24    2    1    2    0    0 -0.14060944275E+03 -0.55790786582E+03 -0.18504774380E+03  0.61009524456E+03  0.83314691490E+02 0.  0.
        254    2    1    2    0    0  0.14060944275E+03  0.55790786582E+03 -0.76154166938E+03  0.13109241821E+04  0.89863468378E+03 0.  0.
         23    2    4    4    0    0  0.83102437766E+02  0.18714096034E+03 -0.87909220426E+03  0.90729062521E+03  0.91898970668E+02 0.  0.
         23    2    4    4    0    0  0.57507004984E+02  0.37076690548E+03  0.11755053488E+03  0.40363355690E+03  0.91251116054E+02 0.  0.
          4    1    3    3  502    0 -0.97480768383E+02 -0.42961221189E+03 -0.10510031200E+03  0.45289648751E+03  0.00000000000E+00 0. -1.
         -3    1    3    3    0  502 -0.43128674367E+02 -0.12829565392E+03 -0.79947431794E+02  0.15719875705E+03  0.00000000000E+00 0.  1.
         11    1    5    5    0    0  0.47392342850E+02  0.13863577485E+03 -0.75818022596E+03  0.77220668689E+03  0.00000000000E+00 0. -1.
        -11    1    5    5    0    0  0.35710094916E+02  0.48505185493E+02 -0.12091197829E+03  0.13508393833E+03  0.00000000000E+00 0.  1.
          3    1    6    6  503    0  0.79911370883E+02  0.32888377525E+03  0.10715127218E+03  0.35500952093E+03  0.00000000000E+00 0. -1.
         -3    1    6    6    0  503 -0.22404365900E+02  0.41883130226E+02  0.10399262698E+02  0.48624035966E+02  0.00000000000E+00 0.  1.
<mgrwt>
<rscale>  0 0.16716112E+04</rscale>
<asrwt>0</asrwt>
<pdfrwt beam="1">  1        2 0.22058529E+00 0.16716112E+04</pdfrwt>
<pdfrwt beam="2">  1       -1 0.74956156E-01 0.16716112E+04</pdfrwt>
<totfact> 0.26928400E+01</totfact>
</mgrwt>
</event>
<event>
12    6  0.1647231E-007  0.2602429E+04  0.7818608E-02  0.8367377E-01
         -1   -1    0    0    0  501 -0.00000000000E+00  0.00000000000E+00  0.73362184538E+03  0.73362184538E+03  0.00000000000E+00 0.  1.
          2   -1    0    0  501    0  0.00000000000E+00 -0.00000000000E+00 -0.23079455138E+04  0.23079455138E+04  0.00000000000E+00 0. -1.
         24    2    1    2    0    0 -0.41336290389E+03  0.72285765042E+03 -0.16168026664E+04  0.18207300740E+04  0.87264352289E+02 0.  0.
        254    2    1    2    0    0  0.41336290389E+03 -0.72285765042E+03  0.42478998062E+02  0.12208372851E+04  0.89176630257E+03 0.  0.
         23    2    4    4    0    0  0.39071917197E+03 -0.83702090623E+03  0.25427989710E+03  0.96259578751E+03  0.93096268760E+02 0.  0.
         23    2    4    4    0    0  0.22643731921E+02  0.11416325581E+03 -0.21180089904E+03  0.25824149761E+03  0.91011332718E+02 0.  0.
          4    1    3    3  502    0 -0.33385894957E+03  0.52223388968E+03 -0.11480378802E+04  0.13046765914E+04  0.00000000000E+00 0. -1.
         -3    1    3    3    0  502 -0.79503954313E+02  0.20062376074E+03 -0.46876478629E+03  0.51605348268E+03  0.00000000000E+00 0.  1.
         11    1    5    5    0    0  0.28655497358E+03 -0.62692981075E+03  0.23079859332E+03  0.72692690910E+03  0.00000000000E+00 0. -1.
        -11    1    5    5    0    0  0.10416419839E+03 -0.21009109548E+03  0.23481303775E+02  0.23566887841E+03  0.00000000000E+00 0.  1.
          2    1    6    6  503    0  0.47234714463E+02  0.54013207346E+02 -0.15925197626E+03  0.17467036600E+03  0.00000000000E+00 0. -1.
         -2    1    6    6    0  503 -0.24590982542E+02  0.60150048466E+02 -0.52548922779E+02  0.83571131607E+02  0.00000000000E+00 0.  1.
<mgrwt>
<rscale>  0 0.26024291E+04</rscale>
<asrwt>0</asrwt>
<pdfrwt beam="1">  1        2 0.35506854E+00 0.26024291E+04</pdfrwt>
<pdfrwt beam="2">  1       -1 0.11286490E+00 0.26024291E+04</pdfrwt>
<totfact> 0.32393588E+00</totfact>
</mgrwt>
</event>
<event>
12    6  0.1647231E-007  0.2330407E+04  0.7818608E-02  0.8466028E-01
          2   -1    0    0  501    0  0.00000000000E+00  0.00000000000E+00  0.16915317354E+04  0.16915317354E+04  0.00000000000E+00 0. -1.
         -1   -1    0    0    0  501 -0.00000000000E+00 -0.00000000000E+00 -0.80264480411E+03  0.80264480411E+03  0.00000000000E+00 0.  1.
         24    2    1    2    0    0  0.20121091520E+03 -0.13086009389E+03 -0.64329808576E+03  0.69127113934E+03  0.80082235021E+02 0.  0.
        254    2    1    2    0    0 -0.20121091520E+03  0.13086009389E+03  0.15321850171E+04  0.18029054002E+04  0.91938390183E+03 0.  0.
         23    2    4    4    0    0 -0.85585888591E+02  0.51144007266E+03  0.10233646422E+04  0.11508809786E+04  0.91410851242E+02 0.  0.
         23    2    4    4    0    0 -0.11562502660E+03 -0.38057997878E+03  0.50882037490E+03  0.65202442163E+03  0.89595789338E+02 0.  0.
          4    1    3    3  502    0  0.76501914975E+02 -0.98368438793E+01 -0.15857533627E+03  0.17633900239E+03  0.00000000000E+00 0. -1.
         -3    1    3    3    0  502  0.12470900022E+03 -0.12102325001E+03 -0.48472274950E+03  0.51493213694E+03  0.00000000000E+00 0.  1.
         11    1    5    5    0    0 -0.44351805597E+02  0.26054797775E+03  0.62115653535E+03  0.67504649675E+03  0.00000000000E+00 0.  1.
        -11    1    5    5    0    0 -0.41234082994E+02  0.25089209491E+03  0.40220810684E+03  0.47583448183E+03  0.00000000000E+00 0. -1.
          4    1    6    6  503    0 -0.10321826049E+03 -0.31635102046E+03  0.47026585660E+03  0.57609196603E+03  0.00000000000E+00 0. -1.
         -4    1    6    6    0  503 -0.12406766113E+02 -0.64228958315E+02  0.38554518301E+02  0.75932455597E+02  0.00000000000E+00 0.  1.
<mgrwt>
<rscale>  0 0.23304070E+04</rscale>
<asrwt>0</asrwt>
<pdfrwt beam="1">  1        2 0.26023565E+00 0.23304070E+04</pdfrwt>
<pdfrwt beam="2">  1       -1 0.12348382E+00 0.23304070E+04</pdfrwt>
<totfact> 0.58893751E+00</totfact>
</mgrwt>
</event>
<event>
12    6  0.1647231E-007  0.1950912E+04  0.7818608E-02  0.8629921E-01
         -1   -1    0    0    0  501 -0.00000000000E+00  0.00000000000E+00  0.47402295769E+03  0.47402295769E+03  0.00000000000E+00 0.  1.
          2   -1    0    0  501    0  0.00000000000E+00 -0.00000000000E+00 -0.20073178079E+04  0.20073178079E+04  0.00000000000E+00 0. -1.
         24    2    1    2    0    0  0.13771071233E+03 -0.58074756241E+03 -0.12206454782E+04  0.13611413674E+04  0.80613069634E+02 0.  0.
        254    2    1    2    0    0 -0.13771071233E+03  0.58074756241E+03 -0.31264937199E+03  0.11201993982E+04  0.89491066055E+03 0.  0.
         23    2    4    4    0    0 -0.26557304625E+03  0.75806804719E+03 -0.12393529707E+03  0.81765321240E+03  0.89446133658E+02 0.  0.
         23    2    4    4    0    0  0.12786233392E+03 -0.17732048478E+03 -0.18871407492E+03  0.30254618579E+03  0.90165745770E+02 0.  0.
          4    1    3    3  502    0  0.64552210760E+02 -0.31864041933E+03 -0.57611785125E+03  0.66152134000E+03  0.00000000000E+00 0. -1.
         -3    1    3    3    0  502  0.73158501569E+02 -0.26210714309E+03 -0.64452762697E+03  0.69962002739E+03  0.00000000000E+00 0.  1.
         11    1    5    5    0    0 -0.90454332092E+01  0.55851804484E+02 -0.30370829628E+02  0.64215506058E+02  0.00000000000E+00 0.  1.
        -11    1    5    5    0    0 -0.25652761304E+03  0.70221624270E+03 -0.93564467444E+02  0.75343770634E+03  0.00000000000E+00 0. -1.
          3    1    6    6  503    0  0.11398653449E+03 -0.18603511838E+03 -0.18423382239E+03  0.28555926990E+03  0.00000000000E+00 0. -1.
         -3    1    6    6    0  503  0.13875799434E+02  0.87146336050E+01 -0.44802525280E+01  0.16986915892E+02  0.00000000000E+00 0.  1.
<mgrwt>
<rscale>  0 0.19509123E+04</rscale>
<asrwt>0</asrwt>
<pdfrwt beam="1">  1        2 0.30881812E+00 0.19509123E+04</pdfrwt>
<pdfrwt beam="2">  1       -1 0.72926610E-01 0.19509123E+04</pdfrwt>
<totfact> 0.13324977E+01</totfact>
</mgrwt>
</event>
<event>
12    6  0.1647231E-007  0.3413211E+04  0.7818608E-02  0.8134671E-01
          2   -1    0    0  501    0  0.00000000000E+00  0.00000000000E+00  0.20120572722E+04  0.20120572722E+04  0.00000000000E+00 0. -1.
         -1   -1    0    0    0  501 -0.00000000000E+00 -0.00000000000E+00 -0.14475248509E+04  0.14475248509E+04  0.00000000000E+00 0.  1.
         24    2    1    2    0    0 -0.14495587973E+04  0.62046953002E+03  0.75307066317E+02  0.15802643956E+04  0.73220634074E+02 0.  0.
        254    2    1    2    0    0  0.14495587973E+04 -0.62046953002E+03  0.48922535502E+03  0.18793177275E+04  0.89793681750E+03 0.  0.
         23    2    4    4    0    0  0.78390428222E+03 -0.79439131527E+03  0.28079178282E+03  0.11546267069E+04  0.93569875685E+02 0.  0.
         23    2    4    4    0    0  0.66565451510E+03  0.17392178525E+03  0.20843357221E+03  0.72469102052E+03  0.91584935138E+02 0.  0.
          4    1    3    3  502    0 -0.20895405316E+03  0.65749555050E+02 -0.24230629721E+01  0.21906773281E+03  0.00000000000E+00 0. -1.
         -3    1    3    3    0  502 -0.12406047442E+04  0.55471997497E+03  0.77730129289E+02  0.13611966628E+04  0.00000000000E+00 0.  1.
         11    1    5    5    0    0  0.73239921865E+03 -0.76449258490E+03  0.27983834599E+03  0.10950648509E+04  0.00000000000E+00 0. -1.
        -11    1    5    5    0    0  0.51505063568E+02 -0.29898730376E+02  0.95343683101E+00  0.59561856024E+02  0.00000000000E+00 0.  1.
          1    1    6    6  503    0  0.61301044543E+03  0.15468402184E+03  0.21606143617E+03  0.66812536026E+03  0.00000000000E+00 0. -1.
         -1    1    6    6    0  503  0.52644069670E+02  0.19237763415E+02 -0.76278639635E+01  0.56565660266E+02  0.00000000000E+00 0.  1.
<mgrwt>
<rscale>  0 0.34132113E+04</rscale>
<asrwt>0</asrwt>
<pdfrwt beam="1">  1        2 0.30954727E+00 0.34132113E+04</pdfrwt>
<pdfrwt beam="2">  1       -1 0.22269613E+00 0.34132113E+04</pdfrwt>
<totfact> 0.65375745E-01</totfact>
</mgrwt>
</event>
<event>
12    6  0.1647231E-007  0.1204682E+04  0.7818608E-02  0.9108768E-01
          2   -1    0    0  501    0  0.00000000000E+00  0.00000000000E+00  0.14202870953E+04  0.14202870953E+04  0.00000000000E+00 0. -1.
         -1   -1    0    0    0  501 -0.00000000000E+00 -0.00000000000E+00 -0.25545161039E+03  0.25545161039E+03  0.00000000000E+00 0.  1.
         24    2    1    2    0    0  0.15991093648E+03  0.19732183606E+03  0.30718085961E+03  0.40784658725E+03  0.86436934418E+02 0.  0.
        254    2    1    2    0    0 -0.15991093648E+03 -0.19732183606E+03  0.85765462529E+03  0.12678921184E+04  0.89859420936E+03 0.  0.
         23    2    4    4    0    0  0.29897647412E+03 -0.30402524060E+03  0.28714249778E+03  0.52221151904E+03  0.91846489285E+02 0.  0.
         23    2    4    4    0    0 -0.45888741060E+03  0.10670340454E+03  0.57051212752E+03  0.74568059938E+03  0.92694101797E+02 0.  0.
          4    1    3    3  502    0  0.11474042133E+03  0.18614729699E+03  0.22734110612E+03  0.31543645794E+03  0.00000000000E+00 0. -1.
         -3    1    3    3    0  502  0.45170515148E+02  0.11174539062E+02  0.79839753494E+02  0.92410129315E+02  0.00000000000E+00 0.  1.
         11    1    5    5    0    0  0.23747889687E+03 -0.26122150040E+03  0.27225308255E+03  0.44581906609E+03  0.00000000000E+00 0.  1.
        -11    1    5    5    0    0  0.61497577248E+02 -0.42803740204E+02  0.14889415223E+02  0.76392452955E+02  0.00000000000E+00 0. -1.
          1    1    6    6  503    0 -0.16055601998E+03  0.32020635474E+02  0.26959813005E+03  0.31541513657E+03  0.00000000000E+00 0. -1.
         -1    1    6    6    0  503 -0.29833139062E+03  0.74682769070E+02  0.30091399747E+03  0.43026546282E+03  0.00000000000E+00 0.  1.
<mgrwt>
<rscale>  0 0.12046819E+04</rscale>
<asrwt>0</asrwt>
<pdfrwt beam="1">  1        2 0.21850570E+00 0.12046819E+04</pdfrwt>
<pdfrwt beam="2">  1       -1 0.39300249E-01 0.12046819E+04</pdfrwt>
<totfact> 0.99578640E+01</totfact>
</mgrwt>
</event>
<event>
12    6  0.1647231E-007  0.1804960E+04  0.7818608E-02  0.8703666E-01
          2   -1    0    0  501    0  0.00000000000E+00  0.00000000000E+00  0.66005343293E+03  0.66005343293E+03  0.00000000000E+00 0. -1.
         -1   -1    0    0    0  501 -0.00000000000E+00 -0.00000000000E+00 -0.12339452148E+04  0.12339452148E+04  0.00000000000E+00 0.  1.
         24    2    1    2    0    0  0.70717491009E+01  0.52194943536E+03  0.24698220551E+03  0.58294534380E+03  0.79648234855E+02 0.  0.
        254    2    1    2    0    0 -0.70717491009E+01 -0.52194943536E+03 -0.82087398734E+03  0.13110533039E+04  0.87894564102E+03 0.  0.
         23    2    4    4    0    0  0.42439473443E+03 -0.30377711233E+03 -0.43512093588E+03  0.68580868464E+03  0.92800315203E+02 0.  0.
         23    2    4    4    0    0 -0.43146648353E+03 -0.21817232302E+03 -0.38575305146E+03  0.62524461926E+03  0.91449047329E+02 0.  0.
          4    1    3    3  502    0 -0.84007089904E+00  0.50642172474E+03  0.25077200769E+03  0.56511084652E+03  0.00000000000E+00 0. -1.
         -3    1    3    3    0  502  0.79118199999E+01  0.15527710613E+02 -0.37898021869E+01  0.17834497280E+02  0.00000000000E+00 0.  1.
         11    1    5    5    0    0  0.14875018099E+03 -0.12051876746E+03 -0.10511902223E+03  0.21840649827E+03  0.00000000000E+00 0. -1.
        -11    1    5    5    0    0  0.27564455344E+03 -0.18325834487E+03 -0.33000191366E+03  0.46740218637E+03  0.00000000000E+00 0.  1.
          3    1    6    6  503    0 -0.22064443520E+03 -0.14916141898E+03 -0.24930335006E+03  0.36480851971E+03  0.00000000000E+00 0. -1.
         -3    1    6    6    0  503 -0.21082204833E+03 -0.69010904040E+02 -0.13644970140E+03  0.26043609955E+03  0.00000000000E+00 0.  1.
<mgrwt>
<rscale>  0 0.18049596E+04</rscale>
<asrwt>0</asrwt>
<pdfrwt beam="1">  1        2 0.10154668E+00 0.18049596E+04</pdfrwt>
<pdfrwt beam="2">  1       -1 0.18983772E+00 0.18049596E+04</pdfrwt>
<totfact> 0.84213050E+00</totfact>
</mgrwt>
</event>
<event>
12    6  0.1647231E-007  0.1778294E+04  0.7818608E-02  0.8717928E-01
          2   -1    0    0  501    0  0.00000000000E+00  0.00000000000E+00  0.20277545379E+04  0.20277545379E+04  0.00000000000E+00 0. -1.
         -1   -1    0    0    0  501 -0.00000000000E+00 -0.00000000000E+00 -0.38988077714E+03  0.38988077714E+03  0.00000000000E+00 0.  1.
         24    2    1    2    0    0  0.37452765804E+03 -0.16360213138E+03 -0.78190847198E+02  0.42700269104E+03  0.95816833285E+02 0.  0.
        254    2    1    2    0    0 -0.37452765804E+03  0.16360213138E+03  0.17160646080E+04  0.19906326240E+04  0.92233609979E+03 0.  0.
         23    2    4    4    0    0  0.22320669538E+03 -0.76488599247E+02  0.96258617809E+03  0.99522515259E+03  0.90715045128E+02 0.  0.
         23    2    4    4    0    0 -0.59773435342E+03  0.24009073063E+03  0.75347842988E+03  0.99540747141E+03  0.90423302625E+02 0.  0.
          4    1    3    3  502    0  0.10114584083E+03 -0.27987794403E+01 -0.34149467981E+02  0.10679185572E+03  0.00000000000E+00 0. -1.
         -3    1    3    3    0  502  0.27338181721E+03 -0.16080335194E+03 -0.44041379216E+02  0.32021083533E+03  0.00000000000E+00 0.  1.
         11    1    5    5    0    0  0.19695353064E+03 -0.43215328651E+02  0.87487046530E+03  0.89780654314E+03  0.00000000000E+00 0. -1.
        -11    1    5    5    0    0  0.26253164737E+02 -0.33273270596E+02  0.87715712797E+02  0.97418609446E+02  0.00000000000E+00 0.  1.
          1    1    6    6  503    0 -0.28227716595E+03  0.10818741987E+03  0.28534605805E+03  0.41570096112E+03  0.00000000000E+00 0. -1.
         -1    1    6    6    0  503 -0.31545718747E+03  0.13190331076E+03  0.46813237183E+03  0.57970651029E+03  0.00000000000E+00 0.  1.
<mgrwt>
<rscale>  0 0.17782941E+04</rscale>
<asrwt>0</asrwt>
<pdfrwt beam="1">  1        2 0.31196223E+00 0.17782941E+04</pdfrwt>
<pdfrwt beam="2">  1       -1 0.59981659E-01 0.17782941E+04</pdfrwt>
<totfact> 0.19571404E+01</totfact>
</mgrwt>
</event>
<event>
12    6  0.1647231E-007  0.1239497E+04  0.7818608E-02  0.9078971E-01
         -1   -1    0    0    0  501 -0.00000000000E+00  0.00000000000E+00  0.46266327312E+03  0.46266327312E+03  0.00000000000E+00 0.  1.
          2   -1    0    0  501    0  0.00000000000E+00 -0.00000000000E+00 -0.83016725696E+03  0.83016725696E+03  0.00000000000E+00 0. -1.
         24    2    1    2    0    0 -0.14072056361E+03 -0.38564010287E+02 -0.32695866396E+03  0.36719886276E+03  0.81508140446E+02 0.  0.
        254    2    1    2    0    0  0.14072056361E+03  0.38564010287E+02 -0.40545319872E+02  0.92563166732E+03  0.91315967972E+03 0.  0.
         23    2    4    4    0    0 -0.36166998674E+03 -0.80394114494E+01 -0.14659129223E+03  0.40086246024E+03  0.91279206960E+02 0.  0.
         23    2    4    4    0    0  0.50239055035E+03  0.46603421736E+02  0.10604597236E+03  0.52476920708E+03  0.97820388704E+02 0.  0.
          4    1    3    3  502    0 -0.13905521607E+03 -0.52673133208E+02 -0.31606401637E+03  0.34929539722E+03  0.00000000000E+00 0. -1.
         -1    1    3    3    0  502 -0.16653475470E+01  0.14109122921E+02 -0.10894647591E+02  0.17903465536E+02  0.00000000000E+00 0.  1.
         11    1    5    5    0    0 -0.11647226284E+03 -0.24910691718E+02 -0.96183693482E+01  0.11949411534E+03  0.00000000000E+00 0. -1.
        -11    1    5    5    0    0 -0.24519772390E+03  0.16871280269E+02 -0.13697292289E+03  0.28136834489E+03  0.00000000000E+00 0.  1.
          3    1    6    6  503    0  0.65809821088E+02  0.33017607766E+02 -0.58871859474E+01  0.73863075570E+02  0.00000000000E+00 0. -1.
         -3    1    6    6    0  503  0.43658072927E+03  0.13585813970E+02  0.11193315831E+03  0.45090613151E+03  0.00000000000E+00 0.  1.
<mgrwt>
<rscale>  0 0.12394965E+04</rscale>
<asrwt>0</asrwt>
<pdfrwt beam="1">  1        2 0.12771804E+00 0.12394965E+04</pdfrwt>
<pdfrwt beam="2">  1       -1 0.71178966E-01 0.12394965E+04</pdfrwt>
<totfact> 0.73422060E+01</totfact>
</mgrwt>
</event>
<event>
12    6  0.1647231E-007  0.2395079E+04  0.7818608E-02  0.8441348E-01
         -1   -1    0    0    0  501 -0.00000000000E+00  0.00000000000E+00  0.13211710495E+04  0.13211710495E+04  0.00000000000E+00 0.  1.
          2   -1    0    0  501    0  0.00000000000E+00 -0.00000000000E+00 -0.10854766252E+04  0.10854766252E+04  0.00000000000E+00 0. -1.
         24    2    1    2    0    0  0.51538158731E+03  0.48582766763E+02  0.99327606183E+03  0.11229225610E+04  0.79870377113E+02 0.  0.
        254    2    1    2    0    0 -0.51538158731E+03 -0.48582766763E+02 -0.75758163754E+03  0.12837251138E+04  0.89779828724E+03 0.  0.
         23    2    4    4    0    0 -0.40349463023E+03 -0.20277489356E+02  0.89405441308E+02  0.42403709645E+03  0.92709401001E+02 0.  0.
         23    2    4    4    0    0 -0.11188695707E+03 -0.28305277407E+02 -0.84698707885E+03  0.85968801737E+03  0.91413869750E+02 0.  0.
          4    1    3    3  502    0  0.26711176032E+03  0.61768227475E+02  0.55564157147E+03  0.61959790378E+03  0.00000000000E+00 0. -1.
         -3    1    3    3    0  502  0.24826982699E+03 -0.13185460712E+02  0.43763449036E+03  0.50332465718E+03  0.00000000000E+00 0.  1.
         11    1    5    5    0    0 -0.23638021105E+03 -0.54342168739E+02  0.35248856910E+02  0.24509418066E+03  0.00000000000E+00 0.  1.
        -11    1    5    5    0    0 -0.16711441918E+03  0.34064679383E+02  0.54156584397E+02  0.17894291579E+03  0.00000000000E+00 0. -1.
          1    1    6    6  503    0  0.18385519128E-01 -0.35105535961E+02 -0.19739398267E+03  0.20049135489E+03  0.00000000000E+00 0. -1.
         -1    1    6    6    0  503 -0.11190534259E+03  0.68002585543E+01 -0.64959309618E+03  0.65919666248E+03  0.00000000000E+00 0.  1.
<mgrwt>
<rscale>  0 0.23950785E+04</rscale>
<asrwt>0</asrwt>
<pdfrwt beam="1">  1        2 0.16699640E+00 0.23950785E+04</pdfrwt>
<pdfrwt beam="2">  1       -1 0.20325709E+00 0.23950785E+04</pdfrwt>
<totfact> 0.32603652E+00</totfact>
</mgrwt>
</event>
<event>
12    6  0.1647231E-007  0.1520628E+04  0.7818608E-02  0.8870850E-01
         -1   -1    0    0    0  501 -0.00000000000E+00  0.00000000000E+00  0.70209805823E+03  0.70209805823E+03  0.00000000000E+00 0.  1.
          2   -1    0    0  501    0  0.00000000000E+00 -0.00000000000E+00 -0.82335730023E+03  0.82335730023E+03  0.00000000000E+00 0. -1.
         24    2    1    2    0    0  0.31681054720E+03  0.33106825954E+03  0.17499730176E+03  0.49694788575E+03  0.79737257496E+02 0.  0.
        254    2    1    2    0    0 -0.31681054720E+03 -0.33106825954E+03 -0.29625654375E+03  0.10285074727E+04  0.87182828953E+03 0.  0.
         23    2    4    4    0    0 -0.20326846717E+03 -0.52342906287E+03 -0.46306481034E+03  0.73342121610E+03  0.90452241835E+02 0.  0.
         23    2    4    4    0    0 -0.11354208003E+03  0.19236080333E+03  0.16680826658E+03  0.29508625661E+03  0.96728581342E+02 0.  0.
          2    1    3    3  502    0  0.48395991405E+02  0.15542797370E+02  0.21069180457E+02  0.55024184676E+02  0.00000000000E+00 0. -1.
         -1    1    3    3    0  502  0.26841455580E+03  0.31552546217E+03  0.15392812130E+03  0.44192370107E+03  0.00000000000E+00 0.  1.
         11    1    5    5    0    0 -0.17880270545E+03 -0.44517484196E+03 -0.35039539594E+03  0.59407741995E+03  0.00000000000E+00 0. -1.
        -11    1    5    5    0    0 -0.24465761720E+02 -0.78254220904E+02 -0.11266941440E+03  0.13934379616E+03  0.00000000000E+00 0.  1.
          3    1    6    6  503    0 -0.54295339546E+02  0.17263121591E+03  0.12444466139E+03  0.21962694359E+03  0.00000000000E+00 0. -1.
         -3    1    6    6    0  503 -0.59246740480E+02  0.19729587422E+02  0.42363605195E+02  0.75459313026E+02  0.00000000000E+00 0.  1.
<mgrwt>
<rscale>  0 0.15206282E+04</rscale>
<asrwt>0</asrwt>
<pdfrwt beam="1">  1        2 0.12667035E+00 0.15206282E+04</pdfrwt>
<pdfrwt beam="2">  1       -1 0.10801509E+00 0.15206282E+04</pdfrwt>
<totfact> 0.29088870E+01</totfact>
</mgrwt>
</event>
<event>
12    6  0.1647231E-007  0.1260003E+04  0.7818608E-02  0.9061898E-01
          2   -1    0    0  501    0  0.00000000000E+00  0.00000000000E+00  0.45760764368E+03  0.45760764368E+03  0.00000000000E+00 0. -1.
         -1   -1    0    0    0  501 -0.00000000000E+00 -0.00000000000E+00 -0.86734156286E+03  0.86734156286E+03  0.00000000000E+00 0.  1.
         24    2    1    2    0    0 -0.10190536504E+03 -0.10243348968E+03 -0.37656067995E+03  0.41116065701E+03  0.79861235637E+02 0.  0.
        254    2    1    2    0    0  0.10190536504E+03  0.10243348968E+03 -0.33173239227E+02  0.91378854953E+03  0.90168271927E+03 0.  0.
         23    2    4    4    0    0 -0.17488771540E+03 -0.31772633058E+03  0.96410250919E+02  0.38598574469E+03  0.90301298307E+02 0.  0.
         23    2    4    4    0    0  0.27679308044E+03  0.42015982026E+03 -0.12958349015E+03  0.52780280485E+03  0.92925970230E+02 0.  0.
          4    1    3    3  502    0 -0.59081799137E+02 -0.61655940617E+02 -0.11639990988E+03  0.14436430661E+03  0.00000000000E+00 0. -1.
         -3    1    3    3    0  502 -0.42823565902E+02 -0.40777549064E+02 -0.26016077007E+03  0.26679635041E+03  0.00000000000E+00 0.  1.
         11    1    5    5    0    0 -0.53925702437E+02 -0.17106342406E+03  0.17725352449E+02  0.18023558071E+03  0.00000000000E+00 0. -1.
        -11    1    5    5    0    0 -0.12096201296E+03 -0.14666290652E+03  0.78684898469E+02  0.20575016398E+03  0.00000000000E+00 0.  1.
          2    1    6    6  503    0  0.12491821711E+03  0.20859532377E+03 -0.15959749576E+02  0.24366223275E+03  0.00000000000E+00 0.  1.
         -2    1    6    6    0  503  0.15187486333E+03  0.21156449650E+03 -0.11362374057E+03  0.28414057209E+03  0.00000000000E+00 0. -1.
<mgrwt>
<rscale>  0 0.12600034E+04</rscale>
<asrwt>0</asrwt>
<pdfrwt beam="1">  1        2 0.70401177E-01 0.12600034E+04</pdfrwt>
<pdfrwt beam="2">  1       -1 0.13343716E+00 0.12600034E+04</pdfrwt>
<totfact> 0.36411149E+01</totfact>
</mgrwt>
</event>
<event>
12    6  0.1647231E-007  0.2287124E+04  0.7818608E-02  0.8483015E-01
          2   -1    0    0  501    0  0.00000000000E+00  0.00000000000E+00  0.76906355526E+03  0.76906355526E+03  0.00000000000E+00 0. -1.
         -1   -1    0    0    0  501 -0.00000000000E+00 -0.00000000000E+00 -0.17004240224E+04  0.17004240224E+04  0.00000000000E+00 0.  1.
         24    2    1    2    0    0  0.68381733735E+03  0.43487233570E+03  0.17978861190E+03  0.83165592681E+03  0.51064042254E+02 0.  0.
        254    2    1    2    0    0 -0.68381733735E+03 -0.43487233570E+03 -0.11111490790E+04  0.16378316508E+04  0.88944934730E+03 0.  0.
         23    2    4    4    0    0 -0.72035579065E+03  0.11422278698E+02 -0.53320444928E+03  0.90079334331E+03  0.89881750335E+02 0.  0.
         23    2    4    4    0    0  0.36538453309E+02 -0.44629461440E+03 -0.57794462972E+03  0.73703830749E+03  0.93228377008E+02 0.  0.
          4    1    3    3  502    0  0.65133669973E+03  0.40100677462E+03  0.17348319968E+03  0.78431011104E+03  0.00000000000E+00 0. -1.
         -3    1    3    3    0  502  0.32480637612E+02  0.33865561089E+02  0.63054122166E+01  0.47345815768E+02  0.00000000000E+00 0.  1.
         11    1    5    5    0    0 -0.54588376114E+03  0.38320874664E+00 -0.35505038733E+03  0.65119122005E+03  0.00000000000E+00 0.  1.
        -11    1    5    5    0    0 -0.17447202952E+03  0.11039069952E+02 -0.17815406195E+03  0.24960212327E+03  0.00000000000E+00 0. -1.
          1    1    6    6  503    0 -0.33242334866E+01 -0.27876910142E+02 -0.86139472323E+01  0.29366183516E+02  0.00000000000E+00 0. -1.
         -1    1    6    6    0  503  0.39862686796E+02 -0.41841770426E+03 -0.56933068249E+03  0.70767212398E+03  0.00000000000E+00 0.  1.
<mgrwt>
<rscale>  0 0.22871241E+04</rscale>
<asrwt>0</asrwt>
<pdfrwt beam="1">  1        2 0.11831747E+00 0.22871241E+04</pdfrwt>
<pdfrwt beam="2">  1       -1 0.26160369E+00 0.22871241E+04</pdfrwt>
<totfact> 0.22012566E+00</totfact>
</mgrwt>
</event>
<event>
12    6  0.1647231E-007  0.1176158E+04  0.7818608E-02  0.9133985E-01
         -1   -1    0    0    0  501 -0.00000000000E+00  0.00000000000E+00  0.30843114308E+03  0.30843114308E+03  0.00000000000E+00 0.  1.
          2   -1    0    0  501    0  0.00000000000E+00 -0.00000000000E+00 -0.11212774263E+04  0.11212774263E+04  0.00000000000E+00 0. -1.
         24    2    1    2    0    0 -0.19997114958E+03 -0.87148838723E+02 -0.23276723613E+03  0.33358336410E+03  0.97539191265E+02 0.  0.
        254    2    1    2    0    0  0.19997114958E+03  0.87148838723E+02 -0.58007904708E+03  0.10961252053E+04  0.90411027205E+03 0.  0.
         23    2    4    4    0    0  0.49534975334E+03 -0.43666402310E+01 -0.58611770725E+03  0.77282859037E+03  0.91321507109E+02 0.  0.
         23    2    4    4    0    0 -0.29537860376E+03  0.91515478954E+02  0.60386601701E+01  0.32329661491E+03  0.94130937234E+02 0.  0.
          4    1    3    3  502    0  0.21284741061E+01  0.13144493837E+02 -0.12055887262E+02  0.17962531502E+02  0.00000000000E+00 0. -1.
         -3    1    3    3    0  502 -0.20209962369E+03 -0.10029333256E+03 -0.22071134887E+03  0.31562083260E+03  0.00000000000E+00 0.  1.
         11    1    5    5    0    0  0.93885223387E+02 -0.83616126940E+01 -0.62871603620E+02  0.11330132514E+03  0.00000000000E+00 0. -1.
        -11    1    5    5    0    0  0.40146452996E+03  0.39949724630E+01 -0.52324610363E+03  0.65952726523E+03  0.00000000000E+00 0.  1.
          1    1    6    6  503    0 -0.88231937812E+02  0.61187530230E+02  0.32722970015E+02  0.11224785732E+03  0.00000000000E+00 0. -1.
         -1    1    6    6    0  503 -0.20714666595E+03  0.30327948724E+02 -0.26684309845E+02  0.21104875759E+03  0.00000000000E+00 0.  1.
<mgrwt>
<rscale>  0 0.11761579E+04</rscale>
<asrwt>0</asrwt>
<pdfrwt beam="1">  1        2 0.17250422E+00 0.11761579E+04</pdfrwt>
<pdfrwt beam="2">  1       -1 0.47450944E-01 0.11761579E+04</pdfrwt>
<totfact> 0.10554509E+02</totfact>
</mgrwt>
</event>
<event>
12    6  0.1647231E-007  0.2164653E+04  0.7818608E-02  0.8533286E-01
         -1   -1    0    0    0  501 -0.00000000000E+00  0.00000000000E+00  0.15106600512E+04  0.15106600512E+04  0.00000000000E+00 0.  1.
          2   -1    0    0  501    0  0.00000000000E+00 -0.00000000000E+00 -0.77544321623E+03  0.77544321623E+03  0.00000000000E+00 0. -1.
         24    2    1    2    0    0  0.29531995047E+03 -0.32138900666E+03 -0.51905382402E+03  0.68285740054E+03  0.79828506838E+02 0.  0.
        254    2    1    2    0    0 -0.29531995047E+03  0.32138900666E+03  0.12542706590E+04  0.16032458669E+04  0.89816349123E+03 0.  0.
         23    2    4    4    0    0  0.43349879349E+02  0.44765683404E+02  0.11357109889E+04  0.11414700808E+04  0.96079740573E+02 0.  0.
         23    2    4    4    0    0 -0.33866982982E+03  0.27662332325E+03  0.11855967011E+03  0.46177578614E+03  0.89234324620E+02 0.  0.
          4    1    3    3  502    0  0.18213466220E+03 -0.25156952016E+03 -0.35549159700E+03  0.47205352894E+03  0.00000000000E+00 0. -1.
         -3    1    3    3    0  502  0.11318528827E+03 -0.69819486494E+02 -0.16356222702E+03  0.21080387160E+03  0.00000000000E+00 0.  1.
         11    1    5    5    0    0  0.30749897935E+02  0.13979768210E+02  0.10320489307E+04  0.10326015619E+04  0.00000000000E+00 0. -1.
        -11    1    5    5    0    0  0.12599981414E+02  0.30785915194E+02  0.10366205815E+03  0.10886851889E+03  0.00000000000E+00 0.  1.
          4    1    6    6  503    0 -0.13296521575E+03  0.55795947796E+02  0.30367805199E+02  0.14736057811E+03  0.00000000000E+00 0.  1.
         -4    1    6    6    0  503 -0.20570461407E+03  0.22082737546E+03  0.88191864913E+02  0.31441520803E+03  0.00000000000E+00 0. -1.
<mgrwt>
<rscale>  0 0.21646534E+04</rscale>
<asrwt>0</asrwt>
<pdfrwt beam="1">  1        2 0.11929896E+00 0.21646534E+04</pdfrwt>
<pdfrwt beam="2">  1       -1 0.23240924E+00 0.21646534E+04</pdfrwt>
<totfact> 0.34162577E+00</totfact>
</mgrwt>
</event>
<event>
12    6  0.1647231E-007  0.4045690E+04  0.7818608E-02  0.7995392E-01
          2   -1    0    0  501    0  0.00000000000E+00  0.00000000000E+00  0.23734267888E+04  0.23734267888E+04  0.00000000000E+00 0. -1.
         -1   -1    0    0    0  501 -0.00000000000E+00 -0.00000000000E+00 -0.17240483775E+04  0.17240483775E+04  0.00000000000E+00 0.  1.
         24    2    1    2    0    0  0.23566359768E+03  0.18872764659E+04  0.43890351718E+02  0.19041776637E+04  0.81341390992E+02 0.  0.
        254    2    1    2    0    0 -0.23566359768E+03 -0.18872764659E+04  0.60548805959E+03  0.21932975027E+04  0.90916904637E+03 0.  0.
         23    2    4    4    0    0  0.45560174930E+02  0.26714500389E+01  0.21944783096E+03  0.24184779321E+03  0.90830272374E+02 0.  0.
         23    2    4    4    0    0 -0.28122377261E+03 -0.18899479159E+04  0.38604022863E+03  0.19514497095E+04  0.90216268955E+02 0.  0.
          2    1    3    3  502    0  0.68358314617E+02  0.41868669507E+03 -0.20077081669E+02  0.42470518835E+03  0.00000000000E+00 0. -1.
         -1    1    3    3    0  502  0.16730528306E+03  0.14685897708E+04  0.63967433387E+02  0.14794724753E+04  0.00000000000E+00 0.  1.
         11    1    5    5    0    0  0.33497065512E+02  0.41218135143E+02  0.16942055768E+03  0.17755087560E+03  0.00000000000E+00 0.  1.
        -11    1    5    5    0    0  0.12063109418E+02 -0.38546685104E+02  0.50027273287E+02  0.64296917607E+02  0.00000000000E+00 0. -1.
          2    1    6    6  503    0 -0.11458621722E+03 -0.79581459911E+03  0.20777986629E+03  0.83043563879E+03  0.00000000000E+00 0. -1.
         -2    1    6    6    0  503 -0.16663755539E+03 -0.10941333168E+04  0.17826036234E+03  0.11210140707E+04  0.00000000000E+00 0.  1.
<mgrwt>
<rscale>  0 0.40456904E+04</rscale>
<asrwt>0</asrwt>
<pdfrwt beam="1">  1        2 0.36514258E+00 0.40456904E+04</pdfrwt>
<pdfrwt beam="2">  1       -1 0.26523821E+00 0.40456904E+04</pdfrwt>
<totfact> 0.20413171E-01</totfact>
</mgrwt>
</event>
<event>
12    6  0.1647231E-007  0.1520417E+04  0.7818608E-02  0.8870988E-01
          2   -1    0    0  501    0  0.00000000000E+00  0.00000000000E+00  0.16216070194E+04  0.16216070194E+04  0.00000000000E+00 0. -1.
         -1   -1    0    0    0  501 -0.00000000000E+00 -0.00000000000E+00 -0.35638523930E+03  0.35638523930E+03  0.00000000000E+00 0.  1.
         24    2    1    2    0    0  0.39532916378E+03  0.26442337053E+02  0.43654935207E+02  0.40776603955E+03  0.85924645620E+02 0.  0.
        254    2    1    2    0    0 -0.39532916378E+03 -0.26442337053E+02  0.12215668449E+04  0.15702262191E+04  0.90354882426E+03 0.  0.
         23    2    4    4    0    0 -0.30460668255E+03 -0.44587679152E+03  0.67996674429E+03  0.87310966061E+03  0.91511539393E+02 0.  0.
         23    2    4    4    0    0 -0.90722481227E+02  0.41943445447E+03  0.54160010058E+03  0.69711655852E+03  0.92114043515E+02 0.  0.
          4    1    3    3  502    0  0.90335917150E+01 -0.10180543202E+02  0.12516621892E+02  0.18490945426E+02  0.00000000000E+00 0. -1.
         -3    1    3    3    0  502  0.38629557206E+03  0.36622880254E+02  0.31138313314E+02  0.38927509413E+03  0.00000000000E+00 0.  1.
         11    1    5    5    0    0 -0.29544266762E+03 -0.38621051370E+03  0.58669813238E+03  0.76201025536E+03  0.00000000000E+00 0.  1.
        -11    1    5    5    0    0 -0.91640149317E+01 -0.59666277824E+02  0.93268611915E+02  0.11109940525E+03  0.00000000000E+00 0. -1.
          3    1    6    6  503    0 -0.69559488906E+02  0.12221583489E+03  0.18607785388E+03  0.23323850561E+03  0.00000000000E+00 0. -1.
         -3    1    6    6    0  503 -0.21162992321E+02  0.29721861958E+03  0.35552224670E+03  0.46387805291E+03  0.00000000000E+00 0.  1.
<mgrwt>
<rscale>  0 0.15204168E+04</rscale>
<asrwt>0</asrwt>
<pdfrwt beam="1">  1        2 0.24947800E+00 0.15204168E+04</pdfrwt>
<pdfrwt beam="2">  1       -1 0.54828499E-01 0.15204168E+04</pdfrwt>
<totfact> 0.40068148E+01</totfact>
</mgrwt>
</event>
<event>
12    6  0.1647231E-007  0.2140173E+04  0.7818608E-02  0.8543751E-01
         -1   -1    0    0    0  501 -0.00000000000E+00  0.00000000000E+00  0.61078109792E+03  0.61078109792E+03  0.00000000000E+00 0.  1.
          2   -1    0    0  501    0  0.00000000000E+00 -0.00000000000E+00 -0.18747874150E+04  0.18747874150E+04  0.00000000000E+00 0. -1.
         24    2    1    2    0    0 -0.35684678968E+02  0.38785405111E+03  0.39304326598E+03  0.55901479303E+03  0.79437828631E+02 0.  0.
        254    2    1    2    0    0  0.35684678968E+02 -0.38785405111E+03 -0.16570495830E+04  0.19265537199E+04  0.90227033290E+03 0.  0.
         23    2    4    4    0    0  0.18593169291E+03 -0.61191570211E+03 -0.14016557185E+04  0.15434535685E+04  0.92729412916E+02 0.  0.
         23    2    4    4    0    0 -0.15024701394E+03  0.22406165100E+03 -0.25539386453E+03  0.38310015136E+03  0.93605081506E+02 0.  0.
          2    1    3    3  502    0  0.12262245771E+02  0.21159092334E+02  0.95424109899E+01  0.26251237442E+02  0.00000000000E+00 0. -1.
         -3    1    3    3    0  502 -0.47946924738E+02  0.36669495878E+03  0.38350085499E+03  0.53276355558E+03  0.00000000000E+00 0.  1.
         11    1    5    5    0    0  0.16228156661E+03 -0.58449758015E+03 -0.13533746754E+04  0.14831034151E+04  0.00000000000E+00 0.  1.
        -11    1    5    5    0    0  0.23650126303E+02 -0.27418121960E+02 -0.48281043122E+02  0.60350153363E+02  0.00000000000E+00 0. -1.
          1    1    6    6  503    0 -0.98993063421E+02  0.65179801227E+02 -0.11059698933E+03  0.16211023146E+03  0.00000000000E+00 0. -1.
         -1    1    6    6    0  503 -0.51253950522E+02  0.15888184977E+03 -0.14479687520E+03  0.22098991990E+03  0.00000000000E+00 0.  1.
<mgrwt>
<rscale>  0 0.21401726E+04</rscale>
<asrwt>0</asrwt>
<pdfrwt beam="1">  1        2 0.28842883E+00 0.21401726E+04</pdfrwt>
<pdfrwt beam="2">  1       -1 0.93966324E-01 0.21401726E+04</pdfrwt>
<totfact> 0.89991712E+00</totfact>
</mgrwt>
</event>
<event>
12    6  0.1647231E-007  0.1410461E+04  0.7818608E-02  0.8946281E-01
          2   -1    0    0  501    0  0.00000000000E+00  0.00000000000E+00  0.19908290707E+04  0.19908290707E+04  0.00000000000E+00 0. -1.
         -1   -1    0    0    0  501 -0.00000000000E+00 -0.00000000000E+00 -0.24982045731E+03  0.24982045731E+03  0.00000000000E+00 0.  1.
         24    2    1    2    0    0 -0.35519448566E+03  0.75661856571E+02  0.79188401059E+03  0.87464849522E+03  0.77729433183E+02 0.  0.
        254    2    1    2    0    0  0.35519448566E+03 -0.75661856571E+02  0.94912460281E+03  0.13660010328E+04  0.91281623055E+03 0.  0.
         23    2    4    4    0    0  0.99751360841E+02  0.23399736973E+03 -0.60322841520E+02  0.27629557010E+03  0.89416406878E+02 0.  0.
         23    2    4    4    0    0  0.25544312482E+03 -0.30965922630E+03  0.10094474443E+04  0.10897054627E+04  0.85637760948E+02 0.  0.
          4    1    3    3  502    0 -0.16192969871E+03  0.37696364296E+02  0.45485069741E+03  0.48428442071E+03  0.00000000000E+00 0. -1.
         -3    1    3    3    0  502 -0.19326478695E+03  0.37965492275E+02  0.33703331318E+03  0.39036407451E+03  0.00000000000E+00 0.  1.
         11    1    5    5    0    0  0.36954077963E+02  0.35008106511E+02 -0.43495114993E+02  0.66955182233E+02  0.00000000000E+00 0.  1.
        -11    1    5    5    0    0  0.62797282878E+02  0.19898926322E+03 -0.16827726527E+02  0.20934038787E+03  0.00000000000E+00 0. -1.
          3    1    6    6  503    0  0.12188205317E+03 -0.14362815939E+03  0.36174476223E+03  0.40785237042E+03  0.00000000000E+00 0. -1.
         -3    1    6    6    0  503  0.13356107165E+03 -0.16603106691E+03  0.64770268211E+03  0.68185309228E+03  0.00000000000E+00 0.  1.
<mgrwt>
<rscale>  0 0.14104607E+04</rscale>
<asrwt>0</asrwt>
<pdfrwt beam="1">  1        2 0.30628139E+00 0.14104607E+04</pdfrwt>
<pdfrwt beam="2">  1       -1 0.38433918E-01 0.14104607E+04</pdfrwt>
<totfact> 0.49097849E+01</totfact>
</mgrwt>
</event>
<event>
12    6  0.1647231E-007  0.1371008E+04  0.7818608E-02  0.8975076E-01
         -1   -1    0    0    0  501 -0.00000000000E+00  0.00000000000E+00  0.65955022049E+03  0.65955022049E+03  0.00000000000E+00 0.  1.
          2   -1    0    0  501    0  0.00000000000E+00 -0.00000000000E+00 -0.71247902657E+03  0.71247902657E+03  0.00000000000E+00 0. -1.
         24    2    1    2    0    0  0.34067230947E+03  0.16492989319E+03 -0.60606258587E+02  0.39378274202E+03  0.90178917856E+02 0.  0.
        254    2    1    2    0    0 -0.34067230947E+03 -0.16492989319E+03  0.76774525004E+01  0.97824650504E+03  0.90202427309E+03 0.  0.
         23    2    4    4    0    0  0.29753868372E+03  0.35434507787E+01 -0.29535386850E+01  0.31160272184E+03  0.92443001422E+02 0.  0.
         23    2    4    4    0    0 -0.63821099319E+03 -0.16847334397E+03  0.10630991185E+02  0.66664378321E+03  0.92759777174E+02 0.  0.
          4    1    3    3  502    0  0.55309230640E+02  0.46635447099E+02 -0.43460947265E+02  0.84396859286E+02  0.00000000000E+00 0. -1.
         -3    1    3    3    0  502  0.28536307883E+03  0.11829444609E+03 -0.17145311322E+02  0.30938588273E+03  0.00000000000E+00 0.  1.
         11    1    5    5    0    0  0.19718111331E+03 -0.35667252798E+02 -0.24024574608E+02  0.20181606614E+03  0.00000000000E+00 0.  1.
        -11    1    5    5    0    0  0.10035757041E+03  0.39210703576E+02  0.21071035923E+02  0.10978665570E+03  0.00000000000E+00 0. -1.
          1    1    6    6  503    0 -0.14152997258E+02 -0.17789865714E+02 -0.87510720087E+01  0.24359144378E+02  0.00000000000E+00 0. -1.
         -1    1    6    6    0  503 -0.62405799593E+03 -0.15068347826E+03  0.19382063194E+02  0.64228463883E+03  0.00000000000E+00 0.  1.
<mgrwt>
<rscale>  0 0.13710079E+04</rscale>
<asrwt>0</asrwt>
<pdfrwt beam="1">  1        2 0.10961216E+00 0.13710079E+04</pdfrwt>
<pdfrwt beam="2">  1       -1 0.10146926E+00 0.13710079E+04</pdfrwt>
<totfact> 0.41151072E+01</totfact>
</mgrwt>
</event>
<event>
12    6  0.1647231E-007  0.1029182E+04  0.7818608E-02  0.9277105E-01
         -1   -1    0    0    0  501 -0.00000000000E+00  0.00000000000E+00  0.31610385297E+03  0.31610385297E+03  0.00000000000E+00 0.  1.
          2   -1    0    0  501    0  0.00000000000E+00 -0.00000000000E+00 -0.83771144725E+03  0.83771144725E+03  0.00000000000E+00 0. -1.
         24    2    1    2    0    0  0.44593248979E+01  0.40676803550E+02  0.10787642322E+03  0.13604504928E+03  0.72086370564E+02 0.  0.
        254    2    1    2    0    0 -0.44593248979E+01 -0.40676803550E+02 -0.62948401749E+03  0.10177702509E+04  0.79870624606E+03 0.  0.
         23    2    4    4    0    0  0.35996007094E+03 -0.36179691246E+02 -0.13748871178E+03  0.39880162075E+03  0.96225589723E+02 0.  0.
         23    2    4    4    0    0 -0.36441939583E+03 -0.44971123037E+01 -0.49199530572E+03  0.61896863019E+03  0.90780307541E+02 0.  0.
          4    1    3    3  502    0 -0.84056499275E+01  0.13290149717E+02 -0.70274259000E+01  0.17224045547E+02  0.00000000000E+00 0. -1.
         -3    1    3    3    0  502  0.12864974825E+02  0.27386653832E+02  0.11490384912E+03  0.11882100373E+03  0.00000000000E+00 0.  1.
         11    1    5    5    0    0  0.56272171335E+02 -0.42046367231E+02 -0.32759610577E+02  0.77509008181E+02  0.00000000000E+00 0. -1.
        -11    1    5    5    0    0  0.30368789960E+03  0.58666759853E+01 -0.10472910120E+03  0.32129261256E+03  0.00000000000E+00 0.  1.
          1    1    6    6  503    0 -0.81080779360E+02 -0.81590199631E+01 -0.55616146388E+02  0.98660114167E+02  0.00000000000E+00 0. -1.
         -1    1    6    6    0  503 -0.28333861647E+03  0.36619076594E+01 -0.43637915933E+03  0.52030851603E+03  0.00000000000E+00 0.  1.
<mgrwt>
<rscale>  0 0.10291818E+04</rscale>
<asrwt>0</asrwt>
<pdfrwt beam="1">  1        2 0.12887868E+00 0.10291818E+04</pdfrwt>
<pdfrwt beam="2">  1       -1 0.48631363E-01 0.10291818E+04</pdfrwt>
<totfact> 0.15576497E+02</totfact>
</mgrwt>
</event>
<event>
12    6  0.1647231E-007  0.1464274E+04  0.7818608E-02  0.8908564E-01
         -1   -1    0    0    0  501 -0.00000000000E+00  0.00000000000E+00  0.20225336415E+03  0.20225336415E+03  0.00000000000E+00 0.  1.
          2   -1    0    0  501    0  0.00000000000E+00 -0.00000000000E+00 -0.26502615567E+04  0.26502615567E+04  0.00000000000E+00 0. -1.
         24    2    1    2    0    0 -0.16622832401E+03  0.50908814191E+02  0.44567849419E+02  0.19619643466E+03  0.79266542158E+02 0.  0.
        254    2    1    2    0    0  0.16622832401E+03 -0.50908814191E+02 -0.24925760420E+04  0.26563184862E+04  0.90159248669E+03 0.  0.
         23    2    4    4    0    0  0.37009236013E+03 -0.10331760407E+02 -0.23654699328E+04  0.23961440690E+04  0.94780250523E+02 0.  0.
         23    2    4    4    0    0 -0.20386403612E+03 -0.40577053784E+02 -0.12710610915E+03  0.26017441723E+03  0.91256352551E+02 0.  0.
          2    1    3    3  502    0 -0.76293828425E+02  0.19124480491E+01 -0.14913470872E+02  0.77761284241E+02  0.00000000000E+00 0. -1.
         -1    1    3    3    0  502 -0.89934495582E+02  0.48996366141E+02  0.59481320290E+02  0.11843515042E+03  0.00000000000E+00 0.  1.
         11    1    5    5    0    0  0.16342786959E+03 -0.34819594218E+02 -0.12845686748E+04  0.12953909653E+04  0.00000000000E+00 0. -1.
        -11    1    5    5    0    0  0.20666449054E+03  0.24487833811E+02 -0.10809012581E+04  0.11007531037E+04  0.00000000000E+00 0.  1.
          1    1    6    6  503    0 -0.24354828699E+02  0.67480704383E+01  0.12213063038E+02  0.28068720034E+02  0.00000000000E+00 0. -1.
         -1    1    6    6    0  503 -0.17950920742E+03 -0.47325124222E+02 -0.13931917219E+03  0.23210569720E+03  0.00000000000E+00 0.  1.
<mgrwt>
<rscale>  0 0.14642736E+04</rscale>
<asrwt>0</asrwt>
<pdfrwt beam="1">  1        2 0.40773257E+00 0.14642736E+04</pdfrwt>
<pdfrwt beam="2">  1       -1 0.31115900E-01 0.14642736E+04</pdfrwt>
<totfact> 0.30134193E+01</totfact>
</mgrwt>
</event>
<event>
12    6  0.1647231E-007  0.3471451E+04  0.7818608E-02  0.8120589E-01
         -1   -1    0    0    0  501 -0.00000000000E+00  0.00000000000E+00  0.91472727801E+03  0.91472727801E+03  0.00000000000E+00 0.  1.
          2   -1    0    0  501    0  0.00000000000E+00 -0.00000000000E+00 -0.32935975763E+04  0.32935975763E+04  0.00000000000E+00 0. -1.
         24    2    1    2    0    0 -0.94868962213E+03  0.26490911899E+03 -0.26615901381E+04  0.28390635696E+04  0.77659825556E+02 0.  0.
        254    2    1    2    0    0  0.94868962213E+03 -0.26490911899E+03  0.28271983980E+03  0.13692612847E+04  0.90816139401E+03 0.  0.
         23    2    4    4    0    0 -0.36837792375E+02 -0.15840381155E+03  0.32318114537E+03  0.37330368141E+03  0.91982581889E+02 0.  0.
         23    2    4    4    0    0  0.98552741451E+03 -0.10650530744E+03 -0.40461305569E+02  0.99595760332E+03  0.87674198632E+02 0.  0.
          4    1    3    3  502    0 -0.77569414937E+03  0.22957209987E+03 -0.22582036038E+04  0.23987263868E+04  0.00000000000E+00 0. -1.
         -3    1    3    3    0  502 -0.17299547277E+03  0.35337019120E+02 -0.40338653427E+03  0.44033718279E+03  0.00000000000E+00 0.  1.
         11    1    5    5    0    0 -0.86314311799E+00 -0.14117010339E+03  0.28518396378E+03  0.31821319317E+03  0.00000000000E+00 0.  1.
        -11    1    5    5    0    0 -0.35974649257E+02 -0.17233708152E+02  0.37997181588E+02  0.55090488239E+02  0.00000000000E+00 0. -1.
          4    1    6    6  503    0  0.16693415528E+02 -0.14055019989E+02  0.93808821451E+00  0.21842475097E+02  0.00000000000E+00 0. -1.
         -4    1    6    6    0  503  0.96883399898E+03 -0.92450287455E+02 -0.41399393783E+02  0.97411512822E+03  0.00000000000E+00 0.  1.
<mgrwt>
<rscale>  0 0.34714513E+04</rscale>
<asrwt>0</asrwt>
<pdfrwt beam="1">  1        2 0.50670732E+00 0.34714513E+04</pdfrwt>
<pdfrwt beam="2">  1       -1 0.14072727E+00 0.34714513E+04</pdfrwt>
<totfact> 0.43442631E-01</totfact>
</mgrwt>
</event>
<event>
12    6  0.1647231E-007  0.1458771E+04  0.7818608E-02  0.8912342E-01
         -1   -1    0    0    0  501 -0.00000000000E+00  0.00000000000E+00  0.43839505951E+03  0.43839505951E+03  0.00000000000E+00 0.  1.
          2   -1    0    0  501    0  0.00000000000E+00 -0.00000000000E+00 -0.12135248560E+04  0.12135248560E+04  0.00000000000E+00 0. -1.
         24    2    1    2    0    0 -0.40532262771E+03 -0.75646297415E+02 -0.42090931758E+02  0.42413732051E+03  0.90066782251E+02 0.  0.
        254    2    1    2    0    0  0.40532262771E+03  0.75646297415E+02 -0.73303886473E+03  0.12277825950E+04  0.89448047969E+03 0.  0.
         23    2    4    4    0    0  0.12087348044E+03  0.14893902759E+03 -0.86671666128E+03  0.89245742792E+03  0.92137166754E+02 0.  0.
         23    2    4    4    0    0  0.28444914727E+03 -0.73292730171E+02  0.13367779655E+03  0.33532516709E+03  0.91049836423E+02 0.  0.
          2    1    3    3  502    0 -0.36195873136E+03 -0.45133937843E+02 -0.56691078050E+02  0.36914099458E+03  0.00000000000E+00 0. -1.
         -1    1    3    3    0  502 -0.43363896354E+02 -0.30512359572E+02  0.14600146292E+02  0.54996325927E+02  0.00000000000E+00 0.  1.
         11    1    5    5    0    0  0.10165200131E+03  0.14736488625E+03 -0.84343612724E+03  0.86222621150E+03  0.00000000000E+00 0.  1.
        -11    1    5    5    0    0  0.19221479128E+02  0.15741413320E+01 -0.23280534041E+02  0.30231216417E+02  0.00000000000E+00 0. -1.
          2    1    6    6  503    0  0.48154994495E+02  0.19778959441E+02  0.35670735230E+02  0.63107147640E+02  0.00000000000E+00 0. -1.
         -2    1    6    6    0  503  0.23629415278E+03 -0.93071689612E+02  0.98007061320E+02  0.27221801945E+03  0.00000000000E+00 0.  1.
<mgrwt>
<rscale>  0 0.14587711E+04</rscale>
<asrwt>0</asrwt>
<pdfrwt beam="1">  1        2 0.18669613E+00 0.14587711E+04</pdfrwt>
<pdfrwt beam="2">  1       -1 0.67445394E-01 0.14587711E+04</pdfrwt>
<totfact> 0.45742836E+01</totfact>
</mgrwt>
</event>
<event>
12    6  0.1647231E-007  0.1929650E+04  0.7818608E-02  0.8640237E-01
          2   -1    0    0  501    0  0.00000000000E+00  0.00000000000E+00  0.23720897703E+04  0.23720897703E+04  0.00000000000E+00 0. -1.
         -1   -1    0    0    0  501 -0.00000000000E+00 -0.00000000000E+00 -0.39243337146E+03  0.39243337146E+03  0.00000000000E+00 0.  1.
         24    2    1    2    0    0 -0.62825420609E+03  0.31222145534E+03  0.11664202877E+04  0.13634685900E+04  0.79528131783E+02 0.  0.
        254    2    1    2    0    0  0.62825420609E+03 -0.31222145534E+03  0.81323611113E+03  0.14010545517E+04  0.89967510795E+03 0.  0.
         23    2    4    4    0    0 -0.70206763851E+02 -0.65285069828E+02  0.61550334985E+03  0.62944403756E+03  0.90356475714E+02 0.  0.
         23    2    4    4    0    0  0.69846096994E+03 -0.24693638552E+03  0.19773276128E+03  0.77161051418E+03  0.86366866900E+02 0.  0.
          4    1    3    3  502    0 -0.51423019733E+03  0.22094650013E+03  0.90839915787E+03  0.10669766079E+04  0.00000000000E+00 0. -1.
         -3    1    3    3    0  502 -0.11402400875E+03  0.91274955217E+02  0.25802112987E+03  0.29649198216E+03  0.00000000000E+00 0.  1.
         11    1    5    5    0    0  0.13264571084E+02  0.11877821871E+02  0.70649815887E+02  0.72858959527E+02  0.00000000000E+00 0.  1.
        -11    1    5    5    0    0 -0.83471334935E+02 -0.77162891699E+02  0.54485353397E+03  0.55658507803E+03  0.00000000000E+00 0. -1.
          4    1    6    6  503    0  0.67211938794E+03 -0.25392791909E+03  0.18806085879E+03  0.74269155532E+03  0.00000000000E+00 0. -1.
         -4    1    6    6    0  503  0.26341582002E+02  0.69915335736E+01  0.96719024968E+01  0.28918958867E+02  0.00000000000E+00 0.  1.
<mgrwt>
<rscale>  0 0.19296499E+04</rscale>
<asrwt>0</asrwt>
<pdfrwt beam="1">  1        2 0.36493688E+00 0.19296499E+04</pdfrwt>
<pdfrwt beam="2">  1       -1 0.60374366E-01 0.19296499E+04</pdfrwt>
<totfact> 0.12210621E+01</totfact>
</mgrwt>
</event>
<event>
12    6  0.1647231E-007  0.2026950E+04  0.7818608E-02  0.8594123E-01
         -1   -1    0    0    0  501 -0.00000000000E+00  0.00000000000E+00  0.10654859487E+04  0.10654859487E+04  0.00000000000E+00 0.  1.
          2   -1    0    0  501    0  0.00000000000E+00 -0.00000000000E+00 -0.96400329727E+03  0.96400329727E+03  0.00000000000E+00 0. -1.
         24    2    1    2    0    0  0.56216590139E+03 -0.49425056903E+03 -0.27131297892E+03  0.80028327691E+03  0.80798917716E+02 0.  0.
        254    2    1    2    0    0 -0.56216590139E+03  0.49425056903E+03  0.37279563033E+03  0.12292059690E+04  0.90091986695E+03 0.  0.
         23    2    4    4    0    0 -0.54675753500E+02  0.64759880698E+02  0.52659186493E+03  0.54082227692E+03  0.89478840169E+02 0.  0.
         23    2    4    4    0    0 -0.50749014789E+03  0.42949068833E+03 -0.15379623460E+03  0.68838369212E+03  0.90610839466E+02 0.  0.
          4    1    3    3  502    0  0.54381782314E+03 -0.46981551864E+03 -0.24300072915E+03  0.75862625890E+03  0.00000000000E+00 0. -1.
         -3    1    3    3    0  502  0.18348078248E+02 -0.24435050384E+02 -0.28312249767E+02  0.41657018010E+02  0.00000000000E+00 0.  1.
         11    1    5    5    0    0  0.18709784006E+02 -0.11098130111E+01  0.37909109674E+02  0.42289340249E+02  0.00000000000E+00 0.  1.
        -11    1    5    5    0    0 -0.73385537507E+02  0.65869693709E+02  0.48868275525E+03  0.49853293667E+03  0.00000000000E+00 0. -1.
          2    1    6    6  503    0 -0.47923404342E+03  0.37376382771E+03 -0.14879140535E+03  0.62570244492E+03  0.00000000000E+00 0. -1.
         -2    1    6    6    0  503 -0.28256104475E+02  0.55726860614E+02 -0.50048292496E+01  0.62681247194E+02  0.00000000000E+00 0.  1.
<mgrwt>
<rscale>  0 0.20269504E+04</rscale>
<asrwt>0</asrwt>
<pdfrwt beam="1">  1        2 0.14830820E+00 0.20269504E+04</pdfrwt>
<pdfrwt beam="2">  1       -1 0.16392092E+00 0.20269504E+04</pdfrwt>
<totfact> 0.76745793E+00</totfact>
</mgrwt>
</event>
<event>
12    6  0.1647231E-007  0.1852740E+04  0.7818608E-02  0.8678745E-01
          2   -1    0    0  501    0  0.00000000000E+00  0.00000000000E+00  0.21993591708E+04  0.21993591708E+04  0.00000000000E+00 0. -1.
         -1   -1    0    0    0  501 -0.00000000000E+00 -0.00000000000E+00 -0.39018703024E+03  0.39018703024E+03  0.00000000000E+00 0.  1.
         24    2    1    2    0    0  0.70315805032E+03 -0.19845235693E+02  0.75582898498E+03  0.10356655300E+04  0.80626040563E+02 0.  0.
        254    2    1    2    0    0 -0.70315805032E+03  0.19845235693E+02  0.10533431555E+04  0.15538806710E+04  0.90010458237E+03 0.  0.
         23    2    4    4    0    0  0.13370148824E+03 -0.14175622470E+03  0.27650781070E+02  0.21698850042E+03  0.91370281953E+02 0.  0.
         23    2    4    4    0    0 -0.83685953856E+03  0.16160146039E+03  0.10256923745E+04  0.13368921706E+04  0.93738515852E+02 0.  0.
          2    1    3    3  502    0  0.11798269082E+02  0.63914215907E+01  0.41280476804E+01  0.14038881755E+02  0.00000000000E+00 0. -1.
         -1    1    3    3    0  502  0.69135978124E+03 -0.26236657284E+02  0.75170093730E+03  0.10216266483E+04  0.00000000000E+00 0.  1.
         11    1    5    5    0    0  0.85402216449E+02 -0.10488981603E+03  0.60206693034E+02  0.14805491538E+03  0.00000000000E+00 0. -1.
        -11    1    5    5    0    0  0.48299271794E+02 -0.36866408668E+02 -0.32555911964E+02  0.68933585049E+02  0.00000000000E+00 0.  1.
          4    1    6    6  503    0 -0.18678747189E+02 -0.91198368542E+01  0.35235701498E+02  0.40909921545E+02  0.00000000000E+00 0. -1.
         -4    1    6    6    0  503 -0.81818079137E+03  0.17072129724E+03  0.99045667297E+03  0.12959822490E+04  0.00000000000E+00 0.  1.
<mgrwt>
<rscale>  0 0.18527401E+04</rscale>
<asrwt>0</asrwt>
<pdfrwt beam="1">  1        2 0.33836294E+00 0.18527401E+04</pdfrwt>
<pdfrwt beam="2">  1       -1 0.60028775E-01 0.18527401E+04</pdfrwt>
<totfact> 0.15569944E+01</totfact>
</mgrwt>
</event>
<event>
12    6  0.1647231E-007  0.1765043E+04  0.7818608E-02  0.8725113E-01
         -1   -1    0    0    0  501 -0.00000000000E+00  0.00000000000E+00  0.48418516171E+03  0.48418516171E+03  0.00000000000E+00 0.  1.
          2   -1    0    0  501    0  0.00000000000E+00 -0.00000000000E+00 -0.16085667673E+04  0.16085667673E+04  0.00000000000E+00 0. -1.
         24    2    1    2    0    0 -0.58357970547E+03  0.26250824682E+03 -0.26169850561E+03  0.69582676930E+03  0.78822158970E+02 0.  0.
        254    2    1    2    0    0  0.58357970547E+03 -0.26250824682E+03 -0.86268310001E+03  0.13969251597E+04  0.89314160053E+03 0.  0.
         23    2    4    4    0    0  0.23438615027E+03 -0.41318023367E+03 -0.39290791463E+02  0.48524747258E+03  0.90920681970E+02 0.  0.
         23    2    4    4    0    0  0.34919355520E+03  0.15067198685E+03 -0.82339230854E+03  0.91167768717E+03  0.92429026278E+02 0.  0.
          2    1    3    3  502    0 -0.27794749258E+03  0.11114017496E+03 -0.82255983203E+02  0.31044000047E+03  0.00000000000E+00 0. -1.
         -1    1    3    3    0  502 -0.30563221289E+03  0.15136807186E+03 -0.17944252241E+03  0.38538676882E+03  0.00000000000E+00 0.  1.
         11    1    5    5    0    0  0.23442946584E+03 -0.40076652697E+03 -0.52339719683E+02  0.46723701678E+03  0.00000000000E+00 0. -1.
        -11    1    5    5    0    0 -0.43315562671E-01 -0.12413706702E+02  0.13048928220E+02  0.18010455797E+02  0.00000000000E+00 0.  1.
          4    1    6    6  503    0  0.34761698455E+03  0.14747115714E+03 -0.82533576448E+03  0.90761469482E+03  0.00000000000E+00 0. -1.
         -4    1    6    6    0  503  0.15765706463E+01  0.32008297067E+01  0.19434559335E+01  0.40629923430E+01  0.00000000000E+00 0.  1.
<mgrwt>
<rscale>  0 0.17650430E+04</rscale>
<asrwt>0</asrwt>
<pdfrwt beam="1">  1        2 0.24747181E+00 0.17650430E+04</pdfrwt>
<pdfrwt beam="2">  1       -1 0.74490024E-01 0.17650430E+04</pdfrwt>
<totfact> 0.21573547E+01</totfact>
</mgrwt>
</event>
<event>
12    6  0.1647231E-007  0.2031670E+04  0.7818608E-02  0.8591956E-01
         -1   -1    0    0    0  501 -0.00000000000E+00  0.00000000000E+00  0.53200482265E+03  0.53200482265E+03  0.00000000000E+00 0.  1.
          2   -1    0    0  501    0  0.00000000000E+00 -0.00000000000E+00 -0.19396823357E+04  0.19396823357E+04  0.00000000000E+00 0. -1.
         24    2    1    2    0    0 -0.16277071038E+03 -0.77859855337E+03 -0.32880525122E+03  0.86430081633E+03  0.78695593348E+02 0.  0.
        254    2    1    2    0    0  0.16277071038E+03  0.77859855337E+03 -0.10788722619E+04  0.16073863421E+04  0.88713893148E+03 0.  0.
         23    2    4    4    0    0 -0.11631760071E+03  0.26861902899E+03 -0.95887473729E+03  0.10067620152E+04  0.91885942276E+02 0.  0.
         23    2    4    4    0    0  0.27908831109E+03  0.50997952438E+03 -0.11999752457E+03  0.60062432689E+03  0.91546575481E+02 0.  0.
          2    1    3    3  502    0 -0.94587244365E+01 -0.20492643567E+03 -0.95903567809E+02  0.22645486487E+03  0.00000000000E+00 0. -1.
         -1    1    3    3    0  502 -0.15331198594E+03 -0.57367211770E+03 -0.23290168341E+03  0.63784595146E+03  0.00000000000E+00 0.  1.
         11    1    5    5    0    0  0.94365144571E+01  0.20042436512E+02 -0.31933599247E+02  0.38865174993E+02  0.00000000000E+00 0. -1.
        -11    1    5    5    0    0 -0.12575411517E+03  0.24857659248E+03 -0.92694113804E+03  0.96789684016E+03  0.00000000000E+00 0.  1.
          1    1    6    6  503    0  0.11888255355E+03  0.16521344790E+03 -0.78669348279E+02  0.21821414084E+03  0.00000000000E+00 0. -1.
         -1    1    6    6    0  503  0.16020575754E+03  0.34476607648E+03 -0.41328176287E+02  0.38241018605E+03  0.00000000000E+00 0.  1.
<mgrwt>
<rscale>  0 0.20316696E+04</rscale>
<asrwt>0</asrwt>
<pdfrwt beam="1">  1        2 0.29841266E+00 0.20316696E+04</pdfrwt>
<pdfrwt beam="2">  1       -1 0.81846897E-01 0.20316696E+04</pdfrwt>
<totfact> 0.11312205E+01</totfact>
</mgrwt>
</event>
<event>
12    6  0.1647231E-007  0.1669331E+04  0.7818608E-02  0.8779052E-01
          2   -1    0    0  501    0  0.00000000000E+00  0.00000000000E+00  0.18245372344E+04  0.18245372344E+04  0.00000000000E+00 0. -1.
         -1   -1    0    0    0  501 -0.00000000000E+00 -0.00000000000E+00 -0.38183207959E+03  0.38183207959E+03  0.00000000000E+00 0.  1.
         24    2    1    2    0    0  0.29025363301E+03 -0.23382334566E+03 -0.87418116496E+02  0.39122068972E+03  0.80567813212E+02 0.  0.
        254    2    1    2    0    0 -0.29025363301E+03  0.23382334566E+03  0.15301232713E+04  0.18151486243E+04  0.90253353088E+03 0.  0.
         23    2    4    4    0    0 -0.21444188242E+03  0.30130894835E+03  0.12259421734E+03  0.40111779717E+03  0.95361112532E+02 0.  0.
         23    2    4    4    0    0 -0.75811750585E+02 -0.67485602693E+02  0.14075290540E+04  0.14140308271E+04  0.89685083127E+02 0.  0.
          2    1    3    3  502    0  0.29108759802E+03 -0.22878767950E+03 -0.94859991168E+02  0.38219655930E+03  0.00000000000E+00 0. -1.
         -1    1    3    3    0  502 -0.83396501444E+00 -0.50356661605E+01  0.74418746724E+01  0.90241304271E+01  0.00000000000E+00 0.  1.
         11    1    5    5    0    0 -0.54049095486E+02  0.60104728969E+02  0.69553362075E+02  0.10663748564E+03  0.00000000000E+00 0. -1.
        -11    1    5    5    0    0 -0.16039278693E+03  0.24120421939E+03  0.53040855265E+02  0.29448031153E+03  0.00000000000E+00 0.  1.
          1    1    6    6  503    0  0.17829906880E+02 -0.10667559197E+02  0.11441651388E+03  0.11628775106E+03  0.00000000000E+00 0. -1.
         -1    1    6    6    0  503 -0.93641657465E+02 -0.56818043496E+02  0.12931125401E+04  0.12977430761E+04  0.00000000000E+00 0.  1.
<mgrwt>
<rscale>  0 0.16693314E+04</rscale>
<asrwt>0</asrwt>
<pdfrwt beam="1">  1        2 0.28069803E+00 0.16693314E+04</pdfrwt>
<pdfrwt beam="2">  1       -1 0.58743398E-01 0.16693314E+04</pdfrwt>
<totfact> 0.26683303E+01</totfact>
</mgrwt>
</event>
<event>
12    6  0.1647231E-007  0.1622187E+04  0.7818608E-02  0.8807032E-01
         -1   -1    0    0    0  501 -0.00000000000E+00  0.00000000000E+00  0.27145915102E+03  0.27145915102E+03  0.00000000000E+00 0.  1.
          2   -1    0    0  501    0  0.00000000000E+00 -0.00000000000E+00 -0.24234694814E+04  0.24234694814E+04  0.00000000000E+00 0. -1.
         24    2    1    2    0    0  0.91985117828E+02 -0.55400516332E+03 -0.73035773893E+03  0.92488792964E+03  0.81315882136E+02 0.  0.
        254    2    1    2    0    0 -0.91985117828E+02  0.55400516332E+03 -0.14216525915E+04  0.17700407028E+04  0.89250491081E+03 0.  0.
         23    2    4    4    0    0  0.20301234249E+03 -0.15157365644E+03 -0.50665399402E+03  0.57376785300E+03  0.91228805482E+02 0.  0.
         23    2    4    4    0    0 -0.29499746032E+03  0.70557881977E+03 -0.91499859744E+03  0.11962728498E+04  0.94769854471E+02 0.  0.
          2    1    3    3  502    0  0.83874288143E+02 -0.53209042827E+03 -0.72032624871E+03  0.89945818394E+03  0.00000000000E+00 0. -1.
         -1    1    3    3    0  502  0.81108296848E+01 -0.21914735046E+02 -0.10031490220E+02  0.25429745699E+02  0.00000000000E+00 0.  1.
         11    1    5    5    0    0  0.19864524640E+03 -0.15501048985E+03 -0.44121536934E+03  0.50809368036E+03  0.00000000000E+00 0. -1.
        -11    1    5    5    0    0  0.43670960915E+01  0.34368334024E+01 -0.65438624683E+02  0.65674172644E+02  0.00000000000E+00 0.  1.
          1    1    6    6  503    0 -0.15485582255E+03  0.36135598670E+03 -0.39682562621E+03  0.55859560732E+03  0.00000000000E+00 0. -1.
         -1    1    6    6    0  503 -0.14014163776E+03  0.34422283306E+03 -0.51817297124E+03  0.63767724246E+03  0.00000000000E+00 0.  1.
<mgrwt>
<rscale>  0 0.16221874E+04</rscale>
<asrwt>0</asrwt>
<pdfrwt beam="1">  1        2 0.37284145E+00 0.16221874E+04</pdfrwt>
<pdfrwt beam="2">  1       -1 0.41762947E-01 0.16221874E+04</pdfrwt>
<totfact> 0.23677694E+01</totfact>
</mgrwt>
</event>
<event>
12    6  0.1647231E-007  0.3949850E+04  0.7818608E-02  0.8014740E-01
          2   -1    0    0  501    0  0.00000000000E+00  0.00000000000E+00  0.15124616947E+04  0.15124616947E+04  0.00000000000E+00 0. -1.
         -1   -1    0    0    0  501 -0.00000000000E+00 -0.00000000000E+00 -0.25787950343E+04  0.25787950343E+04  0.00000000000E+00 0.  1.
         24    2    1    2    0    0  0.12784521277E+03 -0.22233823656E+02  0.14281214651E+04  0.14358030410E+04  0.71838095377E+02 0.  0.
        254    2    1    2    0    0 -0.12784521277E+03  0.22233823656E+02 -0.24944548047E+04  0.26554536881E+04  0.90127175461E+03 0.  0.
         23    2    4    4    0    0  0.13108976417E+03 -0.34081742502E+03 -0.16889111739E+04  0.17302780630E+04  0.90000991926E+02 0.  0.
         23    2    4    4    0    0 -0.25893497694E+03  0.36305124868E+03 -0.80554363082E+03  0.92517562512E+03  0.90531015148E+02 0.  0.
          2    1    3    3  502    0  0.81446608488E+02  0.21684393073E+02  0.84418742659E+03  0.84838444950E+03  0.00000000000E+00 0. -1.
         -1    1    3    3    0  502  0.46398604284E+02 -0.43918216729E+02  0.58393403853E+03  0.58741859147E+03  0.00000000000E+00 0.  1.
         11    1    5    5    0    0  0.11100295900E+03 -0.31672936577E+03 -0.13998576057E+04  0.14395278616E+04  0.00000000000E+00 0.  1.
        -11    1    5    5    0    0  0.20086805168E+02 -0.24088059252E+02 -0.28905356815E+03  0.29075020138E+03  0.00000000000E+00 0. -1.
          1    1    6    6  503    0 -0.19676334755E+03  0.32627342340E+03 -0.70504133850E+03  0.80140716914E+03  0.00000000000E+00 0. -1.
         -1    1    6    6    0  503 -0.62171629386E+02  0.36777825280E+02 -0.10050229232E+03  0.12376845598E+03  0.00000000000E+00 0.  1.
<mgrwt>
<rscale>  0 0.39498500E+04</rscale>
<asrwt>0</asrwt>
<pdfrwt beam="1">  1        2 0.23268642E+00 0.39498500E+04</pdfrwt>
<pdfrwt beam="2">  1       -1 0.39673769E+00 0.39498500E+04</pdfrwt>
<totfact> 0.84784763E-02</totfact>
</mgrwt>
</event>
<event>
12    6  0.1647231E-007  0.1227423E+04  0.7818608E-02  0.9089186E-01
         -1   -1    0    0    0  501 -0.00000000000E+00  0.00000000000E+00  0.39097651868E+03  0.39097651868E+03  0.00000000000E+00 0.  1.
          2   -1    0    0  501    0  0.00000000000E+00 -0.00000000000E+00 -0.96333569908E+03  0.96333569908E+03  0.00000000000E+00 0. -1.
         24    2    1    2    0    0 -0.12185374102E+03  0.24792238029E+03 -0.87586162299E+02  0.30034482310E+03  0.78878616154E+02 0.  0.
        254    2    1    2    0    0  0.12185374102E+03 -0.24792238029E+03 -0.48477301810E+03  0.10539673947E+04  0.89416360309E+03 0.  0.
         23    2    4    4    0    0  0.38512653679E+03 -0.44363540263E+03 -0.29714525646E+03  0.66495455612E+03  0.93458217694E+02 0.  0.
         23    2    4    4    0    0 -0.26327279577E+03  0.19571302234E+03 -0.18762776164E+03  0.38901283854E+03  0.92253235761E+02 0.  0.
          2    1    3    3  502    0 -0.25379767758E+02  0.11434504423E+02 -0.24917341742E+02  0.37359796872E+02  0.00000000000E+00 0. -1.
         -1    1    3    3    0  502 -0.96473973261E+02  0.23648787587E+03 -0.62668820558E+02  0.26298502623E+03  0.00000000000E+00 0.  1.
         11    1    5    5    0    0  0.96024138503E+02 -0.17775173864E+03 -0.10544435153E+03  0.22789213904E+03  0.00000000000E+00 0. -1.
        -11    1    5    5    0    0  0.28910239829E+03 -0.26588366400E+03 -0.19170090493E+03  0.43706241708E+03  0.00000000000E+00 0.  1.
          1    1    6    6  503    0 -0.60530675831E+02  0.57257571318E+02 -0.58353684496E+01  0.83525108289E+02  0.00000000000E+00 0. -1.
         -1    1    6    6    0  503 -0.20274211994E+03  0.13845545103E+03 -0.18179239319E+03  0.30548773026E+03  0.00000000000E+00 0.  1.
<mgrwt>
<rscale>  0 0.12274227E+04</rscale>
<asrwt>0</asrwt>
<pdfrwt beam="1">  1        2 0.14820549E+00 0.12274227E+04</pdfrwt>
<pdfrwt beam="2">  1       -1 0.60150234E-01 0.12274227E+04</pdfrwt>
<totfact> 0.83799652E+01</totfact>
</mgrwt>
</event>
<event>
12    6  0.1647231E-007  0.1671623E+04  0.7818608E-02  0.8777716E-01
         -1   -1    0    0    0  501 -0.00000000000E+00  0.00000000000E+00  0.40579679777E+03  0.40579679777E+03  0.00000000000E+00 0.  1.
          2   -1    0    0  501    0  0.00000000000E+00 -0.00000000000E+00 -0.17215040862E+04  0.17215040862E+04  0.00000000000E+00 0. -1.
         24    2    1    2    0    0 -0.28943183206E+03 -0.46086990336E+03 -0.18605577778E+03  0.58071361112E+03  0.80247694456E+02 0.  0.
        254    2    1    2    0    0  0.28943183206E+03  0.46086990336E+03 -0.11296515107E+04  0.15465872729E+04  0.90534402511E+03 0.  0.
         23    2    4    4    0    0  0.40748514121E+03 -0.83345560516E+02 -0.75835690220E+03  0.87106098890E+03  0.10320577747E+03 0.  0.
         23    2    4    4    0    0 -0.11805330915E+03  0.54421546387E+03 -0.37129460848E+03  0.67552628398E+03  0.91482343302E+02 0.  0.
          2    1    3    3  502    0 -0.46247216557E+02 -0.13637998741E+03 -0.60688616487E+02  0.15627352360E+03  0.00000000000E+00 0. -1.
         -1    1    3    3    0  502 -0.24318461551E+03 -0.32448991594E+03 -0.12536716129E+03  0.42444008752E+03  0.00000000000E+00 0.  1.
         11    1    5    5    0    0  0.37611427750E+03 -0.51847140470E+02 -0.63391632814E+03  0.73891811914E+03  0.00000000000E+00 0.  1.
        -11    1    5    5    0    0  0.31370863714E+02 -0.31498420047E+02 -0.12444057406E+03  0.13214286976E+03  0.00000000000E+00 0. -1.
          3    1    6    6  503    0  0.13057024159E+02  0.66007074098E+02 -0.59252533282E+02  0.89656468875E+02  0.00000000000E+00 0. -1.
         -3    1    6    6    0  503 -0.13111033331E+03  0.47820838978E+03 -0.31204207520E+03  0.58586981510E+03  0.00000000000E+00 0.  1.
<mgrwt>
<rscale>  0 0.16716230E+04</rscale>
<asrwt>0</asrwt>
<pdfrwt beam="1">  1        2 0.26484679E+00 0.16716230E+04</pdfrwt>
<pdfrwt beam="2">  1       -1 0.62430275E-01 0.16716230E+04</pdfrwt>
<totfact> 0.26970967E+01</totfact>
</mgrwt>
</event>
<event>
12    6  0.1647231E-007  0.1501255E+04  0.7818608E-02  0.8883619E-01
          2   -1    0    0  501    0  0.00000000000E+00  0.00000000000E+00  0.24529939223E+04  0.24529939223E+04  0.00000000000E+00 0. -1.
         -1   -1    0    0    0  501 -0.00000000000E+00 -0.00000000000E+00 -0.22969560794E+03  0.22969560794E+03  0.00000000000E+00 0.  1.
         24    2    1    2    0    0 -0.14990293818E+03  0.44298885466E+03  0.56756894722E+03  0.74205550602E+03  0.99004282396E+02 0.  0.
        254    2    1    2    0    0  0.14990293818E+03 -0.44298885466E+03  0.16557293672E+04  0.19406340242E+04  0.89772527120E+03 0.  0.
         23    2    4    4    0    0  0.20768856704E+02 -0.65933755207E+03  0.78290618924E+03  0.10274525760E+04  0.86944474879E+02 0.  0.
         23    2    4    4    0    0  0.12913408148E+03  0.21634869740E+03  0.87282317792E+03  0.91318144829E+03  0.92723717164E+02 0.  0.
          2    1    3    3  502    0 -0.70725601368E+02  0.34395827710E+03  0.42306658666E+03  0.54981337181E+03  0.00000000000E+00 0. -1.
         -1    1    3    3    0  502 -0.79177336812E+02  0.99030577567E+02  0.14450236056E+03  0.19224213421E+03  0.00000000000E+00 0.  1.
         11    1    5    5    0    0 -0.15307656146E+02 -0.20672405827E+03  0.29959178645E+03  0.36431359995E+03  0.00000000000E+00 0.  1.
        -11    1    5    5    0    0  0.36076512850E+02 -0.45261349379E+03  0.48331440279E+03  0.66313897600E+03  0.00000000000E+00 0. -1.
          4    1    6    6  503    0  0.10627102674E+03  0.18701686000E+03  0.82510716895E+03  0.85268439490E+03  0.00000000000E+00 0. -1.
         -4    1    6    6    0  503  0.22863054733E+02  0.29331837408E+02  0.47716008963E+02  0.60497053390E+02  0.00000000000E+00 0.  1.
<mgrwt>
<rscale>  0 0.15012554E+04</rscale>
<asrwt>0</asrwt>
<pdfrwt beam="1">  1        2 0.37738366E+00 0.15012554E+04</pdfrwt>
<pdfrwt beam="2">  1       -1 0.35337788E-01 0.15012554E+04</pdfrwt>
<totfact> 0.31177207E+01</totfact>
</mgrwt>
</event>
<event>
12    6  0.1647231E-007  0.2254168E+04  0.7818608E-02  0.8496214E-01
         -1   -1    0    0    0  501 -0.00000000000E+00  0.00000000000E+00  0.79019775276E+03  0.79019775276E+03  0.00000000000E+00 0.  1.
          2   -1    0    0  501    0  0.00000000000E+00 -0.00000000000E+00 -0.16075960683E+04  0.16075960683E+04  0.00000000000E+00 0. -1.
         24    2    1    2    0    0  0.46352039803E+03  0.82383408196E+03 -0.31407450211E+03  0.99932185881E+03  0.80297139554E+02 0.  0.
        254    2    1    2    0    0 -0.46352039803E+03 -0.82383408196E+03 -0.50332381345E+03  0.13984719623E+04  0.89935266390E+03 0.  0.
         23    2    4    4    0    0 -0.85695309968E+02 -0.10367632375E+03 -0.55495754690E+03  0.57842803915E+03  0.92242351218E+02 0.  0.
         23    2    4    4    0    0 -0.37782508806E+03 -0.72015775821E+03  0.51633733450E+02  0.82004392312E+03  0.91798690261E+02 0.  0.
          4    1    3    3  502    0  0.46834556886E+02  0.14275198293E+03 -0.51383971310E+02  0.15878260880E+03  0.00000000000E+00 0. -1.
         -3    1    3    3    0  502  0.41668584114E+03  0.68108209903E+03 -0.26269053080E+03  0.84053925000E+03  0.00000000000E+00 0.  1.
         11    1    5    5    0    0 -0.22329796990E+02  0.55707444224E+01 -0.20670869742E+03  0.20798590966E+03  0.00000000000E+00 0.  1.
        -11    1    5    5    0    0 -0.63365512979E+02 -0.10924706818E+03 -0.34824884948E+03  0.37044212949E+03  0.00000000000E+00 0. -1.
          1    1    6    6  503    0 -0.20845307732E+03 -0.32392058152E+03  0.55052606226E+02  0.38911183229E+03  0.00000000000E+00 0. -1.
         -1    1    6    6    0  503 -0.16937201075E+03 -0.39623717669E+03 -0.34188727761E+01  0.43093209083E+03  0.00000000000E+00 0.  1.
<mgrwt>
<rscale>  0 0.22541684E+04</rscale>
<asrwt>0</asrwt>
<pdfrwt beam="1">  1        2 0.24732247E+00 0.22541684E+04</pdfrwt>
<pdfrwt beam="2">  1       -1 0.12156889E+00 0.22541684E+04</pdfrwt>
<totfact> 0.68629368E+00</totfact>
</mgrwt>
</event>
<event>
12    6  0.1647231E-007  0.1214629E+04  0.7818608E-02  0.9100148E-01
          2   -1    0    0  501    0  0.00000000000E+00  0.00000000000E+00  0.12069415533E+04  0.12069415533E+04  0.00000000000E+00 0. -1.
         -1   -1    0    0    0  501 -0.00000000000E+00 -0.00000000000E+00 -0.30559121051E+03  0.30559121051E+03  0.00000000000E+00 0.  1.
         24    2    1    2    0    0  0.23404735611E+03  0.63303480889E+02  0.33703093840E+03  0.42264282125E+03  0.79067093818E+02 0.  0.
        254    2    1    2    0    0 -0.23404735611E+03 -0.63303480889E+02  0.56431940437E+03  0.10898899425E+04  0.90034337955E+03 0.  0.
         23    2    4    4    0    0  0.26209511496E+03 -0.21349224473E+03  0.50532105661E+02  0.35425113499E+03  0.93099866228E+02 0.  0.
         23    2    4    4    0    0 -0.49614247107E+03  0.15018876384E+03  0.51378729871E+03  0.73563880755E+03  0.92049174260E+02 0.  0.
          2    1    3    3  502    0  0.12122520654E+03  0.67071236682E+02  0.22041311007E+03  0.26033831947E+03  0.00000000000E+00 0. -1.
         -1    1    3    3    0  502  0.11282214956E+03 -0.37677557940E+01  0.11661782833E+03  0.16230450178E+03  0.00000000000E+00 0.  1.
         11    1    5    5    0    0  0.25472175235E+03 -0.22172926480E+03  0.42048800263E+02  0.34031623469E+03  0.00000000000E+00 0.  1.
        -11    1    5    5    0    0  0.73733626164E+01  0.82370200726E+01  0.84833053988E+01  0.13934900302E+02  0.00000000000E+00 0. -1.
          2    1    6    6  503    0 -0.46137998852E+03  0.15589512491E+03  0.45159941435E+03  0.66416625541E+03  0.00000000000E+00 0.  1.
         -2    1    6    6    0  503 -0.34762482553E+02 -0.57063610758E+01  0.62187884352E+02  0.71472552145E+02  0.00000000000E+00 0. -1.
<mgrwt>
<rscale>  0 0.12146287E+04</rscale>
<asrwt>0</asrwt>
<pdfrwt beam="1">  1        2 0.18568331E+00 0.12146287E+04</pdfrwt>
<pdfrwt beam="2">  1       -1 0.47014033E-01 0.12146287E+04</pdfrwt>
<totfact> 0.95069585E+01</totfact>
</mgrwt>
</event>
<event>
12    6  0.1647231E-007  0.1839915E+04  0.7818608E-02  0.8685357E-01
          2   -1    0    0  501    0  0.00000000000E+00  0.00000000000E+00  0.33383194495E+04  0.33383194495E+04  0.00000000000E+00 0. -1.
         -1   -1    0    0    0  501 -0.00000000000E+00 -0.00000000000E+00 -0.25351730346E+03  0.25351730346E+03  0.00000000000E+00 0.  1.
         24    2    1    2    0    0  0.33073662919E+03  0.12757317051E+03  0.58358420671E+01  0.36371011783E+03  0.81174879337E+02 0.  0.
        254    2    1    2    0    0 -0.33073662919E+03 -0.12757317051E+03  0.30789663040E+04  0.32281266351E+04  0.90283245386E+03 0.  0.
         23    2    4    4    0    0 -0.62634519349E+03 -0.16469955930E+03  0.19383939794E+04  0.20457543735E+04  0.91134467530E+02 0.  0.
         23    2    4    4    0    0  0.29560856430E+03  0.37126388789E+02  0.11405723246E+04  0.11823722617E+04  0.91302493996E+02 0.  0.
          2    1    3    3  502    0  0.24563482153E+03  0.12515962046E+03  0.23767582514E+02  0.27670615121E+03  0.00000000000E+00 0. -1.
         -1    1    3    3    0  502  0.85101807658E+02  0.24135500494E+01 -0.17931740447E+02  0.87003966610E+02  0.00000000000E+00 0.  1.
         11    1    5    5    0    0 -0.16951599175E+03 -0.72516284463E+02  0.45729835103E+03  0.49306801237E+03  0.00000000000E+00 0. -1.
        -11    1    5    5    0    0 -0.45682920174E+03 -0.92183274832E+02  0.14810956283E+04  0.15526863611E+04  0.00000000000E+00 0.  1.
          1    1    6    6  503    0  0.56461845777E+02  0.93959392827E+01  0.38882645201E+03  0.39301683613E+03  0.00000000000E+00 0. -1.
         -1    1    6    6    0  503  0.23914671853E+03  0.27730449506E+02  0.75174587261E+03  0.78935542552E+03  0.00000000000E+00 0.  1.
<mgrwt>
<rscale>  0 0.18399149E+04</rscale>
<asrwt>0</asrwt>
<pdfrwt beam="1">  1        2 0.51358758E+00 0.18399149E+04</pdfrwt>
<pdfrwt beam="2">  1       -1 0.39002664E-01 0.18399149E+04</pdfrwt>
<totfact> 0.72182631E+00</totfact>
</mgrwt>
</event>
<event>
12    6  0.1647231E-007  0.1497803E+04  0.7818608E-02  0.8885915E-01
          2   -1    0    0  501    0  0.00000000000E+00  0.00000000000E+00  0.30487519517E+04  0.30487519517E+04  0.00000000000E+00 0. -1.
         -1   -1    0    0    0  501 -0.00000000000E+00 -0.00000000000E+00 -0.18396171892E+03  0.18396171892E+03  0.00000000000E+00 0.  1.
         24    2    1    2    0    0  0.18222501956E+03 -0.33593403850E+03  0.38612340343E+03  0.54913513575E+03  0.80002991555E+02 0.  0.
        254    2    1    2    0    0 -0.18222501956E+03  0.33593403850E+03  0.24786668293E+04  0.26835785349E+04  0.95485436900E+03 0.  0.
         23    2    4    4    0    0  0.13291779791E+03  0.25389165993E+03  0.16005068845E+03  0.34039240482E+03  0.90125747718E+02 0.  0.
         23    2    4    4    0    0 -0.31514281747E+03  0.82042378569E+02  0.23186161409E+04  0.23431861300E+04  0.92165525143E+02 0.  0.
          4    1    3    3  502    0  0.16445710231E+02 -0.65130839197E+02  0.10718800329E+03  0.12649804603E+03  0.00000000000E+00 0. -1.
         -3    1    3    3    0  502  0.16577930933E+03 -0.27080319930E+03  0.27893540014E+03  0.42263708972E+03  0.00000000000E+00 0.  1.
         11    1    5    5    0    0 -0.10775025563E+00  0.45950591546E+02  0.56179039705E+02  0.72577909695E+02  0.00000000000E+00 0.  1.
        -11    1    5    5    0    0  0.13302554817E+03  0.20794106838E+03  0.10387164875E+03  0.26781449513E+03  0.00000000000E+00 0. -1.
          4    1    6    6  503    0 -0.26542361115E+03  0.64818224519E+02  0.16467120571E+04  0.16692248784E+04  0.00000000000E+00 0. -1.
         -4    1    6    6    0  503 -0.49719206321E+02  0.17224154049E+02  0.67190408378E+03  0.67396125167E+03  0.00000000000E+00 0.  1.
<mgrwt>
<rscale>  0 0.14978033E+04</rscale>
<asrwt>0</asrwt>
<pdfrwt beam="1">  1        2 0.46903872E+00 0.14978033E+04</pdfrwt>
<pdfrwt beam="2">  1       -1 0.28301805E-01 0.14978033E+04</pdfrwt>
<totfact> 0.20333534E+01</totfact>
</mgrwt>
</event>
<event>
12    6  0.1647231E-007  0.2063777E+04  0.7818608E-02  0.8577370E-01
          2   -1    0    0  501    0  0.00000000000E+00  0.00000000000E+00  0.28022175349E+04  0.28022175349E+04  0.00000000000E+00 0. -1.
         -1   -1    0    0    0  501 -0.00000000000E+00 -0.00000000000E+00 -0.37998275807E+03  0.37998275807E+03  0.00000000000E+00 0.  1.
         24    2    1    2    0    0  0.67319597744E+03 -0.35817303495E+03  0.15114374561E+04  0.16948163124E+04  0.80488522119E+02 0.  0.
        254    2    1    2    0    0 -0.67319597744E+03  0.35817303495E+03  0.91079732069E+03  0.14873839805E+04  0.89514166425E+03 0.  0.
         23    2    4    4    0    0 -0.29899314998E+03  0.52754163335E+03  0.86930079156E+03  0.10639529683E+04  0.92816883368E+02 0.  0.
         23    2    4    4    0    0 -0.37420282746E+03 -0.16936859840E+03  0.41496529132E+02  0.42343101223E+03  0.94118977827E+02 0.  0.
          2    1    3    3  502    0  0.43480098476E+03 -0.19039251608E+03  0.96884655664E+03  0.10788720299E+04  0.00000000000E+00 0. -1.
         -3    1    3    3    0  502  0.23839499268E+03 -0.16778051887E+03  0.54259089948E+03  0.61594428258E+03  0.00000000000E+00 0.  1.
         11    1    5    5    0    0 -0.28914086748E+03  0.48069675732E+03  0.75975145599E+03  0.94440144463E+03  0.00000000000E+00 0. -1.
        -11    1    5    5    0    0 -0.98522824969E+01  0.46844876023E+02  0.10954933557E+03  0.11955152363E+03  0.00000000000E+00 0.  1.
          4    1    6    6  503    0 -0.21661092928E+03 -0.11197875261E+03 -0.20312297163E+02  0.24468781158E+03  0.00000000000E+00 0. -1.
         -4    1    6    6    0  503 -0.15759189818E+03 -0.57389845793E+02  0.61808826295E+02  0.17874320066E+03  0.00000000000E+00 0.  1.
<mgrwt>
<rscale>  0 0.20637775E+04</rscale>
<asrwt>0</asrwt>
<pdfrwt beam="1">  1        2 0.43111038E+00 0.20637775E+04</pdfrwt>
<pdfrwt beam="2">  1       -1 0.58458888E-01 0.20637775E+04</pdfrwt>
<totfact> 0.71994895E+00</totfact>
</mgrwt>
</event>
<event>
12    6  0.1647231E-007  0.1996359E+04  0.7818608E-02  0.8608325E-01
         -1   -1    0    0    0  501 -0.00000000000E+00  0.00000000000E+00  0.11070843002E+04  0.11070843002E+04  0.00000000000E+00 0.  1.
          2   -1    0    0  501    0  0.00000000000E+00 -0.00000000000E+00 -0.89998792096E+03  0.89998792096E+03  0.00000000000E+00 0. -1.
         24    2    1    2    0    0  0.67058655417E+02 -0.16317986737E+03  0.85793732180E+03  0.87957511720E+03  0.80445051368E+02 0.  0.
        254    2    1    2    0    0 -0.67058655417E+02  0.16317986737E+03 -0.65084094256E+03  0.11274971039E+04  0.90362118973E+03 0.  0.
         23    2    4    4    0    0  0.63563656919E+02 -0.15726753174E+03  0.15340353309E+03  0.24722299871E+03  0.93878389994E+02 0.  0.
         23    2    4    4    0    0 -0.13062231234E+03  0.32044739911E+03 -0.80424447565E+03  0.88027410524E+03  0.91239244051E+02 0.  0.
          2    1    3    3  502    0 -0.64094677446E+01 -0.50577746999E+02  0.36837455224E+03  0.37188573582E+03  0.00000000000E+00 0. -1.
         -1    1    3    3    0  502  0.73468123161E+02 -0.11260212037E+03  0.48956276956E+03  0.50768938138E+03  0.00000000000E+00 0.  1.
         11    1    5    5    0    0  0.75320147816E+02 -0.10980966516E+03  0.14628600350E+03  0.19781527254E+03  0.00000000000E+00 0.  1.
        -11    1    5    5    0    0 -0.11756490897E+02 -0.47457866577E+02  0.71175295933E+01  0.49407726174E+02  0.00000000000E+00 0. -1.
          3    1    6    6  503    0 -0.50975861974E+02  0.11592736827E+03 -0.19319068087E+03  0.23099855495E+03  0.00000000000E+00 0. -1.
         -3    1    6    6    0  503 -0.79646450362E+02  0.20452003084E+03 -0.61105379479E+03  0.64927555028E+03  0.00000000000E+00 0.  1.
<mgrwt>
<rscale>  0 0.19963592E+04</rscale>
<asrwt>0</asrwt>
<pdfrwt beam="1">  1        2 0.13845968E+00 0.19963592E+04</pdfrwt>
<pdfrwt beam="2">  1       -1 0.17032066E+00 0.19963592E+04</pdfrwt>
<totfact> 0.76090280E+00</totfact>
</mgrwt>
</event>
<event>
12    6  0.1647231E-007  0.2099199E+04  0.7818608E-02  0.8561596E-01
         -1   -1    0    0    0  501 -0.00000000000E+00  0.00000000000E+00  0.51107476248E+03  0.51107476248E+03  0.00000000000E+00 0.  1.
          2   -1    0    0  501    0  0.00000000000E+00 -0.00000000000E+00 -0.21555724991E+04  0.21555724991E+04  0.00000000000E+00 0. -1.
         24    2    1    2    0    0  0.78620697789E+02 -0.60771878822E+03  0.82194171642E+02  0.62320539430E+03  0.78267119187E+02 0.  0.
        254    2    1    2    0    0 -0.78620697789E+02  0.60771878822E+03 -0.17266919083E+04  0.20434418673E+04  0.90481289734E+03 0.  0.
         23    2    4    4    0    0  0.37383975219E+03  0.27871047564E+03 -0.10997422873E+04  0.11981178187E+04  0.92830594931E+02 0.  0.
         23    2    4    4    0    0 -0.45246044998E+03  0.32900831259E+03 -0.62694962094E+03  0.84532404860E+03  0.92412073843E+02 0.  0.
          4    1    3    3  502    0  0.41324887136E+02 -0.97460941764E+02  0.70159616444E+01  0.10609243698E+03  0.00000000000E+00 0. -1.
         -3    1    3    3    0  502  0.37295810653E+02 -0.51025784646E+03  0.75178209998E+02  0.51711295732E+03  0.00000000000E+00 0.  1.
         11    1    5    5    0    0  0.13523269819E+03  0.74079982144E+02 -0.46325055436E+03  0.48823846891E+03  0.00000000000E+00 0. -1.
        -11    1    5    5    0    0  0.23860705401E+03  0.20463049349E+03 -0.63649173297E+03  0.70987934977E+03  0.00000000000E+00 0.  1.
          3    1    6    6  503    0 -0.45329614338E+03  0.32149422928E+03 -0.60217240582E+03  0.81941902553E+03  0.00000000000E+00 0. -1.
         -3    1    6    6    0  503  0.83569339305E+00  0.75140833074E+01 -0.24777215119E+02  0.25905023074E+02  0.00000000000E+00 0.  1.
<mgrwt>
<rscale>  0 0.20991986E+04</rscale>
<asrwt>0</asrwt>
<pdfrwt beam="1">  1        2 0.33162654E+00 0.20991986E+04</pdfrwt>
<pdfrwt beam="2">  1       -1 0.78626885E-01 0.20991986E+04</pdfrwt>
<totfact> 0.92857371E+00</totfact>
</mgrwt>
</event>
<event>
12    6  0.1647231E-007  0.1339188E+04  0.7818608E-02  0.8999053E-01
         -1   -1    0    0    0  501 -0.00000000000E+00  0.00000000000E+00  0.46751290383E+03  0.46751290383E+03  0.00000000000E+00 0.  1.
          2   -1    0    0  501    0  0.00000000000E+00 -0.00000000000E+00 -0.95902443955E+03  0.95902443955E+03  0.00000000000E+00 0. -1.
         24    2    1    2    0    0 -0.63771677915E+02 -0.32030231005E+03 -0.29781098993E+03  0.44937990789E+03  0.81182012593E+02 0.  0.
        254    2    1    2    0    0  0.63771677915E+02  0.32030231005E+03 -0.19370054579E+03  0.97715743549E+03  0.90036456815E+03 0.  0.
         23    2    4    4    0    0 -0.29748366707E+03  0.45219762311E+03 -0.19551734342E+03  0.58287151856E+03  0.92373984703E+02 0.  0.
         23    2    4    4    0    0  0.36125534498E+03 -0.13189531306E+03  0.18167976325E+01  0.39428591693E+03  0.86926898324E+02 0.  0.
          4    1    3    3  502    0 -0.51832593691E+02 -0.27870333064E+03 -0.28974363137E+03  0.40535606101E+03  0.00000000000E+00 0. -1.
         -3    1    3    3    0  502 -0.11939084224E+02 -0.41598979408E+02 -0.80673585531E+01  0.44023846877E+02  0.00000000000E+00 0.  1.
         11    1    5    5    0    0 -0.27719800223E+03  0.37086368797E+03 -0.14586049273E+03  0.48544195414E+03  0.00000000000E+00 0. -1.
        -11    1    5    5    0    0 -0.20285664838E+02  0.81333935137E+02 -0.49656850690E+02  0.97429564421E+02  0.00000000000E+00 0.  1.
          2    1    6    6  503    0  0.12626210529E+03 -0.22036844338E+02  0.34753147207E+02  0.13279880640E+03  0.00000000000E+00 0.  1.
         -2    1    6    6    0  503  0.23499323969E+03 -0.10985846872E+03 -0.32936349575E+02  0.26148711053E+03  0.00000000000E+00 0. -1.
<mgrwt>
<rscale>  0 0.13391883E+04</rscale>
<asrwt>0</asrwt>
<pdfrwt beam="1">  1        2 0.14754222E+00 0.13391883E+04</pdfrwt>
<pdfrwt beam="2">  1       -1 0.71925063E-01 0.13391883E+04</pdfrwt>
<totfact> 0.58286067E+01</totfact>
</mgrwt>
</event>
<event>
12    6  0.1647231E-007  0.1461778E+04  0.7818608E-02  0.8910275E-01
          2   -1    0    0  501    0  0.00000000000E+00  0.00000000000E+00  0.11404921288E+04  0.11404921288E+04  0.00000000000E+00 0. -1.
         -1   -1    0    0    0  501 -0.00000000000E+00 -0.00000000000E+00 -0.46839331072E+03  0.46839331072E+03  0.00000000000E+00 0.  1.
         24    2    1    2    0    0 -0.41800137104E+03 -0.67602397723E+02  0.55165998341E+03  0.69951580810E+03  0.75487734851E+02 0.  0.
        254    2    1    2    0    0  0.41800137104E+03  0.67602397723E+02  0.12043883469E+03  0.90936963143E+03  0.79570873019E+03 0.  0.
         23    2    4    4    0    0  0.62480301462E+03 -0.66782148797E+02  0.12118711394E+03  0.64646197456E+03  0.91586601011E+02 0.  0.
         23    2    4    4    0    0 -0.20680164358E+03  0.13438454652E+03 -0.74827924706E+00  0.26290765688E+03  0.91070027969E+02 0.  0.
          2    1    3    3  502    0 -0.28624813339E+03 -0.36228640181E+02  0.31757747246E+03  0.42907570340E+03  0.00000000000E+00 0. -1.
         -1    1    3    3    0  502 -0.13175323765E+03 -0.31373757542E+02  0.23408251095E+03  0.27044010469E+03  0.00000000000E+00 0.  1.
         11    1    5    5    0    0  0.13036635298E+03 -0.48956969489E+02  0.41656051193E+02  0.14535266579E+03  0.00000000000E+00 0.  1.
        -11    1    5    5    0    0  0.49443666164E+03 -0.17825179309E+02  0.79531062743E+02  0.50110930877E+03  0.00000000000E+00 0. -1.
          2    1    6    6  503    0 -0.31889485083E+02  0.60222375565E+02 -0.22308662017E+02  0.71703208984E+02  0.00000000000E+00 0.  1.
         -2    1    6    6    0  503 -0.17491215849E+03  0.74162170954E+02  0.21560382770E+02  0.19120444789E+03  0.00000000000E+00 0. -1.
<mgrwt>
<rscale>  0 0.14617782E+04</rscale>
<asrwt>0</asrwt>
<pdfrwt beam="1">  1        2 0.17546033E+00 0.14617782E+04</pdfrwt>
<pdfrwt beam="2">  1       -1 0.72060509E-01 0.14617782E+04</pdfrwt>
<totfact> 0.44184954E+01</totfact>
</mgrwt>
</event>
<event>
12    6  0.1647231E-007  0.1781702E+04  0.7818608E-02  0.8716091E-01
          2   -1    0    0  501    0  0.00000000000E+00  0.00000000000E+00  0.18150631525E+04  0.18150631525E+04  0.00000000000E+00 0. -1.
         -1   -1    0    0    0  501 -0.00000000000E+00 -0.00000000000E+00 -0.43723850251E+03  0.43723850251E+03  0.00000000000E+00 0.  1.
         24    2    1    2    0    0  0.54555016978E+03 -0.36162043160E+03  0.41940863873E+03  0.78138526983E+03  0.79151812180E+02 0.  0.
        254    2    1    2    0    0 -0.54555016978E+03  0.36162043160E+03  0.95841601129E+03  0.14709163852E+04  0.90368104841E+03 0.  0.
         23    2    4    4    0    0  0.93057984443E+02  0.10010138144E+03 -0.10803425819E+03  0.19706028230E+03  0.92093859100E+02 0.  0.
         23    2    4    4    0    0 -0.63860815422E+03  0.26151905016E+03  0.10664502695E+04  0.12738561029E+04  0.95815475711E+02 0.  0.
          4    1    3    3  502    0  0.18212201986E+02  0.25625755001E+01  0.12840888750E+02  0.22430771683E+02  0.00000000000E+00 0. -1.
         -3    1    3    3    0  502  0.52733796779E+03 -0.36418300710E+03  0.40656774998E+03  0.75895449815E+03  0.00000000000E+00 0.  1.
         11    1    5    5    0    0  0.68298697993E+02  0.11631107882E+03 -0.83646623668E+02  0.15871274950E+03  0.00000000000E+00 0.  1.
        -11    1    5    5    0    0  0.24759286450E+02 -0.16209697375E+02 -0.24387634520E+02  0.38347532801E+02  0.00000000000E+00 0. -1.
          2    1    6    6  503    0 -0.49913696258E+03  0.17224161734E+03  0.86050455288E+03  0.10095904950E+04  0.00000000000E+00 0. -1.
         -2    1    6    6    0  503 -0.13947119164E+03  0.89277432824E+02  0.20594571661E+03  0.26426560786E+03  0.00000000000E+00 0.  1.
<mgrwt>
<rscale>  0 0.17817020E+04</rscale>
<asrwt>0</asrwt>
<pdfrwt beam="1">  1        2 0.27924048E+00 0.17817020E+04</pdfrwt>
<pdfrwt beam="2">  1       -1 0.67267463E-01 0.17817020E+04</pdfrwt>
<totfact> 0.20401800E+01</totfact>
</mgrwt>
</event>
<event>
12    6  0.1647231E-007  0.2008424E+04  0.7818608E-02  0.8602692E-01
         -1   -1    0    0    0  501 -0.00000000000E+00  0.00000000000E+00  0.29725930588E+03  0.29725930588E+03  0.00000000000E+00 0.  1.
          2   -1    0    0  501    0  0.00000000000E+00 -0.00000000000E+00 -0.33924645602E+04  0.33924645602E+04  0.00000000000E+00 0. -1.
         24    2    1    2    0    0 -0.57885032032E+02 -0.75595038725E+03 -0.74843728545E+03  0.10682623438E+04  0.78831465892E+02 0.  0.
        254    2    1    2    0    0  0.57885032032E+02  0.75595038725E+03 -0.23467679689E+04  0.26214615223E+04  0.88877947108E+03 0.  0.
         23    2    4    4    0    0  0.29624284918E+03  0.65658237423E+03 -0.21884590491E+04  0.23058302224E+04  0.92950336865E+02 0.  0.
         23    2    4    4    0    0 -0.23835781715E+03  0.99368013025E+02 -0.15830891983E+03  0.31563129994E+03  0.88729659053E+02 0.  0.
          2    1    3    3  502    0 -0.24450564776E+02 -0.24456766716E+03 -0.19285085692E+03  0.31241419135E+03  0.00000000000E+00 0. -1.
         -1    1    3    3    0  502 -0.33434467256E+02 -0.51138272009E+03 -0.55558642853E+03  0.75584815246E+03  0.00000000000E+00 0.  1.
         11    1    5    5    0    0  0.94625665975E+02  0.29396761492E+03 -0.83905082134E+03  0.89407899879E+03  0.00000000000E+00 0.  1.
        -11    1    5    5    0    0  0.20161718321E+03  0.36261475930E+03 -0.13494082277E+04  0.14117512236E+04  0.00000000000E+00 0. -1.
          3    1    6    6  503    0 -0.11919603550E+03  0.95032245950E+02 -0.10443572145E+03  0.18478539597E+03  0.00000000000E+00 0. -1.
         -3    1    6    6    0  503 -0.11916178166E+03  0.43357670751E+01 -0.53873198388E+02  0.13084590398E+03  0.00000000000E+00 0.  1.
<mgrwt>
<rscale>  0 0.20084239E+04</rscale>
<asrwt>0</asrwt>
<pdfrwt beam="1">  1        2 0.52191760E+00 0.20084239E+04</pdfrwt>
<pdfrwt beam="2">  1       -1 0.45732203E-01 0.20084239E+04</pdfrwt>
<totfact> 0.48671192E+00</totfact>
</mgrwt>
</event>
<event>
12    6  0.1647231E-007  0.2084831E+04  0.7818608E-02  0.8567955E-01
         -1   -1    0    0    0  501 -0.00000000000E+00  0.00000000000E+00  0.42841819675E+03  0.42841819675E+03  0.00000000000E+00 0.  1.
          2   -1    0    0  501    0  0.00000000000E+00 -0.00000000000E+00 -0.25363760405E+04  0.25363760405E+04  0.00000000000E+00 0. -1.
         24    2    1    2    0    0  0.40971787253E+03  0.70573925712E+03 -0.11746789765E+04  0.14325334311E+04  0.79653621727E+02 0.  0.
        254    2    1    2    0    0 -0.40971787253E+03 -0.70573925712E+03 -0.93327886729E+03  0.15322608061E+04  0.90048714579E+03 0.  0.
         23    2    4    4    0    0 -0.51149862199E+03 -0.55438712740E+02 -0.25273123630E+03  0.58099927014E+03  0.94777544449E+02 0.  0.
         23    2    4    4    0    0  0.10178074946E+03 -0.65030054438E+03 -0.68054763099E+03  0.95126153598E+03  0.92213409071E+02 0.  0.
          4    1    3    3  502    0  0.36021743961E+03  0.61825795795E+03 -0.97984618345E+03  0.12133004779E+04  0.00000000000E+00 0. -1.
         -3    1    3    3    0  502  0.49500432917E+02  0.87481299169E+02 -0.19483279303E+03  0.21923295328E+03  0.00000000000E+00 0.  1.
         11    1    5    5    0    0 -0.58739446912E+02  0.68779561470E+00  0.14186632402E+01  0.58760601526E+02  0.00000000000E+00 0.  1.
        -11    1    5    5    0    0 -0.45275917507E+03 -0.56126508355E+02 -0.25414989954E+03  0.52223866861E+03  0.00000000000E+00 0. -1.
          2    1    6    6  503    0  0.12173242266E+01 -0.21923228768E+03 -0.18554348690E+03  0.28721187888E+03  0.00000000000E+00 0.  1.
         -2    1    6    6    0  503  0.10056342523E+03 -0.43106825670E+03 -0.49500414409E+03  0.66404965710E+03  0.00000000000E+00 0. -1.
<mgrwt>
<rscale>  0 0.20848306E+04</rscale>
<asrwt>0</asrwt>
<pdfrwt beam="1">  1        2 0.39021171E+00 0.20848306E+04</pdfrwt>
<pdfrwt beam="2">  1       -1 0.65910491E-01 0.20848306E+04</pdfrwt>
<totfact> 0.81272335E+00</totfact>
</mgrwt>
</event>
<event>
12    6  0.1647231E-007  0.1902917E+04  0.7818608E-02  0.8653406E-01
         -1   -1    0    0    0  501 -0.00000000000E+00  0.00000000000E+00  0.29958175357E+03  0.29958175357E+03  0.00000000000E+00 0.  1.
          2   -1    0    0  501    0  0.00000000000E+00 -0.00000000000E+00 -0.30217907812E+04  0.30217907812E+04  0.00000000000E+00 0. -1.
         24    2    1    2    0    0 -0.54004082984E+03  0.26035252235E+03 -0.31674751969E+03  0.68401677357E+03  0.90124477833E+02 0.  0.
        254    2    1    2    0    0  0.54004082984E+03 -0.26035252235E+03 -0.24054615079E+04  0.26373557612E+04  0.89998489495E+03 0.  0.
         23    2    4    4    0    0  0.35907509204E+03  0.19600589576E+03 -0.18225226569E+04  0.18700127202E+04  0.89473493863E+02 0.  0.
         23    2    4    4    0    0  0.18096573780E+03 -0.45635841811E+03 -0.58293885105E+03  0.76734304095E+03  0.89364614876E+02 0.  0.
          2    1    3    3  502    0 -0.41943637648E+03  0.15978749568E+03 -0.24525335816E+03  0.51147641918E+03  0.00000000000E+00 0. -1.
         -1    1    3    3    0  502 -0.12060445337E+03  0.10056502667E+03 -0.71494161526E+02  0.17254035439E+03  0.00000000000E+00 0.  1.
         11    1    5    5    0    0  0.30175200889E+03  0.17989598909E+03 -0.16639045967E+04  0.17005867660E+04  0.00000000000E+00 0. -1.
        -11    1    5    5    0    0  0.57323083152E+02  0.16109906677E+02 -0.15861806019E+03  0.16942595425E+03  0.00000000000E+00 0.  1.
          3    1    6    6  503    0  0.16888039061E+03 -0.45027404494E+03 -0.54383289673E+03  0.72596247936E+03  0.00000000000E+00 0. -1.
         -3    1    6    6    0  503  0.12085347192E+02 -0.60843731656E+01 -0.39105954321E+02  0.41380561583E+02  0.00000000000E+00 0.  1.
<mgrwt>
<rscale>  0 0.19029171E+04</rscale>
<asrwt>0</asrwt>
<pdfrwt beam="1">  1        2 0.46489091E+00 0.19029171E+04</pdfrwt>
<pdfrwt beam="2">  1       -1 0.46089499E-01 0.19029171E+04</pdfrwt>
<totfact> 0.84474429E+00</totfact>
</mgrwt>
</event>
<event>
12    6  0.1647231E-007  0.1359616E+04  0.7818608E-02  0.8983580E-01
         -1   -1    0    0    0  501 -0.00000000000E+00  0.00000000000E+00  0.11234198766E+04  0.11234198766E+04  0.00000000000E+00 0.  1.
          2   -1    0    0  501    0  0.00000000000E+00 -0.00000000000E+00 -0.41136812359E+03  0.41136812359E+03  0.00000000000E+00 0. -1.
         24    2    1    2    0    0  0.33568713412E+03 -0.18933276875E+03  0.17175701748E+03  0.42954131658E+03  0.80451974885E+02 0.  0.
        254    2    1    2    0    0 -0.33568713412E+03  0.18933276875E+03  0.54029473558E+03  0.11052466837E+04  0.88380941447E+03 0.  0.
         23    2    4    4    0    0 -0.18245994824E+03  0.49017382155E+03  0.94745025145E+02  0.53921072257E+03  0.90606707818E+02 0.  0.
         23    2    4    4    0    0 -0.15322718588E+03 -0.30084105280E+03  0.44554971043E+03  0.56603596108E+03  0.88872128562E+02 0.  0.
          4    1    3    3  502    0  0.91050408296E+02 -0.50316150464E+02  0.88397651355E+01  0.10440322455E+03  0.00000000000E+00 0. -1.
         -3    1    3    3    0  502  0.24463672582E+03 -0.13901661828E+03  0.16291725234E+03  0.32513809203E+03  0.00000000000E+00 0.  1.
         11    1    5    5    0    0 -0.89400903172E+02  0.14603460662E+03  0.58179538485E+02  0.18084105318E+03  0.00000000000E+00 0. -1.
        -11    1    5    5    0    0 -0.93059045069E+02  0.34413921493E+03  0.36565486661E+02  0.35836966939E+03  0.00000000000E+00 0.  1.
          1    1    6    6  503    0 -0.11341636552E+03 -0.12735235138E+03  0.23438357637E+03  0.28985781729E+03  0.00000000000E+00 0. -1.
         -1    1    6    6    0  503 -0.39810820353E+02 -0.17348870142E+03  0.21116613406E+03  0.27617814380E+03  0.00000000000E+00 0.  1.
<mgrwt>
<rscale>  0 0.13596163E+04</rscale>
<asrwt>0</asrwt>
<pdfrwt beam="1">  1        2 0.63287404E-01 0.13596163E+04</pdfrwt>
<pdfrwt beam="2">  1       -1 0.17283383E+00 0.13596163E+04</pdfrwt>
<totfact> 0.20180771E+01</totfact>
</mgrwt>
</event>
<event>
12    6  0.1647231E-007  0.1210790E+04  0.7818608E-02  0.9103464E-01
          2   -1    0    0  501    0  0.00000000000E+00  0.00000000000E+00  0.51522455254E+03  0.51522455254E+03  0.00000000000E+00 0. -1.
         -1   -1    0    0    0  501 -0.00000000000E+00 -0.00000000000E+00 -0.71134641299E+03  0.71134641299E+03  0.00000000000E+00 0.  1.
         24    2    1    2    0    0 -0.21357521371E+02  0.12782544725E+03  0.18200293469E+03  0.23770341803E+03  0.81131732540E+02 0.  0.
        254    2    1    2    0    0  0.21357521371E+02 -0.12782544725E+03 -0.37812479514E+03  0.98886754749E+03  0.90448061178E+03 0.  0.
         23    2    4    4    0    0 -0.18837250940E+03 -0.39997747961E+03  0.23948586147E+02  0.45187564726E+03  0.90287758389E+02 0.  0.
         23    2    4    4    0    0  0.20973003077E+03  0.27215203237E+03 -0.40207338129E+03  0.53699190023E+03  0.92972482152E+02 0.  0.
          2    1    3    3  502    0 -0.32928447496E+02  0.98035001127E+02  0.79816990987E+02  0.13063650390E+03  0.00000000000E+00 0. -1.
         -1    1    3    3    0  502  0.11570926126E+02  0.29790446119E+02  0.10218594370E+03  0.10706691413E+03  0.00000000000E+00 0.  1.
         11    1    5    5    0    0 -0.38249688942E+02 -0.16676940914E+03  0.33558315587E+02  0.17435949952E+03  0.00000000000E+00 0. -1.
        -11    1    5    5    0    0 -0.15012282046E+03 -0.23320807048E+03 -0.96097294400E+01  0.27751614774E+03  0.00000000000E+00 0.  1.
          1    1    6    6  503    0  0.38013129194E+02  0.92465838586E+01 -0.25619203684E+02  0.46763670745E+02  0.00000000000E+00 0. -1.
         -1    1    6    6    0  503  0.17171690158E+03  0.26290544851E+03 -0.37645417760E+03  0.49022822948E+03  0.00000000000E+00 0.  1.
<mgrwt>
<rscale>  0 0.12107901E+04</rscale>
<asrwt>0</asrwt>
<pdfrwt beam="1">  1        2 0.79265316E-01 0.12107901E+04</pdfrwt>
<pdfrwt beam="2">  1       -1 0.10943791E+00 0.12107901E+04</pdfrwt>
<totfact> 0.51815048E+01</totfact>
</mgrwt>
</event>
<event>
12    6  0.1647231E-007  0.1149267E+04  0.7818608E-02  0.9158460E-01
         -1   -1    0    0    0  501 -0.00000000000E+00  0.00000000000E+00  0.27261498777E+03  0.27261498777E+03  0.00000000000E+00 0.  1.
          2   -1    0    0  501    0  0.00000000000E+00 -0.00000000000E+00 -0.12112464362E+04  0.12112464362E+04  0.00000000000E+00 0. -1.
         24    2    1    2    0    0  0.12322437138E+02  0.21416237547E+03 -0.30455986856E+03  0.38103698434E+03  0.80094346697E+02 0.  0.
        254    2    1    2    0    0 -0.12322437138E+02 -0.21416237547E+03 -0.63407157983E+03  0.11028244396E+04  0.87644601128E+03 0.  0.
         23    2    4    4    0    0 -0.16319009565E+03  0.17276836315E+03  0.84520328036E+02  0.26746352005E+03  0.88955798481E+02 0.  0.
         23    2    4    4    0    0  0.15086765851E+03 -0.38693073862E+03 -0.71859190787E+03  0.83536091955E+03  0.94747501164E+02 0.  0.
          2    1    3    3  502    0  0.16740725728E+02  0.12040053352E+03 -0.10549941899E+03  0.16095548384E+03  0.00000000000E+00 0. -1.
         -1    1    3    3    0  502 -0.44182885896E+01  0.93761841949E+02 -0.19906044957E+03  0.22008150050E+03  0.00000000000E+00 0.  1.
         11    1    5    5    0    0 -0.69700790504E+02  0.90462543158E+02 -0.46228450716E+01  0.11429366828E+03  0.00000000000E+00 0.  1.
        -11    1    5    5    0    0 -0.93489305142E+02  0.82305819993E+02  0.89143173108E+02  0.15316985177E+03  0.00000000000E+00 0. -1.
          4    1    6    6  503    0  0.11128907263E+03 -0.30403791994E+03 -0.62691683020E+03  0.70558417388E+03  0.00000000000E+00 0. -1.
         -4    1    6    6    0  503  0.39578585879E+02 -0.82892818683E+02 -0.91675077673E+02  0.12977674567E+03  0.00000000000E+00 0.  1.
<mgrwt>
<rscale>  0 0.11492675E+04</rscale>
<asrwt>0</asrwt>
<pdfrwt beam="1">  1        2 0.18634561E+00 0.11492675E+04</pdfrwt>
<pdfrwt beam="2">  1       -1 0.41940767E-01 0.11492675E+04</pdfrwt>
<totfact> 0.11740225E+02</totfact>
</mgrwt>
</event>
<event>
12    6  0.1647231E-007  0.2468012E+04  0.7818608E-02  0.8414471E-01
          2   -1    0    0  501    0  0.00000000000E+00  0.00000000000E+00  0.15712210078E+04  0.15712210078E+04  0.00000000000E+00 0. -1.
         -1   -1    0    0    0  501 -0.00000000000E+00 -0.00000000000E+00 -0.96916393201E+03  0.96916393201E+03  0.00000000000E+00 0.  1.
         24    2    1    2    0    0 -0.29889821235E+03  0.60885515084E+03 -0.58376461296E+03  0.89845212110E+03  0.79939693055E+02 0.  0.
        254    2    1    2    0    0  0.29889821235E+03 -0.60885515084E+03  0.11858216888E+04  0.16419328187E+04  0.91089273112E+03 0.  0.
         23    2    4    4    0    0  0.54891282204E+03 -0.20608283252E+03  0.90976255830E+03  0.10860201088E+04  0.89422280010E+02 0.  0.
         23    2    4    4    0    0 -0.25001460970E+03 -0.40277231832E+03  0.27605913046E+03  0.55591270992E+03  0.89985843738E+02 0.  0.
          2    1    3    3  502    0 -0.49621019088E+01  0.53913414936E+02 -0.34864832451E+02  0.64395926170E+02  0.00000000000E+00 0. -1.
         -1    1    3    3    0  502 -0.29393611044E+03  0.55494173590E+03 -0.54889978051E+03  0.83405619493E+03  0.00000000000E+00 0.  1.
         11    1    5    5    0    0  0.35506047326E+03 -0.14497492681E+03  0.66703814107E+03  0.76943196627E+03  0.00000000000E+00 0. -1.
        -11    1    5    5    0    0  0.19385234878E+03 -0.61107905709E+02  0.24272441723E+03  0.31658814253E+03  0.00000000000E+00 0.  1.
          4    1    6    6  503    0 -0.46610660883E+02 -0.14098479588E+03  0.11216632327E+03  0.18609285439E+03  0.00000000000E+00 0.  1.
         -4    1    6    6    0  503 -0.20340394881E+03 -0.26178752244E+03  0.16389280718E+03  0.36981985553E+03  0.00000000000E+00 0. -1.
<mgrwt>
<rscale>  0 0.24680119E+04</rscale>
<asrwt>0</asrwt>
<pdfrwt beam="1">  1        2 0.24172631E+00 0.24680119E+04</pdfrwt>
<pdfrwt beam="2">  1       -1 0.14910214E+00 0.24680119E+04</pdfrwt>
<totfact> 0.41796885E+00</totfact>
</mgrwt>
</event>
<event>
12    6  0.1647231E-007  0.2764575E+04  0.7818608E-02  0.8314351E-01
          2   -1    0    0  501    0  0.00000000000E+00  0.00000000000E+00  0.14056857994E+04  0.14056857994E+04  0.00000000000E+00 0. -1.
         -1   -1    0    0    0  501 -0.00000000000E+00 -0.00000000000E+00 -0.13592789795E+04  0.13592789795E+04  0.00000000000E+00 0.  1.
         24    2    1    2    0    0 -0.10527881788E+04  0.50564378637E+03  0.42558940165E+03  0.12455448439E+04  0.78848153213E+02 0.  0.
        254    2    1    2    0    0  0.10527881788E+04 -0.50564378637E+03 -0.37918258177E+03  0.15194199350E+04  0.89488486442E+03 0.  0.
         23    2    4    4    0    0  0.88363619529E+03 -0.63263900995E+03 -0.56177606719E+03  0.12268686543E+04  0.92570528670E+02 0.  0.
         23    2    4    4    0    0  0.16915198352E+03  0.12699522358E+03  0.18259348543E+03  0.29255128071E+03  0.86635388757E+02 0.  0.
          2    1    3    3  502    0 -0.59384551762E+03  0.28478521469E+03  0.28147449146E+03  0.71622832019E+03  0.00000000000E+00 0. -1.
         -1    1    3    3    0  502 -0.45894266119E+03  0.22085857168E+03  0.14411491019E+03  0.52931652372E+03  0.00000000000E+00 0.  1.
         11    1    5    5    0    0  0.20431064120E+03 -0.16269362265E+03 -0.93960621581E+02  0.27756197752E+03  0.00000000000E+00 0.  1.
        -11    1    5    5    0    0  0.67932555409E+03 -0.46994538730E+03 -0.46781544561E+03  0.94930667681E+03  0.00000000000E+00 0. -1.
          2    1    6    6  503    0  0.36594539471E+02  0.33706131275E+02  0.18725836965E+01  0.49787249113E+02  0.00000000000E+00 0.  1.
         -2    1    6    6    0  503  0.13255744405E+03  0.93289092308E+02  0.18072090173E+03  0.24276403160E+03  0.00000000000E+00 0. -1.
<mgrwt>
<rscale>  0 0.27645753E+04</rscale>
<asrwt>0</asrwt>
<pdfrwt beam="1">  1        2 0.21625935E+00 0.27645753E+04</pdfrwt>
<pdfrwt beam="2">  1       -1 0.20911984E+00 0.27645753E+04</pdfrwt>
<totfact> 0.18608261E+00</totfact>
</mgrwt>
</event>
<event>
12    6  0.1647231E-007  0.2203776E+04  0.7818608E-02  0.8516858E-01
         -1   -1    0    0    0  501 -0.00000000000E+00  0.00000000000E+00  0.66046655180E+03  0.66046655180E+03  0.00000000000E+00 0.  1.
          2   -1    0    0  501    0  0.00000000000E+00 -0.00000000000E+00 -0.18383318841E+04  0.18383318841E+04  0.00000000000E+00 0. -1.
         24    2    1    2    0    0  0.21480978144E+03  0.50393495345E+03 -0.13218147260E+04  0.14330441926E+04  0.79547523237E+02 0.  0.
        254    2    1    2    0    0 -0.21480978144E+03 -0.50393495345E+03  0.14394939373E+03  0.10657542433E+04  0.90278291945E+03 0.  0.
         23    2    4    4    0    0 -0.29011616465E+03  0.13645212035E+03  0.23591529138E+03  0.40802916496E+03  0.89695064590E+02 0.  0.
         23    2    4    4    0    0  0.75306383215E+02 -0.64038707380E+03 -0.91965897645E+02  0.65772507834E+03  0.91530851134E+02 0.  0.
          4    1    3    3  502    0  0.71239511289E+02  0.21993898384E+03 -0.64416591424E+03  0.68439604737E+03  0.00000000000E+00 0. -1.
         -3    1    3    3    0  502  0.14357027015E+03  0.28399596961E+03 -0.67764881178E+03  0.74864814521E+03  0.00000000000E+00 0.  1.
         11    1    5    5    0    0 -0.23154919046E+02  0.55061671906E+01 -0.61806374236E+01  0.24590006753E+02  0.00000000000E+00 0. -1.
        -11    1    5    5    0    0 -0.26696124561E+03  0.13094595316E+03  0.24209592880E+03  0.38343915821E+03  0.00000000000E+00 0.  1.
          3    1    6    6  503    0  0.57920769237E+01 -0.27515303373E+02 -0.24409080990E+02  0.37234974279E+02  0.00000000000E+00 0. -1.
         -3    1    6    6    0  503  0.69514306291E+02 -0.61287177043E+03 -0.67556816656E+02  0.62049010406E+03  0.00000000000E+00 0.  1.
<mgrwt>
<rscale>  0 0.22037756E+04</rscale>
<asrwt>0</asrwt>
<pdfrwt beam="1">  1        2 0.28282029E+00 0.22037756E+04</pdfrwt>
<pdfrwt beam="2">  1       -1 0.10161024E+00 0.22037756E+04</pdfrwt>
<totfact> 0.78522300E+00</totfact>
</mgrwt>
</event>
<event>
12    6  0.1647231E-007  0.1254536E+04  0.7818608E-02  0.9066416E-01
          2   -1    0    0  501    0  0.00000000000E+00  0.00000000000E+00  0.92418301591E+03  0.92418301591E+03  0.00000000000E+00 0. -1.
         -1   -1    0    0    0  501 -0.00000000000E+00 -0.00000000000E+00 -0.42574390833E+03  0.42574390833E+03  0.00000000000E+00 0.  1.
         24    2    1    2    0    0 -0.73955685498E+02 -0.20872577747E+03 -0.93545903921E+02  0.25325366116E+03  0.79691198715E+02 0.  0.
        254    2    1    2    0    0  0.73955685498E+02  0.20872577747E+03  0.59198501151E+03  0.10966732631E+04  0.89621989406E+03 0.  0.
         23    2    4    4    0    0  0.20134251391E+03 -0.25079298460E+03  0.50199788223E+03  0.60301428305E+03  0.90489904278E+02 0.  0.
         23    2    4    4    0    0 -0.12738682841E+03  0.45951876206E+03  0.89987129279E+02  0.49365898003E+03  0.90645509452E+02 0.  0.
          4    1    3    3  502    0 -0.15021608301E+02 -0.77147919675E+01  0.99587315608E+01  0.19604669478E+02  0.00000000000E+00 0. -1.
         -3    1    3    3    0  502 -0.58934077197E+02 -0.20101098550E+03 -0.10350463548E+03  0.23364899168E+03  0.00000000000E+00 0.  1.
         11    1    5    5    0    0  0.16604098726E+03 -0.24645858679E+03  0.46365643728E+03  0.55071656620E+03  0.00000000000E+00 0. -1.
        -11    1    5    5    0    0  0.35301526641E+02 -0.43343978090E+01  0.38341444942E+02  0.52297716851E+02  0.00000000000E+00 0.  1.
          3    1    6    6  503    0 -0.64011461010E+02  0.36105404947E+03  0.50843761272E+02  0.37019262802E+03  0.00000000000E+00 0. -1.
         -3    1    6    6    0  503 -0.63375367398E+02  0.98464712596E+02  0.39143368007E+02  0.12346635201E+03  0.00000000000E+00 0.  1.
<mgrwt>
<rscale>  0 0.12545362E+04</rscale>
<asrwt>0</asrwt>
<pdfrwt beam="1">  1        2 0.14218200E+00 0.12545362E+04</pdfrwt>
<pdfrwt beam="2">  1       -1 0.65499063E-01 0.12545362E+04</pdfrwt>
<totfact> 0.74881681E+01</totfact>
</mgrwt>
</event>
<event>
12    6  0.1647231E-007  0.1195978E+04  0.7818608E-02  0.9116385E-01
         -1   -1    0    0    0  501 -0.00000000000E+00  0.00000000000E+00  0.21383696279E+03  0.21383696279E+03  0.00000000000E+00 0.  1.
          2   -1    0    0  501    0  0.00000000000E+00 -0.00000000000E+00 -0.16722579367E+04  0.16722579367E+04  0.00000000000E+00 0. -1.
         24    2    1    2    0    0 -0.22860532951E+03  0.12163805407E+03 -0.33103958139E+03  0.42768554961E+03  0.79192878621E+02 0.  0.
        254    2    1    2    0    0  0.22860532951E+03 -0.12163805407E+03 -0.11273813925E+04  0.14584093499E+04  0.88820764167E+03 0.  0.
         23    2    4    4    0    0  0.47518352435E+03  0.16256058076E+03 -0.46045055700E+03  0.68748566460E+03  0.91632414291E+02 0.  0.
         23    2    4    4    0    0 -0.24657819484E+03 -0.28419863483E+03 -0.66693083549E+03  0.77092368525E+03  0.89201563591E+02 0.  0.
          2    1    3    3  502    0 -0.11209526915E+03  0.20177251041E+02 -0.16900189189E+03  0.20379919108E+03  0.00000000000E+00 0. -1.
         -1    1    3    3    0  502 -0.11651006036E+03  0.10146080303E+03 -0.16203768950E+03  0.22388635853E+03  0.00000000000E+00 0.  1.
         11    1    5    5    0    0  0.10847521564E+03  0.55022318299E+01 -0.13052151473E+03  0.16980286444E+03  0.00000000000E+00 0. -1.
        -11    1    5    5    0    0  0.36670830871E+03  0.15705834893E+03 -0.32992904227E+03  0.51768280016E+03  0.00000000000E+00 0.  1.
          2    1    6    6  503    0 -0.31732998506E+02 -0.54017605908E+01 -0.34779099637E+02  0.47389323515E+02  0.00000000000E+00 0. -1.
         -2    1    6    6    0  503 -0.21484519634E+03 -0.27879687424E+03 -0.63215173585E+03  0.72353436174E+03  0.00000000000E+00 0.  1.
<mgrwt>
<rscale>  0 0.11959775E+04</rscale>
<asrwt>0</asrwt>
<pdfrwt beam="1">  1        2 0.25727046E+00 0.11959775E+04</pdfrwt>
<pdfrwt beam="2">  1       -1 0.32897994E-01 0.11959775E+04</pdfrwt>
<totfact> 0.99034097E+01</totfact>
</mgrwt>
</event>
<event>
12    6  0.1647231E-007  0.2031454E+04  0.7818608E-02  0.8592055E-01
         -1   -1    0    0    0  501 -0.00000000000E+00  0.00000000000E+00  0.64710129158E+03  0.64710129158E+03  0.00000000000E+00 0.  1.
          2   -1    0    0  501    0  0.00000000000E+00 -0.00000000000E+00 -0.15943421742E+04  0.15943421742E+04  0.00000000000E+00 0. -1.
         24    2    1    2    0    0  0.72807004054E+03  0.22439553155E+03 -0.37576641386E+02  0.76724644169E+03  0.82557614958E+02 0.  0.
        254    2    1    2    0    0 -0.72807004054E+03 -0.22439553155E+03 -0.90966424120E+03  0.14741970241E+04  0.87483055244E+03 0.  0.
         23    2    4    4    0    0 -0.99738622195E+02 -0.12802047353E+03 -0.80243570726E+03  0.82318706747E+03  0.86004938002E+02 0.  0.
         23    2    4    4    0    0 -0.62833141835E+03 -0.96375058016E+02 -0.10722853394E+03  0.65100995658E+03  0.90705468343E+02 0.  0.
          2    1    3    3  502    0  0.16433671165E+03  0.80864472762E+02  0.11129440169E+02  0.18349245813E+03  0.00000000000E+00 0. -1.
         -1    1    3    3    0  502  0.56373332890E+03  0.14353105879E+03 -0.48706081554E+02  0.58375398356E+03  0.00000000000E+00 0.  1.
         11    1    5    5    0    0 -0.43641415004E+02 -0.81448605325E+02 -0.61788526400E+03  0.62475647086E+03  0.00000000000E+00 0. -1.
        -11    1    5    5    0    0 -0.56097207191E+02 -0.46571868209E+02 -0.18455044326E+03  0.19843059661E+03  0.00000000000E+00 0.  1.
          2    1    6    6  503    0 -0.23489053951E+03 -0.16291254113E+02 -0.79623363506E+02  0.24855351642E+03  0.00000000000E+00 0. -1.
         -2    1    6    6    0  503 -0.39344087884E+03 -0.80083803904E+02 -0.27605170439E+02  0.40245644016E+03  0.00000000000E+00 0.  1.
<mgrwt>
<rscale>  0 0.20314535E+04</rscale>
<asrwt>0</asrwt>
<pdfrwt beam="1">  1        2 0.24528341E+00 0.20314535E+04</pdfrwt>
<pdfrwt beam="2">  1       -1 0.99554046E-01 0.20314535E+04</pdfrwt>
<totfact> 0.11418826E+01</totfact>
</mgrwt>
</event>
<event>
12    6  0.1647231E-007  0.3509307E+04  0.7818608E-02  0.8111588E-01
         -1   -1    0    0    0  501 -0.00000000000E+00  0.00000000000E+00  0.14413142128E+04  0.14413142128E+04  0.00000000000E+00 0.  1.
          2   -1    0    0  501    0  0.00000000000E+00 -0.00000000000E+00 -0.21361122344E+04  0.21361122344E+04  0.00000000000E+00 0. -1.
         24    2    1    2    0    0 -0.17196025363E+02 -0.14373088219E+04  0.46859970786E+03  0.15138848369E+04  0.78161757636E+02 0.  0.
        254    2    1    2    0    0  0.17196025363E+02  0.14373088219E+04 -0.11633977294E+04  0.20635416103E+04  0.91572776945E+03 0.  0.
         23    2    4    4    0    0  0.38267615052E+03  0.29860975970E+03 -0.45229903037E+03  0.66935860116E+03  0.88643664773E+02 0.  0.
         23    2    4    4    0    0 -0.36548012516E+03  0.11386990622E+04 -0.71109869907E+03  0.13941830092E+04  0.88733460397E+02 0.  0.
          2    1    3    3  502    0 -0.24509951231E+02 -0.26424928773E+03  0.64031285992E+02  0.27299895487E+03  0.00000000000E+00 0. -1.
         -1    1    3    3    0  502  0.73139258676E+01 -0.11730595342E+04  0.40456842186E+03  0.12408858821E+04  0.00000000000E+00 0.  1.
         11    1    5    5    0    0  0.37502307026E+03  0.30129869212E+03 -0.45354081226E+03  0.66115238295E+03  0.00000000000E+00 0.  1.
        -11    1    5    5    0    0  0.76530802592E+01 -0.26889324145E+01  0.12417818886E+01  0.82062182059E+01  0.00000000000E+00 0. -1.
          2    1    6    6  503    0 -0.10855233537E+03  0.23106526288E+03 -0.13345390956E+03  0.28807067049E+03  0.00000000000E+00 0. -1.
         -2    1    6    6    0  503 -0.25692778979E+03  0.90763379935E+03 -0.57764478951E+03  0.11061123387E+04  0.00000000000E+00 0.  1.
<mgrwt>
<rscale>  0 0.35093070E+04</rscale>
<asrwt>0</asrwt>
<pdfrwt beam="1">  1        2 0.32863265E+00 0.35093070E+04</pdfrwt>
<pdfrwt beam="2">  1       -1 0.22174065E+00 0.35093070E+04</pdfrwt>
<totfact> 0.56106536E-01</totfact>
</mgrwt>
</event>
<event>
12    6  0.1647231E-007  0.2345541E+04  0.7818608E-02  0.8460178E-01
          2   -1    0    0  501    0  0.00000000000E+00  0.00000000000E+00  0.41709813225E+04  0.41709813225E+04  0.00000000000E+00 0. -1.
         -1   -1    0    0    0  501 -0.00000000000E+00 -0.00000000000E+00 -0.32975221738E+03  0.32975221738E+03  0.00000000000E+00 0.  1.
         24    2    1    2    0    0  0.15951347311E+03  0.77159407630E+03  0.46447335123E+03  0.91813531828E+03  0.80218464209E+02 0.  0.
        254    2    1    2    0    0 -0.15951347311E+03 -0.77159407630E+03  0.33767557539E+04  0.35825982216E+04  0.90095983776E+03 0.  0.
         23    2    4    4    0    0  0.21563985640E+03 -0.55055582482E+03  0.27469613070E+04  0.28114095998E+04  0.92818381701E+02 0.  0.
         23    2    4    4    0    0 -0.37515332951E+03 -0.22103825147E+03  0.62979444693E+03  0.77118862179E+03  0.92157016807E+02 0.  0.
          2    1    3    3  502    0  0.88321754816E+01  0.12849755176E+03  0.48938546568E+02  0.13778464890E+03  0.00000000000E+00 0. -1.
         -1    1    3    3    0  502  0.15068129763E+03  0.64309652454E+03  0.41553480466E+03  0.78035066938E+03  0.00000000000E+00 0.  1.
         11    1    5    5    0    0  0.14845990060E+02 -0.66477592976E+01  0.12860347704E+03  0.12962812361E+03  0.00000000000E+00 0. -1.
        -11    1    5    5    0    0  0.20079386634E+03 -0.54390806553E+03  0.26183578299E+04  0.26817814762E+04  0.00000000000E+00 0.  1.
          4    1    6    6  503    0 -0.37334677722E+02 -0.60199909670E+02  0.94859107217E+02  0.11838985390E+03  0.00000000000E+00 0. -1.
         -4    1    6    6    0  503 -0.33781865179E+03 -0.16083834180E+03  0.53493533971E+03  0.65279876789E+03  0.00000000000E+00 0.  1.
<mgrwt>
<rscale>  0 0.23455407E+04</rscale>
<asrwt>0</asrwt>
<pdfrwt beam="1">  1        2 0.64168940E+00 0.23455407E+04</pdfrwt>
<pdfrwt beam="2">  1       -1 0.50731113E-01 0.23455407E+04</pdfrwt>
<totfact> 0.99459867E-01</totfact>
</mgrwt>
</event>
<event>
12    6  0.1647231E-007  0.1955942E+04  0.7818608E-02  0.8627501E-01
         -1   -1    0    0    0  501 -0.00000000000E+00  0.00000000000E+00  0.16583331579E+04  0.16583331579E+04  0.00000000000E+00 0.  1.
          2   -1    0    0  501    0  0.00000000000E+00 -0.00000000000E+00 -0.57674016350E+03  0.57674016350E+03  0.00000000000E+00 0. -1.
         24    2    1    2    0    0  0.27874142597E+03 -0.71677399776E+03  0.42147221642E+03  0.88082493611E+03  0.82170508319E+02 0.  0.
        254    2    1    2    0    0 -0.27874142597E+03  0.71677399776E+03  0.66012077792E+03  0.13542483852E+04  0.89820237200E+03 0.  0.
         23    2    4    4    0    0  0.59614375173E+02  0.70545221531E+03  0.14072883358E+03  0.72765680687E+03  0.91995229070E+02 0.  0.
         23    2    4    4    0    0 -0.33835580114E+03  0.11321782459E+02  0.51939194434E+03  0.62659157838E+03  0.90753420467E+02 0.  0.
          4    1    3    3  502    0  0.50072579815E+02 -0.10960589004E+03  0.34326485977E+02  0.12529573824E+03  0.00000000000E+00 0. -1.
         -3    1    3    3    0  502  0.22866884615E+03 -0.60716810773E+03  0.38714573045E+03  0.75552919788E+03  0.00000000000E+00 0.  1.
         11    1    5    5    0    0  0.44382703868E+02  0.18585301756E+03  0.67761264389E+02  0.20273815006E+03  0.00000000000E+00 0.  1.
        -11    1    5    5    0    0  0.15231671305E+02  0.51959919774E+03  0.72967569193E+02  0.52491865680E+03  0.00000000000E+00 0. -1.
          4    1    6    6  503    0 -0.31684466013E+03  0.26583969922E+01  0.51224943936E+03  0.60232640143E+03  0.00000000000E+00 0. -1.
         -4    1    6    6    0  503 -0.21511141006E+02  0.86633854668E+01  0.71425049789E+01  0.24265176952E+02  0.00000000000E+00 0.  1.
<mgrwt>
<rscale>  0 0.19559421E+04</rscale>
<asrwt>0</asrwt>
<pdfrwt beam="1">  1        2 0.88729257E-01 0.19559421E+04</pdfrwt>
<pdfrwt beam="2">  1       -1 0.25512818E+00 0.19559421E+04</pdfrwt>
<totfact> 0.35757510E+00</totfact>
</mgrwt>
</event>
<event>
12    6  0.1647231E-007  0.1414816E+04  0.7818608E-02  0.8943163E-01
         -1   -1    0    0    0  501 -0.00000000000E+00  0.00000000000E+00  0.35673938370E+03  0.35673938370E+03  0.00000000000E+00 0.  1.
          2   -1    0    0  501    0  0.00000000000E+00 -0.00000000000E+00 -0.14027785552E+04  0.14027785552E+04  0.00000000000E+00 0. -1.
         24    2    1    2    0    0 -0.31634558829E+03 -0.14112780465E+03 -0.21533880541E+02  0.35604355719E+03  0.79446322307E+02 0.  0.
        254    2    1    2    0    0  0.31634558829E+03  0.14112780465E+03 -0.10245052909E+04  0.14034743817E+04  0.89450414221E+03 0.  0.
         23    2    4    4    0    0 -0.21913120579E+03  0.25178683016E+03 -0.64324824908E+03  0.73061733231E+03  0.92834708637E+02 0.  0.
         23    2    4    4    0    0  0.53547679407E+03 -0.11065902551E+03 -0.38125704186E+03  0.67285704938E+03  0.91645294605E+02 0.  0.
          4    1    3    3  502    0 -0.15134521993E+03 -0.94574157504E+02 -0.42126418315E+02  0.18336925038E+03  0.00000000000E+00 0. -1.
         -3    1    3    3    0  502 -0.16500036835E+03 -0.46553647149E+02  0.20592537774E+02  0.17267430681E+03  0.00000000000E+00 0.  1.
         11    1    5    5    0    0 -0.69606872694E+02  0.66894126111E+02 -0.10759558976E+03  0.14455708828E+03  0.00000000000E+00 0. -1.
        -11    1    5    5    0    0 -0.14952433309E+03  0.18489270405E+03 -0.53565265932E+03  0.58606024403E+03  0.00000000000E+00 0.  1.
          2    1    6    6  503    0  0.37306611269E+03 -0.37228788550E+02 -0.27929473916E+03  0.46751455427E+03  0.00000000000E+00 0. -1.
         -2    1    6    6    0  503  0.16241068139E+03 -0.73430236961E+02 -0.10196230270E+03  0.20534249512E+03  0.00000000000E+00 0.  1.
<mgrwt>
<rscale>  0 0.14148164E+04</rscale>
<asrwt>0</asrwt>
<pdfrwt beam="1">  1        2 0.21581208E+00 0.14148164E+04</pdfrwt>
<pdfrwt beam="2">  1       -1 0.54882983E-01 0.14148164E+04</pdfrwt>
<totfact> 0.53592637E+01</totfact>
</mgrwt>
</event>
<event>
12    6  0.1647231E-007  0.1186884E+04  0.7818608E-02  0.9124415E-01
          2   -1    0    0  501    0  0.00000000000E+00  0.00000000000E+00  0.30649552903E+04  0.30649552903E+04  0.00000000000E+00 0. -1.
         -1   -1    0    0    0  501 -0.00000000000E+00 -0.00000000000E+00 -0.11490334383E+03  0.11490334383E+03  0.00000000000E+00 0.  1.
         24    2    1    2    0    0  0.10106148346E+03 -0.53463689910E+02  0.59439072112E+02  0.15151301175E+03  0.79695670268E+02 0.  0.
        254    2    1    2    0    0 -0.10106148346E+03  0.53463689910E+02  0.28906128743E+04  0.30283456223E+04  0.89563532173E+03 0.  0.
         23    2    4    4    0    0 -0.43211653773E+03  0.61804391339E+02  0.23184573667E+04  0.23608554522E+04  0.88596950144E+02 0.  0.
         23    2    4    4    0    0  0.33105505427E+03 -0.83407014291E+01  0.57215550757E+03  0.66749017018E+03  0.92272347848E+02 0.  0.
          4    1    3    3  502    0  0.48295258695E+02 -0.41108053565E+02  0.71931701998E+02  0.95898247287E+02  0.00000000000E+00 0. -1.
         -3    1    3    3    0  502  0.52766224762E+02 -0.12355636345E+02 -0.12492629886E+02  0.55614764466E+02  0.00000000000E+00 0.  1.
         11    1    5    5    0    0 -0.68931140099E+01  0.33181750991E+01  0.15730668367E+03  0.15749259676E+03  0.00000000000E+00 0. -1.
        -11    1    5    5    0    0 -0.42522342372E+03  0.58486216240E+02  0.21611506831E+04  0.22033628554E+04  0.00000000000E+00 0.  1.
          4    1    6    6  503    0  0.16348573193E+03 -0.46535899226E+02  0.24922183656E+03  0.30166984980E+03  0.00000000000E+00 0. -1.
         -4    1    6    6    0  503  0.16756932234E+03  0.38195197797E+02  0.32293367102E+03  0.36582032038E+03  0.00000000000E+00 0.  1.
<mgrwt>
<rscale>  0 0.11868843E+04</rscale>
<asrwt>0</asrwt>
<pdfrwt beam="1">  1        2 0.47153152E+00 0.11868843E+04</pdfrwt>
<pdfrwt beam="2">  1       -1 0.17677440E-01 0.11868843E+04</pdfrwt>
<totfact> 0.45510405E+01</totfact>
</mgrwt>
</event>
<event>
12    6  0.1647231E-007  0.1593631E+04  0.7818608E-02  0.8824470E-01
         -1   -1    0    0    0  501 -0.00000000000E+00  0.00000000000E+00  0.81683456509E+03  0.81683456509E+03  0.00000000000E+00 0.  1.
          2   -1    0    0  501    0  0.00000000000E+00 -0.00000000000E+00 -0.77728738679E+03  0.77728738679E+03  0.00000000000E+00 0. -1.
         24    2    1    2    0    0  0.20167983307E+03 -0.69126201097E+02  0.50688149666E+03  0.55539912430E+03  0.78013773605E+02 0.  0.
        254    2    1    2    0    0 -0.20167983307E+03  0.69126201097E+02 -0.46733431836E+03  0.10387228276E+04  0.90282365979E+03 0.  0.
         23    2    4    4    0    0 -0.98827742535E+00 -0.37923864508E+03 -0.35385464745E+03  0.52651590476E+03  0.90459713847E+02 0.  0.
         23    2    4    4    0    0 -0.20069155565E+03  0.44836484618E+03 -0.11347967091E+03  0.51220692282E+03  0.90388938867E+02 0.  0.
          4    1    3    3  502    0 -0.57221997643E+00 -0.96335718999E+01  0.46464664782E+01  0.10710872700E+02  0.00000000000E+00 0. -1.
         -3    1    3    3    0  502  0.20225205305E+03 -0.59492629197E+02  0.50223503018E+03  0.54468825160E+03  0.00000000000E+00 0.  1.
         11    1    5    5    0    0  0.13694835520E+01 -0.27516345330E+03 -0.30725816780E+03  0.41246137177E+03  0.00000000000E+00 0.  1.
        -11    1    5    5    0    0 -0.23577609773E+01 -0.10407519179E+03 -0.46596479647E+02  0.11405453300E+03  0.00000000000E+00 0. -1.
          1    1    6    6  503    0 -0.11254350055E+03  0.34550568074E+03 -0.94148778399E+02  0.37537209195E+03  0.00000000000E+00 0. -1.
         -1    1    6    6    0  503 -0.88148055098E+02  0.10285916544E+03 -0.19330892512E+02  0.13683483087E+03  0.00000000000E+00 0.  1.
<mgrwt>
<rscale>  0 0.15936313E+04</rscale>
<asrwt>0</asrwt>
<pdfrwt beam="1">  1        2 0.11958267E+00 0.15936313E+04</pdfrwt>
<pdfrwt beam="2">  1       -1 0.12566686E+00 0.15936313E+04</pdfrwt>
<totfact> 0.21653588E+01</totfact>
</mgrwt>
</event>
<event>
12    6  0.1647231E-007  0.1972697E+04  0.7818608E-02  0.8619493E-01
          2   -1    0    0  501    0  0.00000000000E+00  0.00000000000E+00  0.19236632037E+04  0.19236632037E+04  0.00000000000E+00 0. -1.
         -1   -1    0    0    0  501 -0.00000000000E+00 -0.00000000000E+00 -0.50574515334E+03  0.50574515334E+03  0.00000000000E+00 0.  1.
         24    2    1    2    0    0 -0.31119881243E+03  0.17551068474E+03  0.14116168749E+04  0.14582381465E+04  0.78406562527E+02 0.  0.
        254    2    1    2    0    0  0.31119881243E+03 -0.17551068474E+03  0.63011755289E+01  0.97117021061E+03  0.90304106875E+03 0.  0.
         23    2    4    4    0    0 -0.29723559803E+03 -0.16152653068E+03  0.51581607231E+02  0.35425870388E+03  0.91644673726E+02 0.  0.
         23    2    4    4    0    0  0.60843441046E+03 -0.13984154060E+02 -0.45280431702E+02  0.61691150673E+03  0.90230267912E+02 0.  0.
          4    1    3    3  502    0 -0.11286624940E+03  0.10737872278E+03  0.57323144147E+03  0.59402295061E+03  0.00000000000E+00 0. -1.
         -3    1    3    3    0  502 -0.19833256303E+03  0.68131961966E+02  0.83838543340E+03  0.86421519585E+03  0.00000000000E+00 0.  1.
         11    1    5    5    0    0 -0.29850947055E+01 -0.26224855319E+02  0.58127506113E+00  0.26400600516E+02  0.00000000000E+00 0.  1.
        -11    1    5    5    0    0 -0.29425050332E+03 -0.13530167536E+03  0.51000332170E+02  0.32785810336E+03  0.00000000000E+00 0. -1.
          1    1    6    6  503    0  0.26392256263E+03 -0.28101444752E+02 -0.58783957679E+02  0.27184621378E+03  0.00000000000E+00 0. -1.
         -1    1    6    6    0  503  0.34451184783E+03  0.14117290692E+02  0.13503525976E+02  0.34506529295E+03  0.00000000000E+00 0.  1.
<mgrwt>
<rscale>  0 0.19726970E+04</rscale>
<asrwt>0</asrwt>
<pdfrwt beam="1">  1        2 0.29594818E+00 0.19726970E+04</pdfrwt>
<pdfrwt beam="2">  1       -1 0.77806947E-01 0.19726970E+04</pdfrwt>
<totfact> 0.12924574E+01</totfact>
</mgrwt>
</event>
<event>
12    6  0.1647231E-007  0.1195972E+04  0.7818608E-02  0.9116390E-01
          2   -1    0    0  501    0  0.00000000000E+00  0.00000000000E+00  0.14873001909E+04  0.14873001909E+04  0.00000000000E+00 0. -1.
         -1   -1    0    0    0  501 -0.00000000000E+00 -0.00000000000E+00 -0.24042705989E+03  0.24042705989E+03  0.00000000000E+00 0.  1.
         24    2    1    2    0    0  0.15757990756E+03  0.12744374234E+03  0.49217120287E+03  0.53828397871E+03  0.80273370907E+02 0.  0.
        254    2    1    2    0    0 -0.15757990756E+03 -0.12744374234E+03  0.75470192810E+03  0.11894432720E+04  0.89673126543E+03 0.  0.
         23    2    4    4    0    0 -0.71014643000E+01 -0.22704505458E+03 -0.13347179945E+03  0.27863532699E+03  0.90680960481E+02 0.  0.
         23    2    4    4    0    0 -0.15047844326E+03  0.99601312245E+02  0.88817372755E+03  0.91080794505E+03  0.90301490383E+02 0.  0.
          2    1    3    3  502    0  0.14270774862E+03  0.13877022826E+03  0.44244962788E+03  0.48516425154E+03  0.00000000000E+00 0. -1.
         -1    1    3    3    0  502  0.14872158941E+02 -0.11326485920E+02  0.49721574994E+02  0.53119727171E+02  0.00000000000E+00 0.  1.
         11    1    5    5    0    0 -0.10094989003E+00  0.33383478746E+00 -0.27801956966E+02  0.27804144433E+02  0.00000000000E+00 0. -1.
        -11    1    5    5    0    0 -0.70005144099E+01 -0.22737888937E+03 -0.10566984249E+03  0.25083118256E+03  0.00000000000E+00 0.  1.
          4    1    6    6  503    0 -0.26606077867E+02 -0.16947584427E+02  0.12622996469E+03  0.13011190561E+03  0.00000000000E+00 0. -1.
         -4    1    6    6    0  503 -0.12387236539E+03  0.11654889667E+03  0.76194376287E+03  0.78069603944E+03  0.00000000000E+00 0.  1.
<mgrwt>
<rscale>  0 0.11959719E+04</rscale>
<asrwt>0</asrwt>
<pdfrwt beam="1">  1        2 0.22881541E+00 0.11959719E+04</pdfrwt>
<pdfrwt beam="2">  1       -1 0.36988779E-01 0.11959719E+04</pdfrwt>
<totfact> 0.10189347E+02</totfact>
</mgrwt>
</event>
<event>
12    6  0.1647231E-007  0.1229401E+04  0.7818608E-02  0.9087504E-01
         -3   -1    0    0    0  501 -0.00000000000E+00  0.00000000000E+00  0.12282737141E+04  0.12282737141E+04  0.00000000000E+00 0.  1.
          4   -1    0    0  501    0  0.00000000000E+00 -0.00000000000E+00 -0.30763235024E+03  0.30763235024E+03  0.00000000000E+00 0. -1.
         24    2    1    2    0    0 -0.26807367552E+03  0.18511290943E+02  0.25682915317E+03  0.38050553939E+03  0.81345486578E+02 0.  0.
        254    2    1    2    0    0  0.26807367552E+03 -0.18511290943E+02  0.66381221073E+03  0.11554005250E+04  0.90669595712E+03 0.  0.
         23    2    4    4    0    0  0.47100175272E+03 -0.26194933392E+03  0.61508357387E+03  0.82284780787E+03  0.91052772966E+02 0.  0.
         23    2    4    4    0    0 -0.20292807720E+03  0.24343804297E+03  0.48728636863E+02  0.33255271714E+03  0.88175644851E+02 0.  0.
          2    1    3    3  502    0 -0.18992503880E+02 -0.35448434034E+01 -0.33893967076E+01  0.19615532836E+02  0.00000000000E+00 0. -1.
         -1    1    3    3    0  502 -0.24908117164E+03  0.22056134346E+02  0.26021854988E+03  0.36089000655E+03  0.00000000000E+00 0.  1.
         11    1    5    5    0    0  0.38257693568E+03 -0.25050430774E+03  0.52112784150E+03  0.69331936876E+03  0.00000000000E+00 0.  1.
        -11    1    5    5    0    0  0.88424817035E+02 -0.11445026173E+02  0.93955732365E+02  0.12952843910E+03  0.00000000000E+00 0. -1.
          3    1    6    6  503    0 -0.10644576846E+03  0.63705668798E+02  0.30506968656E+02  0.12774892953E+03  0.00000000000E+00 0. -1.
         -3    1    6    6    0  503 -0.96482308736E+02  0.17973237418E+03  0.18221668207E+02  0.20480378761E+03  0.00000000000E+00 0.  1.
<mgrwt>
<rscale>  0 0.12294010E+04</rscale>
<asrwt>0</asrwt>
<pdfrwt beam="1">  1        4 0.47328055E-01 0.12294010E+04</pdfrwt>
<pdfrwt beam="2">  1       -3 0.18896518E+00 0.12294010E+04</pdfrwt>
<totfact> 0.16821704E+00</totfact>
</mgrwt>
</event>
<event>
12    6  0.1647231E-007  0.1494228E+04  0.7818608E-02  0.8888300E-01
         -1   -1    0    0    0  501 -0.00000000000E+00  0.00000000000E+00  0.18652692786E+03  0.18652692786E+03  0.00000000000E+00 0.  1.
          2   -1    0    0  501    0  0.00000000000E+00 -0.00000000000E+00 -0.29924876632E+04  0.29924876632E+04  0.00000000000E+00 0. -1.
         24    2    1    2    0    0  0.79146985613E+02 -0.43357895584E+03 -0.56992755341E+03  0.72494344862E+03  0.80440234229E+02 0.  0.
        254    2    1    2    0    0 -0.79146985613E+02  0.43357895584E+03 -0.22360331819E+04  0.24540711424E+04  0.91014604605E+03 0.  0.
         23    2    4    4    0    0 -0.21498926610E+03  0.23760038897E+03 -0.17423620771E+03  0.37653725916E+03  0.93529257908E+02 0.  0.
         23    2    4    4    0    0  0.13584228049E+03  0.19597856687E+03 -0.20617969742E+04  0.20775338833E+04  0.90992029241E+02 0.  0.
          4    1    3    3  502    0  0.87599396029E+02 -0.34124219611E+03 -0.48306874352E+03  0.59789238292E+03  0.00000000000E+00 0. -1.
         -3    1    3    3    0  502 -0.84524104155E+01 -0.92336759731E+02 -0.86858809883E+02  0.12705106569E+03  0.00000000000E+00 0.  1.
         11    1    5    5    0    0 -0.10871423113E+03  0.13774453642E+03 -0.14539344883E+03  0.22788505069E+03  0.00000000000E+00 0.  1.
        -11    1    5    5    0    0 -0.10627503497E+03  0.99855852542E+02 -0.28842758887E+02  0.14865220848E+03  0.00000000000E+00 0. -1.
          2    1    6    6  503    0  0.47275076551E+02  0.11587623912E+03 -0.13500765137E+04  0.13558646055E+04  0.00000000000E+00 0. -1.
         -2    1    6    6    0  503  0.88567203938E+02  0.80102327748E+02 -0.71172046050E+03  0.72166927773E+03  0.00000000000E+00 0.  1.
<mgrwt>
<rscale>  0 0.14942283E+04</rscale>
<asrwt>0</asrwt>
<pdfrwt beam="1">  1        2 0.46038271E+00 0.14942283E+04</pdfrwt>
<pdfrwt beam="2">  1       -1 0.28696451E-01 0.14942283E+04</pdfrwt>
<totfact> 0.21528215E+01</totfact>
</mgrwt>
</event>
<event>
12    6  0.1647231E-007  0.1302622E+04  0.7818608E-02  0.9027488E-01
         -1   -1    0    0    0  501 -0.00000000000E+00  0.00000000000E+00  0.23256146483E+03  0.23256146483E+03  0.00000000000E+00 0.  1.
          2   -1    0    0  501    0  0.00000000000E+00 -0.00000000000E+00 -0.18240610513E+04  0.18240610513E+04  0.00000000000E+00 0. -1.
         24    2    1    2    0    0  0.11890952523E+03  0.11953912827E+03  0.33017432644E+02  0.18906906183E+03  0.78916924083E+02 0.  0.
        254    2    1    2    0    0 -0.11890952523E+03 -0.11953912827E+03 -0.16245170191E+04  0.18675534543E+04  0.90568829124E+03 0.  0.
         23    2    4    4    0    0 -0.35931074745E+03  0.22502868116E+03 -0.11404929717E+04  0.12202410219E+04  0.92313662813E+02 0.  0.
         23    2    4    4    0    0  0.24040122222E+03 -0.34456780943E+03 -0.48402404738E+03  0.64731243241E+03  0.90633237679E+02 0.  0.
          4    1    3    3  502    0  0.89134824426E+02  0.85430718856E+02 -0.13445720916E+02  0.12419425132E+03  0.00000000000E+00 0. -1.
         -3    1    3    3    0  502  0.29774700803E+02  0.34108409415E+02  0.46463153560E+02  0.64874810516E+02  0.00000000000E+00 0.  1.
         11    1    5    5    0    0 -0.19232182235E+03  0.16518665265E+03 -0.59931520326E+03  0.65073268431E+03  0.00000000000E+00 0. -1.
        -11    1    5    5    0    0 -0.16698892510E+03  0.59842028508E+02 -0.54117776849E+03  0.56950833759E+03  0.00000000000E+00 0.  1.
          2    1    6    6  503    0  0.14487847740E+02 -0.81403368802E+02 -0.83959225346E+02  0.11783699633E+03  0.00000000000E+00 0. -1.
         -2    1    6    6    0  503  0.22591337448E+03 -0.26316444063E+03 -0.40006482203E+03  0.52947543608E+03  0.00000000000E+00 0.  1.
<mgrwt>
<rscale>  0 0.13026224E+04</rscale>
<asrwt>0</asrwt>
<pdfrwt beam="1">  1        2 0.28062478E+00 0.13026224E+04</pdfrwt>
<pdfrwt beam="2">  1       -1 0.35778687E-01 0.13026224E+04</pdfrwt>
<totfact> 0.69690265E+01</totfact>
</mgrwt>
</event>
<event>
12    6  0.1647231E-007  0.1331777E+04  0.7818608E-02  0.9004739E-01
          2   -1    0    0  501    0  0.00000000000E+00  0.00000000000E+00  0.14666621030E+04  0.14666621030E+04  0.00000000000E+00 0. -1.
         -1   -1    0    0    0  501 -0.00000000000E+00 -0.00000000000E+00 -0.30232414727E+03  0.30232414727E+03  0.00000000000E+00 0.  1.
         24    2    1    2    0    0  0.48229814780E+02  0.28509081172E+03  0.58932719398E+03  0.66150090166E+03  0.81694647166E+02 0.  0.
        254    2    1    2    0    0 -0.48229814780E+02 -0.28509081172E+03  0.57501076170E+03  0.11074853486E+04  0.90126773782E+03 0.  0.
         23    2    4    4    0    0  0.75353798346E+02 -0.48334353196E+03  0.19792483947E+02  0.49810068197E+03  0.91724490407E+02 0.  0.
         23    2    4    4    0    0 -0.12358361313E+03  0.19825272025E+03  0.55521827776E+03  0.60938466659E+03  0.92224104249E+02 0.  0.
          2    1    3    3  502    0  0.13453991075E+02  0.24518218599E+03  0.51138375847E+03  0.56728181941E+03  0.00000000000E+00 0. -1.
         -1    1    3    3    0  502  0.34775823705E+02  0.39908625729E+02  0.77943435507E+02  0.94219082253E+02  0.00000000000E+00 0.  1.
         11    1    5    5    0    0  0.40237837574E+02 -0.30726671545E+03  0.56086365986E+02  0.31492475045E+03  0.00000000000E+00 0. -1.
        -11    1    5    5    0    0  0.35115960772E+02 -0.17607681652E+03 -0.36293882038E+02  0.18317593152E+03  0.00000000000E+00 0.  1.
          4    1    6    6  503    0 -0.90108356446E+02  0.17392066528E+03  0.36010792408E+03  0.40993369061E+03  0.00000000000E+00 0. -1.
         -4    1    6    6    0  503 -0.33475256680E+02  0.24332054970E+02  0.19511035367E+03  0.19945097598E+03  0.00000000000E+00 0.  1.
<mgrwt>
<rscale>  0 0.13317768E+04</rscale>
<asrwt>0</asrwt>
<pdfrwt beam="1">  1        2 0.22564032E+00 0.13317768E+04</pdfrwt>
<pdfrwt beam="2">  1       -1 0.46511408E-01 0.13317768E+04</pdfrwt>
<totfact> 0.67999213E+01</totfact>
</mgrwt>
</event>
<event>
12    6  0.1647231E-007  0.1622091E+04  0.7818608E-02  0.8807090E-01
         -1   -1    0    0    0  501 -0.00000000000E+00  0.00000000000E+00  0.35526931063E+03  0.35526931063E+03  0.00000000000E+00 0.  1.
          2   -1    0    0  501    0  0.00000000000E+00 -0.00000000000E+00 -0.18515383763E+04  0.18515383763E+04  0.00000000000E+00 0. -1.
         24    2    1    2    0    0 -0.27301796906E+03 -0.34036231014E+03 -0.71474155577E+02  0.44928489142E+03  0.79768697812E+02 0.  0.
        254    2    1    2    0    0  0.27301796906E+03  0.34036231014E+03 -0.14247949101E+04  0.17575227955E+04  0.93191229593E+03 0.  0.
         23    2    4    4    0    0  0.10495593642E+02  0.27955463901E+03  0.89226186903E+01  0.29593333145E+03  0.96103953411E+02 0.  0.
         23    2    4    4    0    0  0.26252237542E+03  0.60807671126E+02 -0.14337175288E+04  0.14615894641E+04  0.89901271490E+02 0.  0.
          2    1    3    3  502    0 -0.90198340661E+02 -0.80279673801E+02  0.98137382785E+01  0.12114815782E+03  0.00000000000E+00 0. -1.
         -1    1    3    3    0  502 -0.18281962840E+03 -0.26008263634E+03 -0.81287893856E+02  0.32813673360E+03  0.00000000000E+00 0.  1.
         11    1    5    5    0    0 -0.55236619217E+01 -0.37139862068E+01  0.10235086772E+02  0.12209075960E+02  0.00000000000E+00 0. -1.
        -11    1    5    5    0    0  0.16019255563E+02  0.28326862522E+03 -0.13124680819E+01  0.28372425549E+03  0.00000000000E+00 0.  1.
          3    1    6    6  503    0  0.14887713155E+03  0.46551578696E+02 -0.59582583417E+03  0.61590573503E+03  0.00000000000E+00 0. -1.
         -3    1    6    6    0  503  0.11364524387E+03  0.14256092430E+02 -0.83789169465E+03  0.84568372906E+03  0.00000000000E+00 0.  1.
<mgrwt>
<rscale>  0 0.16220910E+04</rscale>
<asrwt>0</asrwt>
<pdfrwt beam="1">  1        2 0.28485206E+00 0.16220910E+04</pdfrwt>
<pdfrwt beam="2">  1       -1 0.54656817E-01 0.16220910E+04</pdfrwt>
<totfact> 0.29794014E+01</totfact>
</mgrwt>
</event>
<event>
12    6  0.1647231E-007  0.1562609E+04  0.7818608E-02  0.8843854E-01
          2   -1    0    0  501    0  0.00000000000E+00  0.00000000000E+00  0.39698181623E+03  0.39698181623E+03  0.00000000000E+00 0. -1.
         -1   -1    0    0    0  501 -0.00000000000E+00 -0.00000000000E+00 -0.15376951018E+04  0.15376951018E+04  0.00000000000E+00 0.  1.
         24    2    1    2    0    0 -0.45063135974E+03 -0.97561522902E+02 -0.73605922012E+03  0.87221922554E+03  0.79977051412E+02 0.  0.
        254    2    1    2    0    0  0.45063135974E+03  0.97561522902E+02 -0.40465406549E+03  0.10624576925E+04  0.86745868060E+03 0.  0.
         23    2    4    4    0    0  0.26731587579E+03  0.28621803081E+02 -0.66522470320E+03  0.72419715886E+03  0.98288524742E+02 0.  0.
         23    2    4    4    0    0  0.18331548395E+03  0.68939719821E+02  0.26057063772E+03  0.33826053366E+03  0.90365257505E+02 0.  0.
          2    1    3    3  502    0 -0.61743177809E+01 -0.13644913673E+02 -0.16276859104E+02  0.22118815780E+02  0.00000000000E+00 0. -1.
         -1    1    3    3    0  502 -0.44445704196E+03 -0.83916609229E+02 -0.71978236101E+03  0.85010040976E+03  0.00000000000E+00 0.  1.
         11    1    5    5    0    0  0.27568381371E+03  0.24219435347E+02 -0.64548248923E+03  0.70230747547E+03  0.00000000000E+00 0.  1.
        -11    1    5    5    0    0 -0.83679379243E+01  0.44023677344E+01 -0.19742213969E+02  0.21889683396E+02  0.00000000000E+00 0. -1.
          2    1    6    6  503    0  0.79728555937E+01  0.36343844706E+02  0.49652845711E+02  0.62047131775E+02  0.00000000000E+00 0. -1.
         -2    1    6    6    0  503  0.17534262836E+03  0.32595875114E+02  0.21091779200E+03  0.27621340188E+03  0.00000000000E+00 0.  1.
<mgrwt>
<rscale>  0 0.15626093E+04</rscale>
<asrwt>0</asrwt>
<pdfrwt beam="1">  1        2 0.61074125E-01 0.15626093E+04</pdfrwt>
<pdfrwt beam="2">  1       -1 0.23656848E+00 0.15626093E+04</pdfrwt>
<totfact> 0.75365733E+00</totfact>
</mgrwt>
</event>
<event>
12    6  0.1647231E-007  0.1674350E+04  0.7818608E-02  0.8776130E-01
          2   -1    0    0  501    0  0.00000000000E+00  0.00000000000E+00  0.62144024496E+03  0.62144024496E+03  0.00000000000E+00 0. -1.
         -1   -1    0    0    0  501 -0.00000000000E+00 -0.00000000000E+00 -0.11278020745E+04  0.11278020745E+04  0.00000000000E+00 0.  1.
         24    2    1    2    0    0  0.46942383341E+03 -0.14963387174E+03 -0.53954698997E+03  0.73510797004E+03  0.80769686698E+02 0.  0.
        254    2    1    2    0    0 -0.46942383341E+03  0.14963387174E+03  0.33185160455E+02  0.10141343494E+04  0.88578676487E+03 0.  0.
         23    2    4    4    0    0 -0.67523207763E+03  0.24060463520E+03  0.15944012319E+03  0.74010855918E+03  0.92252790503E+02 0.  0.
         23    2    4    4    0    0  0.20580824421E+03 -0.90970763462E+02 -0.12625496274E+03  0.27402579022E+03  0.92288162283E+02 0.  0.
          2    1    3    3  502    0  0.29006881871E+02 -0.55505384428E+01 -0.67253432040E+02  0.73452241587E+02  0.00000000000E+00 0. -1.
         -1    1    3    3    0  502  0.44041695154E+03 -0.14408333330E+03 -0.47229355793E+03  0.66165572846E+03  0.00000000000E+00 0.  1.
         11    1    5    5    0    0 -0.18949188361E+03  0.38595150769E+02  0.11943137421E+02  0.19375086618E+03  0.00000000000E+00 0.  1.
        -11    1    5    5    0    0 -0.48574019402E+03  0.20200948443E+03  0.14749698577E+03  0.54635769300E+03  0.00000000000E+00 0. -1.
          2    1    6    6  503    0  0.41197457768E+02 -0.62886001587E+02 -0.51113636496E+02  0.90909205023E+02  0.00000000000E+00 0. -1.
         -2    1    6    6    0  503  0.16461078645E+03 -0.28084761875E+02 -0.75141326240E+02  0.18311658519E+03  0.00000000000E+00 0.  1.
<mgrwt>
<rscale>  0 0.16743495E+04</rscale>
<asrwt>0</asrwt>
<pdfrwt beam="1">  1        2 0.95606191E-01 0.16743495E+04</pdfrwt>
<pdfrwt beam="2">  1       -1 0.17350801E+00 0.16743495E+04</pdfrwt>
<totfact> 0.12003097E+01</totfact>
</mgrwt>
</event>
<event>
12    6  0.1647231E-007  0.1586886E+04  0.7818608E-02  0.8828645E-01
          2   -1    0    0  501    0  0.00000000000E+00  0.00000000000E+00  0.10894026122E+04  0.10894026122E+04  0.00000000000E+00 0. -1.
         -1   -1    0    0    0  501 -0.00000000000E+00 -0.00000000000E+00 -0.57788714107E+03  0.57788714107E+03  0.00000000000E+00 0.  1.
         24    2    1    2    0    0 -0.35307254494E+03 -0.35506418785E+02  0.59059149248E+03  0.69300421184E+03  0.74401605291E+02 0.  0.
        254    2    1    2    0    0  0.35307254494E+03  0.35506418785E+02 -0.79076021398E+02  0.97428554139E+03  0.90391281175E+03 0.  0.
         23    2    4    4    0    0 -0.33943645400E+02  0.41127979326E+03 -0.58747776038E+02  0.42684401662E+03  0.91876405680E+02 0.  0.
         23    2    4    4    0    0  0.38701619034E+03 -0.37577337448E+03 -0.20328245360E+02  0.54744152478E+03  0.91059458267E+02 0.  0.
          4    1    3    3  502    0 -0.15559701814E+03 -0.36014014620E+02  0.20583273193E+03  0.26052745505E+03  0.00000000000E+00 0. -1.
         -3    1    3    3    0  502 -0.19747552680E+03  0.50759583499E+00  0.38475876055E+03  0.43247675679E+03  0.00000000000E+00 0.  1.
         11    1    5    5    0    0 -0.35548850214E+02  0.24058324493E+03  0.85687077327E+01  0.24334634011E+03  0.00000000000E+00 0.  1.
        -11    1    5    5    0    0  0.16052048142E+01  0.17069654833E+03 -0.67316483771E+02  0.18349767650E+03  0.00000000000E+00 0. -1.
          3    1    6    6  503    0  0.11721002106E+02 -0.93954018209E+00  0.10991975342E+02  0.16096215333E+02  0.00000000000E+00 0. -1.
         -3    1    6    6    0  503  0.37529518823E+03 -0.37483383430E+03 -0.31320220701E+02  0.53134530944E+03  0.00000000000E+00 0.  1.
<mgrwt>
<rscale>  0 0.15868860E+04</rscale>
<asrwt>0</asrwt>
<pdfrwt beam="1">  1        2 0.16760040E+00 0.15868860E+04</pdfrwt>
<pdfrwt beam="2">  1       -1 0.88905714E-01 0.15868860E+04</pdfrwt>
<totfact> 0.30057467E+01</totfact>
</mgrwt>
</event>
<event>
12    6  0.1647231E-007  0.1360995E+04  0.7818608E-02  0.8982546E-01
         -1   -1    0    0    0  501 -0.00000000000E+00  0.00000000000E+00  0.29104114452E+03  0.29104114452E+03  0.00000000000E+00 0.  1.
          2   -1    0    0  501    0  0.00000000000E+00 -0.00000000000E+00 -0.15911049345E+04  0.15911049345E+04  0.00000000000E+00 0. -1.
         24    2    1    2    0    0  0.20173177426E+03 -0.28358418672E+03 -0.57974274084E+03  0.68080579408E+03  0.79241302270E+02 0.  0.
        254    2    1    2    0    0 -0.20173177426E+03  0.28358418672E+03 -0.72032104918E+03  0.12013402850E+04  0.89623678050E+03 0.  0.
         23    2    4    4    0    0  0.75138750695E+02  0.52368423612E+03 -0.23296820502E+03  0.58477691085E+03  0.88311040594E+02 0.  0.
         23    2    4    4    0    0 -0.27687052495E+03 -0.24010004940E+03 -0.48735284416E+03  0.61656337414E+03  0.91281314096E+02 0.  0.
          4    1    3    3  502    0  0.12705473876E+03 -0.13513144724E+03 -0.36348683644E+03  0.40807608965E+03  0.00000000000E+00 0. -1.
         -3    1    3    3    0  502  0.74677035495E+02 -0.14845273948E+03 -0.21625590440E+03  0.27272970443E+03  0.00000000000E+00 0.  1.
         11    1    5    5    0    0  0.53413549863E+02  0.48674877032E+03 -0.23215940080E+03  0.54191822270E+03  0.00000000000E+00 0. -1.
        -11    1    5    5    0    0  0.21725200832E+02  0.36935465806E+02 -0.80880421925E+00  0.42858688148E+02  0.00000000000E+00 0.  1.
          4    1    6    6  503    0 -0.22891247595E+03 -0.20232528680E+03 -0.34017110558E+03  0.45722294824E+03  0.00000000000E+00 0. -1.
         -4    1    6    6    0  503 -0.47958049007E+02 -0.37774762605E+02 -0.14718173858E+03  0.15934042590E+03  0.00000000000E+00 0.  1.
<mgrwt>
<rscale>  0 0.13609952E+04</rscale>
<asrwt>0</asrwt>
<pdfrwt beam="1">  1        2 0.24478538E+00 0.13609952E+04</pdfrwt>
<pdfrwt beam="2">  1       -1 0.44775560E-01 0.13609952E+04</pdfrwt>
<totfact> 0.62003000E+01</totfact>
</mgrwt>
</event>
<event>
12    6  0.1647231E-007  0.1393804E+04  0.7818608E-02  0.8958316E-01
         -1   -1    0    0    0  501 -0.00000000000E+00  0.00000000000E+00  0.96238763742E+03  0.96238763742E+03  0.00000000000E+00 0.  1.
          2   -1    0    0  501    0  0.00000000000E+00 -0.00000000000E+00 -0.50465333363E+03  0.50465333363E+03  0.00000000000E+00 0. -1.
         24    2    1    2    0    0 -0.17931046665E+03 -0.17958136976E+03 -0.19264447527E+03  0.32950303165E+03  0.84015725906E+02 0.  0.
        254    2    1    2    0    0  0.17931046665E+03  0.17958136976E+03  0.65037877906E+03  0.11375379394E+04  0.89810817583E+03 0.  0.
         23    2    4    4    0    0 -0.86399070833E+02 -0.30900680963E+03  0.95581259061E+02  0.34689050173E+03  0.90814289994E+02 0.  0.
         23    2    4    4    0    0  0.26570953748E+03  0.48858817940E+03  0.55479752000E+03  0.79064743766E+03  0.89460131501E+02 0.  0.
          4    1    3    3  502    0 -0.49054233882E+02 -0.54379017894E+02 -0.12364937636E+02  0.74271711517E+02  0.00000000000E+00 0. -1.
         -3    1    3    3    0  502 -0.13025623277E+03 -0.12520235187E+03 -0.18027953764E+03  0.25523132014E+03  0.00000000000E+00 0.  1.
         11    1    5    5    0    0 -0.36963445462E+02 -0.29710981401E+02  0.28846985063E+02  0.55508443172E+02  0.00000000000E+00 0. -1.
        -11    1    5    5    0    0 -0.49435625372E+02 -0.27929582823E+03  0.66734273998E+02  0.29138205856E+03  0.00000000000E+00 0.  1.
          3    1    6    6  503    0  0.28612030741E+02  0.24498562212E+02  0.15624004725E+02  0.40779129187E+02  0.00000000000E+00 0. -1.
         -3    1    6    6    0  503  0.23709750674E+03  0.46408961718E+03  0.53917351528E+03  0.74986830848E+03  0.00000000000E+00 0.  1.
<mgrwt>
<rscale>  0 0.13938036E+04</rscale>
<asrwt>0</asrwt>
<pdfrwt beam="1">  1        2 0.77638975E-01 0.13938036E+04</pdfrwt>
<pdfrwt beam="2">  1       -1 0.14805964E+00 0.13938036E+04</pdfrwt>
<totfact> 0.24510684E+01</totfact>
</mgrwt>
</event>
<event>
12    6  0.1647231E-007  0.1624539E+04  0.7818608E-02  0.8805613E-01
         -1   -1    0    0    0  501 -0.00000000000E+00  0.00000000000E+00  0.24347683147E+03  0.24347683147E+03  0.00000000000E+00 0.  1.
          2   -1    0    0  501    0  0.00000000000E+00 -0.00000000000E+00 -0.27098338556E+04  0.27098338556E+04  0.00000000000E+00 0. -1.
         24    2    1    2    0    0 -0.35945510894E+03 -0.14273433130E+03 -0.15547461556E+04  0.16041373807E+04  0.80250002289E+02 0.  0.
        254    2    1    2    0    0  0.35945510894E+03  0.14273433130E+03 -0.91161086847E+03  0.13491733064E+04  0.91632590845E+03 0.  0.
         23    2    4    4    0    0 -0.30844459564E+02 -0.34167581744E+03 -0.23363525274E+03  0.42483098414E+03  0.90565936487E+02 0.  0.
         23    2    4    4    0    0  0.39029956851E+03  0.48441014875E+03 -0.67797561573E+03  0.92434232225E+03  0.88152412292E+02 0.  0.
          4    1    3    3  502    0 -0.33963257466E+03 -0.12867914192E+03 -0.13517371276E+04  0.13996792023E+04  0.00000000000E+00 0. -1.
         -3    1    3    3    0  502 -0.19822534278E+02 -0.14055189384E+02 -0.20300902806E+03  0.20445817833E+03  0.00000000000E+00 0.  1.
         11    1    5    5    0    0 -0.43757094410E+02 -0.24969151820E+03 -0.20949352631E+03  0.32885874649E+03  0.00000000000E+00 0.  1.
        -11    1    5    5    0    0  0.12912634846E+02 -0.91984299244E+02 -0.24141726429E+02  0.95972237658E+02  0.00000000000E+00 0. -1.
          2    1    6    6  503    0  0.18895582079E+03  0.28156125663E+03 -0.41541882733E+03  0.53624047362E+03  0.00000000000E+00 0. -1.
         -2    1    6    6    0  503  0.20134374771E+03  0.20284889212E+03 -0.26255678840E+03  0.38810184863E+03  0.00000000000E+00 0.  1.
<mgrwt>
<rscale>  0 0.16245390E+04</rscale>
<asrwt>0</asrwt>
<pdfrwt beam="1">  1        2 0.41689750E+00 0.16245390E+04</pdfrwt>
<pdfrwt beam="2">  1       -1 0.37457976E-01 0.16245390E+04</pdfrwt>
<totfact> 0.19668855E+01</totfact>
</mgrwt>
</event>
<event>
12    6  0.1647231E-007  0.1846322E+04  0.7818608E-02  0.8682047E-01
          2   -1    0    0  501    0  0.00000000000E+00  0.00000000000E+00  0.92489361734E+03  0.92489361734E+03  0.00000000000E+00 0. -1.
         -1   -1    0    0    0  501 -0.00000000000E+00 -0.00000000000E+00 -0.92143159158E+03  0.92143159158E+03  0.00000000000E+00 0.  1.
         24    2    1    2    0    0 -0.88347571762E+02 -0.18650118098E+03 -0.66773104570E+03  0.70348508348E+03  0.80240447039E+02 0.  0.
        254    2    1    2    0    0  0.88347571762E+02  0.18650118098E+03  0.67119307146E+03  0.11428401255E+04  0.90166259167E+03 0.  0.
         23    2    4    4    0    0  0.28005348783E+03  0.47790318867E+03  0.44316254740E+03  0.71628153011E+03  0.99220830340E+02 0.  0.
         23    2    4    4    0    0 -0.19170591607E+03 -0.29140200769E+03  0.22803052406E+03  0.42655859534E+03  0.91038601772E+02 0.  0.
          4    1    3    3  502    0 -0.21572598226E+02  0.17163585126E+01 -0.70582518895E+02  0.73825570464E+02  0.00000000000E+00 0. -1.
         -3    1    3    3    0  502 -0.66774973535E+02 -0.18821753949E+03 -0.59714852680E+03  0.62965951301E+03  0.00000000000E+00 0.  1.
         11    1    5    5    0    0  0.61262147356E+02  0.16908213518E+03  0.18590752320E+03  0.25865696650E+03  0.00000000000E+00 0. -1.
        -11    1    5    5    0    0  0.21879134048E+03  0.30882105349E+03  0.25725502420E+03  0.45762456361E+03  0.00000000000E+00 0.  1.
          3    1    6    6  503    0 -0.24279250298E+02 -0.37700532107E+02  0.72156854077E+02  0.84955421878E+02  0.00000000000E+00 0. -1.
         -3    1    6    6    0  503 -0.16742666578E+03 -0.25370147558E+03  0.15587366998E+03  0.34160317346E+03  0.00000000000E+00 0.  1.
<mgrwt>
<rscale>  0 0.18463220E+04</rscale>
<asrwt>0</asrwt>
<pdfrwt beam="1">  1        2 0.14229132E+00 0.18463220E+04</pdfrwt>
<pdfrwt beam="2">  1       -1 0.14175871E+00 0.18463220E+04</pdfrwt>
<totfact> 0.12283300E+01</totfact>
</mgrwt>
</event>
<event>
12    6  0.1647231E-007  0.1703672E+04  0.7818608E-02  0.8759273E-01
         -1   -1    0    0    0  501 -0.00000000000E+00  0.00000000000E+00  0.27564222227E+03  0.27564222227E+03  0.00000000000E+00 0.  1.
          2   -1    0    0  501    0  0.00000000000E+00 -0.00000000000E+00 -0.26324866810E+04  0.26324866810E+04  0.00000000000E+00 0. -1.
         24    2    1    2    0    0 -0.13130731555E+03  0.30355828556E+03  0.65088401322E+02  0.34616598457E+03  0.78772742973E+02 0.  0.
        254    2    1    2    0    0  0.13130731555E+03 -0.30355828556E+03 -0.24219328600E+04  0.25619629187E+04  0.76714143045E+03 0.  0.
         23    2    4    4    0    0  0.36583901166E+03 -0.10453039503E+03 -0.19680328348E+04  0.20065727202E+04  0.91739068718E+02 0.  0.
         23    2    4    4    0    0 -0.23453169611E+03 -0.19902789053E+03 -0.45390002524E+03  0.55539019847E+03  0.88407137445E+02 0.  0.
          4    1    3    3  502    0 -0.61357615577E+02  0.62599901099E+02  0.30893654725E+02  0.92940424516E+02  0.00000000000E+00 0. -1.
         -1    1    3    3    0  502 -0.69949699976E+02  0.24095838447E+03  0.34194746597E+02  0.25322556006E+03  0.00000000000E+00 0.  1.
         11    1    5    5    0    0  0.34148031496E+03 -0.90696650919E+02 -0.16552900946E+04  0.16925779112E+04  0.00000000000E+00 0.  1.
        -11    1    5    5    0    0  0.24358696704E+02 -0.13833744113E+02 -0.31274274015E+03  0.31399480903E+03  0.00000000000E+00 0. -1.
          4    1    6    6  503    0 -0.71948070347E+02 -0.26057041339E+02 -0.16188281814E+03  0.17905736801E+03  0.00000000000E+00 0. -1.
         -4    1    6    6    0  503 -0.16258362576E+03 -0.17297084919E+03 -0.29201720709E+03  0.37633283045E+03  0.00000000000E+00 0.  1.
<mgrwt>
<rscale>  0 0.17036719E+04</rscale>
<asrwt>0</asrwt>
<pdfrwt beam="1">  1        2 0.40499795E+00 0.17036719E+04</pdfrwt>
<pdfrwt beam="2">  1       -1 0.42406496E-01 0.17036719E+04</pdfrwt>
<totfact> 0.17291709E+01</totfact>
</mgrwt>
</event>
<event>
12    6  0.1647231E-007  0.3467689E+04  0.7818608E-02  0.8121490E-01
          2   -1    0    0  501    0  0.00000000000E+00  0.00000000000E+00  0.21883910150E+04  0.21883910150E+04  0.00000000000E+00 0. -1.
         -1   -1    0    0    0  501 -0.00000000000E+00 -0.00000000000E+00 -0.13737110909E+04  0.13737110909E+04  0.00000000000E+00 0.  1.
         24    2    1    2    0    0 -0.15872683402E+04 -0.26212224579E+03  0.61685853481E+03  0.17248407767E+04  0.80202228851E+02 0.  0.
        254    2    1    2    0    0  0.15872683402E+04  0.26212224579E+03  0.19782138927E+03  0.18372613291E+04  0.86502429672E+03 0.  0.
         23    2    4    4    0    0  0.10192936878E+04  0.53459950324E+03  0.29971980703E+03  0.11927200340E+04  0.89402829224E+02 0.  0.
         23    2    4    4    0    0  0.56797465237E+03 -0.27247725745E+03 -0.10189841776E+03  0.64454129513E+03  0.90615296810E+02 0.  0.
          2    1    3    3  502    0 -0.44687022547E+03 -0.52646456449E+02  0.14127317338E+03  0.47161717240E+03  0.00000000000E+00 0. -1.
         -1    1    3    3    0  502 -0.11403981147E+04 -0.20947578934E+03  0.47558536143E+03  0.12532236043E+04  0.00000000000E+00 0.  1.
         11    1    5    5    0    0  0.68704713163E+03  0.38591715315E+03  0.24080141028E+03  0.82398490845E+03  0.00000000000E+00 0. -1.
        -11    1    5    5    0    0  0.33224655619E+03  0.14868235009E+03  0.58918396753E+02  0.36873512554E+03  0.00000000000E+00 0.  1.
          2    1    6    6  503    0  0.55818149881E+03 -0.24970944148E+03 -0.10070364548E+03  0.61972785559E+03  0.00000000000E+00 0. -1.
         -2    1    6    6    0  503  0.97931535573E+01 -0.22767815973E+02 -0.11947722793E+01  0.24813439535E+02  0.00000000000E+00 0.  1.
<mgrwt>
<rscale>  0 0.34676891E+04</rscale>
<asrwt>0</asrwt>
<pdfrwt beam="1">  1        2 0.33667554E+00 0.34676891E+04</pdfrwt>
<pdfrwt beam="2">  1       -1 0.21134017E+00 0.34676891E+04</pdfrwt>
<totfact> 0.61823262E-01</totfact>
</mgrwt>
</event>
<event>
12    6  0.1647231E-007  0.2538399E+04  0.7818608E-02  0.8389432E-01
         -1   -1    0    0    0  501 -0.00000000000E+00  0.00000000000E+00  0.33414652254E+04  0.33414652254E+04  0.00000000000E+00 0.  1.
          2   -1    0    0  501    0  0.00000000000E+00 -0.00000000000E+00 -0.48208420803E+03  0.48208420803E+03  0.00000000000E+00 0. -1.
         24    2    1    2    0    0 -0.30124619627E+03 -0.92568955590E+03  0.20778074892E+04  0.22958757824E+04  0.78174300051E+02 0.  0.
        254    2    1    2    0    0  0.30124619627E+03  0.92568955590E+03  0.78157352818E+03  0.15276736511E+04  0.88049939216E+03 0.  0.
         23    2    4    4    0    0  0.34802034478E+03 -0.77438066413E+01  0.12038832146E+03  0.37907093253E+03  0.89572858734E+02 0.  0.
         23    2    4    4    0    0 -0.46774148509E+02  0.93343336254E+03  0.66118520672E+03  0.11486027186E+04  0.92933654865E+02 0.  0.
          4    1    3    3  502    0 -0.11723683111E+02 -0.11138949910E+02  0.51283628566E+02  0.53772962627E+02  0.00000000000E+00 0. -1.
         -3    1    3    3    0  502 -0.28952251316E+03 -0.91455060599E+03  0.20265238606E+04  0.22421028197E+04  0.00000000000E+00 0.  1.
         11    1    5    5    0    0  0.27537022422E+03  0.30538515612E+01  0.55197100390E+02  0.28086439128E+03  0.00000000000E+00 0.  1.
        -11    1    5    5    0    0  0.72650120559E+02 -0.10797658202E+02  0.65191221066E+02  0.98206541248E+02  0.00000000000E+00 0. -1.
          1    1    6    6  503    0  0.18532997478E+02  0.11030388688E+03  0.10185632074E+03  0.15127831812E+03  0.00000000000E+00 0. -1.
         -1    1    6    6    0  503 -0.65307145987E+02  0.82312947566E+03  0.55932888598E+03  0.99732440044E+03  0.00000000000E+00 0.  1.
<mgrwt>
<rscale>  0 0.25383992E+04</rscale>
<asrwt>0</asrwt>
<pdfrwt beam="1">  1        2 0.74166804E-01 0.25383992E+04</pdfrwt>
<pdfrwt beam="2">  1       -1 0.51407156E+00 0.25383992E+04</pdfrwt>
<totfact> 0.78658905E-02</totfact>
</mgrwt>
</event>
<event>
12    6  0.1647231E-007  0.1909184E+04  0.7818608E-02  0.8650298E-01
          2   -1    0    0  501    0  0.00000000000E+00  0.00000000000E+00  0.10800901908E+04  0.10800901908E+04  0.00000000000E+00 0. -1.
         -1   -1    0    0    0  501 -0.00000000000E+00 -0.00000000000E+00 -0.84367588167E+03  0.84367588167E+03  0.00000000000E+00 0.  1.
         24    2    1    2    0    0  0.14030261843E+03  0.94263339602E+02 -0.62199418471E+03  0.64961501453E+03  0.80947509895E+02 0.  0.
        254    2    1    2    0    0 -0.14030261843E+03 -0.94263339602E+02  0.85840849385E+03  0.12741510579E+04  0.92629659083E+03 0.  0.
         23    2    4    4    0    0  0.22054964483E+03  0.27338502700E+03  0.57193654531E+03  0.67732071440E+03  0.90941846639E+02 0.  0.
         23    2    4    4    0    0 -0.36085226326E+03 -0.36764836660E+03  0.28647194853E+03  0.59683034352E+03  0.93598099825E+02 0.  0.
          2    1    3    3  502    0  0.31716220023E+02  0.20943616397E+01 -0.43684963423E+02  0.54024818302E+02  0.00000000000E+00 0. -1.
         -1    1    3    3    0  502  0.10858639840E+03  0.92168977963E+02 -0.57830922129E+03  0.59559019623E+03  0.00000000000E+00 0.  1.
         11    1    5    5    0    0  0.82052661492E+02  0.12498424884E+03  0.32441406410E+03  0.35720888385E+03  0.00000000000E+00 0.  1.
        -11    1    5    5    0    0  0.13849698334E+03  0.14840077816E+03  0.24752248121E+03  0.32011183055E+03  0.00000000000E+00 0. -1.
          3    1    6    6  503    0 -0.29322467179E+03 -0.33298941180E+03  0.21719537149E+03  0.49400049182E+03  0.00000000000E+00 0. -1.
         -3    1    6    6    0  503 -0.67627591470E+02 -0.34658954801E+02  0.69276577037E+02  0.10282985171E+03  0.00000000000E+00 0.  1.
<mgrwt>
<rscale>  0 0.19091842E+04</rscale>
<asrwt>0</asrwt>
<pdfrwt beam="1">  1        2 0.16616772E+00 0.19091842E+04</pdfrwt>
<pdfrwt beam="2">  1       -1 0.12979629E+00 0.19091842E+04</pdfrwt>
<totfact> 0.12183190E+01</totfact>
</mgrwt>
</event>
<event>
12    6  0.1647231E-007  0.1538599E+04  0.7818608E-02  0.8859183E-01
         -1   -1    0    0    0  501 -0.00000000000E+00  0.00000000000E+00  0.54897657889E+03  0.54897657889E+03  0.00000000000E+00 0.  1.
          2   -1    0    0  501    0  0.00000000000E+00 -0.00000000000E+00 -0.10780460742E+04  0.10780460742E+04  0.00000000000E+00 0. -1.
         24    2    1    2    0    0  0.83663422376E+02  0.45604001178E+03  0.26675115408E+02  0.47108451068E+03  0.78974640435E+02 0.  0.
        254    2    1    2    0    0 -0.83663422376E+02 -0.45604001178E+03 -0.55574461070E+03  0.11559381424E+04  0.90131507040E+03 0.  0.
         23    2    4    4    0    0  0.19765974349E+03  0.17550531208E+03 -0.26106452981E+02  0.28023077017E+03  0.89309847715E+02 0.  0.
         23    2    4    4    0    0 -0.28132316586E+03 -0.63154532385E+03 -0.52963815772E+03  0.87570737223E+03  0.91403522526E+02 0.  0.
          2    1    3    3  502    0 -0.11519081092E+02  0.57475562684E+02 -0.10789200537E+02  0.59603157494E+02  0.00000000000E+00 0. -1.
         -1    1    3    3    0  502  0.95182503468E+02  0.39856444909E+03  0.37464315946E+02  0.41148135318E+03  0.00000000000E+00 0.  1.
         11    1    5    5    0    0  0.14072979298E+03  0.12912832538E+03 -0.58815946809E+02  0.19984572712E+03  0.00000000000E+00 0.  1.
        -11    1    5    5    0    0  0.56929950507E+02  0.46376986694E+02  0.32709493828E+02  0.80385043049E+02  0.00000000000E+00 0. -1.
          4    1    6    6  503    0 -0.57466165641E+02 -0.16717757244E+03 -0.18332748137E+03  0.25467561003E+03  0.00000000000E+00 0. -1.
         -4    1    6    6    0  503 -0.22385700022E+03 -0.46436775141E+03 -0.34631067635E+03  0.62103176219E+03  0.00000000000E+00 0.  1.
<mgrwt>
<rscale>  0 0.15385994E+04</rscale>
<asrwt>0</asrwt>
<pdfrwt beam="1">  1        2 0.16585324E+00 0.15385994E+04</pdfrwt>
<pdfrwt beam="2">  1       -1 0.84457936E-01 0.15385994E+04</pdfrwt>
<totfact> 0.34300868E+01</totfact>
</mgrwt>
</event>
<event>
12    6  0.1647231E-007  0.2135652E+04  0.7818608E-02  0.8545699E-01
          2   -1    0    0  501    0  0.00000000000E+00  0.00000000000E+00  0.11256832236E+04  0.11256832236E+04  0.00000000000E+00 0. -1.
         -1   -1    0    0    0  501 -0.00000000000E+00 -0.00000000000E+00 -0.10129427913E+04  0.10129427913E+04  0.00000000000E+00 0.  1.
         24    2    1    2    0    0 -0.77720394647E+03  0.34148103956E+03  0.25356620517E+03  0.88964647067E+03  0.80744953888E+02 0.  0.
        254    2    1    2    0    0  0.77720394647E+03 -0.34148103956E+03 -0.14082577287E+03  0.12489795443E+04  0.90524180693E+03 0.  0.
         23    2    4    4    0    0  0.55388680016E+03  0.22010054584E+03 -0.19954228786E+03  0.63489110211E+03  0.89636762697E+02 0.  0.
         23    2    4    4    0    0  0.22331714631E+03 -0.56158158540E+03  0.58716514988E+02  0.61408844220E+03  0.91720013144E+02 0.  0.
          4    1    3    3  502    0 -0.70815264977E+03  0.32973108245E+03  0.24709747844E+03  0.81930453798E+03  0.00000000000E+00 0. -1.
         -3    1    3    3    0  502 -0.69051296699E+02  0.11749957114E+02  0.64687267252E+01  0.70341932682E+02  0.00000000000E+00 0.  1.
         11    1    5    5    0    0  0.36771398479E+03  0.10168773675E+03 -0.13960103450E+03  0.40625413136E+03  0.00000000000E+00 0. -1.
        -11    1    5    5    0    0  0.18617281536E+03  0.11841280909E+03 -0.59941253364E+02  0.22863697075E+03  0.00000000000E+00 0.  1.
          3    1    6    6  503    0 -0.51518312733E+01 -0.18385088347E+01  0.45083959935E+01  0.70885199187E+01  0.00000000000E+00 0. -1.
         -3    1    6    6    0  503  0.22846897759E+03 -0.55974307657E+03  0.54208118994E+02  0.60699992228E+03  0.00000000000E+00 0.  1.
<mgrwt>
<rscale>  0 0.21356523E+04</rscale>
<asrwt>0</asrwt>
<pdfrwt beam="1">  1        2 0.17318203E+00 0.21356523E+04</pdfrwt>
<pdfrwt beam="2">  1       -1 0.15583735E+00 0.21356523E+04</pdfrwt>
<totfact> 0.69210782E+00</totfact>
</mgrwt>
</event>
<event>
12    6  0.1647231E-007  0.9889075E+03  0.7818608E-02  0.9320795E-01
          2   -1    0    0  501    0  0.00000000000E+00  0.00000000000E+00  0.16572043208E+04  0.16572043208E+04  0.00000000000E+00 0. -1.
         -1   -1    0    0    0  501 -0.00000000000E+00 -0.00000000000E+00 -0.14752828316E+03  0.14752828316E+03  0.00000000000E+00 0.  1.
         24    2    1    2    0    0 -0.22556355695E+02  0.60588563946E+02  0.12642455952E+02  0.10102212031E+03  0.76588992913E+02 0.  0.
        254    2    1    2    0    0  0.22556355695E+02 -0.60588563946E+02  0.14970335817E+04  0.17037104837E+04  0.81076513500E+03 0.  0.
         23    2    4    4    0    0  0.14314851828E+03  0.32210074105E+03  0.96412918856E+03  0.10305197996E+04  0.90474192539E+02 0.  0.
         23    2    4    4    0    0 -0.12059216259E+03 -0.38268930500E+03  0.53290439315E+03  0.67319068404E+03  0.90581626195E+02 0.  0.
          2    1    3    3  502    0 -0.33134665965E+02 -0.49861291695E+01  0.79263315209E+01  0.34432460035E+02  0.00000000000E+00 0. -1.
         -3    1    3    3    0  502  0.10578310270E+02  0.65574693115E+02  0.47161244310E+01  0.66589660271E+02  0.00000000000E+00 0.  1.
         11    1    5    5    0    0  0.97821236781E+02  0.26856991207E+03  0.84772483976E+03  0.89461511053E+03  0.00000000000E+00 0.  1.
        -11    1    5    5    0    0  0.45327281504E+02  0.53530828979E+02  0.11640434879E+03  0.13590468910E+03  0.00000000000E+00 0. -1.
          2    1    6    6  503    0 -0.36231902077E+02 -0.76358194339E+02  0.17666801385E+03  0.19584410047E+03  0.00000000000E+00 0. -1.
         -2    1    6    6    0  503 -0.84360260513E+02 -0.30633111066E+03  0.35623637929E+03  0.47734658357E+03  0.00000000000E+00 0.  1.
<mgrwt>
<rscale>  0 0.98890749E+03</rscale>
<asrwt>0</asrwt>
<pdfrwt beam="1">  1        2 0.25495450E+00 0.98890749E+03</pdfrwt>
<pdfrwt beam="2">  1       -1 0.22696660E-01 0.98890749E+03</pdfrwt>
<totfact> 0.19486018E+02</totfact>
</mgrwt>
</event>
<event>
12    6  0.1647231E-007  0.1154529E+04  0.7818608E-02  0.9153616E-01
         -1   -1    0    0    0  501 -0.00000000000E+00  0.00000000000E+00  0.22350725142E+03  0.22350725142E+03  0.00000000000E+00 0.  1.
          2   -1    0    0  501    0  0.00000000000E+00 -0.00000000000E+00 -0.14909326065E+04  0.14909326065E+04  0.00000000000E+00 0. -1.
         24    2    1    2    0    0 -0.35756433435E+02  0.20821671080E+03 -0.32906462263E+03  0.39911616462E+03  0.79859037085E+02 0.  0.
        254    2    1    2    0    0  0.35756433435E+02 -0.20821671080E+03 -0.93836073248E+03  0.13153236933E+04  0.89717491762E+03 0.  0.
         23    2    4    4    0    0  0.34332183128E+03 -0.23425897819E+03 -0.89464318992E+03  0.99074030367E+03  0.91830078778E+02 0.  0.
         23    2    4    4    0    0 -0.30756539784E+03  0.26042267392E+02 -0.43717542567E+02  0.32458338966E+03  0.90379641932E+02 0.  0.
          2    1    3    3  502    0 -0.54576588700E+02  0.14074940931E+03 -0.26062040123E+03  0.30118431864E+03  0.00000000000E+00 0. -1.
         -1    1    3    3    0  502  0.18820155266E+02  0.67467301483E+02 -0.68444221403E+02  0.97931845980E+02  0.00000000000E+00 0.  1.
         11    1    5    5    0    0  0.17453130771E+03 -0.64241193457E+02 -0.38044728791E+03  0.42347166043E+03  0.00000000000E+00 0.  1.
        -11    1    5    5    0    0  0.16879052357E+03 -0.17001778473E+03 -0.51419590201E+03  0.56726864325E+03  0.00000000000E+00 0. -1.
          2    1    6    6  503    0 -0.30674690783E+03  0.12430037975E+02 -0.46951872937E+02  0.31056826895E+03  0.00000000000E+00 0.  1.
         -2    1    6    6    0  503 -0.81849001322E+00  0.13612229417E+02  0.32343303698E+01  0.14015120711E+02  0.00000000000E+00 0. -1.
<mgrwt>
<rscale>  0 0.11545289E+04</rscale>
<asrwt>0</asrwt>
<pdfrwt beam="1">  1        2 0.22937425E+00 0.11545289E+04</pdfrwt>
<pdfrwt beam="2">  1       -1 0.34385731E-01 0.11545289E+04</pdfrwt>
<totfact> 0.11594045E+02</totfact>
</mgrwt>
</event>
<event>
12    6  0.1647231E-007  0.1103247E+04  0.7818608E-02  0.9202033E-01
         -1   -1    0    0    0  501 -0.00000000000E+00  0.00000000000E+00  0.29681381849E+03  0.29681381849E+03  0.00000000000E+00 0.  1.
          2   -1    0    0  501    0  0.00000000000E+00 -0.00000000000E+00 -0.10251823231E+04  0.10251823231E+04  0.00000000000E+00 0. -1.
         24    2    1    2    0    0  0.16644684118E+03 -0.53778368102E+01 -0.76482626749E+02  0.19975253721E+03  0.79485922387E+02 0.  0.
        254    2    1    2    0    0 -0.16644684118E+03  0.53778368102E+01 -0.65188587785E+03  0.11222436044E+04  0.89818819728E+03 0.  0.
         23    2    4    4    0    0 -0.35780971038E+03 -0.70537342851E+02  0.55371169362E+02  0.37993542434E+03  0.91003597138E+02 0.  0.
         23    2    4    4    0    0  0.19136286920E+03  0.75915179661E+02 -0.70725704721E+03  0.74230818003E+03  0.91793469810E+02 0.  0.
          2    1    3    3  502    0 -0.49664150578E+00  0.15741534661E+02 -0.25551377396E+01  0.15955290506E+02  0.00000000000E+00 0. -1.
         -1    1    3    3    0  502  0.16694348269E+03 -0.21119371471E+02 -0.73927489009E+02  0.18379724670E+03  0.00000000000E+00 0.  1.
         11    1    5    5    0    0 -0.64607073561E+02 -0.15615771446E+02  0.47199682841E+02  0.81521385736E+02  0.00000000000E+00 0.  1.
        -11    1    5    5    0    0 -0.29320263682E+03 -0.54921571405E+02  0.81714865210E+01  0.29841403860E+03  0.00000000000E+00 0. -1.
          3    1    6    6  503    0  0.20174958436E+03  0.72575504402E+02 -0.67729835292E+03  0.71042463182E+03  0.00000000000E+00 0. -1.
         -3    1    6    6    0  503 -0.10386715166E+02  0.33396752595E+01 -0.29958694291E+02  0.31883548209E+02  0.00000000000E+00 0.  1.
<mgrwt>
<rscale>  0 0.11032466E+04</rscale>
<asrwt>0</asrwt>
<pdfrwt beam="1">  1        2 0.15772036E+00 0.11032466E+04</pdfrwt>
<pdfrwt beam="2">  1       -1 0.45663664E-01 0.11032466E+04</pdfrwt>
<totfact> 0.13085035E+02</totfact>
</mgrwt>
</event>
<event>
12    6  0.1647231E-007  0.1397630E+04  0.7818608E-02  0.8955536E-01
          2   -1    0    0  501    0  0.00000000000E+00  0.00000000000E+00  0.93220882049E+03  0.93220882049E+03  0.00000000000E+00 0. -1.
         -1   -1    0    0    0  501 -0.00000000000E+00 -0.00000000000E+00 -0.52385535405E+03  0.52385535405E+03  0.00000000000E+00 0.  1.
         24    2    1    2    0    0 -0.33611315849E+03 -0.46917892972E+02  0.33943963351E+03  0.48822280272E+03  0.89268674812E+02 0.  0.
        254    2    1    2    0    0  0.33611315849E+03  0.46917892972E+02  0.68913832932E+02  0.96784137182E+03  0.90376681763E+03 0.  0.
         23    2    4    4    0    0 -0.77548716311E+02  0.20595420055E+02  0.40680258599E+03  0.42515509212E+03  0.93970919224E+02 0.  0.
         23    2    4    4    0    0  0.41366187480E+03  0.26322472917E+02 -0.33788875306E+03  0.54268627970E+03  0.92361082082E+02 0.  0.
          2    1    3    3  502    0 -0.34114826919E+03 -0.47268924173E+02  0.32750242303E+03  0.47526238001E+03  0.00000000000E+00 0. -1.
         -1    1    3    3    0  502  0.50351106975E+01  0.35103120037E+00  0.11937210484E+02  0.12960422708E+02  0.00000000000E+00 0.  1.
         11    1    5    5    0    0 -0.42615453239E+02 -0.36278079103E+02  0.16091542126E+03  0.17037003456E+03  0.00000000000E+00 0.  1.
        -11    1    5    5    0    0 -0.34933263072E+02  0.56873499158E+02  0.24588716474E+03  0.25478505756E+03  0.00000000000E+00 0. -1.
          4    1    6    6  503    0  0.32558446396E+03  0.78200403854E+00 -0.21835343640E+03  0.39202560871E+03  0.00000000000E+00 0. -1.
         -4    1    6    6    0  503  0.88077410841E+02  0.25540468879E+02 -0.11953531666E+03  0.15066067098E+03  0.00000000000E+00 0.  1.
<mgrwt>
<rscale>  0 0.13976303E+04</rscale>
<asrwt>0</asrwt>
<pdfrwt beam="1">  1        2 0.14341674E+00 0.13976303E+04</pdfrwt>
<pdfrwt beam="2">  1       -1 0.80593131E-01 0.13976303E+04</pdfrwt>
<totfact> 0.47599022E+01</totfact>
</mgrwt>
</event>
<event>
12    6  0.1647231E-007  0.2088475E+04  0.7818608E-02  0.8566337E-01
         -1   -1    0    0    0  501 -0.00000000000E+00  0.00000000000E+00  0.79767196342E+03  0.79767196342E+03  0.00000000000E+00 0.  1.
          2   -1    0    0  501    0  0.00000000000E+00 -0.00000000000E+00 -0.13670175677E+04  0.13670175677E+04  0.00000000000E+00 0. -1.
         24    2    1    2    0    0  0.35637506767E+03 -0.35801092197E+02 -0.10180739259E+04  0.10823456596E+04  0.81931075513E+02 0.  0.
        254    2    1    2    0    0 -0.35637506767E+03  0.35801092197E+02  0.44872832166E+03  0.10823438715E+04  0.91751089503E+03 0.  0.
         23    2    4    4    0    0 -0.77650430317E+02 -0.22423304202E+03 -0.19982633204E+03  0.32460991996E+03  0.95556217489E+02 0.  0.
         23    2    4    4    0    0 -0.27872463735E+03  0.26003413421E+03  0.64855465370E+03  0.75773395155E+03  0.90732728795E+02 0.  0.
          2    1    3    3  502    0  0.66908225152E+02  0.25217758631E+02 -0.20776702586E+03  0.21972660963E+03  0.00000000000E+00 0. -1.
         -1    1    3    3    0  502  0.28946684251E+03 -0.61018850828E+02 -0.81030690006E+03  0.86261904996E+03  0.00000000000E+00 0.  1.
         11    1    5    5    0    0  0.12891360510E+02 -0.93095556895E+02 -0.52861283535E+02  0.10782989004E+03  0.00000000000E+00 0. -1.
        -11    1    5    5    0    0 -0.90541790827E+02 -0.13113748512E+03 -0.14696504851E+03  0.21678002992E+03  0.00000000000E+00 0.  1.
          1    1    6    6  503    0 -0.27353862376E+03  0.22563748109E+03  0.61177748973E+03  0.70711197734E+03  0.00000000000E+00 0. -1.
         -1    1    6    6    0  503 -0.51860135886E+01  0.34396653123E+02  0.36777163974E+02  0.50621974211E+02  0.00000000000E+00 0.  1.
<mgrwt>
<rscale>  0 0.20884746E+04</rscale>
<asrwt>0</asrwt>
<pdfrwt beam="1">  1        2 0.21031039E+00 0.20884746E+04</pdfrwt>
<pdfrwt beam="2">  1       -1 0.12271876E+00 0.20884746E+04</pdfrwt>
<totfact> 0.93096003E+00</totfact>
</mgrwt>
</event>
<event>
12    6  0.1647231E-007  0.1303342E+04  0.7818608E-02  0.9026919E-01
          2   -1    0    0  501    0  0.00000000000E+00  0.00000000000E+00  0.94106530202E+03  0.94106530202E+03  0.00000000000E+00 0. -1.
         -1   -1    0    0    0  501 -0.00000000000E+00 -0.00000000000E+00 -0.45127083064E+03  0.45127083064E+03  0.00000000000E+00 0.  1.
         24    2    1    2    0    0 -0.89499052467E+02  0.28689830034E+03 -0.26679457425E+02  0.31224938811E+03  0.80418727875E+02 0.  0.
        254    2    1    2    0    0  0.89499052467E+02 -0.28689830034E+03  0.51647392880E+03  0.10800867446E+04  0.89973403931E+03 0.  0.
         23    2    4    4    0    0 -0.12443371165E+03 -0.44129089518E+03 -0.28383400235E+02  0.46805116905E+03  0.89693236543E+02 0.  0.
         23    2    4    4    0    0  0.21393276412E+03  0.15439259483E+03  0.54485732904E+03  0.61203557550E+03  0.90076277488E+02 0.  0.
          2    1    3    3  502    0  0.46868465707E+01  0.30888605266E+02  0.17653581908E+02  0.35884835519E+02  0.00000000000E+00 0. -1.
         -1    1    3    3    0  502 -0.94185899038E+02  0.25600969508E+03 -0.44333039333E+02  0.27636455259E+03  0.00000000000E+00 0.  1.
         11    1    5    5    0    0 -0.12229016343E+03 -0.34959156141E+03  0.51217464383E+01  0.37039894191E+03  0.00000000000E+00 0. -1.
        -11    1    5    5    0    0 -0.21435482165E+01 -0.91699333767E+02 -0.33505146674E+02  0.97652227142E+02  0.00000000000E+00 0.  1.
          4    1    6    6  503    0  0.80777214140E+02  0.41619403158E+02  0.28411380124E+03  0.29829144322E+03  0.00000000000E+00 0. -1.
         -4    1    6    6    0  503  0.13315554998E+03  0.11277319167E+03  0.26074352780E+03  0.31374413228E+03  0.00000000000E+00 0.  1.
<mgrwt>
<rscale>  0 0.13033424E+04</rscale>
<asrwt>0</asrwt>
<pdfrwt beam="1">  1        2 0.14477928E+00 0.13033424E+04</pdfrwt>
<pdfrwt beam="2">  1       -1 0.69426282E-01 0.13033424E+04</pdfrwt>
<totfact> 0.64590608E+01</totfact>
</mgrwt>
</event>
<event>
12    6  0.1647231E-007  0.2584080E+04  0.7818608E-02  0.8373629E-01
         -1   -1    0    0    0  501 -0.00000000000E+00  0.00000000000E+00  0.21353377161E+04  0.21353377161E+04  0.00000000000E+00 0.  1.
          2   -1    0    0  501    0  0.00000000000E+00 -0.00000000000E+00 -0.78178116916E+03  0.78178116916E+03  0.00000000000E+00 0. -1.
         24    2    1    2    0    0 -0.49785587433E+03  0.83031753319E+03  0.11973332811E+04  0.15416802268E+04  0.76702400274E+02 0.  0.
        254    2    1    2    0    0  0.49785587433E+03 -0.83031753319E+03  0.15622326585E+03  0.13754386585E+04  0.96443668368E+03 0.  0.
         23    2    4    4    0    0 -0.14711723664E+03 -0.62748259869E+03 -0.73445827763E+02  0.65534646900E+03  0.93310298656E+02 0.  0.
         23    2    4    4    0    0  0.64497311097E+03 -0.20283493450E+03  0.22966909361E+03  0.72009218946E+03  0.93019053028E+02 0.  0.
          2    1    3    3  502    0 -0.19684713821E+03  0.36145760978E+03  0.56290792228E+03  0.69732756180E+03  0.00000000000E+00 0. -1.
         -1    1    3    3    0  502 -0.30100873612E+03  0.46885992341E+03  0.63442535882E+03  0.84435266502E+03  0.00000000000E+00 0.  1.
         11    1    5    5    0    0 -0.49644260011E+02 -0.20781835067E+03  0.19651304423E+02  0.21456745604E+03  0.00000000000E+00 0. -1.
        -11    1    5    5    0    0 -0.97472976624E+02 -0.41966424802E+03 -0.93097132186E+02  0.44077901295E+03  0.00000000000E+00 0.  1.
          4    1    6    6  503    0  0.28035353539E+03 -0.86279317713E+02  0.51309444411E+02  0.29778328455E+03  0.00000000000E+00 0. -1.
         -4    1    6    6    0  503  0.36461957558E+03 -0.11655561679E+03  0.17835964920E+03  0.42230890491E+03  0.00000000000E+00 0.  1.
<mgrwt>
<rscale>  0 0.25840796E+04</rscale>
<asrwt>0</asrwt>
<pdfrwt beam="1">  1        2 0.12027403E+00 0.25840796E+04</pdfrwt>
<pdfrwt beam="2">  1       -1 0.32851349E+00 0.25840796E+04</pdfrwt>
<totfact> 0.77247469E-01</totfact>
</mgrwt>
</event>
<event>
12    6  0.1647231E-007  0.2042083E+04  0.7818608E-02  0.8587195E-01
         -3   -1    0    0    0  501 -0.00000000000E+00  0.00000000000E+00  0.12963458037E+04  0.12963458037E+04  0.00000000000E+00 0.  1.
          4   -1    0    0  501    0  0.00000000000E+00 -0.00000000000E+00 -0.80420305519E+03  0.80420305519E+03  0.00000000000E+00 0. -1.
         24    2    1    2    0    0  0.52751498676E+03  0.41471089008E+03 -0.29126233296E+03  0.73586688158E+03  0.80057087062E+02 0.  0.
        254    2    1    2    0    0 -0.52751498676E+03 -0.41471089008E+03  0.78340508152E+03  0.13646819774E+04  0.89351899473E+03 0.  0.
         23    2    4    4    0    0 -0.29719271377E+03 -0.61515845462E+03  0.78622998078E+03  0.10456275888E+04  0.91847909397E+02 0.  0.
         23    2    4    4    0    0 -0.23032227299E+03  0.20044756454E+03 -0.28248992577E+01  0.31905438851E+03  0.92521063574E+02 0.  0.
          4    1    3    3  502    0  0.40478562206E+03  0.35864092728E+03 -0.23029001666E+03  0.58779946097E+03  0.00000000000E+00 0. -1.
         -3    1    3    3    0  502  0.12272936470E+03  0.56069962796E+02 -0.60972316308E+02  0.14806742061E+03  0.00000000000E+00 0.  1.
         11    1    5    5    0    0 -0.38857695932E+02 -0.17147098662E+03  0.19291725342E+03  0.26101587394E+03  0.00000000000E+00 0. -1.
        -11    1    5    5    0    0 -0.25833501784E+03 -0.44368746800E+03  0.59331272736E+03  0.78461171490E+03  0.00000000000E+00 0.  1.
          1    1    6    6  503    0 -0.76902099428E+02  0.72644867096E+02  0.42986522691E+02  0.11418866294E+03  0.00000000000E+00 0. -1.
         -1    1    6    6    0  503 -0.15342017357E+03  0.12780269745E+03 -0.45811421949E+02  0.20486572557E+03  0.00000000000E+00 0.  1.
<mgrwt>
<rscale>  0 0.20420825E+04</rscale>
<asrwt>0</asrwt>
<pdfrwt beam="1">  1        4 0.12372355E+00 0.20420825E+04</pdfrwt>
<pdfrwt beam="2">  1       -3 0.19943782E+00 0.20420825E+04</pdfrwt>
<totfact> 0.15326087E-01</totfact>
</mgrwt>
</event>
<event>
12    6  0.1647231E-007  0.1430793E+04  0.7818608E-02  0.8931825E-01
          2   -1    0    0  501    0  0.00000000000E+00  0.00000000000E+00  0.35379327291E+04  0.35379327291E+04  0.00000000000E+00 0. -1.
         -1   -1    0    0    0  501 -0.00000000000E+00 -0.00000000000E+00 -0.14465861477E+03  0.14465861477E+03  0.00000000000E+00 0.  1.
         24    2    1    2    0    0  0.26947639440E+03 -0.12519366843E+03  0.25575515100E+03  0.40651496244E+03  0.10748365301E+03 0.  0.
        254    2    1    2    0    0 -0.26947639440E+03  0.12519366843E+03  0.31375189633E+04  0.32760763814E+04  0.89462854303E+03 0.  0.
         23    2    4    4    0    0  0.24489390745E+03 -0.25800961661E+01  0.20092065791E+04  0.20261300432E+04  0.91171221987E+02 0.  0.
         23    2    4    4    0    0 -0.51437030185E+03  0.12777376460E+03  0.11283123843E+04  0.12499463382E+04  0.91509943139E+02 0.  0.
          4    1    3    3  502    0  0.52186610739E+02 -0.73431068145E+02  0.51121601828E+02  0.10358080074E+03  0.00000000000E+00 0. -1.
         -3    1    3    3    0  502  0.21728978366E+03 -0.51762600288E+02  0.20463354918E+03  0.30293416169E+03  0.00000000000E+00 0.  1.
         11    1    5    5    0    0  0.40223389323E+02  0.34662600784E+02  0.44117491501E+03  0.44435877687E+03  0.00000000000E+00 0. -1.
        -11    1    5    5    0    0  0.20467051812E+03 -0.37242696950E+02  0.15680316640E+04  0.15817712663E+04  0.00000000000E+00 0.  1.
          3    1    6    6  503    0 -0.13395732387E+03 -0.55273592087E+01  0.25509989584E+03  0.28818583098E+03  0.00000000000E+00 0. -1.
         -3    1    6    6    0  503 -0.38041297797E+03  0.13330112381E+03  0.87321248841E+03  0.96176050727E+03  0.00000000000E+00 0.  1.
<mgrwt>
<rscale>  0 0.14307934E+04</rscale>
<asrwt>0</asrwt>
<pdfrwt beam="1">  1        2 0.54429728E+00 0.14307934E+04</pdfrwt>
<pdfrwt beam="2">  1       -1 0.22255174E-01 0.14307934E+04</pdfrwt>
<totfact> 0.14689497E+01</totfact>
</mgrwt>
</event>
<event>
12    6  0.1647231E-007  0.1953280E+04  0.7818608E-02  0.8628781E-01
         -1   -1    0    0    0  501 -0.00000000000E+00  0.00000000000E+00  0.11426275541E+04  0.11426275541E+04  0.00000000000E+00 0.  1.
          2   -1    0    0  501    0  0.00000000000E+00 -0.00000000000E+00 -0.83476541619E+03  0.83476541619E+03  0.00000000000E+00 0. -1.
         24    2    1    2    0    0 -0.76380534522E+03 -0.52016994514E+02  0.69034436570E+02  0.77287257162E+03  0.80385853407E+02 0.  0.
        254    2    1    2    0    0  0.76380534522E+03  0.52016994514E+02  0.23882770135E+03  0.12045203987E+04  0.89873597170E+03 0.  0.
         23    2    4    4    0    0  0.32924867510E+03 -0.26925316106E+02  0.55597433409E+03  0.65322171602E+03  0.91986343622E+02 0.  0.
         23    2    4    4    0    0  0.43455667012E+03  0.78942310620E+02 -0.31714663273E+03  0.55129868267E+03  0.90977265898E+02 0.  0.
          2    1    3    3  502    0 -0.16879856565E+02  0.94084740555E+01  0.80959941954E+01  0.20952185178E+02  0.00000000000E+00 0. -1.
         -1    1    3    3    0  502 -0.74692548865E+03 -0.61425468570E+02  0.60938442374E+02  0.75192038644E+03  0.00000000000E+00 0.  1.
         11    1    5    5    0    0  0.29100052509E+03 -0.45277928696E+02  0.51997417315E+03  0.59758224303E+03  0.00000000000E+00 0.  1.
        -11    1    5    5    0    0  0.38248150009E+02  0.18352612590E+02  0.36000160933E+02  0.55639472995E+02  0.00000000000E+00 0. -1.
          2    1    6    6  503    0  0.86231529533E+02  0.46933004567E+02 -0.44454538743E+02  0.10777193335E+03  0.00000000000E+00 0. -1.
         -2    1    6    6    0  503  0.34832514058E+03  0.32009306053E+02 -0.27269209399E+03  0.44352674932E+03  0.00000000000E+00 0.  1.
<mgrwt>
<rscale>  0 0.19532803E+04</rscale>
<asrwt>0</asrwt>
<pdfrwt beam="1">  1        2 0.12842545E+00 0.19532803E+04</pdfrwt>
<pdfrwt beam="2">  1       -1 0.17578885E+00 0.19532803E+04</pdfrwt>
<totfact> 0.77277797E+00</totfact>
</mgrwt>
</event>
<event>
12    6  0.1647231E-007  0.1420024E+04  0.7818608E-02  0.8939450E-01
         -1   -1    0    0    0  501 -0.00000000000E+00  0.00000000000E+00  0.22797844634E+03  0.22797844634E+03  0.00000000000E+00 0.  1.
          2   -1    0    0  501    0  0.00000000000E+00 -0.00000000000E+00 -0.22112480958E+04  0.22112480958E+04  0.00000000000E+00 0. -1.
         24    2    1    2    0    0 -0.38003248036E+03  0.17840938252E+03 -0.65587376405E+03  0.78281964751E+03  0.79884994014E+02 0.  0.
        254    2    1    2    0    0  0.38003248036E+03 -0.17840938252E+03 -0.13273958854E+04  0.16564068946E+04  0.89746831142E+03 0.  0.
         23    2    4    4    0    0 -0.27235623152E+03  0.42986399834E+02 -0.31618042115E+03  0.42875907804E+03  0.88535534494E+02 0.  0.
         23    2    4    4    0    0  0.65238871187E+03 -0.22139578236E+03 -0.10112154642E+04  0.12276478165E+04  0.99676088090E+02 0.  0.
          4    1    3    3  502    0 -0.30631002141E+02 -0.12389850599E+01 -0.80189387911E+02  0.85849468895E+02  0.00000000000E+00 0. -1.
         -3    1    3    3    0  502 -0.34940147821E+03  0.17964836758E+03 -0.57568437614E+03  0.69697017862E+03  0.00000000000E+00 0.  1.
         11    1    5    5    0    0 -0.26076512635E+02  0.32764406905E+02 -0.32912723741E+02  0.53261038810E+02  0.00000000000E+00 0. -1.
        -11    1    5    5    0    0 -0.24627971888E+03  0.10221992929E+02 -0.28326769741E+03  0.37549803923E+03  0.00000000000E+00 0.  1.
          3    1    6    6  503    0  0.83747652969E+02 -0.58460049316E+02 -0.11482027657E+03  0.15367154146E+03  0.00000000000E+00 0. -1.
         -3    1    6    6    0  503  0.56864105890E+03 -0.16293573304E+03 -0.89639518765E+03  0.10739762751E+04  0.00000000000E+00 0.  1.
<mgrwt>
<rscale>  0 0.14200238E+04</rscale>
<asrwt>0</asrwt>
<pdfrwt beam="1">  1        2 0.34019202E+00 0.14200238E+04</pdfrwt>
<pdfrwt beam="2">  1       -1 0.35073607E-01 0.14200238E+04</pdfrwt>
<totfact> 0.43616291E+01</totfact>
</mgrwt>
</event>
<event>
12    6  0.1647231E-007  0.2191036E+04  0.7818608E-02  0.8522168E-01
          2   -1    0    0  501    0  0.00000000000E+00  0.00000000000E+00  0.34575659819E+04  0.34575659819E+04  0.00000000000E+00 0. -1.
         -1   -1    0    0    0  501 -0.00000000000E+00 -0.00000000000E+00 -0.34711108683E+03  0.34711108683E+03  0.00000000000E+00 0.  1.
         24    2    1    2    0    0 -0.51075010591E+03  0.72323112456E+03  0.16408311702E+04  0.18660360853E+04  0.76385943478E+02 0.  0.
        254    2    1    2    0    0  0.51075010591E+03 -0.72323112456E+03  0.14696237249E+04  0.19386409834E+04  0.90255528345E+03 0.  0.
         23    2    4    4    0    0  0.37209884351E+02 -0.72424045749E+03  0.60552508407E+03  0.94886997061E+03  0.88231388589E+02 0.  0.
         23    2    4    4    0    0  0.47354022156E+03  0.10093329293E+01  0.86409864078E+03  0.98977101280E+03  0.93481744657E+02 0.  0.
          2    1    3    3  502    0 -0.46483631509E+03  0.65390411122E+03  0.14350554303E+04  0.16440947279E+04  0.00000000000E+00 0. -1.
         -1    1    3    3    0  502 -0.45913790814E+02  0.69327013339E+02  0.20577573996E+03  0.22194135740E+03  0.00000000000E+00 0.  1.
         11    1    5    5    0    0  0.35945689041E+02 -0.72513057669E+03  0.60728975192E+03  0.94652379188E+03  0.00000000000E+00 0.  1.
        -11    1    5    5    0    0  0.12641953098E+01  0.89011920209E+00 -0.17646678546E+01  0.23461787255E+01  0.00000000000E+00 0. -1.
          4    1    6    6  503    0  0.70226553189E+02 -0.31277266596E+02  0.11382949300E+03  0.13735788895E+03  0.00000000000E+00 0. -1.
         -4    1    6    6    0  503  0.40331366837E+03  0.32286599526E+02  0.75026914778E+03  0.85241312385E+03  0.00000000000E+00 0.  1.
<mgrwt>
<rscale>  0 0.21910358E+04</rscale>
<asrwt>0</asrwt>
<pdfrwt beam="1">  1        2 0.53193320E+00 0.21910358E+04</pdfrwt>
<pdfrwt beam="2">  1       -1 0.53401708E-01 0.21910358E+04</pdfrwt>
<totfact> 0.32150691E+00</totfact>
</mgrwt>
</event>
<event>
12    6  0.1647231E-007  0.1567307E+04  0.7818608E-02  0.8840888E-01
          2   -1    0    0  501    0  0.00000000000E+00  0.00000000000E+00  0.17507274573E+04  0.17507274573E+04  0.00000000000E+00 0. -1.
         -1   -1    0    0    0  501 -0.00000000000E+00 -0.00000000000E+00 -0.35077557859E+03  0.35077557859E+03  0.00000000000E+00 0.  1.
         24    2    1    2    0    0  0.81502385560E+01 -0.48022623205E+03  0.74163144556E+03  0.88713647610E+03  0.79437181718E+02 0.  0.
        254    2    1    2    0    0 -0.81502385560E+01  0.48022623205E+03  0.65832043312E+03  0.12143665598E+04  0.90034253952E+03 0.  0.
         23    2    4    4    0    0  0.31542281319E+03  0.18583369809E+03 -0.46081730198E+02  0.38012990535E+03  0.91375623989E+02 0.  0.
         23    2    4    4    0    0 -0.32357305174E+03  0.29439253395E+03  0.70440216332E+03  0.83423665441E+03  0.91661900544E+02 0.  0.
          2    1    3    3  502    0 -0.19937967162E+02 -0.31979487914E+02  0.58834525095E+02  0.69869245917E+02  0.00000000000E+00 0. -1.
         -1    1    3    3    0  502  0.28088205718E+02 -0.44824674413E+03  0.68279692047E+03  0.81726723018E+03  0.00000000000E+00 0.  1.
         11    1    5    5    0    0  0.68712554796E+02  0.84688391264E+02 -0.29494628623E+02  0.11297553682E+03  0.00000000000E+00 0. -1.
        -11    1    5    5    0    0  0.24671025839E+03  0.10114530683E+03 -0.16587101575E+02  0.26715436854E+03  0.00000000000E+00 0.  1.
          1    1    6    6  503    0 -0.13503502112E+03  0.96418546102E+02  0.34352538235E+03  0.38149794400E+03  0.00000000000E+00 0. -1.
         -1    1    6    6    0  503 -0.18853803062E+03  0.19797398785E+03  0.36087678097E+03  0.45273871041E+03  0.00000000000E+00 0.  1.
<mgrwt>
<rscale>  0 0.15673065E+04</rscale>
<asrwt>0</asrwt>
<pdfrwt beam="1">  1        2 0.26934268E+00 0.15673065E+04</pdfrwt>
<pdfrwt beam="2">  1       -1 0.53965475E-01 0.15673065E+04</pdfrwt>
<totfact> 0.34886123E+01</totfact>
</mgrwt>
</event>
<event>
12    6  0.1647231E-007  0.1180372E+04  0.7818608E-02  0.9130212E-01
         -1   -1    0    0    0  501 -0.00000000000E+00  0.00000000000E+00  0.58880572615E+03  0.58880572615E+03  0.00000000000E+00 0.  1.
          2   -1    0    0  501    0  0.00000000000E+00 -0.00000000000E+00 -0.59156951437E+03  0.59156951437E+03  0.00000000000E+00 0. -1.
         24    2    1    2    0    0  0.21731837328E+03  0.37670855844E+02  0.90102638756E+02  0.25140518342E+03  0.80247816122E+02 0.  0.
        254    2    1    2    0    0 -0.21731837328E+03 -0.37670855844E+02 -0.92866426972E+02  0.92897005710E+03  0.89761619025E+03 0.  0.
         23    2    4    4    0    0 -0.46359264697E+03  0.10912354099E+03  0.18524339644E+03  0.51892564193E+03  0.90236447212E+02 0.  0.
         23    2    4    4    0    0  0.24627427369E+03 -0.14679439683E+03 -0.27810982341E+03  0.41004441517E+03  0.92691616179E+02 0.  0.
          4    1    3    3  502    0  0.14374217997E+02 -0.13252671620E+02 -0.69590566560E+01  0.20752829148E+02  0.00000000000E+00 0. -1.
         -3    1    3    3    0  502  0.20294415528E+03  0.50923527465E+02  0.97061695412E+02  0.23065235427E+03  0.00000000000E+00 0.  1.
         11    1    5    5    0    0 -0.90868886709E+01  0.17134992864E+02  0.16474827138E+02  0.25447975468E+02  0.00000000000E+00 0. -1.
        -11    1    5    5    0    0 -0.45450575830E+03  0.91988548123E+02  0.16876856930E+03  0.49347766647E+03  0.00000000000E+00 0.  1.
          4    1    6    6  503    0  0.67925396740E+02 -0.56234816245E+02 -0.14523115438E+03  0.16990674584E+03  0.00000000000E+00 0. -1.
         -4    1    6    6    0  503  0.17834887695E+03 -0.90559580587E+02 -0.13287866903E+03  0.24013766933E+03  0.00000000000E+00 0.  1.
<mgrwt>
<rscale>  0 0.11803720E+04</rscale>
<asrwt>0</asrwt>
<pdfrwt beam="1">  1        2 0.91010694E-01 0.11803720E+04</pdfrwt>
<pdfrwt beam="2">  1       -1 0.90585497E-01 0.11803720E+04</pdfrwt>
<totfact> 0.67874364E+01</totfact>
</mgrwt>
</event>
<event>
12    6  0.1647231E-007  0.1409506E+04  0.7818608E-02  0.8946966E-01
          2   -1    0    0  501    0  0.00000000000E+00  0.00000000000E+00  0.66618445794E+03  0.66618445794E+03  0.00000000000E+00 0. -1.
         -1   -1    0    0    0  501 -0.00000000000E+00 -0.00000000000E+00 -0.74555444148E+03  0.74555444148E+03  0.00000000000E+00 0.  1.
         24    2    1    2    0    0  0.35081663493E+03 -0.26325124466E+03 -0.74085296307E+02  0.45184616818E+03  0.79390171994E+02 0.  0.
        254    2    1    2    0    0 -0.35081663493E+03  0.26325124466E+03 -0.52846872253E+01  0.95989273124E+03  0.85381063381E+03 0.  0.
         23    2    4    4    0    0 -0.14576334888E+03 -0.86693615677E+01  0.39268907812E+03  0.42828021716E+03  0.88865744950E+02 0.  0.
         23    2    4    4    0    0 -0.20505328605E+03  0.27192060623E+03 -0.39797376535E+03  0.53161251408E+03  0.90780399958E+02 0.  0.
          4    1    3    3  502    0  0.15212444725E+02  0.47667284876E+01 -0.57733933347E+01  0.16955006505E+02  0.00000000000E+00 0. -1.
         -3    1    3    3    0  502  0.33560419021E+03 -0.26801797315E+03 -0.68311902972E+02  0.43489116167E+03  0.00000000000E+00 0.  1.
         11    1    5    5    0    0  0.71213112068E+00 -0.23440774717E+02  0.46160372161E+02  0.51776027350E+02  0.00000000000E+00 0.  1.
        -11    1    5    5    0    0 -0.14647548000E+03  0.14771413150E+02  0.34652870596E+03  0.37650418981E+03  0.00000000000E+00 0. -1.
          2    1    6    6  503    0 -0.32245500727E+02  0.80484288665E+02 -0.55694245211E+02  0.10305019160E+03  0.00000000000E+00 0.  1.
         -2    1    6    6    0  503 -0.17280778533E+03  0.19143631756E+03 -0.34227952013E+03  0.42856232249E+03  0.00000000000E+00 0. -1.
<mgrwt>
<rscale>  0 0.14095060E+04</rscale>
<asrwt>0</asrwt>
<pdfrwt beam="1">  1        2 0.10248992E+00 0.14095060E+04</pdfrwt>
<pdfrwt beam="2">  1       -1 0.11470068E+00 0.14095060E+04</pdfrwt>
<totfact> 0.33480667E+01</totfact>
</mgrwt>
</event>
<event>
12    6  0.1855871E-007  0.2117254E+04  0.7818608E-02  0.8553681E-01
         -1   -1    0    0    0  501 -0.00000000000E+00  0.00000000000E+00  0.81421900649E+03  0.81421900649E+03  0.00000000000E+00 0.  1.
          2   -1    0    0  501    0  0.00000000000E+00 -0.00000000000E+00 -0.13764005287E+04  0.13764005287E+04  0.00000000000E+00 0. -1.
         24    2    1    2    0    0 -0.30096544691E+03 -0.36548997802E+03 -0.98618978852E+03  0.10969140862E+04  0.80542468842E+02 0.  0.
        254    2    1    2    0    0  0.30096544691E+03  0.36548997802E+03  0.42400826633E+03  0.10937054490E+04  0.89008172371E+03 0.  0.
         23    2    4    4    0    0  0.27129610048E+03  0.53743672747E+03  0.58063692775E+03  0.84127737880E+03  0.90380175051E+02 0.  0.
         23    2    4    4    0    0  0.29669346434E+02 -0.17194674945E+03 -0.15662866141E+03  0.25242807015E+03  0.93495659048E+02 0.  0.
          2    1    3    3  502    0 -0.18225354577E+03 -0.22530793101E+03 -0.51097270664E+03  0.58742925162E+03  0.00000000000E+00 0. -1.
         -1    1    3    3    0  502 -0.11871190114E+03 -0.14018204701E+03 -0.47521708188E+03  0.50948483460E+03  0.00000000000E+00 0.  1.
         11    1    5    5    0    0  0.21362014753E+03  0.48739113302E+03  0.49936403000E+03  0.72975894543E+03  0.00000000000E+00 0.  1.
        -11    1    5    5    0    0  0.57675952950E+02  0.50045594454E+02  0.81272897748E+02  0.11151843337E+03  0.00000000000E+00 0. -1.
          3    1    6    6  503    0  0.63114679709E+01  0.10307796187E+02 -0.19451332881E+01  0.12242092700E+02  0.00000000000E+00 0. -1.
         -3    1    6    6    0  503  0.23357878463E+02 -0.18225454564E+03 -0.15468352813E+03  0.24018597745E+03  0.00000000000E+00 0.  1.
<mgrwt>
<rscale>  0 0.21172543E+04</rscale>
<asrwt>0</asrwt>
<pdfrwt beam="1">  1        2 0.21175392E+00 0.21172543E+04</pdfrwt>
<pdfrwt beam="2">  1       -1 0.12526446E+00 0.21172543E+04</pdfrwt>
<totfact> 0.87163532E+00</totfact>
</mgrwt>
</event>
<event>
12    6  0.1647231E-007  0.2240317E+04  0.7818608E-02  0.8501832E-01
         -1   -1    0    0    0  501 -0.00000000000E+00  0.00000000000E+00  0.58132133407E+03  0.58132133407E+03  0.00000000000E+00 0.  1.
          2   -1    0    0  501    0  0.00000000000E+00 -0.00000000000E+00 -0.21584536431E+04  0.21584536431E+04  0.00000000000E+00 0. -1.
         24    2    1    2    0    0  0.73774684747E+03  0.32688988705E+03 -0.14265281765E+03  0.82361726015E+03  0.82874336362E+02 0.  0.
        254    2    1    2    0    0 -0.73774684747E+03 -0.32688988705E+03 -0.14344794914E+04  0.19161577170E+04  0.98122452889E+03 0.  0.
         23    2    4    4    0    0 -0.83227904372E+03 -0.44989898307E+03 -0.75686328373E+03  0.12149473434E+04  0.90318964707E+02 0.  0.
         23    2    4    4    0    0  0.94532196253E+02  0.12300909602E+03 -0.67761620767E+03  0.70121037363E+03  0.92003746473E+02 0.  0.
          2    1    3    3  502    0  0.38518978087E+03  0.14247694176E+03 -0.10538217097E+03  0.42400029266E+03  0.00000000000E+00 0. -1.
         -1    1    3    3    0  502  0.35255706661E+03  0.18441294529E+03 -0.37270646681E+02  0.39961696749E+03  0.00000000000E+00 0.  1.
         11    1    5    5    0    0 -0.22095070345E+03 -0.11199687580E+03 -0.14960001788E+03  0.28938327335E+03  0.00000000000E+00 0. -1.
        -11    1    5    5    0    0 -0.61132834027E+03 -0.33790210728E+03 -0.60726326585E+03  0.92556407005E+03  0.00000000000E+00 0.  1.
          1    1    6    6  503    0 -0.10922031252E+02 -0.69372329782E+01 -0.43608032452E+02  0.45487102155E+02  0.00000000000E+00 0. -1.
         -1    1    6    6    0  503  0.10545422750E+03  0.12994632900E+03 -0.63400817521E+03  0.65572327148E+03  0.00000000000E+00 0.  1.
<mgrwt>
<rscale>  0 0.22403171E+04</rscale>
<asrwt>0</asrwt>
<pdfrwt beam="1">  1        2 0.33206979E+00 0.22403171E+04</pdfrwt>
<pdfrwt beam="2">  1       -1 0.89434051E-01 0.22403171E+04</pdfrwt>
<totfact> 0.69193575E+00</totfact>
</mgrwt>
</event>
<event>
12    6  0.1647231E-007  0.1454339E+04  0.7818608E-02  0.8915398E-01
         -1   -1    0    0    0  501 -0.00000000000E+00  0.00000000000E+00  0.16940127853E+04  0.16940127853E+04  0.00000000000E+00 0.  1.
          2   -1    0    0  501    0  0.00000000000E+00 -0.00000000000E+00 -0.31214367425E+03  0.31214367425E+03  0.00000000000E+00 0. -1.
         24    2    1    2    0    0 -0.11127844558E+03  0.42104044107E+03  0.34407455914E+03  0.56073082227E+03  0.79836127978E+02 0.  0.
        254    2    1    2    0    0  0.11127844558E+03 -0.42104044107E+03  0.10377945520E+04  0.14454256373E+04  0.90696184898E+03 0.  0.
         23    2    4    4    0    0 -0.10581893028E+03  0.21848554203E+03  0.54712320964E+03  0.60560040582E+03  0.92056867859E+02 0.  0.
         23    2    4    4    0    0  0.21709737586E+03 -0.63952598310E+03  0.49067134232E+03  0.83982523151E+03  0.91778535861E+02 0.  0.
          2    1    3    3  502    0 -0.85277419218E+02  0.22465658904E+03  0.14920376322E+03  0.28285081614E+03  0.00000000000E+00 0. -1.
         -1    1    3    3    0  502 -0.26001026366E+02  0.19638385203E+03  0.19487079592E+03  0.27788000614E+03  0.00000000000E+00 0.  1.
         11    1    5    5    0    0 -0.81731010744E+01  0.36433343599E+02  0.27368717562E+02  0.46295084058E+02  0.00000000000E+00 0. -1.
        -11    1    5    5    0    0 -0.97645829206E+02  0.18205219843E+03  0.51975449208E+03  0.55930532176E+03  0.00000000000E+00 0.  1.
          1    1    6    6  503    0  0.13566455600E+03 -0.49543981074E+03  0.40044815230E+03  0.65132495768E+03  0.00000000000E+00 0. -1.
         -1    1    6    6    0  503  0.81432819868E+02 -0.14408617236E+03  0.90223190023E+02  0.18850027383E+03  0.00000000000E+00 0.  1.
<mgrwt>
<rscale>  0 0.14543389E+04</rscale>
<asrwt>0</asrwt>
<pdfrwt beam="1">  1        2 0.48022105E-01 0.14543389E+04</pdfrwt>
<pdfrwt beam="2">  1       -1 0.26061735E+00 0.14543389E+04</pdfrwt>
<totfact> 0.69396501E+00</totfact>
</mgrwt>
</event>
<event>
12    6  0.1647231E-007  0.2582100E+04  0.7818608E-02  0.8374307E-01
          2   -1    0    0  501    0  0.00000000000E+00  0.00000000000E+00  0.15119990418E+04  0.15119990418E+04  0.00000000000E+00 0. -1.
         -1   -1    0    0    0  501 -0.00000000000E+00 -0.00000000000E+00 -0.11023880207E+04  0.11023880207E+04  0.00000000000E+00 0.  1.
         24    2    1    2    0    0 -0.28796069421E+03 -0.48262967745E+03  0.11848505723E+04  0.13138587208E+04  0.80629352648E+02 0.  0.
        254    2    1    2    0    0  0.28796069421E+03  0.48262967745E+03 -0.77523955127E+03  0.13005283417E+04  0.88007092829E+03 0.  0.
         23    2    4    4    0    0  0.38046894876E+03  0.69363378444E+03 -0.57339262257E+03  0.98141270934E+03  0.92235343308E+02 0.  0.
         23    2    4    4    0    0 -0.92508254548E+02 -0.21100410699E+03 -0.20184692870E+03  0.31911563239E+03  0.89510300415E+02 0.  0.
          2    1    3    3  502    0 -0.23658224708E+03 -0.41681623420E+03  0.10640878895E+04  0.11670432594E+04  0.00000000000E+00 0. -1.
         -1    1    3    3    0  502 -0.51378447127E+02 -0.65813443247E+02  0.12076268279E+03  0.14681546137E+03  0.00000000000E+00 0.  1.
         11    1    5    5    0    0  0.31319305988E+03  0.50114488031E+03 -0.45305883071E+03  0.74464648519E+03  0.00000000000E+00 0.  1.
        -11    1    5    5    0    0  0.67275888884E+02  0.19248890413E+03 -0.12033379186E+03  0.23676622415E+03  0.00000000000E+00 0. -1.
          1    1    6    6  503    0 -0.56909478446E+02 -0.48161024699E+02 -0.96434841789E+02  0.12189278792E+03  0.00000000000E+00 0. -1.
         -1    1    6    6    0  503 -0.35598776103E+02 -0.16284308229E+03 -0.10541208691E+03  0.19722284446E+03  0.00000000000E+00 0.  1.
<mgrwt>
<rscale>  0 0.25820996E+04</rscale>
<asrwt>0</asrwt>
<pdfrwt beam="1">  1        2 0.23261524E+00 0.25820996E+04</pdfrwt>
<pdfrwt beam="2">  1       -1 0.16959816E+00 0.25820996E+04</pdfrwt>
<totfact> 0.31238853E+00</totfact>
</mgrwt>
</event>
<event>
12    6  0.1647231E-007  0.1403408E+04  0.7818608E-02  0.8951356E-01
          2   -1    0    0  501    0  0.00000000000E+00  0.00000000000E+00  0.15994001988E+04  0.15994001988E+04  0.00000000000E+00 0. -1.
         -1   -1    0    0    0  501 -0.00000000000E+00 -0.00000000000E+00 -0.30785810946E+03  0.30785810946E+03  0.00000000000E+00 0.  1.
         24    2    1    2    0    0 -0.30320320533E+02 -0.18672715822E+03 -0.10930728483E+03  0.23251876962E+03  0.79564704842E+02 0.  0.
        254    2    1    2    0    0  0.30320320533E+02  0.18672715822E+03  0.14008493742E+04  0.16747395387E+04  0.89810199850E+03 0.  0.
         23    2    4    4    0    0 -0.21720598267E+03  0.35858502870E+03  0.12518479136E+04  0.13232933851E+04  0.90667096852E+02 0.  0.
         23    2    4    4    0    0  0.24752630321E+03 -0.17185787049E+03  0.14900146061E+03  0.35144615360E+03  0.10251129300E+03 0.  0.
          4    1    3    3  502    0 -0.15058210867E+02 -0.15959766204E+02 -0.43787858553E+02  0.48977958395E+02  0.00000000000E+00 0. -1.
         -1    1    3    3    0  502 -0.15262109666E+02 -0.17076739201E+03 -0.65519426277E+02  0.18354081123E+03  0.00000000000E+00 0.  1.
         11    1    5    5    0    0 -0.12563733641E+03  0.12183293493E+03  0.49837100752E+03  0.52820608239E+03  0.00000000000E+00 0. -1.
        -11    1    5    5    0    0 -0.91568646268E+02  0.23675209377E+03  0.75347690609E+03  0.79508730269E+03  0.00000000000E+00 0.  1.
          3    1    6    6  503    0  0.12899956237E+03 -0.39836188913E+02  0.31477784133E+02  0.13863138149E+03  0.00000000000E+00 0. -1.
         -3    1    6    6    0  503  0.11852674083E+03 -0.13202168157E+03  0.11752367648E+03  0.21281477212E+03  0.00000000000E+00 0.  1.
<mgrwt>
<rscale>  0 0.14034077E+04</rscale>
<asrwt>0</asrwt>
<pdfrwt beam="1">  1        2 0.24606156E+00 0.14034077E+04</pdfrwt>
<pdfrwt beam="2">  1       -1 0.47362787E-01 0.14034077E+04</pdfrwt>
<totfact> 0.55036298E+01</totfact>
</mgrwt>
</event>
<event>
12    6  0.1647231E-007  0.2037446E+04  0.7818608E-02  0.8589311E-01
         -1   -1    0    0    0  501 -0.00000000000E+00  0.00000000000E+00  0.14589920700E+04  0.14589920700E+04  0.00000000000E+00 0.  1.
          2   -1    0    0  501    0  0.00000000000E+00 -0.00000000000E+00 -0.71131050312E+03  0.71131050312E+03  0.00000000000E+00 0. -1.
         24    2    1    2    0    0  0.60802281389E+03 -0.26505724365E+03 -0.20324023037E+03  0.69796025771E+03  0.76777897111E+02 0.  0.
        254    2    1    2    0    0 -0.60802281389E+03  0.26505724365E+03  0.95092179725E+03  0.14723423154E+04  0.90751999682E+03 0.  0.
         23    2    4    4    0    0 -0.42610238108E+03  0.19835584971E+03 -0.18933337876E+02  0.47896981619E+03  0.90251488988E+02 0.  0.
         23    2    4    4    0    0 -0.18192043281E+03  0.66701393931E+02  0.96985513513E+03  0.99337249921E+03  0.92875288569E+02 0.  0.
          2    1    3    3  502    0  0.57285268017E+03 -0.23015450978E+03 -0.19695236207E+03  0.64801352183E+03  0.00000000000E+00 0. -1.
         -3    1    3    3    0  502  0.35170133713E+02 -0.34902733870E+02 -0.62878682984E+01  0.49946735877E+02  0.00000000000E+00 0.  1.
         11    1    5    5    0    0 -0.51442092866E+02 -0.40730853450E+00 -0.19029722748E+02  0.54850571251E+02  0.00000000000E+00 0. -1.
        -11    1    5    5    0    0 -0.37466028821E+03  0.19876315825E+03  0.96384872390E-01  0.42411924494E+03  0.00000000000E+00 0.  1.
          1    1    6    6  503    0 -0.69069895281E+02 -0.11740227006E+02  0.46061389352E+03  0.46591162495E+03  0.00000000000E+00 0. -1.
         -1    1    6    6    0  503 -0.11285053753E+03  0.78441620937E+02  0.50924124161E+03  0.52746087426E+03  0.00000000000E+00 0.  1.
<mgrwt>
<rscale>  0 0.20374458E+04</rscale>
<asrwt>0</asrwt>
<pdfrwt beam="1">  1        2 0.10943239E+00 0.20374458E+04</pdfrwt>
<pdfrwt beam="2">  1       -1 0.22446032E+00 0.20374458E+04</pdfrwt>
<totfact> 0.43607335E+00</totfact>
</mgrwt>
</event>
<event>
12    6  0.1647231E-007  0.2320029E+04  0.7818608E-02  0.8470065E-01
          2   -1    0    0  501    0  0.00000000000E+00  0.00000000000E+00  0.22055053044E+04  0.22055053044E+04  0.00000000000E+00 0. -1.
         -1   -1    0    0    0  501 -0.00000000000E+00 -0.00000000000E+00 -0.61012510608E+03  0.61012510608E+03  0.00000000000E+00 0.  1.
         24    2    1    2    0    0 -0.61132622402E+03  0.36947209139E+03 -0.14124441180E+03  0.73236382935E+03  0.78596540567E+02 0.  0.
        254    2    1    2    0    0  0.61132622402E+03 -0.36947209139E+03  0.17366246101E+04  0.20832665812E+04  0.90216696521E+03 0.  0.
         23    2    4    4    0    0  0.86571772369E+02  0.22105408622E+03  0.87282190411E+03  0.90919981672E+03  0.92014399024E+02 0.  0.
         23    2    4    4    0    0  0.52475445165E+03 -0.59052617761E+03  0.86380270603E+03  0.11740667644E+04  0.90494482836E+02 0.  0.
          2    1    3    3  502    0 -0.29101760264E+03  0.18066346690E+03 -0.10756106600E+03  0.35902634477E+03  0.00000000000E+00 0. -1.
         -1    1    3    3    0  502 -0.32030862138E+03  0.18880862449E+03 -0.33683345802E+02  0.37333748458E+03  0.00000000000E+00 0.  1.
         11    1    5    5    0    0 -0.69004536899E+01  0.55743022745E+02  0.11554669566E+03  0.12847544405E+03  0.00000000000E+00 0.  1.
        -11    1    5    5    0    0  0.93472226059E+02  0.16531106348E+03  0.75727520845E+03  0.78072437267E+03  0.00000000000E+00 0. -1.
          2    1    6    6  503    0  0.31401346915E+03 -0.31417101970E+03  0.43014656625E+03  0.61833159137E+03  0.00000000000E+00 0. -1.
         -2    1    6    6    0  503  0.21074098250E+03 -0.27635515791E+03  0.43365613978E+03  0.55573517306E+03  0.00000000000E+00 0.  1.
<mgrwt>
<rscale>  0 0.23200294E+04</rscale>
<asrwt>0</asrwt>
<pdfrwt beam="1">  1        2 0.33930850E+00 0.23200294E+04</pdfrwt>
<pdfrwt beam="2">  1       -1 0.93865402E-01 0.23200294E+04</pdfrwt>
<totfact> 0.58080585E+00</totfact>
</mgrwt>
</event>
<event>
12    6  0.1647231E-007  0.1116058E+04  0.7818608E-02  0.9189681E-01
          2   -1    0    0  501    0  0.00000000000E+00  0.00000000000E+00  0.25575156009E+04  0.25575156009E+04  0.00000000000E+00 0. -1.
         -1   -1    0    0    0  501 -0.00000000000E+00 -0.00000000000E+00 -0.12175729196E+03  0.12175729196E+03  0.00000000000E+00 0.  1.
         24    2    1    2    0    0  0.26420649844E+02  0.11624448824E+03  0.10272491862E+03  0.17642631954E+03  0.79768449504E+02 0.  0.
        254    2    1    2    0    0 -0.26420649844E+02 -0.11624448824E+03  0.23330333903E+04  0.25028465733E+04  0.89832362624E+03 0.  0.
         23    2    4    4    0    0 -0.37481404104E+03 -0.24338379200E+03  0.17279941367E+04  0.17873342939E+04  0.94227946772E+02 0.  0.
         23    2    4    4    0    0  0.34839339119E+03  0.12713930376E+03  0.60503925361E+03  0.71551227946E+03  0.91339838312E+02 0.  0.
          2    1    3    3  502    0 -0.82938254836E+01  0.41568363026E+01  0.44458193987E+02  0.45415832502E+02  0.00000000000E+00 0. -1.
         -1    1    3    3    0  502  0.34714475327E+02  0.11208765194E+03  0.58266724629E+02  0.13101048704E+03  0.00000000000E+00 0.  1.
         11    1    5    5    0    0 -0.26015462945E+03 -0.17870000199E+03  0.10391516995E+04  0.10860250349E+04  0.00000000000E+00 0. -1.
        -11    1    5    5    0    0 -0.11465941158E+03 -0.64683790005E+02  0.68884243722E+03  0.70130925893E+03  0.00000000000E+00 0.  1.
          3    1    6    6  503    0  0.33961306582E+03  0.13110808177E+03  0.60475581910E+03  0.70587248446E+03  0.00000000000E+00 0. -1.
         -3    1    6    6    0  503  0.87803253682E+01 -0.39687780145E+01  0.28343451022E+00  0.96397949990E+01  0.00000000000E+00 0.  1.
<mgrwt>
<rscale>  0 0.11160577E+04</rscale>
<asrwt>0</asrwt>
<pdfrwt beam="1">  1        2 0.39346390E+00 0.11160577E+04</pdfrwt>
<pdfrwt beam="2">  1       -1 0.18731893E-01 0.11160577E+04</pdfrwt>
<totfact> 0.83872454E+01</totfact>
</mgrwt>
</event>
<event>
12    6  0.1647231E-007  0.1500923E+04  0.7818608E-02  0.8883840E-01
          2   -1    0    0  501    0  0.00000000000E+00  0.00000000000E+00  0.63067285116E+03  0.63067285116E+03  0.00000000000E+00 0. -1.
         -1   -1    0    0    0  501 -0.00000000000E+00 -0.00000000000E+00 -0.89300229177E+03  0.89300229177E+03  0.00000000000E+00 0.  1.
         24    2    1    2    0    0 -0.26235831752E+02 -0.17240727042E+03  0.36177478682E+03  0.41024606279E+03  0.83715290666E+02 0.  0.
        254    2    1    2    0    0  0.26235831752E+02  0.17240727042E+03 -0.62410422743E+03  0.11134290801E+04  0.90543119233E+03 0.  0.
         23    2    4    4    0    0 -0.33263249554E+01  0.53583539583E+03 -0.35297140770E+03  0.64776567469E+03  0.88774539126E+02 0.  0.
         23    2    4    4    0    0  0.29562156708E+02 -0.36342812541E+03 -0.27113281974E+03  0.46566340545E+03  0.10186008926E+03 0.  0.
          2    1    3    3  502    0 -0.25928755440E+02 -0.15613386315E+03  0.36074424099E+03  0.39393716630E+03  0.00000000000E+00 0. -1.
         -1    1    3    3    0  502 -0.30707631242E+00 -0.16273407270E+02  0.10305458296E+01  0.16308896491E+02  0.00000000000E+00 0.  1.
         11    1    5    5    0    0  0.32556911494E+02  0.16879589492E+03 -0.84143982487E+02  0.19139544513E+03  0.00000000000E+00 0.  1.
        -11    1    5    5    0    0 -0.35883236450E+02  0.36703950091E+03 -0.26882742521E+03  0.45637022957E+03  0.00000000000E+00 0. -1.
          1    1    6    6  503    0  0.59072624439E+02 -0.13816757535E+03 -0.90447233537E+02  0.17538687491E+03  0.00000000000E+00 0. -1.
         -1    1    6    6    0  503 -0.29510467731E+02 -0.22526055006E+03 -0.18068558620E+03  0.29027653054E+03  0.00000000000E+00 0.  1.
<mgrwt>
<rscale>  0 0.15009228E+04</rscale>
<asrwt>0</asrwt>
<pdfrwt beam="1">  1        2 0.97026593E-01 0.15009228E+04</pdfrwt>
<pdfrwt beam="2">  1       -1 0.13738497E+00 0.15009228E+04</pdfrwt>
<totfact> 0.22684999E+01</totfact>
</mgrwt>
</event>
<event>
12    6  0.1647231E-007  0.1589520E+04  0.7818608E-02  0.8827012E-01
          2   -1    0    0  501    0  0.00000000000E+00  0.00000000000E+00  0.31005523529E+04  0.31005523529E+04  0.00000000000E+00 0. -1.
         -1   -1    0    0    0  501 -0.00000000000E+00 -0.00000000000E+00 -0.20371962964E+03  0.20371962964E+03  0.00000000000E+00 0.  1.
         24    2    1    2    0    0 -0.29503680063E+03  0.43587744351E+03  0.91512784317E+03  0.10587291450E+04  0.80078546886E+02 0.  0.
        254    2    1    2    0    0  0.29503680063E+03 -0.43587744351E+03  0.19817048801E+04  0.22455428375E+04  0.91557224943E+03 0.  0.
         23    2    4    4    0    0  0.24388965579E+03  0.12594672368E+03  0.14905624219E+03  0.32587582979E+03  0.92911526187E+02 0.  0.
         23    2    4    4    0    0  0.51147144844E+02 -0.56182416718E+03  0.18326486379E+04  0.19196670077E+04  0.90873347986E+02 0.  0.
          2    1    3    3  502    0 -0.27890182056E+03  0.42705237436E+03  0.85229966124E+03  0.99326465180E+03  0.00000000000E+00 0. -1.
         -1    1    3    3    0  502 -0.16134980077E+02  0.88250691407E+01  0.62828181931E+02  0.65464493217E+02  0.00000000000E+00 0.  1.
         11    1    5    5    0    0  0.25127949405E+03  0.11964286403E+03  0.13644205519E+03  0.30995521204E+03  0.00000000000E+00 0. -1.
        -11    1    5    5    0    0 -0.73898382609E+01  0.63038596511E+01  0.12614186999E+02  0.15920617754E+02  0.00000000000E+00 0.  1.
          2    1    6    6  503    0  0.45425161964E+02 -0.55601408081E+03  0.18254453997E+04  0.19087865283E+04  0.00000000000E+00 0. -1.
         -2    1    6    6    0  503  0.57219828805E+01 -0.58100863751E+01  0.72032381566E+01  0.10880479388E+02  0.00000000000E+00 0.  1.
<mgrwt>
<rscale>  0 0.15895199E+04</rscale>
<asrwt>0</asrwt>
<pdfrwt beam="1">  1        2 0.47700802E+00 0.15895199E+04</pdfrwt>
<pdfrwt beam="2">  1       -1 0.31341484E-01 0.15895199E+04</pdfrwt>
<totfact> 0.15632993E+01</totfact>
</mgrwt>
</event>
<event>
12    6  0.1647231E-007  0.1639694E+04  0.7818608E-02  0.8796527E-01
         -3   -1    0    0    0  501 -0.00000000000E+00  0.00000000000E+00  0.54987390665E+03  0.54987390665E+03  0.00000000000E+00 0.  1.
          2   -1    0    0  501    0  0.00000000000E+00 -0.00000000000E+00 -0.12223690762E+04  0.12223690762E+04  0.00000000000E+00 0. -1.
         24    2    1    2    0    0 -0.35187258480E+03 -0.18199617804E+03 -0.66720800162E+03  0.77963113608E+03  0.75639051768E+02 0.  0.
        254    2    1    2    0    0  0.35187258480E+03  0.18199617804E+03 -0.52871679451E+01  0.99261184680E+03  0.91011724492E+03 0.  0.
         23    2    4    4    0    0  0.11782043309E+03  0.81041832393E+02  0.43956873577E+03  0.47144491318E+03  0.92683329939E+02 0.  0.
         23    2    4    4    0    0  0.23405215171E+03  0.10095434565E+03 -0.44485590372E+03  0.52116693362E+03  0.93520094073E+02 0.  0.
          4    1    3    3  502    0 -0.34232291324E+03 -0.15817659770E+03 -0.63385561434E+03  0.73754847490E+03  0.00000000000E+00 0. -1.
         -3    1    3    3    0  502 -0.95496715562E+01 -0.23819580338E+02 -0.33352387280E+02  0.42082661175E+02  0.00000000000E+00 0.  1.
         11    1    5    5    0    0  0.12309622149E+03  0.50033370526E+02  0.39607347783E+03  0.41776813874E+03  0.00000000000E+00 0. -1.
        -11    1    5    5    0    0 -0.52757884037E+01  0.31008461867E+02  0.43495257946E+02  0.53676774441E+02  0.00000000000E+00 0.  1.
          1    1    6    6  503    0  0.17867814071E+03  0.76433073251E+02 -0.40341421816E+03  0.44778446162E+03  0.00000000000E+00 0. -1.
         -1    1    6    6    0  503  0.55374011003E+02  0.24521272395E+02 -0.41441685558E+02  0.73382471996E+02  0.00000000000E+00 0.  1.
<mgrwt>
<rscale>  0 0.16396937E+04</rscale>
<asrwt>0</asrwt>
<pdfrwt beam="1">  1        2 0.18805678E+00 0.16396937E+04</pdfrwt>
<pdfrwt beam="2">  1       -3 0.84595986E-01 0.16396937E+04</pdfrwt>
<totfact> 0.14328545E+01</totfact>
</mgrwt>
</event>
<event>
12    6  0.1647231E-007  0.1814639E+04  0.7818608E-02  0.8698553E-01
          2   -1    0    0  501    0  0.00000000000E+00  0.00000000000E+00  0.27703809718E+04  0.27703809718E+04  0.00000000000E+00 0. -1.
         -1   -1    0    0    0  501 -0.00000000000E+00 -0.00000000000E+00 -0.29715367852E+03  0.29715367852E+03  0.00000000000E+00 0.  1.
         24    2    1    2    0    0  0.20513897975E+03 -0.64716682435E+03  0.83656982815E+03  0.10804010260E+04  0.80687050744E+02 0.  0.
        254    2    1    2    0    0 -0.20513897975E+03  0.64716682435E+03  0.16366574652E+04  0.19871336243E+04  0.89952514310E+03 0.  0.
         23    2    4    4    0    0 -0.48408311701E+03  0.12273344723E+03  0.92404829098E+03  0.10548494670E+04  0.97170936037E+02 0.  0.
         23    2    4    4    0    0  0.27894413726E+03  0.52443337712E+03  0.71260917418E+03  0.93228415728E+03  0.92204750605E+02 0.  0.
          2    1    3    3  502    0 -0.38087924281E+01 -0.38808685773E+02  0.32966332177E+02  0.51062707022E+02  0.00000000000E+00 0. -1.
         -1    1    3    3    0  502  0.20894777218E+03 -0.60835813858E+03  0.80360349597E+03  0.10293383190E+04  0.00000000000E+00 0.  1.
         11    1    5    5    0    0 -0.16054182892E+03  0.88760962720E+02  0.33308514010E+03  0.38026030280E+03  0.00000000000E+00 0.  1.
        -11    1    5    5    0    0 -0.32354128809E+03  0.33972484510E+02  0.59096315089E+03  0.67458916424E+03  0.00000000000E+00 0. -1.
          1    1    6    6  503    0  0.14271871086E+03  0.35779239038E+03  0.47811665277E+03  0.61398661117E+03  0.00000000000E+00 0. -1.
         -1    1    6    6    0  503  0.13622542639E+03  0.16664098674E+03  0.23449252141E+03  0.31829754610E+03  0.00000000000E+00 0.  1.
<mgrwt>
<rscale>  0 0.18146392E+04</rscale>
<asrwt>0</asrwt>
<pdfrwt beam="1">  1        2 0.42621244E+00 0.18146392E+04</pdfrwt>
<pdfrwt beam="2">  1       -1 0.45715953E-01 0.18146392E+04</pdfrwt>
<totfact> 0.12329268E+01</totfact>
</mgrwt>
</event>
<event>
12    6  0.1647231E-007  0.2284775E+04  0.7818608E-02  0.8483948E-01
         -1   -1    0    0    0  501 -0.00000000000E+00  0.00000000000E+00  0.34784463205E+03  0.34784463205E+03  0.00000000000E+00 0.  1.
          2   -1    0    0  501    0  0.00000000000E+00 -0.00000000000E+00 -0.37518160314E+04  0.37518160314E+04  0.00000000000E+00 0. -1.
         24    2    1    2    0    0 -0.58243536995E+03  0.56428009958E+03 -0.23849452636E+04  0.25203177727E+04  0.79967328973E+02 0.  0.
        254    2    1    2    0    0  0.58243536995E+03 -0.56428009958E+03 -0.10190261357E+04  0.15793428908E+04  0.89345772731E+03 0.  0.
         23    2    4    4    0    0  0.65140251166E+03 -0.25319096465E+03 -0.10293548351E+04  0.12475336103E+04  0.91311749111E+02 0.  0.
         23    2    4    4    0    0 -0.68967141703E+02 -0.31108913493E+03  0.10328699383E+02  0.33180928049E+03  0.91966298632E+02 0.  0.
          2    1    3    3  502    0 -0.54480794037E+03  0.50186499092E+03 -0.22086019872E+04  0.23295078662E+04  0.00000000000E+00 0. -1.
         -1    1    3    3    0  502 -0.37627429587E+02  0.62415108657E+02 -0.17634327649E+03  0.19080990647E+03  0.00000000000E+00 0.  1.
         11    1    5    5    0    0  0.64155853210E+02 -0.17334358062E+02 -0.57949156496E+02  0.88173455240E+02  0.00000000000E+00 0. -1.
        -11    1    5    5    0    0  0.58724665845E+03 -0.23585660659E+03 -0.97140567860E+03  0.11593601551E+04  0.00000000000E+00 0.  1.
          3    1    6    6  503    0 -0.27325066120E+02 -0.13029812333E+02  0.57868821277E+01  0.30820824984E+02  0.00000000000E+00 0. -1.
         -3    1    6    6    0  503 -0.41642075583E+02 -0.29805932260E+03  0.45418172553E+01  0.30098845551E+03  0.00000000000E+00 0.  1.
<mgrwt>
<rscale>  0 0.22847749E+04</rscale>
<asrwt>0</asrwt>
<pdfrwt beam="1">  1        2 0.57720248E+00 0.22847749E+04</pdfrwt>
<pdfrwt beam="2">  1       -1 0.53514558E-01 0.22847749E+04</pdfrwt>
<totfact> 0.19515046E+00</totfact>
</mgrwt>
</event>
<event>
12    6  0.1647231E-007  0.1198774E+04  0.7818608E-02  0.9113930E-01
         -3   -1    0    0    0  501 -0.00000000000E+00  0.00000000000E+00  0.64401291482E+03  0.64401291482E+03  0.00000000000E+00 0.  1.
          4   -1    0    0  501    0  0.00000000000E+00 -0.00000000000E+00 -0.55785353229E+03  0.55785353229E+03  0.00000000000E+00 0. -1.
         24    2    1    2    0    0  0.44291411890E+02 -0.18238119961E+03 -0.12037499118E+03  0.23719149084E+03  0.80901382477E+02 0.  0.
        254    2    1    2    0    0 -0.44291411890E+02  0.18238119961E+03  0.20653437371E+03  0.96467495626E+03  0.92342660378E+03 0.  0.
         23    2    4    4    0    0 -0.27288117418E+03 -0.50301798585E+02  0.45698245649E+03  0.54315347203E+03  0.95855737830E+02 0.  0.
         23    2    4    4    0    0  0.22858976229E+03  0.23268299820E+03 -0.25044808278E+03  0.42152148423E+03  0.92528170990E+02 0.  0.
          2    1    3    3  502    0  0.28873361424E+02 -0.15459378089E+03 -0.12994187831E+03  0.20400441130E+03  0.00000000000E+00 0. -1.
         -1    1    3    3    0  502  0.15418050467E+02 -0.27787418718E+02  0.95668871285E+01  0.33187079542E+02  0.00000000000E+00 0.  1.
         11    1    5    5    0    0 -0.22514202519E+03 -0.29732379108E+01  0.33038575356E+03  0.39981560475E+03  0.00000000000E+00 0.  1.
        -11    1    5    5    0    0 -0.47739148989E+02 -0.47328560674E+02  0.12659670294E+03  0.14333786728E+03  0.00000000000E+00 0. -1.
          3    1    6    6  503    0  0.17122454655E+02  0.10068329339E+02 -0.52674900941E+02  0.56295602832E+02  0.00000000000E+00 0. -1.
         -3    1    6    6    0  503  0.21146730763E+03  0.22261466886E+03 -0.19777318184E+03  0.36522588140E+03  0.00000000000E+00 0.  1.
<mgrwt>
<rscale>  0 0.11987742E+04</rscale>
<asrwt>0</asrwt>
<pdfrwt beam="1">  1        4 0.85823620E-01 0.11987742E+04</pdfrwt>
<pdfrwt beam="2">  1       -3 0.99078910E-01 0.11987742E+04</pdfrwt>
<totfact> 0.23795590E+00</totfact>
</mgrwt>
</event>
<event>
12    6  0.1647231E-007  0.2130174E+04  0.7818608E-02  0.8548067E-01
          2   -1    0    0  501    0  0.00000000000E+00  0.00000000000E+00  0.19896851458E+04  0.19896851458E+04  0.00000000000E+00 0. -1.
         -1   -1    0    0    0  501 -0.00000000000E+00 -0.00000000000E+00 -0.57014577629E+03  0.57014577629E+03  0.00000000000E+00 0.  1.
         24    2    1    2    0    0  0.33134260307E+03 -0.50021765850E+03  0.13483319082E+04  0.14779999786E+04  0.80494568927E+02 0.  0.
        254    2    1    2    0    0 -0.33134260307E+03  0.50021765850E+03  0.71207461324E+02  0.10818309435E+04  0.89737509508E+03 0.  0.
         23    2    4    4    0    0  0.29040637628E+03  0.17360152569E+03 -0.75228254833E+02  0.35861770761E+03  0.92054422918E+02 0.  0.
         23    2    4    4    0    0 -0.62174897935E+03  0.32661613281E+03  0.14643571616E+03  0.72321323588E+03  0.91345903320E+02 0.  0.
          4    1    3    3  502    0  0.24092229647E+03 -0.34756522979E+03  0.10323858415E+04  0.11156458522E+04  0.00000000000E+00 0. -1.
         -3    1    3    3    0  502  0.90420306603E+02 -0.15265242870E+03  0.31594606673E+03  0.36235412640E+03  0.00000000000E+00 0.  1.
         11    1    5    5    0    0  0.24601746649E+02  0.41467643751E+01 -0.31793951194E+02  0.40414068411E+02  0.00000000000E+00 0. -1.
        -11    1    5    5    0    0  0.26580462964E+03  0.16945476131E+03 -0.43434303638E+02  0.31820363920E+03  0.00000000000E+00 0.  1.
          1    1    6    6  503    0 -0.36203615658E+01 -0.13143104064E+01  0.94448881251E+01  0.10200016736E+02  0.00000000000E+00 0. -1.
         -1    1    6    6    0  503 -0.61812861779E+03  0.32793044321E+03  0.13699082803E+03  0.71301321915E+03  0.00000000000E+00 0.  1.
<mgrwt>
<rscale>  0 0.21301742E+04</rscale>
<asrwt>0</asrwt>
<pdfrwt beam="1">  1        2 0.30610540E+00 0.21301742E+04</pdfrwt>
<pdfrwt beam="2">  1       -1 0.87714736E-01 0.21301742E+04</pdfrwt>
<totfact> 0.90560097E+00</totfact>
</mgrwt>
</event>
<event>
12    6  0.1647231E-007  0.1762803E+04  0.7818608E-02  0.8726335E-01
         -1   -1    0    0    0  501 -0.00000000000E+00  0.00000000000E+00  0.47584660406E+03  0.47584660406E+03  0.00000000000E+00 0.  1.
          2   -1    0    0  501    0  0.00000000000E+00 -0.00000000000E+00 -0.16326021684E+04  0.16326021684E+04  0.00000000000E+00 0. -1.
         24    2    1    2    0    0  0.51481812680E+03  0.46746171800E+02 -0.92354136308E+03  0.10609002835E+04  0.73197363388E+02 0.  0.
        254    2    1    2    0    0 -0.51481812680E+03 -0.46746171800E+02 -0.23321420122E+03  0.10475484889E+04  0.88076447742E+03 0.  0.
         23    2    4    4    0    0 -0.36850047767E+03 -0.16555146388E+03  0.27397615581E+03  0.49874180589E+03  0.10237463432E+03 0.  0.
         23    2    4    4    0    0 -0.14631764912E+03  0.11880529208E+03 -0.50719035703E+03  0.54880668301E+03  0.91777803313E+02 0.  0.
          4    1    3    3  502    0  0.27542208990E+03  0.48105679124E+02 -0.55466613010E+03  0.62114893532E+03  0.00000000000E+00 0. -1.
         -3    1    3    3    0  502  0.23939603690E+03 -0.13595073240E+01 -0.36887523298E+03  0.43975134821E+03  0.00000000000E+00 0.  1.
         11    1    5    5    0    0 -0.35154448655E+03 -0.13660354253E+03  0.22433762323E+03  0.43882960595E+03  0.00000000000E+00 0. -1.
        -11    1    5    5    0    0 -0.16955991118E+02 -0.28947921350E+02  0.49638532582E+02  0.59912199944E+02  0.00000000000E+00 0.  1.
          2    1    6    6  503    0 -0.48869310093E+02  0.10510573342E+01 -0.19739557607E+03  0.20335763483E+03  0.00000000000E+00 0. -1.
         -2    1    6    6    0  503 -0.97448339031E+02  0.11775423475E+03 -0.30979478096E+03  0.34544904818E+03  0.00000000000E+00 0.  1.
<mgrwt>
<rscale>  0 0.17628025E+04</rscale>
<asrwt>0</asrwt>
<pdfrwt beam="1">  1        2 0.25116957E+00 0.17628025E+04</pdfrwt>
<pdfrwt beam="2">  1       -1 0.73207169E-01 0.17628025E+04</pdfrwt>
<totfact> 0.21691202E+01</totfact>
</mgrwt>
</event>
<event>
12    6  0.1647231E-007  0.1687928E+04  0.7818608E-02  0.8768280E-01
         -1   -1    0    0    0  501 -0.00000000000E+00  0.00000000000E+00  0.57144589531E+03  0.57144589531E+03  0.00000000000E+00 0.  1.
          2   -1    0    0  501    0  0.00000000000E+00 -0.00000000000E+00 -0.12464437813E+04  0.12464437813E+04  0.00000000000E+00 0. -1.
         24    2    1    2    0    0 -0.66240492312E+02 -0.57644846295E+03 -0.79008575336E+02  0.59114289448E+03  0.80789439017E+02 0.  0.
        254    2    1    2    0    0  0.66240492312E+02  0.57644846295E+03 -0.59598931068E+03  0.12267467821E+04  0.90167831060E+03 0.  0.
         23    2    4    4    0    0  0.23495944490E+03  0.71670948112E+03 -0.62886549996E+03  0.98614933482E+03  0.90223458412E+02 0.  0.
         23    2    4    4    0    0 -0.16871895259E+03 -0.14026101817E+03  0.32876189285E+02  0.24059744732E+03  0.93096990588E+02 0.  0.
          4    1    3    3  502    0  0.13993202935E+02 -0.92268329053E+02 -0.29471368285E+02  0.97866316080E+02  0.00000000000E+00 0. -1.
         -3    1    3    3    0  502 -0.80233695247E+02 -0.48418013390E+03 -0.49537207050E+02  0.49327657840E+03  0.00000000000E+00 0.  1.
         11    1    5    5    0    0  0.43256743433E+02  0.20568719388E+03 -0.13295699595E+03  0.24870852488E+03  0.00000000000E+00 0. -1.
        -11    1    5    5    0    0  0.19170270147E+03  0.51102228725E+03 -0.49590850401E+03  0.73744080994E+03  0.00000000000E+00 0.  1.
          2    1    6    6  503    0 -0.31108942719E+01 -0.46406853538E+02  0.17236309412E+02  0.49602057222E+02  0.00000000000E+00 0. -1.
         -2    1    6    6    0  503 -0.16560805832E+03 -0.93854164630E+02  0.15639879873E+02  0.19099539010E+03  0.00000000000E+00 0.  1.
<mgrwt>
<rscale>  0 0.16879279E+04</rscale>
<asrwt>0</asrwt>
<pdfrwt beam="1">  1        2 0.19176058E+00 0.16879279E+04</pdfrwt>
<pdfrwt beam="2">  1       -1 0.87914755E-01 0.16879279E+04</pdfrwt>
<totfact> 0.24551731E+01</totfact>
</mgrwt>
</event>
<event>
12    6  0.1647231E-007  0.1511105E+04  0.7818608E-02  0.8877102E-01
         -1   -1    0    0    0  501 -0.00000000000E+00  0.00000000000E+00  0.36979557884E+03  0.36979557884E+03  0.00000000000E+00 0.  1.
          2   -1    0    0  501    0  0.00000000000E+00 -0.00000000000E+00 -0.15437162236E+04  0.15437162236E+04  0.00000000000E+00 0. -1.
         24    2    1    2    0    0 -0.14625121268E+03 -0.10762788365E+03  0.18770856748E+03  0.27371115022E+03  0.81915254394E+02 0.  0.
        254    2    1    2    0    0  0.14625121268E+03  0.10762788365E+03 -0.13616292122E+04  0.16398006522E+04  0.89551040689E+03 0.  0.
         23    2    4    4    0    0  0.40547557842E+03 -0.23150210074E+03 -0.75739673153E+03  0.89448307448E+03  0.91904810822E+02 0.  0.
         23    2    4    4    0    0 -0.25922436574E+03  0.33912998439E+03 -0.60423248067E+03  0.74531757771E+03  0.90526144533E+02 0.  0.
          4    1    3    3  502    0 -0.81475023197E+02 -0.65401114592E+02  0.50106136376E+02  0.11587109259E+03  0.00000000000E+00 0. -1.
         -3    1    3    3    0  502 -0.64776189480E+02 -0.42226769054E+02  0.13760243110E+03  0.15784005763E+03  0.00000000000E+00 0.  1.
         11    1    5    5    0    0  0.37457490850E+03 -0.19558706370E+03 -0.63027870093E+03  0.75882270816E+03  0.00000000000E+00 0. -1.
        -11    1    5    5    0    0  0.30900669916E+02 -0.35915037043E+02 -0.12711803060E+03  0.13566036632E+03  0.00000000000E+00 0.  1.
          2    1    6    6  503    0 -0.15741036002E+03  0.25662051373E+03 -0.37089405146E+03  0.47769708699E+03  0.00000000000E+00 0. -1.
         -2    1    6    6    0  503 -0.10181400572E+03  0.82509470663E+02 -0.23333842921E+03  0.26762049072E+03  0.00000000000E+00 0.  1.
<mgrwt>
<rscale>  0 0.15111048E+04</rscale>
<asrwt>0</asrwt>
<pdfrwt beam="1">  1        2 0.23749480E+00 0.15111048E+04</pdfrwt>
<pdfrwt beam="2">  1       -1 0.56891627E-01 0.15111048E+04</pdfrwt>
<totfact> 0.41261406E+01</totfact>
</mgrwt>
</event>
<event>
12    6  0.1647231E-007  0.1674240E+04  0.7818608E-02  0.8776194E-01
          2   -1    0    0  501    0  0.00000000000E+00  0.00000000000E+00  0.22468760251E+04  0.22468760251E+04  0.00000000000E+00 0. -1.
         -1   -1    0    0    0  501 -0.00000000000E+00 -0.00000000000E+00 -0.31188625269E+03  0.31188625269E+03  0.00000000000E+00 0.  1.
         24    2    1    2    0    0  0.16297107222E+03  0.32901070811E+03 -0.17141906007E+02  0.37669879690E+03  0.82465278823E+02 0.  0.
        254    2    1    2    0    0 -0.16297107222E+03 -0.32901070811E+03  0.19521316784E+04  0.21820634809E+04  0.90320281684E+03 0.  0.
         23    2    4    4    0    0  0.11750504514E+02 -0.59221677817E+03  0.15481009589E+04  0.16595352383E+04  0.81128550071E+02 0.  0.
         23    2    4    4    0    0 -0.17472157673E+03  0.26320607006E+03  0.40403071949E+03  0.52252824254E+03  0.99949373492E+02 0.  0.
          2    1    3    3  502    0  0.64785980082E+02  0.16998535945E+03  0.28957918004E+02  0.18420316680E+03  0.00000000000E+00 0. -1.
         -1    1    3    3    0  502  0.98185092133E+02  0.15902534866E+03 -0.46099824011E+02  0.19249563010E+03  0.00000000000E+00 0.  1.
         11    1    5    5    0    0  0.41180968696E+02 -0.19004273820E+03  0.48577686964E+03  0.52325068715E+03  0.00000000000E+00 0. -1.
        -11    1    5    5    0    0 -0.29430464182E+02 -0.40217403997E+03  0.10623240892E+04  0.11362845512E+04  0.00000000000E+00 0.  1.
          3    1    6    6  503    0 -0.17962050988E+03  0.25097474614E+03  0.40514227402E+03  0.50930552027E+03  0.00000000000E+00 0. -1.
         -3    1    6    6    0  503  0.48989331501E+01  0.12231323917E+02 -0.11115545303E+01  0.13222722271E+02  0.00000000000E+00 0.  1.
<mgrwt>
<rscale>  0 0.16742398E+04</rscale>
<asrwt>0</asrwt>
<pdfrwt beam="1">  1        2 0.34567322E+00 0.16742398E+04</pdfrwt>
<pdfrwt beam="2">  1       -1 0.47982502E-01 0.16742398E+04</pdfrwt>
<totfact> 0.22916649E+01</totfact>
</mgrwt>
</event>
<event>
12    6  0.1647231E-007  0.2398080E+04  0.7818608E-02  0.8440223E-01
         -1   -1    0    0    0  501 -0.00000000000E+00  0.00000000000E+00  0.59235277082E+03  0.59235277082E+03  0.00000000000E+00 0.  1.
          2   -1    0    0  501    0  0.00000000000E+00 -0.00000000000E+00 -0.24270955756E+04  0.24270955756E+04  0.00000000000E+00 0. -1.
         24    2    1    2    0    0 -0.32978930033E+03  0.47302760228E+03 -0.18641156331E+04  0.19528840364E+04  0.79453576890E+02 0.  0.
        254    2    1    2    0    0  0.32978930033E+03 -0.47302760228E+03  0.29372828341E+02  0.10665643100E+04  0.89676115506E+03 0.  0.
         23    2    4    4    0    0  0.51245641457E+02 -0.22739774395E+03 -0.41238470222E+03  0.48241621196E+03  0.91260118468E+02 0.  0.
         23    2    4    4    0    0  0.27854365888E+03 -0.24562985833E+03  0.44175753056E+03  0.58414809805E+03  0.90325452924E+02 0.  0.
          4    1    3    3  502    0 -0.13347063581E+03  0.16480755915E+03 -0.80639703798E+03  0.83381780087E+03  0.00000000000E+00 0. -1.
         -3    1    3    3    0  502 -0.19631866452E+03  0.30822004312E+03 -0.10577185951E+04  0.11190662355E+04  0.00000000000E+00 0.  1.
         11    1    5    5    0    0 -0.12242971308E+02 -0.17322064601E+02 -0.86854788223E+01  0.22921208757E+02  0.00000000000E+00 0.  1.
        -11    1    5    5    0    0  0.63488612764E+02 -0.21007567934E+03 -0.40369922339E+03  0.45949500321E+03  0.00000000000E+00 0. -1.
          2    1    6    6  503    0  0.16915890895E+03 -0.20427227037E+03  0.31048226456E+03  0.40833948318E+03  0.00000000000E+00 0. -1.
         -2    1    6    6    0  503  0.10938474992E+03 -0.41357587957E+02  0.13127526600E+03  0.17580861487E+03  0.00000000000E+00 0.  1.
<mgrwt>
<rscale>  0 0.23980799E+04</rscale>
<asrwt>0</asrwt>
<pdfrwt beam="1">  1        2 0.37339932E+00 0.23980799E+04</pdfrwt>
<pdfrwt beam="2">  1       -1 0.91131195E-01 0.23980799E+04</pdfrwt>
<totfact> 0.46103610E+00</totfact>
</mgrwt>
</event>
<event>
12    6  0.1647231E-007  0.1879980E+04  0.7818608E-02  0.8664886E-01
         -1   -1    0    0    0  501 -0.00000000000E+00  0.00000000000E+00  0.51058018966E+03  0.51058018966E+03  0.00000000000E+00 0.  1.
          2   -1    0    0  501    0  0.00000000000E+00 -0.00000000000E+00 -0.17305434637E+04  0.17305434637E+04  0.00000000000E+00 0. -1.
         24    2    1    2    0    0  0.20883745697E+03 -0.45324939797E+03 -0.10907317349E+04  0.12022518262E+04  0.81643346424E+02 0.  0.
        254    2    1    2    0    0 -0.20883745697E+03  0.45324939797E+03 -0.12923153917E+03  0.10388718271E+04  0.90194555395E+03 0.  0.
         23    2    4    4    0    0 -0.11817907874E+02  0.66356216859E+03  0.74624119760E+02  0.67420027670E+03  0.92319225128E+02 0.  0.
         23    2    4    4    0    0 -0.19701954910E+03 -0.21031277062E+03 -0.20385565893E+03  0.36467155042E+03  0.91542590079E+02 0.  0.
          4    1    3    3  502    0  0.17566193152E+03 -0.31645663527E+03 -0.84111457945E+03  0.91568316134E+03  0.00000000000E+00 0. -1.
         -3    1    3    3    0  502  0.33175525459E+02 -0.13679276270E+03 -0.24961715540E+03  0.28656866487E+03  0.00000000000E+00 0.  1.
         11    1    5    5    0    0 -0.34367741838E+02  0.96615375749E+02  0.15961224548E+02  0.10378069762E+03  0.00000000000E+00 0.  1.
        -11    1    5    5    0    0  0.22549833963E+02  0.56694679284E+03  0.58662895212E+02  0.57041957908E+03  0.00000000000E+00 0. -1.
          3    1    6    6  503    0 -0.18987398928E+03 -0.15336867935E+03 -0.15359908439E+03  0.28838648085E+03  0.00000000000E+00 0. -1.
         -3    1    6    6    0  503 -0.71455598176E+01 -0.56944091266E+02 -0.50256574543E+02  0.76285069575E+02  0.00000000000E+00 0.  1.
<mgrwt>
<rscale>  0 0.18799800E+04</rscale>
<asrwt>0</asrwt>
<pdfrwt beam="1">  1        2 0.26623745E+00 0.18799800E+04</pdfrwt>
<pdfrwt beam="2">  1       -1 0.78550800E-01 0.18799800E+04</pdfrwt>
<totfact> 0.16340242E+01</totfact>
</mgrwt>
</event>
<event>
12    6  0.1647231E-007  0.2043513E+04  0.7818608E-02  0.8586543E-01
         -1   -1    0    0    0  501 -0.00000000000E+00  0.00000000000E+00  0.18076246663E+03  0.18076246663E+03  0.00000000000E+00 0.  1.
          2   -1    0    0  501    0  0.00000000000E+00 -0.00000000000E+00 -0.57754576749E+04  0.57754576749E+04  0.00000000000E+00 0. -1.
         24    2    1    2    0    0  0.70743380322E+03 -0.22492566057E+03 -0.33010846642E+04  0.33844632563E+04  0.79858840830E+02 0.  0.
        254    2    1    2    0    0 -0.70743380322E+03  0.22492566057E+03 -0.22936105440E+04  0.25717568852E+04  0.89567293697E+03 0.  0.
         23    2    4    4    0    0 -0.11765399315E+03 -0.60832834416E+01  0.38707447735E+02  0.15334903056E+03  0.90211918396E+02 0.  0.
         23    2    4    4    0    0 -0.58977981007E+03  0.23100894401E+03 -0.23323179918E+04  0.24184078546E+04  0.88226866487E+02 0.  0.
          4    1    3    3  502    0  0.59772229871E+03 -0.20075943021E+03 -0.26686760964E+04  0.27421539714E+04  0.00000000000E+00 0. -1.
         -3    1    3    3    0  502  0.10971150450E+03 -0.24166230363E+02 -0.63240856778E+03  0.64230928493E+03  0.00000000000E+00 0.  1.
         11    1    5    5    0    0 -0.13218705212E+03 -0.11635236232E+02  0.36573013478E+02  0.13764585277E+03  0.00000000000E+00 0. -1.
        -11    1    5    5    0    0  0.14533058972E+02  0.55519527908E+01  0.21344342571E+01  0.15703177782E+02  0.00000000000E+00 0.  1.
          4    1    6    6  503    0  0.25850814240E+01 -0.76701333325E+00 -0.45056846154E+01  0.52509188982E+01  0.00000000000E+00 0. -1.
         -4    1    6    6    0  503 -0.59236489149E+03  0.23177595735E+03 -0.23278123072E+04  0.24131569357E+04  0.00000000000E+00 0.  1.
<mgrwt>
<rscale>  0 0.20435126E+04</rscale>
<asrwt>0</asrwt>
<pdfrwt beam="1">  1        2 0.88853185E+00 0.20435126E+04</pdfrwt>
<pdfrwt beam="2">  1       -1 0.27809613E-01 0.20435126E+04</pdfrwt>
<totfact> 0.19835834E-02</totfact>
</mgrwt>
</event>
<event>
12    6  0.1647231E-007  0.1968287E+04  0.7818608E-02  0.8621593E-01
          2   -1    0    0  501    0  0.00000000000E+00  0.00000000000E+00  0.13276785361E+04  0.13276785361E+04  0.00000000000E+00 0. -1.
         -1   -1    0    0    0  501 -0.00000000000E+00 -0.00000000000E+00 -0.72949759484E+03  0.72949759484E+03  0.00000000000E+00 0.  1.
         24    2    1    2    0    0  0.77113687744E+03  0.68442235635E+02  0.27819391352E+03  0.82651666239E+03  0.80009476375E+02 0.  0.
        254    2    1    2    0    0 -0.77113687744E+03 -0.68442235635E+02  0.31998702777E+03  0.12306594686E+04  0.90155122222E+03 0.  0.
         23    2    4    4    0    0 -0.30746145861E+03 -0.43023440034E+03 -0.35068349853E+02  0.53770398842E+03  0.90893356408E+02 0.  0.
         23    2    4    4    0    0 -0.46367541883E+03  0.36179216470E+03  0.35505537762E+03  0.69295548015E+03  0.90744210964E+02 0.  0.
          2    1    3    3  502    0  0.34553867516E+03  0.40433117275E+02  0.16609991354E+03  0.38551393526E+03  0.00000000000E+00 0. -1.
         -1    1    3    3    0  502  0.42559820229E+03  0.28009118361E+02  0.11209399998E+03  0.44100272713E+03  0.00000000000E+00 0.  1.
         11    1    5    5    0    0 -0.10541835604E+03 -0.97266875737E+02 -0.37372373993E+02  0.14822472548E+03  0.00000000000E+00 0. -1.
        -11    1    5    5    0    0 -0.20204310257E+03 -0.33296752460E+03  0.23040241401E+01  0.38947926295E+03  0.00000000000E+00 0.  1.
          3    1    6    6  503    0 -0.10171185611E+03  0.70809747640E+02  0.11970482240E+03  0.17230370437E+03  0.00000000000E+00 0. -1.
         -3    1    6    6    0  503 -0.36196356272E+03  0.29098241706E+03  0.23535055522E+03  0.52065177578E+03  0.00000000000E+00 0.  1.
<mgrwt>
<rscale>  0 0.19682869E+04</rscale>
<asrwt>0</asrwt>
<pdfrwt beam="1">  1        2 0.20425824E+00 0.19682869E+04</pdfrwt>
<pdfrwt beam="2">  1       -1 0.11223040E+00 0.19682869E+04</pdfrwt>
<totfact> 0.12306503E+01</totfact>
</mgrwt>
</event>
<event>
12    6  0.1647231E-007  0.2125185E+04  0.7818608E-02  0.8550230E-01
          2   -1    0    0  501    0  0.00000000000E+00  0.00000000000E+00  0.33646243306E+04  0.33646243306E+04  0.00000000000E+00 0. -1.
         -1   -1    0    0    0  501 -0.00000000000E+00 -0.00000000000E+00 -0.33558055767E+03  0.33558055767E+03  0.00000000000E+00 0.  1.
         24    2    1    2    0    0 -0.44763157758E+03 -0.26502338357E+03  0.27016008961E+02  0.52696772253E+03  0.79710054299E+02 0.  0.
        254    2    1    2    0    0  0.44763157758E+03  0.26502338357E+03  0.30020277640E+04  0.31732371658E+04  0.88693404001E+03 0.  0.
         23    2    4    4    0    0  0.30315860025E+03 -0.21006341369E+03  0.53939719320E+03  0.65943346098E+03  0.88720813553E+02 0.  0.
         23    2    4    4    0    0  0.14447297734E+03  0.47508679726E+03  0.24626305708E+04  0.25138037048E+04  0.89887884979E+02 0.  0.
          2    1    3    3  502    0 -0.62699731043E+02 -0.52432821428E+02  0.30441474189E+02  0.87218922182E+02  0.00000000000E+00 0. -1.
         -1    1    3    3    0  502 -0.38493184654E+03 -0.21259056214E+03 -0.34254652282E+01  0.43974880035E+03  0.00000000000E+00 0.  1.
         11    1    5    5    0    0  0.11118569858E+03 -0.38404948016E+02  0.12592762312E+03  0.17232227327E+03  0.00000000000E+00 0. -1.
        -11    1    5    5    0    0  0.19197290167E+03 -0.17165846567E+03  0.41346957008E+03  0.48711118771E+03  0.00000000000E+00 0.  1.
          3    1    6    6  503    0  0.10165657852E+02  0.13575067176E+03  0.80974983849E+03  0.82111289505E+03  0.00000000000E+00 0. -1.
         -3    1    6    6    0  503  0.13430731949E+03  0.33933612550E+03  0.16528807323E+04  0.16926908097E+04  0.00000000000E+00 0.  1.
<mgrwt>
<rscale>  0 0.21251847E+04</rscale>
<asrwt>0</asrwt>
<pdfrwt beam="1">  1        2 0.51763449E+00 0.21251847E+04</pdfrwt>
<pdfrwt beam="2">  1       -1 0.51627780E-01 0.21251847E+04</pdfrwt>
<totfact> 0.39953636E+00</totfact>
</mgrwt>
</event>
<event>
12    6  0.1647231E-007  0.2487225E+04  0.7818608E-02  0.8407551E-01
          2   -1    0    0  501    0  0.00000000000E+00  0.00000000000E+00  0.12698269411E+04  0.12698269411E+04  0.00000000000E+00 0. -1.
         -1   -1    0    0    0  501 -0.00000000000E+00 -0.00000000000E+00 -0.12179389107E+04  0.12179389107E+04  0.00000000000E+00 0.  1.
         24    2    1    2    0    0 -0.25364203477E+03  0.10436551790E+04 -0.45857341529E+02  0.10780347800E+04  0.80657775167E+02 0.  0.
        254    2    1    2    0    0  0.25364203477E+03 -0.10436551790E+04  0.97745371938E+02  0.14097310718E+04  0.90787505883E+03 0.  0.
         23    2    4    4    0    0  0.53677451029E+03 -0.91008588615E+03 -0.27204710524E+02  0.10605665803E+04  0.87625224330E+02 0.  0.
         23    2    4    4    0    0 -0.28313247552E+03 -0.13356929286E+03  0.12495008246E+03  0.34916449144E+03  0.91096455959E+02 0.  0.
          2    1    3    3  502    0 -0.78792532487E+02  0.26844363400E+03  0.20914588061E+02  0.28054886883E+03  0.00000000000E+00 0. -1.
         -1    1    3    3    0  502 -0.17484950229E+03  0.77521154501E+03 -0.66771929591E+02  0.79748591119E+03  0.00000000000E+00 0.  1.
         11    1    5    5    0    0  0.34928422660E+03 -0.65733887709E+03  0.34314083191E+01  0.74438272740E+03  0.00000000000E+00 0. -1.
        -11    1    5    5    0    0  0.18749028369E+03 -0.25274700905E+03 -0.30636118844E+02  0.31618385291E+03  0.00000000000E+00 0.  1.
          1    1    6    6  503    0 -0.92444915237E+01  0.96311496583E+01  0.17378884500E+02  0.21914499623E+02  0.00000000000E+00 0. -1.
         -1    1    6    6    0  503 -0.27388798399E+03 -0.14320044252E+03  0.10757119796E+03  0.32724999182E+03  0.00000000000E+00 0.  1.
<mgrwt>
<rscale>  0 0.24872247E+04</rscale>
<asrwt>0</asrwt>
<pdfrwt beam="1">  1        2 0.19535799E+00 0.24872247E+04</pdfrwt>
<pdfrwt beam="2">  1       -1 0.18737522E+00 0.24872247E+04</pdfrwt>
<totfact> 0.32301491E+00</totfact>
</mgrwt>
</event>
<event>
12    6  0.1647231E-007  0.2671400E+04  0.7818608E-02  0.8344345E-01
          2   -1    0    0  501    0  0.00000000000E+00  0.00000000000E+00  0.19232416872E+04  0.19232416872E+04  0.00000000000E+00 0. -1.
         -1   -1    0    0    0  501 -0.00000000000E+00 -0.00000000000E+00 -0.92764942774E+03  0.92764942774E+03  0.00000000000E+00 0.  1.
         24    2    1    2    0    0  0.16638714179E+03  0.26586297290E+03  0.16589561154E+04  0.16902393783E+04  0.80037252848E+02 0.  0.
        254    2    1    2    0    0 -0.16638714179E+03 -0.26586297290E+03 -0.66336385596E+03  0.11606517366E+04  0.89927362187E+03 0.  0.
         23    2    4    4    0    0  0.15881338798E+03  0.24015999147E+03 -0.39009827316E+03  0.49371375626E+03  0.93156302483E+02 0.  0.
         23    2    4    4    0    0 -0.32520052977E+03 -0.50602296437E+03 -0.27326558280E+03  0.66693798035E+03  0.91200690005E+02 0.  0.
          2    1    3    3  502    0  0.11675464279E+03  0.20849437310E+03  0.14057031641E+04  0.14258691861E+04  0.00000000000E+00 0. -1.
         -1    1    3    3    0  502  0.49632498997E+02  0.57368599799E+02  0.25325295126E+03  0.26437019220E+03  0.00000000000E+00 0.  1.
         11    1    5    5    0    0  0.10805965451E+03  0.21887887269E+03 -0.34466093730E+03  0.42234584352E+03  0.00000000000E+00 0. -1.
        -11    1    5    5    0    0  0.50753733474E+02  0.21281118782E+02 -0.45437335860E+02  0.71367912736E+02  0.00000000000E+00 0.  1.
          2    1    6    6  503    0 -0.31836638857E+03 -0.46316464059E+03 -0.26970187484E+03  0.62339212616E+03  0.00000000000E+00 0. -1.
         -2    1    6    6    0  503 -0.68341412015E+01 -0.42858323779E+02 -0.35637079693E+01  0.43545854195E+02  0.00000000000E+00 0.  1.
<mgrwt>
<rscale>  0 0.26713997E+04</rscale>
<asrwt>0</asrwt>
<pdfrwt beam="1">  1        2 0.29588334E+00 0.26713997E+04</pdfrwt>
<pdfrwt beam="2">  1       -1 0.14271530E+00 0.26713997E+04</pdfrwt>
<totfact> 0.29391848E+00</totfact>
</mgrwt>
</event>
<event>
12    6  0.1647231E-007  0.1666523E+04  0.7818608E-02  0.8780691E-01
          2   -1    0    0  501    0  0.00000000000E+00  0.00000000000E+00  0.63770409683E+03  0.63770409683E+03  0.00000000000E+00 0. -1.
         -1   -1    0    0    0  501 -0.00000000000E+00 -0.00000000000E+00 -0.10887879452E+04  0.10887879452E+04  0.00000000000E+00 0.  1.
         24    2    1    2    0    0 -0.21778457239E+03  0.48380292788E+03 -0.45947463699E+03  0.70743294822E+03  0.88594814754E+02 0.  0.
        254    2    1    2    0    0  0.21778457239E+03 -0.48380292788E+03  0.83907886551E+01  0.10190590938E+04  0.87000898745E+03 0.  0.
         23    2    4    4    0    0 -0.30374918641E+03 -0.34837086121E+03 -0.31261579549E+02  0.47155210323E+03  0.88081067869E+02 0.  0.
         23    2    4    4    0    0  0.52153375880E+03 -0.13543206667E+03  0.39652368204E+02  0.54750699054E+03  0.88613137492E+02 0.  0.
          2    1    3    3  502    0 -0.98735251547E+02  0.14861140477E+03 -0.19408157085E+03  0.26363166666E+03  0.00000000000E+00 0. -1.
         -1    1    3    3    0  502 -0.11904932084E+03  0.33519152311E+03 -0.26539306614E+03  0.44380128156E+03  0.00000000000E+00 0.  1.
         11    1    5    5    0    0 -0.19863196214E+03 -0.16314187313E+03 -0.27874326324E+02  0.25854768462E+03  0.00000000000E+00 0.  1.
        -11    1    5    5    0    0 -0.10511722426E+03 -0.18522898808E+03 -0.33872532249E+01  0.21300441861E+03  0.00000000000E+00 0. -1.
          1    1    6    6  503    0  0.33668058198E+03 -0.44766553154E+02  0.36422585122E+02  0.34159107610E+03  0.00000000000E+00 0. -1.
         -1    1    6    6    0  503  0.18485317681E+03 -0.90665513512E+02  0.32297830822E+01  0.20591591443E+03  0.00000000000E+00 0.  1.
<mgrwt>
<rscale>  0 0.16665228E+04</rscale>
<asrwt>0</asrwt>
<pdfrwt beam="1">  1        2 0.98108323E-01 0.16665228E+04</pdfrwt>
<pdfrwt beam="2">  1       -1 0.16750584E+00 0.16665228E+04</pdfrwt>
<totfact> 0.12879142E+01</totfact>
</mgrwt>
</event>
<event>
12    6  0.1647231E-007  0.1387620E+04  0.7818608E-02  0.8962829E-01
          2   -1    0    0  501    0  0.00000000000E+00  0.00000000000E+00  0.10822096183E+04  0.10822096183E+04  0.00000000000E+00 0. -1.
         -1   -1    0    0    0  501 -0.00000000000E+00 -0.00000000000E+00 -0.44480524234E+03  0.44480524234E+03  0.00000000000E+00 0.  1.
         24    2    1    2    0    0  0.16641487023E+03 -0.31698954575E+03  0.35021521415E+03  0.50704014791E+03  0.79137438863E+02 0.  0.
        254    2    1    2    0    0 -0.16641487023E+03  0.31698954575E+03  0.28718916181E+03  0.10199747127E+04  0.91087568790E+03 0.  0.
         23    2    4    4    0    0  0.40751819152E+02 -0.13001413907E+03  0.46165056807E+03  0.48969464783E+03  0.90084482533E+02 0.  0.
         23    2    4    4    0    0 -0.20716668938E+03  0.44700368481E+03 -0.17446140626E+03  0.53028006490E+03  0.89609338415E+02 0.  0.
          4    1    3    3  502    0  0.15447235109E+03 -0.22761190532E+03  0.24391246589E+03  0.36764409108E+03  0.00000000000E+00 0. -1.
         -3    1    3    3    0  502  0.11942519137E+02 -0.89377640426E+02  0.10630274826E+03  0.13939605683E+03  0.00000000000E+00 0.  1.
         11    1    5    5    0    0  0.22505863839E+02 -0.63765808450E+02  0.36437719612E+03  0.37059861479E+03  0.00000000000E+00 0. -1.
        -11    1    5    5    0    0  0.18245955314E+02 -0.66248330617E+02  0.97273371953E+02  0.11909603304E+03  0.00000000000E+00 0.  1.
          4    1    6    6  503    0 -0.18399573845E+03  0.42920498915E+03 -0.18012898598E+03  0.50051753822E+03  0.00000000000E+00 0. -1.
         -4    1    6    6    0  503 -0.23170950932E+02  0.17798695664E+02  0.56675797186E+01  0.29762526678E+02  0.00000000000E+00 0.  1.
<mgrwt>
<rscale>  0 0.13876203E+04</rscale>
<asrwt>0</asrwt>
<pdfrwt beam="1">  1        2 0.16649379E+00 0.13876203E+04</pdfrwt>
<pdfrwt beam="2">  1       -1 0.68431576E-01 0.13876203E+04</pdfrwt>
<totfact> 0.53673647E+01</totfact>
</mgrwt>
</event>
<event>
12    6  0.1647231E-007  0.2066313E+04  0.7818608E-02  0.8576230E-01
          2   -1    0    0  501    0  0.00000000000E+00  0.00000000000E+00  0.16215289254E+04  0.16215289254E+04  0.00000000000E+00 0. -1.
         -1   -1    0    0    0  501 -0.00000000000E+00 -0.00000000000E+00 -0.65827541935E+03  0.65827541935E+03  0.00000000000E+00 0.  1.
         24    2    1    2    0    0 -0.80034336927E+03 -0.14202522521E+03  0.12463745720E+03  0.82622778820E+03  0.79982428898E+02 0.  0.
        254    2    1    2    0    0  0.80034336927E+03  0.14202522521E+03  0.83861604887E+03  0.14535765566E+04  0.86538272174E+03 0.  0.
         23    2    4    4    0    0  0.61314863340E+03  0.18716368892E+03  0.99681237415E+03  0.11887654553E+04  0.92449474472E+02 0.  0.
         23    2    4    4    0    0  0.18719473586E+03 -0.45138463707E+02 -0.15819632528E+03  0.26481110129E+03  0.89551616361E+02 0.  0.
          2    1    3    3  502    0 -0.72304139246E+02  0.61757519540E+01 -0.17282970081E+01  0.72587984370E+02  0.00000000000E+00 0. -1.
         -1    1    3    3    0  502 -0.72803923002E+03 -0.14820097717E+03  0.12636575421E+03  0.75363980383E+03  0.00000000000E+00 0.  1.
         11    1    5    5    0    0  0.15952439702E+03  0.92005417151E+01  0.26937841291E+03  0.31320506470E+03  0.00000000000E+00 0.  1.
        -11    1    5    5    0    0  0.45362423639E+03  0.17796314721E+03  0.72743396125E+03  0.87556039059E+03  0.00000000000E+00 0. -1.
          2    1    6    6  503    0  0.13416673761E+03  0.11022383721E+02 -0.91622103612E+02  0.16283984861E+03  0.00000000000E+00 0. -1.
         -2    1    6    6    0  503  0.53027998247E+02 -0.56160847428E+02 -0.66574221668E+02  0.10197125268E+03  0.00000000000E+00 0.  1.
<mgrwt>
<rscale>  0 0.20663133E+04</rscale>
<asrwt>0</asrwt>
<pdfrwt beam="1">  1        2 0.24946599E+00 0.20663133E+04</pdfrwt>
<pdfrwt beam="2">  1       -1 0.10127314E+00 0.20663133E+04</pdfrwt>
<totfact> 0.10569747E+01</totfact>
</mgrwt>
</event>
<event>
12    6  0.1647231E-007  0.1493196E+04  0.7818608E-02  0.8888990E-01
          2   -1    0    0  501    0  0.00000000000E+00  0.00000000000E+00  0.23463021855E+04  0.23463021855E+04  0.00000000000E+00 0. -1.
         -1   -1    0    0    0  501 -0.00000000000E+00 -0.00000000000E+00 -0.23756908908E+03  0.23756908908E+03  0.00000000000E+00 0.  1.
         24    2    1    2    0    0 -0.10298619632E+03  0.45727528283E+03  0.71746391592E+03  0.86068173387E+03  0.79446431346E+02 0.  0.
        254    2    1    2    0    0  0.10298619632E+03 -0.45727528283E+03  0.13912691805E+04  0.17231895407E+04  0.90224465622E+03 0.  0.
         23    2    4    4    0    0 -0.25275622495E+03 -0.30645988810E+01  0.68666832294E+02  0.27738235927E+03  0.91272878539E+02 0.  0.
         23    2    4    4    0    0  0.35574242127E+03 -0.45421068395E+03  0.13226023482E+04  0.14458071815E+04  0.90672039314E+02 0.  0.
          2    1    3    3  502    0 -0.11328731057E+03  0.40703476937E+03  0.66007890405E+03  0.78371900435E+03  0.00000000000E+00 0. -1.
         -1    1    3    3    0  502  0.10301114252E+02  0.50240513466E+02  0.57385011875E+02  0.76962729525E+02  0.00000000000E+00 0.  1.
         11    1    5    5    0    0 -0.55570955730E+02 -0.34882100593E+02 -0.16446848302E+01  0.65632286649E+02  0.00000000000E+00 0. -1.
        -11    1    5    5    0    0 -0.19718526922E+03  0.31817501712E+02  0.70311517124E+02  0.21175007262E+03  0.00000000000E+00 0.  1.
          4    1    6    6  503    0  0.22630082914E+03 -0.24703994573E+03  0.85376715256E+03  0.91714728962E+03  0.00000000000E+00 0. -1.
         -4    1    6    6    0  503  0.12944159213E+03 -0.20717073822E+03  0.46883519565E+03  0.52865989183E+03  0.00000000000E+00 0.  1.
<mgrwt>
<rscale>  0 0.14931964E+04</rscale>
<asrwt>0</asrwt>
<pdfrwt beam="1">  1        2 0.36096955E+00 0.14931964E+04</pdfrwt>
<pdfrwt beam="2">  1       -1 0.36549092E-01 0.14931964E+04</pdfrwt>
<totfact> 0.33780012E+01</totfact>
</mgrwt>
</event>
<event>
12    6  0.1647231E-007  0.1245730E+04  0.7818608E-02  0.9073745E-01
         -1   -1    0    0    0  501 -0.00000000000E+00  0.00000000000E+00  0.41726611180E+03  0.41726611180E+03  0.00000000000E+00 0.  1.
          2   -1    0    0  501    0  0.00000000000E+00 -0.00000000000E+00 -0.92976819585E+03  0.92976819585E+03  0.00000000000E+00 0. -1.
         24    2    1    2    0    0  0.20937977478E+03  0.87503151425E+02 -0.32839522958E+03  0.40682815345E+03  0.78543160317E+02 0.  0.
        254    2    1    2    0    0 -0.20937977478E+03 -0.87503151425E+02 -0.18410685447E+03  0.94020615419E+03  0.89364175536E+03 0.  0.
         23    2    4    4    0    0 -0.40026490783E+03  0.27600539060E+03 -0.44273674458E+02  0.49709092369E+03  0.93532112579E+02 0.  0.
         23    2    4    4    0    0  0.19088513305E+03 -0.36350854203E+03 -0.13983318001E+03  0.44311523050E+03  0.90676320651E+02 0.  0.
          4    1    3    3  502    0  0.11734191529E+03  0.89598921931E+02 -0.19019985304E+03  0.24077598716E+03  0.00000000000E+00 0. -1.
         -3    1    3    3    0  502  0.92037859493E+02 -0.20957705056E+01 -0.13819537654E+03  0.16605216629E+03  0.00000000000E+00 0.  1.
         11    1    5    5    0    0 -0.33171580060E+03  0.20244843742E+03 -0.36037812641E+01  0.38863058220E+03  0.00000000000E+00 0. -1.
        -11    1    5    5    0    0 -0.68549107225E+02  0.73556953187E+02 -0.40669893194E+02  0.10846034149E+03  0.00000000000E+00 0.  1.
          1    1    6    6  503    0  0.75267533540E+02 -0.22400299567E+03 -0.10509799010E+03  0.25862739839E+03  0.00000000000E+00 0. -1.
         -1    1    6    6    0  503  0.11561759951E+03 -0.13950554636E+03 -0.34735189913E+02  0.18448783211E+03  0.00000000000E+00 0.  1.
<mgrwt>
<rscale>  0 0.12457299E+04</rscale>
<asrwt>0</asrwt>
<pdfrwt beam="1">  1        2 0.14304126E+00 0.12457299E+04</pdfrwt>
<pdfrwt beam="2">  1       -1 0.64194787E-01 0.12457299E+04</pdfrwt>
<totfact> 0.77359450E+01</totfact>
</mgrwt>
</event>
<event>
12    6  0.1647231E-007  0.1488780E+04  0.7818608E-02  0.8891949E-01
          2   -1    0    0  501    0  0.00000000000E+00  0.00000000000E+00  0.10397823800E+04  0.10397823800E+04  0.00000000000E+00 0. -1.
         -1   -1    0    0    0  501 -0.00000000000E+00 -0.00000000000E+00 -0.53291561669E+03  0.53291561669E+03  0.00000000000E+00 0.  1.
         24    2    1    2    0    0 -0.12536864469E+02 -0.32214229347E+03 -0.19965171580E+03  0.38725287036E+03  0.78556653215E+02 0.  0.
        254    2    1    2    0    0  0.12536864469E+02  0.32214229347E+03  0.70651847914E+03  0.11854451264E+04  0.89564443618E+03 0.  0.
         23    2    4    4    0    0  0.13281265005E+03  0.60562412495E+03  0.52323997032E+03  0.81581330466E+03  0.85740893410E+02 0.  0.
         23    2    4    4    0    0 -0.12027578558E+03 -0.28348183147E+03  0.18327850882E+03  0.36963182171E+03  0.90600543326E+02 0.  0.
          2    1    3    3  502    0  0.73551162657E+00  0.44867210747E+01 -0.77769423671E+00  0.46126404240E+01  0.00000000000E+00 0. -1.
         -1    1    3    3    0  502 -0.13272376096E+02 -0.32662901455E+03 -0.19887402156E+03  0.38264022993E+03  0.00000000000E+00 0.  1.
         11    1    5    5    0    0  0.11730114814E+03  0.58882458506E+03  0.48751869508E+03  0.77340056204E+03  0.00000000000E+00 0.  1.
        -11    1    5    5    0    0  0.15511501902E+02  0.16799539889E+02  0.35721275240E+02  0.42412742620E+02  0.00000000000E+00 0. -1.
          3    1    6    6  503    0 -0.10504891149E+03 -0.14851404925E+03  0.78670050699E+02  0.19819352539E+03  0.00000000000E+00 0. -1.
         -3    1    6    6    0  503 -0.15226874085E+02 -0.13496778223E+03  0.10460845812E+03  0.17143829632E+03  0.00000000000E+00 0.  1.
<mgrwt>
<rscale>  0 0.14887797E+04</rscale>
<asrwt>0</asrwt>
<pdfrwt beam="1">  1        2 0.15996652E+00 0.14887797E+04</pdfrwt>
<pdfrwt beam="2">  1       -1 0.81987018E-01 0.14887797E+04</pdfrwt>
<totfact> 0.38799718E+01</totfact>
</mgrwt>
</event>
<event>
12    6  0.1647231E-007  0.2277566E+04  0.7818608E-02  0.8486819E-01
         -1   -1    0    0    0  501 -0.00000000000E+00  0.00000000000E+00  0.65354025469E+03  0.65354025469E+03  0.00000000000E+00 0.  1.
          2   -1    0    0  501    0  0.00000000000E+00 -0.00000000000E+00 -0.19843102482E+04  0.19843102482E+04  0.00000000000E+00 0. -1.
         24    2    1    2    0    0 -0.67875779705E+03 -0.57814018444E+03 -0.93282620488E+03  0.12927579917E+04  0.78104268723E+02 0.  0.
        254    2    1    2    0    0  0.67875779705E+03  0.57814018444E+03 -0.39794378862E+03  0.13450925111E+04  0.92517910951E+03 0.  0.
         23    2    4    4    0    0  0.61433882185E+03 -0.31593390482E+02 -0.37143104119E+03  0.72465613823E+03  0.93569065204E+02 0.  0.
         23    2    4    4    0    0  0.64418975208E+02  0.60973357492E+03 -0.26512747424E+02  0.62043637290E+03  0.91178562676E+02 0.  0.
          2    1    3    3  502    0 -0.37012916837E+03 -0.33974775698E+03 -0.57389257934E+03  0.76274296606E+03  0.00000000000E+00 0. -1.
         -1    1    3    3    0  502 -0.30862862868E+03 -0.23839242746E+03 -0.35893362555E+03  0.53001502569E+03  0.00000000000E+00 0.  1.
         11    1    5    5    0    0  0.34312520070E+03  0.11140145339E+02 -0.16353171511E+03  0.38026520751E+03  0.00000000000E+00 0.  1.
        -11    1    5    5    0    0  0.27121362115E+03 -0.42733535821E+02 -0.20789932608E+03  0.34439093072E+03  0.00000000000E+00 0. -1.
          4    1    6    6  503    0  0.51060753777E+02  0.21342498604E+03  0.23751849418E+02  0.22072964366E+03  0.00000000000E+00 0. -1.
         -4    1    6    6    0  503  0.13358221431E+02  0.39630858888E+03 -0.50264596842E+02  0.39970672923E+03  0.00000000000E+00 0.  1.
<mgrwt>
<rscale>  0 0.22775659E+04</rscale>
<asrwt>0</asrwt>
<pdfrwt beam="1">  1        2 0.30527850E+00 0.22775659E+04</pdfrwt>
<pdfrwt beam="2">  1       -1 0.10054466E+00 0.22775659E+04</pdfrwt>
<totfact> 0.66330051E+00</totfact>
</mgrwt>
</event>
<event>
12    6  0.1647231E-007  0.1695444E+04  0.7818608E-02  0.8763967E-01
         -1   -1    0    0    0  501 -0.00000000000E+00  0.00000000000E+00  0.48575859721E+03  0.48575859721E+03  0.00000000000E+00 0.  1.
          2   -1    0    0  501    0  0.00000000000E+00 -0.00000000000E+00 -0.14794026973E+04  0.14794026973E+04  0.00000000000E+00 0. -1.
         24    2    1    2    0    0  0.23777867755E+03  0.10355190908E+03  0.27834500494E+03  0.38866571074E+03  0.79519780924E+02 0.  0.
        254    2    1    2    0    0 -0.23777867755E+03 -0.10355190908E+03 -0.12719891050E+04  0.15764955837E+04  0.89449446334E+03 0.  0.
         23    2    4    4    0    0 -0.54118645925E+03 -0.19042354593E+03 -0.96769501759E+03  0.11286409697E+04  0.90845368361E+02 0.  0.
         23    2    4    4    0    0  0.30340778170E+03  0.86871636842E+02 -0.30429408740E+03  0.44785461400E+03  0.91519945236E+02 0.  0.
          2    1    3    3  502    0  0.14741139164E+03  0.50600051966E+02  0.21737404714E+03  0.26747328841E+03  0.00000000000E+00 0. -1.
         -1    1    3    3    0  502  0.90367285909E+02  0.52951857118E+02  0.60970957802E+02  0.12119242233E+03  0.00000000000E+00 0.  1.
         11    1    5    5    0    0 -0.38773798950E+03 -0.17467380298E+03 -0.67522518965E+03  0.79798542762E+03  0.00000000000E+00 0. -1.
        -11    1    5    5    0    0 -0.15344846975E+03 -0.15749742943E+02 -0.29246982794E+03  0.33065554211E+03  0.00000000000E+00 0.  1.
          2    1    6    6  503    0  0.11227089672E+02  0.23192816958E+02 -0.45923645988E+02  0.52658670339E+02  0.00000000000E+00 0. -1.
         -2    1    6    6    0  503  0.29218069203E+03  0.63678819884E+02 -0.25837044141E+03  0.39519594367E+03  0.00000000000E+00 0.  1.
<mgrwt>
<rscale>  0 0.16954440E+04</rscale>
<asrwt>0</asrwt>
<pdfrwt beam="1">  1        2 0.22760042E+00 0.16954440E+04</pdfrwt>
<pdfrwt beam="2">  1       -1 0.74732091E-01 0.16954440E+04</pdfrwt>
<totfact> 0.25477953E+01</totfact>
</mgrwt>
</event>
<event>
12    6  0.1647231E-007  0.1837233E+04  0.7818608E-02  0.8686746E-01
         -1   -1    0    0    0  501 -0.00000000000E+00  0.00000000000E+00  0.47847852027E+03  0.47847852027E+03  0.00000000000E+00 0.  1.
          2   -1    0    0  501    0  0.00000000000E+00 -0.00000000000E+00 -0.17636240425E+04  0.17636240425E+04  0.00000000000E+00 0. -1.
         24    2    1    2    0    0 -0.13420322427E+03  0.60902812650E+03 -0.84594809841E+03  0.10540520221E+04  0.80446974930E+02 0.  0.
        254    2    1    2    0    0  0.13420322427E+03 -0.60902812650E+03 -0.43919742380E+03  0.11880505407E+04  0.91084792683E+03 0.  0.
         23    2    4    4    0    0  0.39836365384E+03 -0.24038954968E+03  0.93321689278E+02  0.48312031137E+03  0.90639733407E+02 0.  0.
         23    2    4    4    0    0 -0.26416042957E+03 -0.36863857682E+03 -0.53251911308E+03  0.70493022929E+03  0.87606446681E+02 0.  0.
          4    1    3    3  502    0 -0.37004653852E+02  0.20955237872E+03 -0.22840260363E+03  0.31216869346E+03  0.00000000000E+00 0. -1.
         -3    1    3    3    0  502 -0.97198570414E+02  0.39947574778E+03 -0.61754549478E+03  0.74188332862E+03  0.00000000000E+00 0.  1.
         11    1    5    5    0    0  0.31931600975E+03 -0.18681029677E+03  0.35885533197E+02  0.37168343056E+03  0.00000000000E+00 0. -1.
        -11    1    5    5    0    0  0.79047644088E+02 -0.53579252909E+02  0.57436156081E+02  0.11143688080E+03  0.00000000000E+00 0.  1.
          3    1    6    6  503    0 -0.14121251352E+03 -0.12424319009E+03 -0.20605204443E+03  0.27898886944E+03  0.00000000000E+00 0. -1.
         -3    1    6    6    0  503 -0.12294791605E+03 -0.24439538674E+03 -0.32646706865E+03  0.42594135985E+03  0.00000000000E+00 0.  1.
<mgrwt>
<rscale>  0 0.18372329E+04</rscale>
<asrwt>0</asrwt>
<pdfrwt beam="1">  1        2 0.27132677E+00 0.18372329E+04</pdfrwt>
<pdfrwt beam="2">  1       -1 0.73612081E-01 0.18372329E+04</pdfrwt>
<totfact> 0.18015820E+01</totfact>
</mgrwt>
</event>
<event>
12    6  0.1647231E-007  0.1974229E+04  0.7818608E-02  0.8618765E-01
         -1   -1    0    0    0  501 -0.00000000000E+00  0.00000000000E+00  0.13914411243E+04  0.13914411243E+04  0.00000000000E+00 0.  1.
          2   -1    0    0  501    0  0.00000000000E+00 -0.00000000000E+00 -0.70027763450E+03  0.70027763450E+03  0.00000000000E+00 0. -1.
         24    2    1    2    0    0 -0.39114729322E+03  0.42693352960E+02  0.96615595940E+03  0.10463107846E+04  0.80560491616E+02 0.  0.
        254    2    1    2    0    0  0.39114729322E+03 -0.42693352960E+02 -0.27499246960E+03  0.10454079742E+04  0.92867542592E+03 0.  0.
         23    2    4    4    0    0 -0.22602581302E+03  0.21480519383E+03 -0.15453900985E+03  0.35974959113E+03  0.91151101490E+02 0.  0.
         23    2    4    4    0    0  0.61717310624E+03 -0.25749854679E+03 -0.12045345975E+03  0.68565838303E+03  0.91707347517E+02 0.  0.
          2    1    3    3  502    0 -0.68207702591E+02  0.38062218696E+02  0.21067716128E+03  0.22469065283E+03  0.00000000000E+00 0. -1.
         -1    1    3    3    0  502 -0.32293959063E+03  0.46311342640E+01  0.75547879812E+03  0.82162013182E+03  0.00000000000E+00 0.  1.
         11    1    5    5    0    0 -0.11041661673E+02 -0.78930392465E+01  0.44696726076E+00  0.13580064093E+02  0.00000000000E+00 0. -1.
        -11    1    5    5    0    0 -0.21498415135E+03  0.22269823307E+03 -0.15498597711E+03  0.34616952703E+03  0.00000000000E+00 0.  1.
          4    1    6    6  503    0  0.41247967802E+03 -0.14667594908E+03 -0.40976856018E+02  0.43969582844E+03  0.00000000000E+00 0.  1.
         -4    1    6    6    0  503  0.20469342821E+03 -0.11082259771E+03 -0.79476603731E+02  0.24596255459E+03  0.00000000000E+00 0. -1.
<mgrwt>
<rscale>  0 0.19742291E+04</rscale>
<asrwt>0</asrwt>
<pdfrwt beam="1">  1        2 0.10773502E+00 0.19742291E+04</pdfrwt>
<pdfrwt beam="2">  1       -1 0.21406786E+00 0.19742291E+04</pdfrwt>
<totfact> 0.52506617E+00</totfact>
</mgrwt>
</event>
<event>
12    6  0.1647231E-007  0.1376265E+04  0.7818608E-02  0.8971180E-01
          2   -1    0    0  501    0  0.00000000000E+00  0.00000000000E+00  0.21160460608E+04  0.21160460608E+04  0.00000000000E+00 0. -1.
         -1   -1    0    0    0  501 -0.00000000000E+00 -0.00000000000E+00 -0.22377889128E+03  0.22377889128E+03  0.00000000000E+00 0.  1.
         24    2    1    2    0    0  0.17501406642E+03  0.20578818553E+03  0.73332151346E+02  0.29096996838E+03  0.79417991221E+02 0.  0.
        254    2    1    2    0    0 -0.17501406642E+03 -0.20578818553E+03  0.18189350182E+04  0.20488549837E+04  0.90349512622E+03 0.  0.
         23    2    4    4    0    0 -0.44176131274E+03 -0.50629663937E+02  0.15910706668E+04  0.16545962814E+04  0.92013952937E+02 0.  0.
         23    2    4    4    0    0  0.26674724632E+03 -0.15515852159E+03  0.22786435140E+03  0.39425870226E+03  0.91046699194E+02 0.  0.
          4    1    3    3  502    0  0.21741683743E+02  0.12943381403E+02  0.32634365394E+02  0.41294475887E+02  0.00000000000E+00 0. -1.
         -1    1    3    3    0  502  0.15327238268E+03  0.19284480412E+03  0.40697785951E+02  0.24967549249E+03  0.00000000000E+00 0.  1.
         11    1    5    5    0    0 -0.15489085259E+03 -0.20977802075E+02  0.72884960918E+03  0.74542135547E+03  0.00000000000E+00 0.  1.
        -11    1    5    5    0    0 -0.28687046015E+03 -0.29651861862E+02  0.86222105757E+03  0.90917492593E+03  0.00000000000E+00 0. -1.
          2    1    6    6  503    0  0.18169815026E+03 -0.56754599209E+02  0.15272921072E+03  0.24405227749E+03  0.00000000000E+00 0. -1.
         -2    1    6    6    0  503  0.85049096056E+02 -0.98403922379E+02  0.75135140677E+02  0.15020642478E+03  0.00000000000E+00 0.  1.
<mgrwt>
<rscale>  0 0.13762652E+04</rscale>
<asrwt>0</asrwt>
<pdfrwt beam="1">  1        2 0.32554553E+00 0.13762652E+04</pdfrwt>
<pdfrwt beam="2">  1       -1 0.34427523E-01 0.13762652E+04</pdfrwt>
<totfact> 0.51149868E+01</totfact>
</mgrwt>
</event>
<event>
12    6  0.1647231E-007  0.1794359E+04  0.7818608E-02  0.8709305E-01
          2   -1    0    0  501    0  0.00000000000E+00  0.00000000000E+00  0.33342843686E+04  0.33342843686E+04  0.00000000000E+00 0. -1.
         -1   -1    0    0    0  501 -0.00000000000E+00 -0.00000000000E+00 -0.24141049822E+03  0.24141049822E+03  0.00000000000E+00 0.  1.
         24    2    1    2    0    0  0.13853187164E+03 -0.13664693644E+03  0.24471278837E+04  0.24562388118E+04  0.82527309358E+02 0.  0.
        254    2    1    2    0    0 -0.13853187164E+03  0.13664693644E+03  0.64574598669E+03  0.11194560550E+04  0.89349343314E+03 0.  0.
         23    2    4    4    0    0 -0.36810124593E+03 -0.21687462776E+03  0.49812518888E+03  0.66406673466E+03  0.10160114595E+03 0.  0.
         23    2    4    4    0    0  0.22956937429E+03  0.35352156420E+03  0.14762079781E+03  0.45538932035E+03  0.88926594303E+02 0.  0.
          2    1    3    3  502    0  0.34778965838E+02 -0.55839978262E+02  0.12871654990E+04  0.12888454917E+04  0.00000000000E+00 0. -1.
         -1    1    3    3    0  502  0.10375290580E+03 -0.80806958181E+02  0.11599623847E+04  0.11673933201E+04  0.00000000000E+00 0.  1.
         11    1    5    5    0    0 -0.34200570314E+03 -0.19545327684E+03  0.40483406673E+03  0.56485441133E+03  0.00000000000E+00 0. -1.
        -11    1    5    5    0    0 -0.26095542793E+02 -0.21421350915E+02  0.93291122151E+02  0.99212323332E+02  0.00000000000E+00 0.  1.
          1    1    6    6  503    0  0.18538764925E+03  0.24479819223E+03  0.14085047737E+03  0.33783663565E+03  0.00000000000E+00 0. -1.
         -1    1    6    6    0  503  0.44181725043E+02  0.10872337197E+03  0.67703204378E+01  0.11755268470E+03  0.00000000000E+00 0.  1.
<mgrwt>
<rscale>  0 0.17943592E+04</rscale>
<asrwt>0</asrwt>
<pdfrwt beam="1">  1        2 0.51296679E+00 0.17943592E+04</pdfrwt>
<pdfrwt beam="2">  1       -1 0.37140079E-01 0.17943592E+04</pdfrwt>
<totfact> 0.79731868E+00</totfact>
</mgrwt>
</event>
<event>
12    6  0.1647231E-007  0.1846420E+04  0.7818608E-02  0.8681996E-01
         -1   -1    0    0    0  501 -0.00000000000E+00  0.00000000000E+00  0.34391571134E+03  0.34391571134E+03  0.00000000000E+00 0.  1.
          2   -1    0    0  501    0  0.00000000000E+00 -0.00000000000E+00 -0.24782716387E+04  0.24782716387E+04  0.00000000000E+00 0. -1.
         24    2    1    2    0    0  0.22902759544E+03  0.23521570031E+03 -0.17592324696E+04  0.17915041329E+04  0.82511279486E+02 0.  0.
        254    2    1    2    0    0 -0.22902759544E+03 -0.23521570031E+03 -0.37512345776E+03  0.10306832171E+04  0.90211430551E+03 0.  0.
         23    2    4    4    0    0 -0.50075168420E+03 -0.11438041762E+03  0.25805767666E+02  0.52353277563E+03  0.97905568543E+02 0.  0.
         23    2    4    4    0    0  0.27172408876E+03 -0.12083528270E+03 -0.40092922543E+03  0.50715044142E+03  0.89566625910E+02 0.  0.
          4    1    3    3  502    0  0.22144314472E+03  0.23612759179E+03 -0.16180349573E+04  0.16501001269E+04  0.00000000000E+00 0. -1.
         -3    1    3    3    0  502  0.75844507234E+01 -0.91189147974E+00 -0.14119751230E+03  0.14140400602E+03  0.00000000000E+00 0.  1.
         11    1    5    5    0    0 -0.50378021727E+03 -0.11757500393E+03  0.22119433863E+02  0.51779113378E+03  0.00000000000E+00 0.  1.
        -11    1    5    5    0    0  0.30285330716E+01  0.31945863127E+01  0.36863338032E+01  0.57416418544E+01  0.00000000000E+00 0. -1.
          2    1    6    6  503    0  0.12475229532E+03 -0.52046455874E+02 -0.11104321021E+03  0.17493588337E+03  0.00000000000E+00 0. -1.
         -2    1    6    6    0  503  0.14697179344E+03 -0.68788826822E+02 -0.28988601522E+03  0.33221455805E+03  0.00000000000E+00 0.  1.
<mgrwt>
<rscale>  0 0.18464198E+04</rscale>
<asrwt>0</asrwt>
<pdfrwt beam="1">  1        2 0.38127255E+00 0.18464198E+04</pdfrwt>
<pdfrwt beam="2">  1       -1 0.52910110E-01 0.18464198E+04</pdfrwt>
<totfact> 0.13832676E+01</totfact>
</mgrwt>
</event>
<event>
12    6  0.1647231E-007  0.3552291E+04  0.7818608E-02  0.8101508E-01
         -1   -1    0    0    0  501 -0.00000000000E+00  0.00000000000E+00  0.12123737820E+04  0.12123737820E+04  0.00000000000E+00 0.  1.
          2   -1    0    0  501    0  0.00000000000E+00 -0.00000000000E+00 -0.26020798900E+04  0.26020798900E+04  0.00000000000E+00 0. -1.
         24    2    1    2    0    0  0.65396025765E+03  0.14243389312E+04 -0.11565373141E+04  0.19493832350E+04  0.78173067840E+02 0.  0.
        254    2    1    2    0    0 -0.65396025765E+03 -0.14243389312E+04 -0.23316879396E+03  0.18650704370E+04  0.98372487983E+03 0.  0.
         23    2    4    4    0    0  0.11617786306E+03 -0.87326856892E+02 -0.26848675923E+03  0.31861493523E+03  0.91143081277E+02 0.  0.
         23    2    4    4    0    0 -0.77013812072E+03 -0.13370120743E+04  0.35317965271E+02  0.15464555018E+04  0.97791864077E+02 0.  0.
          4    1    3    3  502    0  0.45416617761E+03  0.10601247669E+04 -0.82811477146E+03  0.14198258742E+04  0.00000000000E+00 0. -1.
         -3    1    3    3    0  502  0.19979408004E+03  0.36421416421E+03 -0.32842254265E+03  0.52955736077E+03  0.00000000000E+00 0.  1.
         11    1    5    5    0    0 -0.11490772218E+02 -0.45870131209E+01 -0.31655835789E+01  0.12771039696E+02  0.00000000000E+00 0.  1.
        -11    1    5    5    0    0  0.12766863528E+03 -0.82739843771E+02 -0.26532117565E+03  0.30584389553E+03  0.00000000000E+00 0. -1.
          4    1    6    6  503    0 -0.36583595746E+03 -0.58293701258E+03  0.56802448030E+02  0.69056355718E+03  0.00000000000E+00 0. -1.
         -4    1    6    6    0  503 -0.40430216325E+03 -0.75407506168E+03 -0.21484482758E+02  0.85589194462E+03  0.00000000000E+00 0.  1.
<mgrwt>
<rscale>  0 0.35522913E+04</rscale>
<asrwt>0</asrwt>
<pdfrwt beam="1">  1        2 0.40031998E+00 0.35522913E+04</pdfrwt>
<pdfrwt beam="2">  1       -1 0.18651904E+00 0.35522913E+04</pdfrwt>
<totfact> 0.52740608E-01</totfact>
</mgrwt>
</event>
<event>
12    6  0.1647231E-007  0.1409047E+04  0.7818608E-02  0.8947296E-01
         -1   -1    0    0    0  501 -0.00000000000E+00  0.00000000000E+00  0.46194118102E+03  0.46194118102E+03  0.00000000000E+00 0.  1.
          2   -1    0    0  501    0  0.00000000000E+00 -0.00000000000E+00 -0.10744946842E+04  0.10744946842E+04  0.00000000000E+00 0. -1.
         24    2    1    2    0    0 -0.20288518619E+03 -0.28215187783E+03  0.59477280197E+02  0.36131577990E+03  0.78990284270E+02 0.  0.
        254    2    1    2    0    0  0.20288518619E+03  0.28215187783E+03 -0.67203078338E+03  0.11751200853E+04  0.89917170783E+03 0.  0.
         23    2    4    4    0    0 -0.17733189617E+02  0.21846255212E+03  0.17410003844E+03  0.29381334208E+03  0.89303437258E+02 0.  0.
         23    2    4    4    0    0  0.22061837580E+03  0.63689325712E+02 -0.84613082182E+03  0.88130674324E+03  0.89640448976E+02 0.  0.
          4    1    3    3  502    0 -0.37831295486E+02 -0.96991604243E+02 -0.75222395386E+01  0.10437989413E+03  0.00000000000E+00 0. -1.
         -3    1    3    3    0  502 -0.16505389070E+03 -0.18516027359E+03  0.66999519736E+02  0.25693588577E+03  0.00000000000E+00 0.  1.
         11    1    5    5    0    0 -0.10501413262E+02  0.78766811585E+02  0.11980521516E+03  0.14376292939E+03  0.00000000000E+00 0. -1.
        -11    1    5    5    0    0 -0.72317763551E+01  0.13969574053E+03  0.54294823281E+02  0.15005041269E+03  0.00000000000E+00 0.  1.
          3    1    6    6  503    0  0.22397432419E+03  0.66051377836E+02 -0.84550196719E+03  0.87715498000E+03  0.00000000000E+00 0. -1.
         -3    1    6    6    0  503 -0.33559483904E+01 -0.23620521237E+01 -0.62885462523E+00  0.41517632368E+01  0.00000000000E+00 0.  1.
<mgrwt>
<rscale>  0 0.14090470E+04</rscale>
<asrwt>0</asrwt>
<pdfrwt beam="1">  1        2 0.16530687E+00 0.14090470E+04</pdfrwt>
<pdfrwt beam="2">  1       -1 0.71067875E-01 0.14090470E+04</pdfrwt>
<totfact> 0.50139640E+01</totfact>
</mgrwt>
</event>
<event>
12    6  0.1647231E-007  0.2048057E+04  0.7818608E-02  0.8584476E-01
          2   -1    0    0  501    0  0.00000000000E+00  0.00000000000E+00  0.22312233407E+04  0.22312233407E+04  0.00000000000E+00 0. -1.
         -1   -1    0    0    0  501 -0.00000000000E+00 -0.00000000000E+00 -0.46998173228E+03  0.46998173228E+03  0.00000000000E+00 0.  1.
         24    2    1    2    0    0 -0.16587351490E+03 -0.79826803766E+03  0.57894688708E+03  0.10038396211E+04  0.88139684118E+02 0.  0.
        254    2    1    2    0    0  0.16587351490E+03  0.79826803766E+03  0.11822947213E+04  0.16973654519E+04  0.90470038484E+03 0.  0.
         23    2    4    4    0    0  0.24463328020E+03  0.21190866407E+02 -0.18075203075E+02  0.26226112144E+03  0.90330992744E+02 0.  0.
         23    2    4    4    0    0 -0.78759765305E+02  0.77707717125E+03  0.12003699244E+04  0.14351043305E+04  0.92652324202E+02 0.  0.
          2    1    3    3  502    0 -0.34387058059E+02 -0.15303940896E+03  0.15598579056E+03  0.22121278741E+03  0.00000000000E+00 0. -1.
         -1    1    3    3    0  502 -0.13148645684E+03 -0.64522862870E+03  0.42296109652E+03  0.78262683368E+03  0.00000000000E+00 0.  1.
         11    1    5    5    0    0  0.23379426558E+03 -0.24686510124E+01 -0.25512427764E+02  0.23519510375E+03  0.00000000000E+00 0. -1.
        -11    1    5    5    0    0  0.10839014619E+02  0.23659517419E+02  0.74372246894E+01  0.27066017688E+02  0.00000000000E+00 0.  1.
          3    1    6    6  503    0 -0.83274812042E+02  0.70184994823E+03  0.10341156827E+04  0.12525666806E+04  0.00000000000E+00 0. -1.
         -3    1    6    6    0  503  0.45150467370E+01  0.75227223017E+02  0.16625424170E+03  0.18253764985E+03  0.00000000000E+00 0.  1.
<mgrwt>
<rscale>  0 0.20480568E+04</rscale>
<asrwt>0</asrwt>
<pdfrwt beam="1">  1        2 0.34326512E+00 0.20480568E+04</pdfrwt>
<pdfrwt beam="2">  1       -1 0.72304883E-01 0.20480568E+04</pdfrwt>
<totfact> 0.10080735E+01</totfact>
</mgrwt>
</event>
<event>
12    6  0.1647231E-007  0.2207115E+04  0.7818608E-02  0.8515472E-01
         -1   -1    0    0    0  501 -0.00000000000E+00  0.00000000000E+00  0.69188807840E+03  0.69188807840E+03  0.00000000000E+00 0.  1.
          2   -1    0    0  501    0  0.00000000000E+00 -0.00000000000E+00 -0.17601683574E+04  0.17601683574E+04  0.00000000000E+00 0. -1.
         24    2    1    2    0    0 -0.28196504049E+03  0.46625669760E+03  0.38103418515E+03  0.66951424973E+03  0.78502791206E+02 0.  0.
        254    2    1    2    0    0  0.28196504049E+03 -0.46625669760E+03 -0.14493144641E+04  0.17825421860E+04  0.88320135700E+03 0.  0.
         23    2    4    4    0    0  0.25544441819E+03 -0.11504919920E+03 -0.77809924934E+01  0.29513276652E+03  0.92491280727E+02 0.  0.
         23    2    4    4    0    0  0.26520622302E+02 -0.35120749840E+03 -0.14415334716E+04  0.14874094195E+04  0.10157746365E+03 0.  0.
          4    1    3    3  502    0 -0.11546080675E+03  0.13216072565E+03  0.97529512848E+02  0.20077266043E+03  0.00000000000E+00 0. -1.
         -3    1    3    3    0  502 -0.16650423374E+03  0.33409597194E+03  0.28350467230E+03  0.46874158930E+03  0.00000000000E+00 0.  1.
         11    1    5    5    0    0  0.25107690132E+03 -0.85978797260E+02 -0.10595850291E+02  0.26560164909E+03  0.00000000000E+00 0. -1.
        -11    1    5    5    0    0  0.43675168675E+01 -0.29070401937E+02  0.28148577978E+01  0.29531117432E+02  0.00000000000E+00 0.  1.
          4    1    6    6  503    0  0.56207518344E+02 -0.17684280154E+03 -0.62638570647E+03  0.65329297780E+03  0.00000000000E+00 0. -1.
         -4    1    6    6    0  503 -0.29686896042E+02 -0.17436469686E+03 -0.81514776517E+03  0.83411644173E+03  0.00000000000E+00 0.  1.
<mgrwt>
<rscale>  0 0.22071153E+04</rscale>
<asrwt>0</asrwt>
<pdfrwt beam="1">  1        2 0.27079513E+00 0.22071153E+04</pdfrwt>
<pdfrwt beam="2">  1       -1 0.10644432E+00 0.22071153E+04</pdfrwt>
<totfact> 0.77874239E+00</totfact>
</mgrwt>
</event>
<event>
12    6  0.1647231E-007  0.1329003E+04  0.7818608E-02  0.9006876E-01
         -1   -1    0    0    0  501 -0.00000000000E+00  0.00000000000E+00  0.45039356334E+03  0.45039356334E+03  0.00000000000E+00 0.  1.
          2   -1    0    0  501    0  0.00000000000E+00 -0.00000000000E+00 -0.98039223673E+03  0.98039223673E+03  0.00000000000E+00 0. -1.
         24    2    1    2    0    0  0.81391892694E+02 -0.34158081963E+03 -0.16796946399E+03  0.39708618897E+03  0.78495885851E+02 0.  0.
        254    2    1    2    0    0 -0.81391892694E+02  0.34158081963E+03 -0.36202920940E+03  0.10336996111E+04  0.90231238549E+03 0.  0.
         23    2    4    4    0    0  0.83068410515E+02 -0.16874493211E+03 -0.43769747070E+03  0.48440323989E+03  0.87705245077E+02 0.  0.
         23    2    4    4    0    0 -0.16446030321E+03  0.51032575174E+03  0.75668261307E+02  0.54929637122E+03  0.92310635590E+02 0.  0.
          4    1    3    3  502    0  0.60620048331E+02 -0.27221094758E+03 -0.16620816960E+03  0.32465173014E+03  0.00000000000E+00 0. -1.
         -3    1    3    3    0  502  0.20771844363E+02 -0.69369872054E+02 -0.17612943891E+01  0.72434458823E+02  0.00000000000E+00 0.  1.
         11    1    5    5    0    0  0.63168319294E+01 -0.68576603703E+02 -0.24149527963E+03  0.25112272503E+03  0.00000000000E+00 0. -1.
        -11    1    5    5    0    0  0.76751578585E+02 -0.10016832841E+03 -0.19620219107E+03  0.23328051486E+03  0.00000000000E+00 0.  1.
          2    1    6    6  503    0 -0.34506923090E+01  0.13364618669E+03  0.30848643548E+02  0.13720367817E+03  0.00000000000E+00 0. -1.
         -2    1    6    6    0  503 -0.16100961090E+03  0.37667956505E+03  0.44819617759E+02  0.41209269305E+03  0.00000000000E+00 0.  1.
<mgrwt>
<rscale>  0 0.13290032E+04</rscale>
<asrwt>0</asrwt>
<pdfrwt beam="1">  1        2 0.15082957E+00 0.13290032E+04</pdfrwt>
<pdfrwt beam="2">  1       -1 0.69291318E-01 0.13290032E+04</pdfrwt>
<totfact> 0.60992088E+01</totfact>
</mgrwt>
</event>
<event>
12    6  0.1647231E-007  0.1496933E+04  0.7818608E-02  0.8886495E-01
          2   -1    0    0  501    0  0.00000000000E+00  0.00000000000E+00  0.11960485306E+04  0.11960485306E+04  0.00000000000E+00 0. -1.
         -1   -1    0    0    0  501 -0.00000000000E+00 -0.00000000000E+00 -0.46837721467E+03  0.46837721467E+03  0.00000000000E+00 0.  1.
         24    2    1    2    0    0 -0.42810317400E+03 -0.20795841730E+03  0.21718022699E+03  0.52895174685E+03  0.78125978952E+02 0.  0.
        254    2    1    2    0    0  0.42810317400E+03  0.20795841730E+03  0.51049108896E+03  0.11354739984E+04  0.89564558744E+03 0.  0.
         23    2    4    4    0    0  0.41550360249E+03  0.27424104090E+02  0.72554170853E+03  0.84040152073E+03  0.80427731834E+02 0.  0.
         23    2    4    4    0    0  0.12599571504E+02  0.18053431321E+03 -0.21505061958E+03  0.29507247770E+03  0.89831011741E+02 0.  0.
          2    1    3    3  502    0 -0.18450292840E+03 -0.12127770199E+03  0.12927531597E+03  0.25585487861E+03  0.00000000000E+00 0. -1.
         -1    1    3    3    0  502 -0.24360024559E+03 -0.86680715303E+02  0.87904911018E+02  0.27309686824E+03  0.00000000000E+00 0.  1.
         11    1    5    5    0    0  0.16372589303E+03 -0.27704883813E+02  0.26877175226E+03  0.31593034588E+03  0.00000000000E+00 0. -1.
        -11    1    5    5    0    0  0.25177770946E+03  0.55128987903E+02  0.45676995628E+03  0.52447117485E+03  0.00000000000E+00 0.  1.
          3    1    6    6  503    0 -0.20318275775E+02  0.49551570810E+02 -0.18635384449E+02  0.56705097247E+02  0.00000000000E+00 0. -1.
         -3    1    6    6    0  503  0.32917847278E+02  0.13098274240E+03 -0.19641523513E+03  0.23836738046E+03  0.00000000000E+00 0.  1.
<mgrwt>
<rscale>  0 0.14969327E+04</rscale>
<asrwt>0</asrwt>
<pdfrwt beam="1">  1        2 0.18400747E+00 0.14969327E+04</pdfrwt>
<pdfrwt beam="2">  1       -1 0.72058033E-01 0.14969327E+04</pdfrwt>
<totfact> 0.40787915E+01</totfact>
</mgrwt>
</event>
<event>
12    6  0.1647231E-007  0.2893177E+04  0.7818608E-02  0.8274910E-01
         -1   -1    0    0    0  501 -0.00000000000E+00  0.00000000000E+00  0.10297880926E+04  0.10297880926E+04  0.00000000000E+00 0.  1.
          2   -1    0    0  501    0  0.00000000000E+00 -0.00000000000E+00 -0.20320862583E+04  0.20320862583E+04  0.00000000000E+00 0. -1.
         24    2    1    2    0    0  0.45286781172E+03  0.75835001203E+03 -0.14667105016E+04  0.17140055719E+04  0.79946289233E+02 0.  0.
        254    2    1    2    0    0 -0.45286781172E+03 -0.75835001203E+03  0.46441233597E+03  0.13478687791E+04  0.90602838376E+03 0.  0.
         23    2    4    4    0    0 -0.20893009079E+03 -0.85919632790E+03  0.56232880193E+03  0.10517917546E+04  0.90454966215E+02 0.  0.
         23    2    4    4    0    0 -0.24393772093E+03  0.10084631587E+03 -0.97916465955E+02  0.29607702446E+03  0.91642670126E+02 0.  0.
          2    1    3    3  502    0  0.20648774815E+03  0.41037452630E+03 -0.80378399297E+03  0.92580405558E+03  0.00000000000E+00 0. -1.
         -1    1    3    3    0  502  0.24638006358E+03  0.34797548573E+03 -0.66292650865E+03  0.78820151628E+03  0.00000000000E+00 0.  1.
         11    1    5    5    0    0 -0.13203386420E+02 -0.86947509315E+02  0.27089932249E+02  0.92022080059E+02  0.00000000000E+00 0.  1.
        -11    1    5    5    0    0 -0.19572670437E+03 -0.77224881858E+03  0.53523886968E+03  0.95976967457E+03  0.00000000000E+00 0. -1.
          1    1    6    6  503    0 -0.22033401599E+03  0.59048527353E+02 -0.97501439554E+02  0.24807325107E+03  0.00000000000E+00 0. -1.
         -1    1    6    6    0  503 -0.23603704944E+02  0.41797788516E+02 -0.41502640112E+00  0.48003773381E+02  0.00000000000E+00 0.  1.
<mgrwt>
<rscale>  0 0.28931770E+04</rscale>
<asrwt>0</asrwt>
<pdfrwt beam="1">  1        2 0.31262865E+00 0.28931770E+04</pdfrwt>
<pdfrwt beam="2">  1       -1 0.15842894E+00 0.28931770E+04</pdfrwt>
<totfact> 0.18919266E+00</totfact>
</mgrwt>
</event>
<event>
12    6  0.1647231E-007  0.3025048E+04  0.7818608E-02  0.8236614E-01
          2   -1    0    0  501    0  0.00000000000E+00  0.00000000000E+00  0.19422471490E+04  0.19422471490E+04  0.00000000000E+00 0. -1.
         -1   -1    0    0    0  501 -0.00000000000E+00 -0.00000000000E+00 -0.11778771066E+04  0.11778771066E+04  0.00000000000E+00 0.  1.
         24    2    1    2    0    0  0.72813593200E+03 -0.35003784985E+03 -0.80229437296E+03  0.11418391294E+04  0.86092420165E+02 0.  0.
        254    2    1    2    0    0 -0.72813593200E+03  0.35003784985E+03  0.15666644154E+04  0.19782851261E+04  0.89803464182E+03 0.  0.
         23    2    4    4    0    0 -0.86753377988E+03  0.12156977711E+03  0.92630983155E+03  0.12781339859E+04  0.90457238466E+02 0.  0.
         23    2    4    4    0    0  0.13939784788E+03  0.22846807274E+03  0.64035458381E+03  0.70015114016E+03  0.92348285306E+02 0.  0.
          2    1    3    3  502    0  0.95754321399E+02 -0.25847349929E+02 -0.13062772550E+03  0.16401395744E+03  0.00000000000E+00 0. -1.
         -1    1    3    3    0  502  0.63238161060E+03 -0.32419049992E+03 -0.67166664746E+03  0.97782517199E+03  0.00000000000E+00 0.  1.
         11    1    5    5    0    0 -0.65796465207E+03  0.88383209486E+02  0.64338140869E+03  0.92448294313E+03  0.00000000000E+00 0. -1.
        -11    1    5    5    0    0 -0.20956912781E+03  0.33186567625E+02  0.28292842286E+03  0.35365104279E+03  0.00000000000E+00 0.  1.
          3    1    6    6  503    0  0.55067311637E+02  0.27652318323E+02  0.19288964333E+03  0.20249314562E+03  0.00000000000E+00 0. -1.
         -3    1    6    6    0  503  0.84330536246E+02  0.20081575442E+03  0.44746494049E+03  0.49765799454E+03  0.00000000000E+00 0.  1.
<mgrwt>
<rscale>  0 0.30250477E+04</rscale>
<asrwt>0</asrwt>
<pdfrwt beam="1">  1        2 0.29880725E+00 0.30250477E+04</pdfrwt>
<pdfrwt beam="2">  1       -1 0.18121186E+00 0.30250477E+04</pdfrwt>
<totfact> 0.14261704E+00</totfact>
</mgrwt>
</event>
<event>
12    6  0.1647231E-007  0.1955900E+04  0.7818608E-02  0.8627521E-01
          2   -1    0    0  501    0  0.00000000000E+00  0.00000000000E+00  0.11916246452E+04  0.11916246452E+04  0.00000000000E+00 0. -1.
         -1   -1    0    0    0  501 -0.00000000000E+00 -0.00000000000E+00 -0.80259040458E+03  0.80259040458E+03  0.00000000000E+00 0.  1.
         24    2    1    2    0    0 -0.11821492628E+03 -0.64137951567E+03 -0.27942493637E+03  0.71457658458E+03  0.84846616039E+02 0.  0.
        254    2    1    2    0    0  0.11821492628E+03  0.64137951567E+03  0.66845917702E+03  0.12796384652E+04  0.87481111017E+03 0.  0.
         23    2    4    4    0    0  0.80365710788E+02  0.79030970767E+03  0.27258318670E+03  0.84470636825E+03  0.90438782521E+02 0.  0.
         23    2    4    4    0    0  0.37849215490E+02 -0.14893019201E+03  0.39587599032E+03  0.43493209699E+03  0.93996617327E+02 0.  0.
          2    1    3    3  502    0 -0.44474237869E+01 -0.94966121061E+02 -0.12458559706E+02  0.95883050836E+02  0.00000000000E+00 0. -1.
         -3    1    3    3    0  502 -0.11376750249E+03 -0.54641339460E+03 -0.26696637666E+03  0.61869353374E+03  0.00000000000E+00 0.  1.
         11    1    5    5    0    0  0.20346222355E+02  0.45819361035E+03  0.11853245417E+03  0.47371436122E+03  0.00000000000E+00 0. -1.
        -11    1    5    5    0    0  0.60019488432E+02  0.33211609732E+03  0.15405073253E+03  0.37099200704E+03  0.00000000000E+00 0.  1.
          2    1    6    6  503    0  0.48614124910E+02 -0.14923831502E+03  0.39385096324E+03  0.42397404290E+03  0.00000000000E+00 0. -1.
         -2    1    6    6    0  503 -0.10764909421E+02  0.30812300904E+00  0.20250270848E+01  0.10958054084E+02  0.00000000000E+00 0.  1.
<mgrwt>
<rscale>  0 0.19559003E+04</rscale>
<asrwt>0</asrwt>
<pdfrwt beam="1">  1        2 0.18332687E+00 0.19559003E+04</pdfrwt>
<pdfrwt beam="2">  1       -1 0.12347545E+00 0.19559003E+04</pdfrwt>
<totfact> 0.11753970E+01</totfact>
</mgrwt>
</event>
<event>
12    6  0.1647231E-007  0.2752683E+04  0.7818608E-02  0.8318111E-01
          2   -1    0    0  501    0  0.00000000000E+00  0.00000000000E+00  0.25403610919E+04  0.25403610919E+04  0.00000000000E+00 0. -1.
         -1   -1    0    0    0  501 -0.00000000000E+00 -0.00000000000E+00 -0.74568782698E+03  0.74568782698E+03  0.00000000000E+00 0.  1.
         24    2    1    2    0    0 -0.64796068404E+03 -0.43910241531E+03 -0.32692174491E+03  0.85209311723E+03  0.80751928414E+02 0.  0.
        254    2    1    2    0    0  0.64796068404E+03  0.43910241531E+03  0.21215950098E+04  0.24339558016E+04  0.90017302752E+03 0.  0.
         23    2    4    4    0    0  0.10924124138E+03  0.40646697414E+01  0.14756440867E+04  0.14826958065E+04  0.94399225374E+02 0.  0.
         23    2    4    4    0    0  0.53871944266E+03  0.43503774557E+03  0.64595092314E+03  0.95125999513E+03  0.90368718352E+02 0.  0.
          2    1    3    3  502    0 -0.18219100338E+03 -0.86554030109E+02 -0.65102226997E+02  0.21195155531E+03  0.00000000000E+00 0. -1.
         -1    1    3    3    0  502 -0.46576968066E+03 -0.35254838520E+03 -0.26181951791E+03  0.64014156191E+03  0.00000000000E+00 0.  1.
         11    1    5    5    0    0 -0.98380205096E+01  0.20209975992E+02  0.15929273756E+03  0.16087077427E+03  0.00000000000E+00 0. -1.
        -11    1    5    5    0    0  0.11907926189E+03 -0.16145306251E+02  0.13163513491E+04  0.13218250322E+04  0.00000000000E+00 0.  1.
          3    1    6    6  503    0  0.17413119788E+03  0.13283388002E+03  0.26293645459E+03  0.34220183067E+03  0.00000000000E+00 0. -1.
         -3    1    6    6    0  503  0.36458824478E+03  0.30220386555E+03  0.38301446855E+03  0.60905816446E+03  0.00000000000E+00 0.  1.
<mgrwt>
<rscale>  0 0.27526833E+04</rscale>
<asrwt>0</asrwt>
<pdfrwt beam="1">  1        2 0.39082478E+00 0.27526833E+04</pdfrwt>
<pdfrwt beam="2">  1       -1 0.11472121E+00 0.27526833E+04</pdfrwt>
<totfact> 0.22606673E+00</totfact>
</mgrwt>
</event>
<event>
12    6  0.1647231E-007  0.1574173E+04  0.7818608E-02  0.8836574E-01
          2   -1    0    0  501    0  0.00000000000E+00  0.00000000000E+00  0.94282824183E+03  0.94282824183E+03  0.00000000000E+00 0. -1.
         -1   -1    0    0    0  501 -0.00000000000E+00 -0.00000000000E+00 -0.65707075085E+03  0.65707075085E+03  0.00000000000E+00 0.  1.
         24    2    1    2    0    0  0.44148819146E+03  0.26816042688E+03  0.97498293970E+02  0.53158159125E+03  0.79064739820E+02 0.  0.
        254    2    1    2    0    0 -0.44148819146E+03 -0.26816042688E+03  0.18825919701E+03  0.10683174014E+04  0.91599056064E+03 0.  0.
         23    2    4    4    0    0 -0.62910830590E+03 -0.49877137587E+02  0.34944504301E+03  0.72716702445E+03  0.91624527050E+02 0.  0.
         23    2    4    4    0    0  0.18762011444E+03 -0.21828328929E+03 -0.16118584600E+03  0.34115037697E+03  0.86912605709E+02 0.  0.
          2    1    3    3  502    0  0.70883844732E+02  0.46061358588E+02  0.46615965216E+02  0.96536088651E+02  0.00000000000E+00 0. -1.
         -1    1    3    3    0  502  0.37060434673E+03  0.22209906829E+03  0.50882328754E+02  0.43504550260E+03  0.00000000000E+00 0.  1.
         11    1    5    5    0    0 -0.14441520243E+03  0.25587854303E+02  0.92724399340E+02  0.17351744354E+03  0.00000000000E+00 0. -1.
        -11    1    5    5    0    0 -0.48469310348E+03 -0.75464991890E+02  0.25672064367E+03  0.55364958091E+03  0.00000000000E+00 0.  1.
          1    1    6    6  503    0  0.94988868170E+02 -0.17222923750E+03 -0.11521213550E+03  0.22794655403E+03  0.00000000000E+00 0. -1.
         -1    1    6    6    0  503  0.92631246273E+02 -0.46054051788E+02 -0.45973710499E+02  0.11320382294E+03  0.00000000000E+00 0.  1.
<mgrwt>
<rscale>  0 0.15741726E+04</rscale>
<asrwt>0</asrwt>
<pdfrwt beam="1">  1        2 0.14505050E+00 0.15741726E+04</pdfrwt>
<pdfrwt beam="2">  1       -1 0.10108781E+00 0.15741726E+04</pdfrwt>
<totfact> 0.27986074E+01</totfact>
</mgrwt>
</event>
<event>
12    6  0.1647231E-007  0.1325005E+04  0.7818608E-02  0.9009967E-01
          2   -1    0    0  501    0  0.00000000000E+00  0.00000000000E+00  0.19724398392E+04  0.19724398392E+04  0.00000000000E+00 0. -1.
         -1   -1    0    0    0  501 -0.00000000000E+00 -0.00000000000E+00 -0.22252124841E+03  0.22252124841E+03  0.00000000000E+00 0.  1.
         24    2    1    2    0    0  0.26194459958E+03  0.24399270911E+03  0.49234699383E+03  0.61391595310E+03  0.79622985304E+02 0.  0.
        254    2    1    2    0    0 -0.26194459958E+03 -0.24399270911E+03  0.12575715970E+04  0.15810451345E+04  0.88885880796E+03 0.  0.
         23    2    4    4    0    0  0.58217961510E+02 -0.12348155886E+03  0.12125094655E+04  0.12235789525E+04  0.91264573919E+02 0.  0.
         23    2    4    4    0    0 -0.32016256109E+03 -0.12051115025E+03  0.45062131404E+02  0.35746618203E+03  0.93404886106E+02 0.  0.
          4    1    3    3  502    0  0.12905107092E+03  0.10597699924E+03  0.29419243002E+03  0.33828167132E+03  0.00000000000E+00 0. -1.
         -3    1    3    3    0  502  0.13289352866E+03  0.13801570987E+03  0.19815456381E+03  0.27563428177E+03  0.00000000000E+00 0.  1.
         11    1    5    5    0    0  0.17922039389E+02 -0.74566228537E+01  0.38057317966E+02  0.42721893345E+02  0.00000000000E+00 0. -1.
        -11    1    5    5    0    0  0.40295922122E+02 -0.11602493601E+03  0.11744521476E+04  0.11808570591E+04  0.00000000000E+00 0.  1.
          1    1    6    6  503    0 -0.12537638092E+03 -0.69094594273E+01 -0.79764007708E+01  0.12581971424E+03  0.00000000000E+00 0. -1.
         -1    1    6    6    0  503 -0.19478618017E+03 -0.11360169083E+03  0.53038532175E+02  0.23164646779E+03  0.00000000000E+00 0.  1.
<mgrwt>
<rscale>  0 0.13250053E+04</rscale>
<asrwt>0</asrwt>
<pdfrwt beam="1">  1        2 0.30345227E+00 0.13250053E+04</pdfrwt>
<pdfrwt beam="2">  1       -1 0.34234039E-01 0.13250053E+04</pdfrwt>
<totfact> 0.62330083E+01</totfact>
</mgrwt>
</event>
<event>
12    6  0.1647231E-007  0.2456981E+04  0.7818608E-02  0.8418473E-01
          2   -1    0    0  501    0  0.00000000000E+00  0.00000000000E+00  0.23419794793E+04  0.23419794793E+04  0.00000000000E+00 0. -1.
         -1   -1    0    0    0  501 -0.00000000000E+00 -0.00000000000E+00 -0.64440751709E+03  0.64440751709E+03  0.00000000000E+00 0.  1.
         24    2    1    2    0    0  0.81049817185E+02 -0.27170718549E+02 -0.55080560618E+03  0.56294868472E+03  0.78848494054E+02 0.  0.
        254    2    1    2    0    0 -0.81049817185E+02  0.27170718549E+02  0.22483775684E+04  0.24234383117E+04  0.90030230461E+03 0.  0.
         23    2    4    4    0    0 -0.13846099691E+03 -0.41538271410E+03  0.10092321987E+04  0.11035627475E+04  0.87102583071E+02 0.  0.
         23    2    4    4    0    0  0.57411179722E+02  0.44255343265E+03  0.12391453696E+04  0.13198755641E+04  0.86259337765E+02 0.  0.
          2    1    3    3  502    0  0.45229256114E+02 -0.41196427649E+02 -0.17916191189E+03  0.18931936491E+03  0.00000000000E+00 0. -1.
         -1    1    3    3    0  502  0.35820561070E+02  0.14025709100E+02 -0.37164369429E+03  0.37362931980E+03  0.00000000000E+00 0.  1.
         11    1    5    5    0    0  0.76232504782E+01 -0.65127959748E+02  0.12025102524E+03  0.13696742007E+03  0.00000000000E+00 0. -1.
        -11    1    5    5    0    0 -0.14608424739E+03 -0.35025475435E+03  0.88898117348E+03  0.96659532747E+03  0.00000000000E+00 0.  1.
          4    1    6    6  503    0  0.18628949086E+01  0.17392505149E+03  0.37804927085E+03  0.41614257785E+03  0.00000000000E+00 0. -1.
         -4    1    6    6    0  503  0.55548284814E+02  0.26862838116E+03  0.86109609880E+03  0.90373298627E+03  0.00000000000E+00 0.  1.
<mgrwt>
<rscale>  0 0.24569812E+04</rscale>
<asrwt>0</asrwt>
<pdfrwt beam="1">  1        2 0.36030453E+00 0.24569812E+04</pdfrwt>
<pdfrwt beam="2">  1       -1 0.99139619E-01 0.24569812E+04</pdfrwt>
<totfact> 0.42465038E+00</totfact>
</mgrwt>
</event>
<event>
12    6  0.1647231E-007  0.3056950E+04  0.7818608E-02  0.8227653E-01
          2   -1    0    0  501    0  0.00000000000E+00  0.00000000000E+00  0.12643607223E+04  0.12643607223E+04  0.00000000000E+00 0. -1.
         -1   -1    0    0    0  501 -0.00000000000E+00 -0.00000000000E+00 -0.18477607395E+04  0.18477607395E+04  0.00000000000E+00 0.  1.
         24    2    1    2    0    0  0.40742322637E+03  0.12510960702E+04  0.20925561974E+03  0.13341334896E+04  0.69922753625E+02 0.  0.
        254    2    1    2    0    0 -0.40742322637E+03 -0.12510960702E+04 -0.79265563697E+03  0.17779879723E+04  0.89537880728E+03 0.  0.
         23    2    4    4    0    0 -0.52309679771E+02 -0.73364955263E+03  0.28270525744E+02  0.74083969629E+03  0.84061074805E+02 0.  0.
         23    2    4    4    0    0 -0.35511354660E+03 -0.51744651752E+03 -0.82092616271E+03  0.10371482760E+04  0.88883363152E+02 0.  0.
          2    1    3    3  502    0  0.37421569942E+03  0.11414130413E+04  0.21066610728E+03  0.12195250425E+04  0.00000000000E+00 0. -1.
         -1    1    3    3    0  502  0.33207526951E+02  0.10968302882E+03 -0.14104875442E+01  0.11460844703E+03  0.00000000000E+00 0.  1.
         11    1    5    5    0    0 -0.70592228082E+01 -0.39701633553E+03  0.51400945766E+02  0.40039213345E+03  0.00000000000E+00 0.  1.
        -11    1    5    5    0    0 -0.45250456962E+02 -0.33663321710E+03 -0.23130420022E+02  0.34044756284E+03  0.00000000000E+00 0. -1.
          4    1    6    6  503    0 -0.16018171602E+03 -0.21151534518E+03 -0.41687748684E+03  0.49414953448E+03  0.00000000000E+00 0. -1.
         -4    1    6    6    0  503 -0.19493183057E+03 -0.30593117234E+03 -0.40404867587E+03  0.54299874149E+03  0.00000000000E+00 0.  1.
<mgrwt>
<rscale>  0 0.30569502E+04</rscale>
<asrwt>0</asrwt>
<pdfrwt beam="1">  1        2 0.19451703E+00 0.30569502E+04</pdfrwt>
<pdfrwt beam="2">  1       -1 0.28427088E+00 0.30569502E+04</pdfrwt>
<totfact> 0.70300772E-01</totfact>
</mgrwt>
</event>
<event>
12    6  0.1647231E-007  0.4009269E+04  0.7818608E-02  0.8002679E-01
         -1   -1    0    0    0  501 -0.00000000000E+00  0.00000000000E+00  0.17767356092E+04  0.17767356092E+04  0.00000000000E+00 0.  1.
          2   -1    0    0  501    0  0.00000000000E+00 -0.00000000000E+00 -0.22617650844E+04  0.22617650844E+04  0.00000000000E+00 0. -1.
         24    2    1    2    0    0 -0.11977843375E+04  0.13673912336E+04 -0.79647227765E+03  0.19863059531E+04  0.81222814203E+02 0.  0.
        254    2    1    2    0    0  0.11977843375E+04 -0.13673912336E+04  0.31144280250E+03  0.20521947405E+04  0.90003362652E+03 0.  0.
         23    2    4    4    0    0  0.10416158616E+04 -0.10452444704E+04 -0.12134171189E+03  0.14833488520E+04  0.90002220313E+02 0.  0.
         23    2    4    4    0    0  0.15616847596E+03 -0.32214676316E+03  0.43278451438E+03  0.56884588852E+03  0.90089284028E+02 0.  0.
          4    1    3    3  502    0 -0.99247676542E+03  0.11755608460E+04 -0.68282522440E+03  0.16832123216E+04  0.00000000000E+00 0. -1.
         -3    1    3    3    0  502 -0.20530757211E+03  0.19183038753E+03 -0.11364705326E+03  0.30309363151E+03  0.00000000000E+00 0.  1.
         11    1    5    5    0    0  0.80345296247E+03 -0.75789797091E+03 -0.71547641257E+02  0.11068265728E+04  0.00000000000E+00 0. -1.
        -11    1    5    5    0    0  0.23816289909E+03 -0.28734649949E+03 -0.49794070628E+02  0.37652227922E+03  0.00000000000E+00 0.  1.
          2    1    6    6  503    0  0.15562282066E+03 -0.23900924574E+03  0.35041069427E+03  0.45180918153E+03  0.00000000000E+00 0. -1.
         -2    1    6    6    0  503  0.54565530734E+00 -0.83137517418E+02  0.82373820114E+02  0.11703670699E+03  0.00000000000E+00 0.  1.
<mgrwt>
<rscale>  0 0.40092685E+04</rscale>
<asrwt>0</asrwt>
<pdfrwt beam="1">  1        2 0.34796386E+00 0.40092685E+04</pdfrwt>
<pdfrwt beam="2">  1       -1 0.27334394E+00 0.40092685E+04</pdfrwt>
<totfact> 0.20998057E-01</totfact>
</mgrwt>
</event>
<event>
12    6  0.1647231E-007  0.1514695E+04  0.7818608E-02  0.8874739E-01
         -1   -1    0    0    0  501 -0.00000000000E+00  0.00000000000E+00  0.39845319860E+03  0.39845319860E+03  0.00000000000E+00 0.  1.
          2   -1    0    0  501    0  0.00000000000E+00 -0.00000000000E+00 -0.14395048030E+04  0.14395048030E+04  0.00000000000E+00 0. -1.
         24    2    1    2    0    0 -0.45560328123E+02  0.13896152850E+03 -0.88766458841E+03  0.90306595143E+03  0.78699690055E+02 0.  0.
        254    2    1    2    0    0  0.45560328123E+02 -0.13896152850E+03 -0.15338701598E+03  0.93489205016E+03  0.91055451176E+03 0.  0.
         23    2    4    4    0    0 -0.29360300745E+03 -0.37781597051E+03 -0.15143146033E+03  0.50990277708E+03  0.90120593302E+02 0.  0.
         23    2    4    4    0    0  0.33916333558E+03  0.23885444201E+03 -0.19555556505E+01  0.42498927309E+03  0.92351748100E+02 0.  0.
          2    1    3    3  502    0 -0.66651658922E+01  0.95804369779E+02 -0.70158867033E+03  0.70813103593E+03  0.00000000000E+00 0. -1.
         -1    1    3    3    0  502 -0.38895162231E+02  0.43157158721E+02 -0.18607591808E+03  0.19493491550E+03  0.00000000000E+00 0.  1.
         11    1    5    5    0    0 -0.27286321589E+03 -0.29749338759E+03 -0.13185335225E+03  0.42466687739E+03  0.00000000000E+00 0.  1.
        -11    1    5    5    0    0 -0.20739791560E+02 -0.80322582915E+02 -0.19578108073E+02  0.85235899689E+02  0.00000000000E+00 0. -1.
          4    1    6    6  503    0  0.90224311751E+02  0.11000651478E+03  0.20680428074E+02  0.14376905032E+03  0.00000000000E+00 0. -1.
         -4    1    6    6    0  503  0.24893902383E+03  0.12884792722E+03 -0.22635983724E+02  0.28122022277E+03  0.00000000000E+00 0.  1.
<mgrwt>
<rscale>  0 0.15146951E+04</rscale>
<asrwt>0</asrwt>
<pdfrwt beam="1">  1        2 0.22146228E+00 0.15146951E+04</pdfrwt>
<pdfrwt beam="2">  1       -1 0.61300492E-01 0.15146951E+04</pdfrwt>
<totfact> 0.40780454E+01</totfact>
</mgrwt>
</event>
<event>
12    6  0.1647231E-007  0.2070494E+04  0.7818608E-02  0.8574353E-01
          2   -1    0    0  501    0  0.00000000000E+00  0.00000000000E+00  0.76092421067E+03  0.76092421067E+03  0.00000000000E+00 0. -1.
         -1   -1    0    0    0  501 -0.00000000000E+00 -0.00000000000E+00 -0.14084672689E+04  0.14084672689E+04  0.00000000000E+00 0.  1.
         24    2    1    2    0    0  0.51316727578E+02  0.72511012900E+02 -0.11383834714E+04  0.11449276905E+04  0.83971631956E+02 0.  0.
        254    2    1    2    0    0 -0.51316727578E+02 -0.72511012900E+02  0.49084041321E+03  0.10244637890E+04  0.89482427899E+03 0.  0.
         23    2    4    4    0    0  0.20141498778E+03 -0.39424135622E+03  0.38069932797E+03  0.59077488123E+03  0.89937410029E+02 0.  0.
         23    2    4    4    0    0 -0.25273171535E+03  0.32173034332E+03  0.11014108524E+03  0.43368890780E+03  0.92581187781E+02 0.  0.
          2    1    3    3  502    0 -0.14661292296E+02 -0.15099324767E+01 -0.52600562975E+02  0.54626482709E+02  0.00000000000E+00 0. -1.
         -1    1    3    3    0  502  0.65978019874E+02  0.74020945377E+02 -0.10857829084E+04  0.10903012078E+04  0.00000000000E+00 0.  1.
         11    1    5    5    0    0  0.20151615898E+03 -0.36565102184E+03  0.32844901286E+03  0.53121387985E+03  0.00000000000E+00 0. -1.
        -11    1    5    5    0    0 -0.10117120877E+00 -0.28590334384E+02  0.52250315115E+02  0.59561001380E+02  0.00000000000E+00 0.  1.
          4    1    6    6  503    0 -0.22944940513E+03  0.27734130592E+03  0.64072502461E+02  0.36560978523E+03  0.00000000000E+00 0. -1.
         -4    1    6    6    0  503 -0.23282310226E+02  0.44389037398E+02  0.46068582777E+02  0.68079122568E+02  0.00000000000E+00 0.  1.
<mgrwt>
<rscale>  0 0.20704945E+04</rscale>
<asrwt>0</asrwt>
<pdfrwt beam="1">  1        2 0.11706527E+00 0.20704945E+04</pdfrwt>
<pdfrwt beam="2">  1       -1 0.21668727E+00 0.20704945E+04</pdfrwt>
<totfact> 0.44936905E+00</totfact>
</mgrwt>
</event>
<event>
12    6  0.1647231E-007  0.2732122E+04  0.7818608E-02  0.8324657E-01
         -1   -1    0    0    0  501 -0.00000000000E+00  0.00000000000E+00  0.81635054961E+03  0.81635054961E+03  0.00000000000E+00 0.  1.
          2   -1    0    0  501    0  0.00000000000E+00 -0.00000000000E+00 -0.22859335920E+04  0.22859335920E+04  0.00000000000E+00 0. -1.
         24    2    1    2    0    0  0.10552750293E+04 -0.60268029605E+03 -0.60920062111E+03  0.13627303567E+04  0.95287467956E+02 0.  0.
        254    2    1    2    0    0 -0.10552750293E+04  0.60268029605E+03 -0.86038242132E+03  0.17395537850E+04  0.89942233302E+03 0.  0.
         23    2    4    4    0    0 -0.74573009224E+03  0.61956402613E+03 -0.98943221240E+03  0.13883159389E+04  0.92043958635E+02 0.  0.
         23    2    4    4    0    0 -0.30954493707E+03 -0.16883730080E+02  0.12904979108E+03  0.35123784606E+03  0.10300993894E+03 0.  0.
          4    1    3    3  502    0  0.88617368801E+03 -0.46427890813E+03 -0.49624983977E+03  0.11167464409E+04  0.00000000000E+00 0. -1.
         -3    1    3    3    0  502  0.16910134130E+03 -0.13840138792E+03 -0.11295078134E+03  0.24598391576E+03  0.00000000000E+00 0.  1.
         11    1    5    5    0    0 -0.35086199378E+03  0.23786040470E+03 -0.45891548893E+03  0.62472805026E+03  0.00000000000E+00 0. -1.
        -11    1    5    5    0    0 -0.39486809847E+03  0.38170362143E+03 -0.53051672347E+03  0.76358788864E+03  0.00000000000E+00 0.  1.
          1    1    6    6  503    0 -0.57829474235E+02  0.95123853624E+01  0.70092992078E+02  0.91366082898E+02  0.00000000000E+00 0. -1.
         -1    1    6    6    0  503 -0.25171546284E+03 -0.26396115443E+02  0.58956799006E+02  0.25987176316E+03  0.00000000000E+00 0.  1.
<mgrwt>
<rscale>  0 0.27321224E+04</rscale>
<asrwt>0</asrwt>
<pdfrwt beam="1">  1        2 0.35168209E+00 0.27321224E+04</pdfrwt>
<pdfrwt beam="2">  1       -1 0.12559239E+00 0.27321224E+04</pdfrwt>
<totfact> 0.25408366E+00</totfact>
</mgrwt>
</event>
<event>
12    6  0.1647231E-007  0.1604473E+04  0.7818608E-02  0.8817805E-01
          2   -1    0    0  501    0  0.00000000000E+00  0.00000000000E+00  0.40893241707E+04  0.40893241707E+04  0.00000000000E+00 0. -1.
         -1   -1    0    0    0  501 -0.00000000000E+00 -0.00000000000E+00 -0.15738129652E+03  0.15738129652E+03  0.00000000000E+00 0.  1.
         24    2    1    2    0    0  0.35926989835E+03 -0.41079645682E+03  0.12649027978E+04  0.13801585727E+04  0.83845149660E+02 0.  0.
        254    2    1    2    0    0 -0.35926989835E+03  0.41079645682E+03  0.26670400764E+04  0.28665468945E+04  0.89786398782E+03 0.  0.
         23    2    4    4    0    0 -0.12757250437E+03  0.45010324808E+03  0.52217401238E+03  0.70690039243E+03  0.90414533231E+02 0.  0.
         23    2    4    4    0    0 -0.23169739398E+03 -0.39306791253E+02  0.21448660640E+04  0.21596465021E+04  0.91618094391E+02 0.  0.
          4    1    3    3  502    0  0.16684899701E+03 -0.21243799149E+03  0.72392795355E+03  0.77268374511E+03  0.00000000000E+00 0. -1.
         -3    1    3    3    0  502  0.19242090133E+03 -0.19835846533E+03  0.54097484421E+03  0.60747482755E+03  0.00000000000E+00 0.  1.
         11    1    5    5    0    0 -0.19985346537E+02  0.22850788857E+03  0.23164374429E+03  0.32599707588E+03  0.00000000000E+00 0.  1.
        -11    1    5    5    0    0 -0.10758715783E+03  0.22159535951E+03  0.29053026809E+03  0.38090331656E+03  0.00000000000E+00 0. -1.
          1    1    6    6  503    0 -0.17840501198E+02 -0.29211705595E+02  0.18674927714E+03  0.18986021105E+03  0.00000000000E+00 0. -1.
         -1    1    6    6    0  503 -0.21385689279E+03 -0.10095085658E+02  0.19581167869E+04  0.19697862910E+04  0.00000000000E+00 0.  1.
<mgrwt>
<rscale>  0 0.16044727E+04</rscale>
<asrwt>0</asrwt>
<pdfrwt beam="1">  1        2 0.62912672E+00 0.16044727E+04</pdfrwt>
<pdfrwt beam="2">  1       -1 0.24212510E-01 0.16044727E+04</pdfrwt>
<totfact> 0.47685633E+00</totfact>
</mgrwt>
</event>
<event>
12    6  0.1647231E-007  0.2097959E+04  0.7818608E-02  0.8562143E-01
          2   -1    0    0  501    0  0.00000000000E+00  0.00000000000E+00  0.10274970879E+04  0.10274970879E+04  0.00000000000E+00 0. -1.
         -1   -1    0    0    0  501 -0.00000000000E+00 -0.00000000000E+00 -0.10709115654E+04  0.10709115654E+04  0.00000000000E+00 0.  1.
         24    2    1    2    0    0 -0.52009336879E+03 -0.95495725784E+02 -0.69460779934E+03  0.87664465366E+03  0.80058153725E+02 0.  0.
        254    2    1    2    0    0  0.52009336879E+03  0.95495725784E+02  0.65119332184E+03  0.12217639997E+04  0.88827809985E+03 0.  0.
         23    2    4    4    0    0 -0.51670893191E+02  0.36963443819E+03  0.32090441230E+03  0.50101957122E+03  0.93495827810E+02 0.  0.
         23    2    4    4    0    0  0.57176426198E+03 -0.27413871240E+03  0.33028890954E+03  0.72074442849E+03  0.91188609572E+02 0.  0.
          2    1    3    3  502    0 -0.20001568641E+02  0.73081085916E+01 -0.49980671229E+02  0.54328065452E+02  0.00000000000E+00 0. -1.
         -1    1    3    3    0  502 -0.50009180015E+03 -0.10280383438E+03 -0.64462712811E+03  0.82231658820E+03  0.00000000000E+00 0.  1.
         11    1    5    5    0    0 -0.62138141555E+02  0.17728173891E+03  0.19568414865E+03  0.27126048297E+03  0.00000000000E+00 0.  1.
        -11    1    5    5    0    0  0.10467248364E+02  0.19235269928E+03  0.12522026365E+03  0.22975908826E+03  0.00000000000E+00 0. -1.
          1    1    6    6  503    0  0.32174723788E+03 -0.17790282296E+03  0.23529302220E+03  0.43650143848E+03  0.00000000000E+00 0. -1.
         -1    1    6    6    0  503  0.25001702410E+03 -0.96235889441E+02  0.94995887344E+02  0.28424299001E+03  0.00000000000E+00 0.  1.
<mgrwt>
<rscale>  0 0.20979595E+04</rscale>
<asrwt>0</asrwt>
<pdfrwt beam="1">  1        2 0.15807648E+00 0.20979595E+04</pdfrwt>
<pdfrwt beam="2">  1       -1 0.16475563E+00 0.20979595E+04</pdfrwt>
<totfact> 0.68431684E+00</totfact>
</mgrwt>
</event>
<event>
12    6  0.1647231E-007  0.1610500E+04  0.7818608E-02  0.8814123E-01
         -1   -1    0    0    0  501 -0.00000000000E+00  0.00000000000E+00  0.28270529543E+03  0.28270529543E+03  0.00000000000E+00 0.  1.
          2   -1    0    0  501    0  0.00000000000E+00 -0.00000000000E+00 -0.22936520756E+04  0.22936520756E+04  0.00000000000E+00 0. -1.
         24    2    1    2    0    0 -0.17880511984E+03 -0.27940047000E+03 -0.14002100626E+04  0.14413072013E+04  0.82111727286E+02 0.  0.
        254    2    1    2    0    0  0.17880511984E+03  0.27940047000E+03 -0.61073671762E+03  0.11350501697E+04  0.89738712718E+03 0.  0.
         23    2    4    4    0    0  0.42897889946E+03  0.17715127252E+01 -0.60779645964E+03  0.74964791715E+03  0.92354907306E+02 0.  0.
         23    2    4    4    0    0 -0.25017377962E+03  0.27762895727E+03 -0.29402579803E+01  0.38540225257E+03  0.94135504716E+02 0.  0.
          4    1    3    3  502    0 -0.16937473332E+03 -0.28286304386E+03 -0.13786081930E+04  0.14174836337E+04  0.00000000000E+00 0. -1.
         -3    1    3    3    0  502 -0.94303865223E+01  0.34625738623E+01 -0.21601869551E+02  0.23823567655E+02  0.00000000000E+00 0.  1.
         11    1    5    5    0    0  0.41246955525E+03 -0.18193432306E+02 -0.56966496974E+03  0.70354837271E+03  0.00000000000E+00 0. -1.
        -11    1    5    5    0    0  0.16509344207E+02  0.19964945032E+02 -0.38131489902E+02  0.46099544449E+02  0.00000000000E+00 0.  1.
          4    1    6    6  503    0 -0.22863956619E+03  0.20739698037E+03  0.17396779113E+02  0.30917989362E+03  0.00000000000E+00 0. -1.
         -4    1    6    6    0  503 -0.21534213432E+02  0.70231976899E+02 -0.20337037094E+02  0.76222358957E+02  0.00000000000E+00 0.  1.
<mgrwt>
<rscale>  0 0.16105000E+04</rscale>
<asrwt>0</asrwt>
<pdfrwt beam="1">  1        2 0.35286955E+00 0.16105000E+04</pdfrwt>
<pdfrwt beam="2">  1       -1 0.43493123E-01 0.16105000E+04</pdfrwt>
<totfact> 0.26060566E+01</totfact>
</mgrwt>
</event>
<event>
12    6  0.1647231E-007  0.1725929E+04  0.7818608E-02  0.8746713E-01
          2   -1    0    0  501    0  0.00000000000E+00  0.00000000000E+00  0.20693666936E+04  0.20693666936E+04  0.00000000000E+00 0. -1.
         -1   -1    0    0    0  501 -0.00000000000E+00 -0.00000000000E+00 -0.35987216383E+03  0.35987216383E+03  0.00000000000E+00 0.  1.
         24    2    1    2    0    0  0.46037195957E+03  0.16042722105E+03  0.78763206252E+02  0.50049205710E+03  0.81298352694E+02 0.  0.
        254    2    1    2    0    0 -0.46037195957E+03 -0.16042722105E+03  0.16307313235E+04  0.19287468003E+04  0.90724877285E+03 0.  0.
         23    2    4    4    0    0 -0.63302461964E+03 -0.25269636699E+03  0.15564698226E+04  0.17016642545E+04  0.92126561979E+02 0.  0.
         23    2    4    4    0    0  0.17265266007E+03  0.92269145948E+02  0.74261500922E+02  0.22708254582E+03  0.87915731093E+02 0.  0.
          2    1    3    3  502    0  0.12405465886E+03  0.32722182438E+02 -0.13771471980E+02  0.12903469707E+03  0.00000000000E+00 0. -1.
         -1    1    3    3    0  502  0.33631730072E+03  0.12770503861E+03  0.92534678232E+02  0.37145736003E+03  0.00000000000E+00 0.  1.
         11    1    5    5    0    0 -0.47657071202E+03 -0.21222491874E+03  0.11001821908E+04  0.12176041692E+04  0.00000000000E+00 0.  1.
        -11    1    5    5    0    0 -0.15645390762E+03 -0.40471448255E+02  0.45628763178E+03  0.48406008537E+03  0.00000000000E+00 0. -1.
          1    1    6    6  503    0  0.70399222208E+02 -0.85734494622E+01  0.21963362885E+02  0.74242466502E+02  0.00000000000E+00 0. -1.
         -1    1    6    6    0  503  0.10225343786E+03  0.10084259541E+03  0.52298138038E+02  0.15284007932E+03  0.00000000000E+00 0.  1.
<mgrwt>
<rscale>  0 0.17259287E+04</rscale>
<asrwt>0</asrwt>
<pdfrwt beam="1">  1        2 0.31836410E+00 0.17259287E+04</pdfrwt>
<pdfrwt beam="2">  1       -1 0.55364950E-01 0.17259287E+04</pdfrwt>
<totfact> 0.21807082E+01</totfact>
</mgrwt>
</event>
<event>
12    6  0.1647231E-007  0.1762734E+04  0.7818608E-02  0.8726372E-01
          2   -1    0    0  501    0  0.00000000000E+00  0.00000000000E+00  0.28926526769E+04  0.28926526769E+04  0.00000000000E+00 0. -1.
         -1   -1    0    0    0  501 -0.00000000000E+00 -0.00000000000E+00 -0.26854520175E+03  0.26854520175E+03  0.00000000000E+00 0.  1.
         24    2    1    2    0    0 -0.51658042497E+03  0.22212797379E+03  0.15582870519E+04  0.16586246334E+04  0.81123153904E+02 0.  0.
        254    2    1    2    0    0  0.51658042497E+03 -0.22212797379E+03  0.10658204233E+04  0.15025732453E+04  0.89752827845E+03 0.  0.
         23    2    4    4    0    0  0.12064798099E+03 -0.52708326769E+03  0.57578373301E+03  0.79641742465E+03  0.10188768662E+03 0.  0.
         23    2    4    4    0    0  0.39593244398E+03  0.30495529390E+03  0.49003669027E+03  0.70615582065E+03  0.93594090434E+02 0.  0.
          4    1    3    3  502    0 -0.49764983077E+03  0.22793993480E+03  0.14835030227E+04  0.15812631616E+04  0.00000000000E+00 0. -1.
         -3    1    3    3    0  502 -0.18930594203E+02 -0.58119610137E+01  0.74784029195E+02  0.77361471744E+02  0.00000000000E+00 0.  1.
         11    1    5    5    0    0  0.76525696053E+02 -0.35454319112E+03  0.31367709160E+03  0.47953141120E+03  0.00000000000E+00 0.  1.
        -11    1    5    5    0    0  0.44122284938E+02 -0.17254007657E+03  0.26210664141E+03  0.31688601345E+03  0.00000000000E+00 0. -1.
          3    1    6    6  503    0  0.16077387182E+03  0.76476460756E+02  0.13950708203E+03  0.22618380323E+03  0.00000000000E+00 0. -1.
         -3    1    6    6    0  503  0.23515857216E+03  0.22847883314E+03  0.35052960824E+03  0.47997201742E+03  0.00000000000E+00 0.  1.
<mgrwt>
<rscale>  0 0.17627342E+04</rscale>
<asrwt>0</asrwt>
<pdfrwt beam="1">  1        2 0.44502347E+00 0.17627342E+04</pdfrwt>
<pdfrwt beam="2">  1       -1 0.41314648E-01 0.17627342E+04</pdfrwt>
<totfact> 0.12604437E+01</totfact>
</mgrwt>
</event>
<event>
12    6  0.1647231E-007  0.1178008E+04  0.7818608E-02  0.9132327E-01
          2   -1    0    0  501    0  0.00000000000E+00  0.00000000000E+00  0.57427831032E+03  0.57427831032E+03  0.00000000000E+00 0. -1.
         -1   -1    0    0    0  501 -0.00000000000E+00 -0.00000000000E+00 -0.60410680158E+03  0.60410680158E+03  0.00000000000E+00 0.  1.
         24    2    1    2    0    0  0.21360841442E+03  0.97056196096E+01  0.86237990609E+02  0.24482741934E+03  0.82345130241E+02 0.  0.
        254    2    1    2    0    0 -0.21360841442E+03 -0.97056196096E+01 -0.11606648187E+03  0.93355769255E+03  0.90129672325E+03 0.  0.
         23    2    4    4    0    0 -0.19264173815E+03  0.34896420353E+03  0.19300888102E+03  0.45125229541E+03  0.86541038457E+02 0.  0.
         23    2    4    4    0    0 -0.20966676277E+02 -0.35866982314E+03 -0.30907536290E+03  0.48230539714E+03  0.89483365033E+02 0.  0.
          4    1    3    3  502    0  0.14049420009E+03 -0.70910912588E+01  0.15166432564E+02  0.14148824866E+03  0.00000000000E+00 0. -1.
         -3    1    3    3    0  502  0.73114214335E+02  0.16796710868E+02  0.71071558045E+02  0.10333917068E+03  0.00000000000E+00 0.  1.
         11    1    5    5    0    0 -0.46747546625E+02  0.17009208353E+03  0.70857488234E+02  0.19009848404E+03  0.00000000000E+00 0. -1.
        -11    1    5    5    0    0 -0.14589419152E+03  0.17887212000E+03  0.12215139279E+03  0.26115381137E+03  0.00000000000E+00 0.  1.
          3    1    6    6  503    0 -0.43214750999E+02 -0.26098256463E+03 -0.18488939219E+03  0.32274370805E+03  0.00000000000E+00 0. -1.
         -3    1    6    6    0  503  0.22248074721E+02 -0.97687258512E+02 -0.12418597071E+03  0.15956168909E+03  0.00000000000E+00 0.  1.
<mgrwt>
<rscale>  0 0.11780075E+04</rscale>
<asrwt>0</asrwt>
<pdfrwt beam="1">  1        2 0.88350509E-01 0.11780075E+04</pdfrwt>
<pdfrwt beam="2">  1       -1 0.92939508E-01 0.11780075E+04</pdfrwt>
<totfact> 0.66457571E+01</totfact>
</mgrwt>
</event>
<event>
12    6  0.1647231E-007  0.1457798E+04  0.7818608E-02  0.8913012E-01
         -1   -1    0    0    0  501 -0.00000000000E+00  0.00000000000E+00  0.30460395531E+03  0.30460395531E+03  0.00000000000E+00 0.  1.
          2   -1    0    0  501    0  0.00000000000E+00 -0.00000000000E+00 -0.17442127215E+04  0.17442127215E+04  0.00000000000E+00 0. -1.
         24    2    1    2    0    0 -0.40351897022E+03  0.26395810387E+02 -0.72258498275E+03  0.83214604676E+03  0.82545064717E+02 0.  0.
        254    2    1    2    0    0  0.40351897022E+03 -0.26395810387E+02 -0.71702378342E+03  0.12166706300E+04  0.89590179030E+03 0.  0.
         23    2    4    4    0    0  0.23402765988E+03 -0.38599576617E+03 -0.65965508205E+03  0.80451396498E+03  0.91302877760E+02 0.  0.
         23    2    4    4    0    0  0.16949131035E+03  0.35959995579E+03 -0.57368701365E+02  0.41215666505E+03  0.92425733242E+02 0.  0.
          4    1    3    3  502    0 -0.22115957646E+03  0.40860505758E+00 -0.47097255321E+03  0.52031420420E+03  0.00000000000E+00 0. -1.
         -3    1    3    3    0  502 -0.18235939376E+03  0.25987205330E+02 -0.25161242954E+03  0.31183184255E+03  0.00000000000E+00 0.  1.
         11    1    5    5    0    0  0.16217013491E+03 -0.29813446929E+03 -0.55254162713E+03  0.64844858250E+03  0.00000000000E+00 0. -1.
        -11    1    5    5    0    0  0.71857524971E+02 -0.87861296883E+02 -0.10711345492E+03  0.15606538249E+03  0.00000000000E+00 0.  1.
          1    1    6    6  503    0  0.76561674893E+02  0.11343865401E+03  0.19022234221E+02  0.13817331030E+03  0.00000000000E+00 0. -1.
         -1    1    6    6    0  503  0.92929635453E+02  0.24616130178E+03 -0.76390935586E+02  0.27398335475E+03  0.00000000000E+00 0.  1.
<mgrwt>
<rscale>  0 0.14577985E+04</rscale>
<asrwt>0</asrwt>
<pdfrwt beam="1">  1        2 0.26834042E+00 0.14577985E+04</pdfrwt>
<pdfrwt beam="2">  1       -1 0.46862147E-01 0.14577985E+04</pdfrwt>
<totfact> 0.46438939E+01</totfact>
</mgrwt>
</event>
<event>
12    6  0.1647231E-007  0.2285378E+04  0.7818608E-02  0.8483709E-01
         -1   -1    0    0    0  501 -0.00000000000E+00  0.00000000000E+00  0.53624898739E+03  0.53624898739E+03  0.00000000000E+00 0.  1.
          2   -1    0    0  501    0  0.00000000000E+00 -0.00000000000E+00 -0.24349480731E+04  0.24349480731E+04  0.00000000000E+00 0. -1.
         24    2    1    2    0    0 -0.71887354268E+02 -0.94586605793E+03 -0.10680311624E+04  0.14306975289E+04  0.79840240366E+02 0.  0.
        254    2    1    2    0    0  0.71887354268E+02  0.94586605793E+03 -0.83066792327E+03  0.15404995316E+04  0.88504192941E+03 0.  0.
         23    2    4    4    0    0  0.14078606431E+03 -0.11454681867E+03 -0.25799581083E+02  0.20440332963E+03  0.90406931188E+02 0.  0.
         23    2    4    4    0    0 -0.68898710043E+02  0.10604128766E+04 -0.80486834218E+03  0.13360962020E+04  0.90097233678E+02 0.  0.
          2    1    3    3  502    0 -0.78633173721E+02 -0.91520024074E+03 -0.10139545013E+04  0.13681660671E+04  0.00000000000E+00 0. -1.
         -1    1    3    3    0  502  0.67458194532E+01 -0.30665817195E+02 -0.54076661163E+02  0.62531461736E+02  0.00000000000E+00 0.  1.
         11    1    5    5    0    0  0.56956343083E+02 -0.23766679068E+02  0.30236975813E+02  0.68725211950E+02  0.00000000000E+00 0.  1.
        -11    1    5    5    0    0  0.83829721228E+02 -0.90780139604E+02 -0.56036556897E+02  0.13567811768E+03  0.00000000000E+00 0. -1.
          4    1    6    6  503    0 -0.21394249803E+02  0.43672795225E+03 -0.38651073539E+03  0.58359195229E+03  0.00000000000E+00 0. -1.
         -4    1    6    6    0  503 -0.47504460241E+02  0.62368492435E+03 -0.41835760680E+03  0.75250424967E+03  0.00000000000E+00 0.  1.
<mgrwt>
<rscale>  0 0.22853783E+04</rscale>
<asrwt>0</asrwt>
<pdfrwt beam="1">  1        2 0.37460739E+00 0.22853783E+04</pdfrwt>
<pdfrwt beam="2">  1       -1 0.82499845E-01 0.22853783E+04</pdfrwt>
<totfact> 0.57248639E+00</totfact>
</mgrwt>
</event>
<event>
12    6  0.1647231E-007  0.2481214E+04  0.7818608E-02  0.8409709E-01
          2   -1    0    0  501    0  0.00000000000E+00  0.00000000000E+00  0.12894562495E+04  0.12894562495E+04  0.00000000000E+00 0. -1.
         -1   -1    0    0    0  501 -0.00000000000E+00 -0.00000000000E+00 -0.11936085483E+04  0.11936085483E+04  0.00000000000E+00 0.  1.
         24    2    1    2    0    0  0.98710752363E+03 -0.37978482431E+03 -0.20149008208E+03  0.10794389936E+04  0.77282027055E+02 0.  0.
        254    2    1    2    0    0 -0.98710752363E+03  0.37978482431E+03  0.29733778337E+03  0.14036258042E+04  0.87357762381E+03 0.  0.
         23    2    4    4    0    0 -0.10365557953E+04  0.19681227718E+03  0.24504479490E+02  0.10591217123E+04  0.89192728067E+02 0.  0.
         23    2    4    4    0    0  0.49448271705E+02  0.18297254713E+03  0.27283330389E+03  0.34450409187E+03  0.91219367595E+02 0.  0.
          4    1    3    3  502    0  0.17285788231E+03 -0.36241250807E+02 -0.28193467243E+02  0.17885230592E+03  0.00000000000E+00 0. -1.
         -3    1    3    3    0  502  0.81424964132E+03 -0.34354357351E+03 -0.17329661484E+03  0.90058668767E+03  0.00000000000E+00 0.  1.
         11    1    5    5    0    0 -0.10374522155E+03  0.18220437704E+02 -0.24357783091E+02  0.10811270482E+03  0.00000000000E+00 0. -1.
        -11    1    5    5    0    0 -0.93281057378E+03  0.17859183948E+03  0.48862262581E+02  0.95100900753E+03  0.00000000000E+00 0.  1.
          2    1    6    6  503    0 -0.19011321079E+02  0.50794788026E+01  0.23281198867E+02  0.30483530878E+02  0.00000000000E+00 0. -1.
         -2    1    6    6    0  503  0.68459592785E+02  0.17789306833E+03  0.24955210502E+03  0.31402056099E+03  0.00000000000E+00 0.  1.
<mgrwt>
<rscale>  0 0.24812142E+04</rscale>
<asrwt>0</asrwt>
<pdfrwt beam="1">  1        2 0.19837788E+00 0.24812142E+04</pdfrwt>
<pdfrwt beam="2">  1       -1 0.18363208E+00 0.24812142E+04</pdfrwt>
<totfact> 0.33456057E+00</totfact>
</mgrwt>
</event>
<event>
12    6  0.1647231E-007  0.1517915E+04  0.7818608E-02  0.8872627E-01
          2   -1    0    0  501    0  0.00000000000E+00  0.00000000000E+00  0.22492780355E+04  0.22492780355E+04  0.00000000000E+00 0. -1.
         -1   -1    0    0    0  501 -0.00000000000E+00 -0.00000000000E+00 -0.25608933274E+03  0.25608933274E+03  0.00000000000E+00 0.  1.
         24    2    1    2    0    0  0.41680999417E+03  0.56240031425E+02  0.10630761130E+04  0.11460605697E+04  0.80190367385E+02 0.  0.
        254    2    1    2    0    0 -0.41680999417E+03 -0.56240031425E+02  0.93011258976E+03  0.13593067985E+04  0.89761463364E+03 0.  0.
         23    2    4    4    0    0 -0.27775924773E+03 -0.19270072053E+03  0.10550424855E+04  0.11112824144E+04  0.86891835048E+02 0.  0.
         23    2    4    4    0    0 -0.13905074644E+03  0.13646068911E+03 -0.12492989569E+03  0.24802438416E+03  0.89173911769E+02 0.  0.
          2    1    3    3  502    0  0.23345666260E+03  0.27747412952E+02  0.69810261910E+03  0.73662690626E+03  0.00000000000E+00 0. -1.
         -1    1    3    3    0  502  0.18335333158E+03  0.28492618473E+02  0.36497349386E+03  0.40943366340E+03  0.00000000000E+00 0.  1.
         11    1    5    5    0    0 -0.28416671464E+03 -0.18523794857E+03  0.10249846626E+04  0.10796561388E+04  0.00000000000E+00 0.  1.
        -11    1    5    5    0    0  0.64074669091E+01 -0.74627719641E+01  0.30057822810E+02  0.31626275621E+02  0.00000000000E+00 0. -1.
          3    1    6    6  503    0 -0.70373958935E+02  0.31074291292E+02 -0.98882086229E+01  0.77562119267E+02  0.00000000000E+00 0. -1.
         -3    1    6    6    0  503 -0.68676787505E+02  0.10538639782E+03 -0.11504168707E+03  0.17046226489E+03  0.00000000000E+00 0.  1.
<mgrwt>
<rscale>  0 0.15179145E+04</rscale>
<asrwt>0</asrwt>
<pdfrwt beam="1">  1        2 0.34604276E+00 0.15179145E+04</pdfrwt>
<pdfrwt beam="2">  1       -1 0.39398360E-01 0.15179145E+04</pdfrwt>
<totfact> 0.33375563E+01</totfact>
</mgrwt>
</event>
<event>
12    6  0.1647231E-007  0.1422211E+04  0.7818608E-02  0.8937896E-01
          2   -1    0    0  501    0  0.00000000000E+00  0.00000000000E+00  0.13656970260E+04  0.13656970260E+04  0.00000000000E+00 0. -1.
         -1   -1    0    0    0  501 -0.00000000000E+00 -0.00000000000E+00 -0.37026594305E+03  0.37026594305E+03  0.00000000000E+00 0.  1.
         24    2    1    2    0    0 -0.22694204072E+03 -0.12031441164E+03  0.70519428018E+03  0.75485356434E+03  0.80787890887E+02 0.  0.
        254    2    1    2    0    0  0.22694204072E+03  0.12031441164E+03  0.29023680281E+03  0.98110940474E+03  0.90131016574E+03 0.  0.
         23    2    4    4    0    0 -0.25273749795E+03  0.29931561091E+03  0.21088443277E+03  0.45542749607E+03  0.97344144109E+02 0.  0.
         23    2    4    4    0    0  0.47967953867E+03 -0.17900119926E+03  0.79352370040E+02  0.52568190867E+03  0.88942573129E+02 0.  0.
          2    1    3    3  502    0 -0.12721361360E+03 -0.67287014892E+02  0.27878710008E+03  0.31374048675E+03  0.00000000000E+00 0. -1.
         -1    1    3    3    0  502 -0.99728427120E+02 -0.53027396752E+02  0.42640718010E+03  0.44111307759E+03  0.00000000000E+00 0.  1.
         11    1    5    5    0    0 -0.23330807996E+03  0.25433489358E+03  0.21439304020E+03  0.40630441046E+03  0.00000000000E+00 0.  1.
        -11    1    5    5    0    0 -0.19429417985E+02  0.44980717323E+02 -0.35086074327E+01  0.49123085614E+02  0.00000000000E+00 0. -1.
          3    1    6    6  503    0  0.25309320763E+03 -0.51312731638E+02  0.58313562805E+02  0.26474448018E+03  0.00000000000E+00 0. -1.
         -3    1    6    6    0  503  0.22658633104E+03 -0.12768846763E+03  0.21038807235E+02  0.26093742849E+03  0.00000000000E+00 0.  1.
<mgrwt>
<rscale>  0 0.14222111E+04</rscale>
<asrwt>0</asrwt>
<pdfrwt beam="1">  1        2 0.21010723E+00 0.14222111E+04</pdfrwt>
<pdfrwt beam="2">  1       -1 0.56963992E-01 0.14222111E+04</pdfrwt>
<totfact> 0.52323696E+01</totfact>
</mgrwt>
</event>
<event>
12    6  0.1647231E-007  0.1635782E+04  0.7818608E-02  0.8798863E-01
          2   -1    0    0  501    0  0.00000000000E+00  0.00000000000E+00  0.15912256411E+04  0.15912256411E+04  0.00000000000E+00 0. -1.
         -1   -1    0    0    0  501 -0.00000000000E+00 -0.00000000000E+00 -0.42039636226E+03  0.42039636226E+03  0.00000000000E+00 0.  1.
         24    2    1    2    0    0 -0.30773527988E+03  0.43232383699E+03  0.64923991052E+03  0.84220944655E+03  0.78736191949E+02 0.  0.
        254    2    1    2    0    0  0.30773527988E+03 -0.43232383699E+03  0.52158936830E+03  0.11694125568E+04  0.90214486439E+03 0.  0.
         23    2    4    4    0    0 -0.25908930868E+03  0.46174207315E+01 -0.76132038248E+01  0.27473528686E+03  0.90955629444E+02 0.  0.
         23    2    4    4    0    0  0.56682458856E+03 -0.43694125772E+03  0.52920257212E+03  0.89467726993E+03  0.90467000035E+02 0.  0.
          2    1    3    3  502    0 -0.55158684583E+02  0.54351905928E+02  0.13673948711E+03  0.15714419333E+03  0.00000000000E+00 0. -1.
         -1    1    3    3    0  502 -0.25257659530E+03  0.37797193106E+03  0.51250042341E+03  0.68506525322E+03  0.00000000000E+00 0.  1.
         11    1    5    5    0    0 -0.85776974305E+01 -0.21377446518E+01  0.20728749471E+02  0.22535037165E+02  0.00000000000E+00 0. -1.
        -11    1    5    5    0    0 -0.25051161125E+03  0.67551653832E+01 -0.28341953295E+02  0.25220024969E+03  0.00000000000E+00 0.  1.
          1    1    6    6  503    0  0.58755680257E+02 -0.70100317625E+02  0.97625373565E+02  0.13377966235E+03  0.00000000000E+00 0. -1.
         -1    1    6    6    0  503  0.50806890830E+03 -0.36684094009E+03  0.43157719856E+03  0.76089760759E+03  0.00000000000E+00 0.  1.
<mgrwt>
<rscale>  0 0.16357817E+04</rscale>
<asrwt>0</asrwt>
<pdfrwt beam="1">  1        2 0.24480394E+00 0.16357817E+04</pdfrwt>
<pdfrwt beam="2">  1       -1 0.64676364E-01 0.16357817E+04</pdfrwt>
<totfact> 0.29787252E+01</totfact>
</mgrwt>
</event>
<event>
12    6  0.1647231E-007  0.2307740E+04  0.7818608E-02  0.8474876E-01
          2   -1    0    0  501    0  0.00000000000E+00  0.00000000000E+00  0.77420824200E+03  0.77420824200E+03  0.00000000000E+00 0. -1.
         -1   -1    0    0    0  501 -0.00000000000E+00 -0.00000000000E+00 -0.17197123303E+04  0.17197123303E+04  0.00000000000E+00 0.  1.
         24    2    1    2    0    0 -0.39386421435E+03  0.76097665723E+02 -0.13603675575E+04  0.14203702564E+04  0.77018828306E+02 0.  0.
        254    2    1    2    0    0  0.39386421435E+03 -0.76097665723E+02  0.41486346913E+03  0.10735503159E+04  0.90525063306E+03 0.  0.
         23    2    4    4    0    0  0.42960045983E+03  0.11952262808E+03 -0.14159598300E+03  0.47614087149E+03  0.88422244921E+02 0.  0.
         23    2    4    4    0    0 -0.35736245480E+02 -0.19562029380E+03  0.55645945213E+03  0.59740944440E+03  0.87786922744E+02 0.  0.
          2    1    3    3  502    0 -0.16718603532E+03  0.44554927755E+02 -0.71457429927E+03  0.73522291937E+03  0.00000000000E+00 0. -1.
         -1    1    3    3    0  502 -0.22667817903E+03  0.31542737968E+02 -0.64579325819E+03  0.68514733707E+03  0.00000000000E+00 0.  1.
         11    1    5    5    0    0  0.30956102204E+03  0.11512026313E+03 -0.74574840780E+02  0.33858840533E+03  0.00000000000E+00 0. -1.
        -11    1    5    5    0    0  0.12003943779E+03  0.44023649482E+01 -0.67021142223E+02  0.13755246616E+03  0.00000000000E+00 0.  1.
          1    1    6    6  503    0 -0.51432462037E+02 -0.10484674364E+03  0.22653025150E+03  0.25486092805E+03  0.00000000000E+00 0. -1.
         -1    1    6    6    0  503  0.15696216557E+02 -0.90773550159E+02  0.32992920063E+03  0.34254851634E+03  0.00000000000E+00 0.  1.
<mgrwt>
<rscale>  0 0.23077396E+04</rscale>
<asrwt>0</asrwt>
<pdfrwt beam="1">  1        2 0.11910896E+00 0.23077396E+04</pdfrwt>
<pdfrwt beam="2">  1       -1 0.26457113E+00 0.23077396E+04</pdfrwt>
<totfact> 0.20837899E+00</totfact>
</mgrwt>
</event>
<event>
12    6  0.1647231E-007  0.1908260E+04  0.7818608E-02  0.8650756E-01
         -1   -1    0    0    0  501 -0.00000000000E+00  0.00000000000E+00  0.16620956565E+04  0.16620956565E+04  0.00000000000E+00 0.  1.
          2   -1    0    0  501    0  0.00000000000E+00 -0.00000000000E+00 -0.54772049457E+03  0.54772049457E+03  0.00000000000E+00 0. -1.
         24    2    1    2    0    0  0.54470872014E+02 -0.72749160960E+03  0.57545322739E+03  0.93268258440E+03  0.80865743002E+02 0.  0.
        254    2    1    2    0    0 -0.54470872014E+02  0.72749160960E+03  0.53892193455E+03  0.12771335667E+04  0.89912300474E+03 0.  0.
         23    2    4    4    0    0  0.84776865651E+02 -0.85132360790E+02  0.41105483938E+03  0.43771948233E+03  0.90540755637E+02 0.  0.
         23    2    4    4    0    0 -0.13924773767E+03  0.81262397039E+03  0.12786709517E+03  0.83941408434E+03  0.92294968815E+02 0.  0.
          2    1    3    3  502    0  0.30065314603E+02 -0.34105758868E+03  0.21930160964E+03  0.40659242237E+03  0.00000000000E+00 0. -1.
         -3    1    3    3    0  502  0.24405557411E+02 -0.38643402092E+03  0.35615161775E+03  0.52609016203E+03  0.00000000000E+00 0.  1.
         11    1    5    5    0    0  0.94093183257E+02 -0.40235621031E+02  0.24656761046E+03  0.26696070659E+03  0.00000000000E+00 0.  1.
        -11    1    5    5    0    0 -0.93163176058E+01 -0.44896739760E+02  0.16448722893E+03  0.17075877575E+03  0.00000000000E+00 0. -1.
          3    1    6    6  503    0  0.91943585600E+01  0.15978705951E+02  0.85446374191E+01  0.20319106816E+02  0.00000000000E+00 0. -1.
         -3    1    6    6    0  503 -0.14844209623E+03  0.79664526444E+03  0.11932245775E+03  0.81909497753E+03  0.00000000000E+00 0.  1.
<mgrwt>
<rscale>  0 0.19082598E+04</rscale>
<asrwt>0</asrwt>
<pdfrwt beam="1">  1        2 0.84264692E-01 0.19082598E+04</pdfrwt>
<pdfrwt beam="2">  1       -1 0.25570702E+00 0.19082598E+04</pdfrwt>
<totfact> 0.37853286E+00</totfact>
</mgrwt>
</event>
<event>
12    6  0.1647231E-007  0.1530231E+04  0.7818608E-02  0.8864595E-01
         -1   -1    0    0    0  501 -0.00000000000E+00  0.00000000000E+00  0.10436652541E+04  0.10436652541E+04  0.00000000000E+00 0.  1.
          2   -1    0    0  501    0  0.00000000000E+00 -0.00000000000E+00 -0.56090945504E+03  0.56090945504E+03  0.00000000000E+00 0. -1.
         24    2    1    2    0    0  0.45563995099E+03 -0.17098811346E+03  0.26321821317E+03  0.55886869692E+03  0.78776219551E+02 0.  0.
        254    2    1    2    0    0 -0.45563995099E+03  0.17098811346E+03  0.21953758593E+03  0.10457060123E+04  0.89914382196E+03 0.  0.
         23    2    4    4    0    0  0.20083187357E+02 -0.30262084987E+03 -0.39704464438E+02  0.32028052068E+03  0.94976071905E+02 0.  0.
         23    2    4    4    0    0 -0.47572313835E+03  0.47360896334E+03  0.25924205037E+03  0.72542549159E+03  0.91748289663E+02 0.  0.
          2    1    3    3  502    0  0.50524443789E+02 -0.16008034851E+02  0.59439444361E+02  0.79636826569E+02  0.00000000000E+00 0. -1.
         -1    1    3    3    0  502  0.40511550720E+03 -0.15498007861E+03  0.20377876881E+03  0.47923187035E+03  0.00000000000E+00 0.  1.
         11    1    5    5    0    0  0.75050309915E+01 -0.83084120263E+02 -0.54888542387E+02  0.99860145280E+02  0.00000000000E+00 0.  1.
        -11    1    5    5    0    0  0.12578156365E+02 -0.21953672961E+03  0.15184077949E+02  0.22042037540E+03  0.00000000000E+00 0. -1.
          3    1    6    6  503    0 -0.33425835644E+03  0.33790253736E+03  0.22714137486E+03  0.52678266655E+03  0.00000000000E+00 0. -1.
         -3    1    6    6    0  503 -0.14146478191E+03  0.13570642598E+03  0.32100675509E+02  0.19864282504E+03  0.00000000000E+00 0.  1.
<mgrwt>
<rscale>  0 0.15302310E+04</rscale>
<asrwt>0</asrwt>
<pdfrwt beam="1">  1        2 0.86293762E-01 0.15302310E+04</pdfrwt>
<pdfrwt beam="2">  1       -1 0.16056389E+00 0.15302310E+04</pdfrwt>
<totfact> 0.17145522E+01</totfact>
</mgrwt>
</event>
<event>
12    6  0.1647231E-007  0.1724092E+04  0.7818608E-02  0.8747742E-01
          2   -1    0    0  501    0  0.00000000000E+00  0.00000000000E+00  0.30512876556E+03  0.30512876556E+03  0.00000000000E+00 0. -1.
         -1   -1    0    0    0  501 -0.00000000000E+00 -0.00000000000E+00 -0.24354425580E+04  0.24354425580E+04  0.00000000000E+00 0.  1.
         24    2    1    2    0    0 -0.12816658716E+03  0.20817595763E+03 -0.17484453122E+04  0.17669472195E+04  0.72646838554E+02 0.  0.
        254    2    1    2    0    0  0.12816658716E+03 -0.20817595763E+03 -0.38186848022E+03  0.97362410409E+03  0.86160110056E+03 0.  0.
         23    2    4    4    0    0  0.24580622391E+03 -0.12197334409E+03  0.20994665829E+03  0.35730677836E+03  0.91062276228E+02 0.  0.
         23    2    4    4    0    0 -0.11763963674E+03 -0.86202613538E+02 -0.59181513851E+03  0.61631732574E+03  0.91279313765E+02 0.  0.
          4    1    3    3  502    0 -0.98789916952E+01  0.11579400862E+02 -0.34439289390E+02  0.37652910312E+02  0.00000000000E+00 0. -1.
         -3    1    3    3    0  502 -0.11828759547E+03  0.19659655677E+03 -0.17140060228E+04  0.17292943092E+04  0.00000000000E+00 0.  1.
         11    1    5    5    0    0  0.13615879472E+03 -0.11524283724E+03  0.11621244667E+03  0.21289777283E+03  0.00000000000E+00 0. -1.
        -11    1    5    5    0    0  0.10964742919E+03 -0.67305068563E+01  0.93734211619E+02  0.14440900553E+03  0.00000000000E+00 0.  1.
          2    1    6    6  503    0 -0.94993946946E+02 -0.72372720560E+02 -0.29409375910E+03  0.31741581526E+03  0.00000000000E+00 0.  1.
         -2    1    6    6    0  503 -0.22645689798E+02 -0.13829892978E+02 -0.29772137941E+03  0.29890151048E+03  0.00000000000E+00 0. -1.
<mgrwt>
<rscale>  0 0.17240923E+04</rscale>
<asrwt>0</asrwt>
<pdfrwt beam="1">  1        2 0.46942886E-01 0.17240923E+04</pdfrwt>
<pdfrwt beam="2">  1       -1 0.37468348E+00 0.17240923E+04</pdfrwt>
<totfact> 0.12487934E+00</totfact>
</mgrwt>
</event>
<event>
12    6  0.1647231E-007  0.1696428E+04  0.7818608E-02  0.8763404E-01
         -1   -1    0    0    0  501 -0.00000000000E+00  0.00000000000E+00  0.40042142409E+03  0.40042142409E+03  0.00000000000E+00 0.  1.
          2   -1    0    0  501    0  0.00000000000E+00 -0.00000000000E+00 -0.17967742132E+04  0.17967742132E+04  0.00000000000E+00 0. -1.
         24    2    1    2    0    0  0.67779705109E+02 -0.58271577388E+03 -0.59593726618E+03  0.83999390853E+03  0.79352250054E+02 0.  0.
        254    2    1    2    0    0 -0.67779705109E+02  0.58271577388E+03 -0.80041552296E+03  0.13572017288E+04  0.92584003031E+03 0.  0.
         23    2    4    4    0    0 -0.10197066563E+03  0.82335079490E+03 -0.58250979472E+03  0.10173654910E+04  0.86083292707E+02 0.  0.
         23    2    4    4    0    0  0.34190960520E+02 -0.24063502102E+03 -0.21790572825E+03  0.33983623778E+03  0.94506756276E+02 0.  0.
          4    1    3    3  502    0  0.45283617465E+02 -0.37644477697E+03 -0.32975742196E+03  0.50249500839E+03  0.00000000000E+00 0. -1.
         -3    1    3    3    0  502  0.22496087644E+02 -0.20627099691E+03 -0.26617984422E+03  0.33749890014E+03  0.00000000000E+00 0.  1.
         11    1    5    5    0    0  0.97912935092E+01  0.14312897095E+02 -0.13421349124E+02  0.21928544506E+02  0.00000000000E+00 0.  1.
        -11    1    5    5    0    0 -0.11176195914E+03  0.80903789780E+03 -0.56908844559E+03  0.99543694652E+03  0.00000000000E+00 0. -1.
          1    1    6    6  503    0 -0.15129436646E+02 -0.14692423748E+03 -0.16502534609E+03  0.22147007984E+03  0.00000000000E+00 0. -1.
         -1    1    6    6    0  503  0.49320397166E+02 -0.93710783537E+02 -0.52880382160E+02  0.11836615794E+03  0.00000000000E+00 0.  1.
<mgrwt>
<rscale>  0 0.16964279E+04</rscale>
<asrwt>0</asrwt>
<pdfrwt beam="1">  1        2 0.27642680E+00 0.16964279E+04</pdfrwt>
<pdfrwt beam="2">  1       -1 0.61603297E-01 0.16964279E+04</pdfrwt>
<totfact> 0.25105754E+01</totfact>
</mgrwt>
</event>
<event>
12    6  0.1647231E-007  0.2020898E+04  0.7818608E-02  0.8596912E-01
         -1   -1    0    0    0  501 -0.00000000000E+00  0.00000000000E+00  0.48917437724E+03  0.48917437724E+03  0.00000000000E+00 0.  1.
          2   -1    0    0  501    0  0.00000000000E+00 -0.00000000000E+00 -0.20872053863E+04  0.20872053863E+04  0.00000000000E+00 0. -1.
         24    2    1    2    0    0  0.49505866452E+03  0.37461706653E+03  0.64668823692E+01  0.62511172035E+03  0.72813559857E+02 0.  0.
        254    2    1    2    0    0 -0.49505866452E+03 -0.37461706653E+03 -0.16044978914E+04  0.19512680432E+04  0.92065871251E+03 0.  0.
         23    2    4    4    0    0 -0.33939731478E+03 -0.67321006202E+03 -0.11224990670E+04  0.13559076235E+04  0.10039423873E+03 0.  0.
         23    2    4    4    0    0 -0.15566134974E+03  0.29859299549E+03 -0.48199882443E+03  0.59536041969E+03  0.93503635323E+02 0.  0.
          4    1    3    3  502    0  0.14732633013E+03  0.14047405639E+03 -0.23024386487E+02  0.20486124680E+03  0.00000000000E+00 0. -1.
         -3    1    3    3    0  502  0.34773233439E+03  0.23414301013E+03  0.29491268856E+02  0.42025047354E+03  0.00000000000E+00 0.  1.
         11    1    5    5    0    0 -0.12551746916E+03 -0.31054361085E+03 -0.57202092191E+03  0.66287246466E+03  0.00000000000E+00 0.  1.
        -11    1    5    5    0    0 -0.21387984561E+03 -0.36266645117E+03 -0.55047814508E+03  0.69303515883E+03  0.00000000000E+00 0. -1.
          1    1    6    6  503    0  0.65575549451E+01  0.14666273154E+02 -0.56407322446E+02  0.58650550897E+02  0.00000000000E+00 0. -1.
         -1    1    6    6    0  503 -0.16221890469E+03  0.28392672234E+03 -0.42559150198E+03  0.53670986879E+03  0.00000000000E+00 0.  1.
<mgrwt>
<rscale>  0 0.20208982E+04</rscale>
<asrwt>0</asrwt>
<pdfrwt beam="1">  1        2 0.32110852E+00 0.20208982E+04</pdfrwt>
<pdfrwt beam="2">  1       -1 0.75257596E-01 0.20208982E+04</pdfrwt>
<totfact> 0.11195980E+01</totfact>
</mgrwt>
</event>
<event>
12    6  0.1647231E-007  0.1295097E+04  0.7818608E-02  0.9033462E-01
         -1   -1    0    0    0  501 -0.00000000000E+00  0.00000000000E+00  0.27117925556E+03  0.27117925556E+03  0.00000000000E+00 0.  1.
          2   -1    0    0  501    0  0.00000000000E+00 -0.00000000000E+00 -0.15462800107E+04  0.15462800107E+04  0.00000000000E+00 0. -1.
         24    2    1    2    0    0 -0.12090952255E+03 -0.10409449449E+03 -0.81811616623E+03  0.83725081802E+03  0.78867575160E+02 0.  0.
        254    2    1    2    0    0  0.12090952255E+03  0.10409449449E+03 -0.45698458886E+03  0.98020844819E+03  0.85236078688E+03 0.  0.
         23    2    4    4    0    0 -0.30138116201E+03 -0.16585203322E+03 -0.16119731366E+03  0.39080831567E+03  0.91700948370E+02 0.  0.
         23    2    4    4    0    0  0.42229068456E+03  0.26994652771E+03 -0.29578727521E+03  0.58940013252E+03  0.93283728212E+02 0.  0.
          2    1    3    3  502    0 -0.67866781361E+02 -0.10419445943E+03 -0.54137045104E+03  0.55546768641E+03  0.00000000000E+00 0. -1.
         -1    1    3    3    0  502 -0.53042741187E+02  0.99964944416E-01 -0.27674571519E+03  0.28178313161E+03  0.00000000000E+00 0.  1.
         11    1    5    5    0    0 -0.25028090916E+03 -0.11749527306E+03 -0.16199605971E+03  0.32045030198E+03  0.00000000000E+00 0.  1.
        -11    1    5    5    0    0 -0.51100252853E+02 -0.48356760164E+02  0.79874605618E+00  0.70358013690E+02  0.00000000000E+00 0. -1.
          4    1    6    6  503    0  0.20688011449E+03  0.18279744641E+03 -0.13906421607E+03  0.30911671643E+03  0.00000000000E+00 0. -1.
         -4    1    6    6    0  503  0.21541057006E+03  0.87149081304E+02 -0.15672305914E+03  0.28028341609E+03  0.00000000000E+00 0.  1.
<mgrwt>
<rscale>  0 0.12950970E+04</rscale>
<asrwt>0</asrwt>
<pdfrwt beam="1">  1        2 0.23788924E+00 0.12950970E+04</pdfrwt>
<pdfrwt beam="2">  1       -1 0.41719884E-01 0.12950970E+04</pdfrwt>
<totfact> 0.75257372E+01</totfact>
</mgrwt>
</event>
<event>
12    6  0.1647231E-007  0.1401391E+04  0.7818608E-02  0.8952812E-01
         -1   -1    0    0    0  501 -0.00000000000E+00  0.00000000000E+00  0.42247581343E+03  0.42247581343E+03  0.00000000000E+00 0.  1.
          2   -1    0    0  501    0  0.00000000000E+00 -0.00000000000E+00 -0.11621353388E+04  0.11621353388E+04  0.00000000000E+00 0. -1.
         24    2    1    2    0    0  0.25675176128E+03  0.93101913624E+02  0.11802218543E+03  0.30872982306E+03  0.82434423366E+02 0.  0.
        254    2    1    2    0    0 -0.25675176128E+03 -0.93101913624E+02 -0.85768171084E+03  0.12758813292E+04  0.90424875775E+03 0.  0.
         23    2    4    4    0    0  0.29160554158E+03  0.14519469202E+03 -0.33049549983E+03  0.47368777502E+03  0.95065989304E+02 0.  0.
         23    2    4    4    0    0 -0.54835730286E+03 -0.23829660564E+03 -0.52718621100E+03  0.80219355419E+03  0.90045507658E+02 0.  0.
          2    1    3    3  502    0  0.86419958284E+02  0.42011296066E+02  0.84097058826E+02  0.12769367052E+03  0.00000000000E+00 0. -1.
         -1    1    3    3    0  502  0.17033180300E+03  0.51090617557E+02  0.33925126601E+02  0.18103615255E+03  0.00000000000E+00 0.  1.
         11    1    5    5    0    0  0.14225822286E+02  0.55271457800E+01  0.54335631429E+01  0.16200215080E+02  0.00000000000E+00 0. -1.
        -11    1    5    5    0    0  0.27737971930E+03  0.13966754624E+03 -0.33592906298E+03  0.45748755994E+03  0.00000000000E+00 0.  1.
          2    1    6    6  503    0 -0.52657074221E+03 -0.23584042781E+03 -0.52514168706E+03  0.78017385590E+03  0.00000000000E+00 0.  1.
         -2    1    6    6    0  503 -0.21786560653E+02 -0.24561778373E+01 -0.20445239399E+01  0.22019698290E+02  0.00000000000E+00 0. -1.
<mgrwt>
<rscale>  0 0.14013908E+04</rscale>
<asrwt>0</asrwt>
<pdfrwt beam="1">  1        2 0.17879005E+00 0.14013908E+04</pdfrwt>
<pdfrwt beam="2">  1       -1 0.64996280E-01 0.14013908E+04</pdfrwt>
<totfact> 0.53167710E+01</totfact>
</mgrwt>
</event>
<event>
12    6  0.1647231E-007  0.1212701E+04  0.7818608E-02  0.9101811E-01
         -1   -1    0    0    0  501 -0.00000000000E+00  0.00000000000E+00  0.13959699629E+03  0.13959699629E+03  0.00000000000E+00 0.  1.
          2   -1    0    0  501    0  0.00000000000E+00 -0.00000000000E+00 -0.26337329679E+04  0.26337329679E+04  0.00000000000E+00 0. -1.
         24    2    1    2    0    0 -0.19400806615E+03  0.15481033060E+03 -0.40326097304E+03  0.48073897035E+03  0.82976966915E+02 0.  0.
        254    2    1    2    0    0  0.19400806615E+03 -0.15481033060E+03 -0.20908749986E+04  0.22925909939E+04  0.90697841057E+03 0.  0.
         23    2    4    4    0    0  0.30389719530E+03 -0.48625757583E+03 -0.13087110219E+04  0.14317239550E+04  0.91153766322E+02 0.  0.
         23    2    4    4    0    0 -0.10988912915E+03  0.33144724522E+03 -0.78216397665E+03  0.86086703883E+03  0.85899214833E+02 0.  0.
          4    1    3    3  502    0 -0.65173712771E+02  0.86808517160E+01 -0.83092970077E+02  0.10595948140E+03  0.00000000000E+00 0. -1.
         -3    1    3    3    0  502 -0.12883435338E+03  0.14612947889E+03 -0.32016800296E+03  0.37477948894E+03  0.00000000000E+00 0.  1.
         11    1    5    5    0    0  0.25219228494E+03 -0.43285822116E+03 -0.11963273284E+04  0.12969835253E+04  0.00000000000E+00 0. -1.
        -11    1    5    5    0    0  0.51704910353E+02 -0.53399354664E+02 -0.11238369357E+03  0.13474042977E+03  0.00000000000E+00 0.  1.
          3    1    6    6  503    0  0.99198588706E+01  0.42082499073E+01 -0.17711835279E+02  0.20732150787E+02  0.00000000000E+00 0.  1.
         -3    1    6    6    0  503 -0.11980898802E+03  0.32723899532E+03 -0.76445214137E+03  0.84013488805E+03  0.00000000000E+00 0. -1.
<mgrwt>
<rscale>  0 0.12127015E+04</rscale>
<asrwt>0</asrwt>
<pdfrwt beam="1">  1        2 0.40518964E+00 0.12127015E+04</pdfrwt>
<pdfrwt beam="2">  1       -1 0.21476464E-01 0.12127015E+04</pdfrwt>
<totfact> 0.59708987E+01</totfact>
</mgrwt>
</event>
<event>
12    6  0.1647231E-007  0.1375289E+04  0.7818608E-02  0.8971903E-01
          2   -1    0    0  501    0  0.00000000000E+00  0.00000000000E+00  0.18193590585E+04  0.18193590585E+04  0.00000000000E+00 0. -1.
         -1   -1    0    0    0  501 -0.00000000000E+00 -0.00000000000E+00 -0.25990187272E+03  0.25990187272E+03  0.00000000000E+00 0.  1.
         24    2    1    2    0    0 -0.35670855273E+02 -0.17824808472E+03  0.57062358188E+01  0.19847705662E+03  0.79471952637E+02 0.  0.
        254    2    1    2    0    0  0.35670855273E+02  0.17824808472E+03  0.15537509500E+04  0.18807838746E+04  0.10441078387E+04 0.  0.
         23    2    4    4    0    0  0.44866949705E+02  0.56715418988E+03  0.12574413243E+04  0.13831814427E+04  0.91407335429E+02 0.  0.
         23    2    4    4    0    0 -0.91960944313E+01 -0.38890610516E+03  0.29630962563E+03  0.49760243192E+03  0.92066602133E+02 0.  0.
          2    1    3    3  502    0 -0.74105825963E+01 -0.24635869059E+02  0.30965125429E+02  0.40257692079E+02  0.00000000000E+00 0. -1.
         -1    1    3    3    0  502 -0.28260272677E+02 -0.15361221566E+03 -0.25258889610E+02  0.15821936454E+03  0.00000000000E+00 0.  1.
         11    1    5    5    0    0 -0.19067665920E+01  0.41320265919E+03  0.95623002132E+03  0.10416889781E+04  0.00000000000E+00 0. -1.
        -11    1    5    5    0    0  0.46773716297E+02  0.15395153069E+03  0.30121130303E+03  0.34149246465E+03  0.00000000000E+00 0.  1.
          1    1    6    6  503    0  0.19132561781E+02 -0.30839212852E+03  0.19605523344E+03  0.36593635296E+03  0.00000000000E+00 0. -1.
         -1    1    6    6    0  503 -0.28328656213E+02 -0.80513976639E+02  0.10025439219E+03  0.13166607897E+03  0.00000000000E+00 0.  1.
<mgrwt>
<rscale>  0 0.13752888E+04</rscale>
<asrwt>0</asrwt>
<pdfrwt beam="1">  1        2 0.27990139E+00 0.13752888E+04</pdfrwt>
<pdfrwt beam="2">  1       -1 0.39984905E-01 0.13752888E+04</pdfrwt>
<totfact> 0.56998584E+01</totfact>
</mgrwt>
</event>
<event>
12    6  0.1647231E-007  0.3226457E+04  0.7818608E-02  0.8181865E-01
         -1   -1    0    0    0  501 -0.00000000000E+00  0.00000000000E+00  0.12972492507E+04  0.12972492507E+04  0.00000000000E+00 0.  1.
          2   -1    0    0  501    0  0.00000000000E+00 -0.00000000000E+00 -0.20061724791E+04  0.20061724791E+04  0.00000000000E+00 0. -1.
         24    2    1    2    0    0  0.13952430638E+04 -0.46834307981E+03 -0.53453833067E+03  0.15678998998E+04  0.80811022501E+02 0.  0.
        254    2    1    2    0    0 -0.13952430638E+04  0.46834307981E+03 -0.17438489779E+03  0.17355218300E+04  0.90309328540E+03 0.  0.
         23    2    4    4    0    0 -0.95594537979E+03  0.71543197593E+03 -0.97104481802E+01  0.11973493029E+04  0.88750092742E+02 0.  0.
         23    2    4    4    0    0 -0.43929768403E+03 -0.24708889612E+03 -0.16467444960E+03  0.53817252708E+03  0.92068543881E+02 0.  0.
          4    1    3    3  502    0  0.66610818628E+03 -0.21125252125E+03 -0.29489235810E+03  0.75847824388E+03  0.00000000000E+00 0. -1.
         -3    1    3    3    0  502  0.72913487753E+03 -0.25709055857E+03 -0.23964597257E+03  0.80942165594E+03  0.00000000000E+00 0.  1.
         11    1    5    5    0    0 -0.81599168584E+03  0.61662445372E+03  0.22534201421E+02  0.10230229413E+04  0.00000000000E+00 0. -1.
        -11    1    5    5    0    0 -0.13995369395E+03  0.98807522211E+02 -0.32244649602E+02  0.17432636152E+03  0.00000000000E+00 0.  1.
          4    1    6    6  503    0 -0.16272829608E+03 -0.43115435752E+02 -0.44638431333E+02  0.17416092759E+03  0.00000000000E+00 0. -1.
         -4    1    6    6    0  503 -0.27656938795E+03 -0.20397346037E+03 -0.12003601827E+03  0.36401159949E+03  0.00000000000E+00 0.  1.
<mgrwt>
<rscale>  0 0.32264567E+04</rscale>
<asrwt>0</asrwt>
<pdfrwt beam="1">  1        2 0.30864192E+00 0.32264567E+04</pdfrwt>
<pdfrwt beam="2">  1       -1 0.19957681E+00 0.32264567E+04</pdfrwt>
<totfact> 0.95989668E-01</totfact>
</mgrwt>
</event>
<event>
12    6  0.1647231E-007  0.1715437E+04  0.7818608E-02  0.8752609E-01
         -1   -1    0    0    0  501 -0.00000000000E+00  0.00000000000E+00  0.43669665884E+03  0.43669665884E+03  0.00000000000E+00 0.  1.
          2   -1    0    0  501    0  0.00000000000E+00 -0.00000000000E+00 -0.16846495473E+04  0.16846495473E+04  0.00000000000E+00 0. -1.
         24    2    1    2    0    0  0.48065373423E+02  0.54213009834E+03 -0.90021236795E+02  0.55751652426E+03  0.80656854034E+02 0.  0.
        254    2    1    2    0    0 -0.48065373423E+02 -0.54213009834E+03 -0.11579316517E+04  0.15638296819E+04  0.89918976882E+03 0.  0.
         23    2    4    4    0    0  0.12525484563E+03 -0.12242373045E+03 -0.10752153972E+04  0.10931737712E+04  0.90908731806E+02 0.  0.
         23    2    4    4    0    0 -0.17332021905E+03 -0.41970636789E+03 -0.82716254487E+02  0.47065591071E+03  0.92096003986E+02 0.  0.
          4    1    3    3  502    0  0.57692147009E+02  0.23101448826E+03 -0.54176051231E+02  0.24419484463E+03  0.00000000000E+00 0. -1.
         -3    1    3    3    0  502 -0.96267735859E+01  0.31111561007E+03 -0.35845185564E+02  0.31332167963E+03  0.00000000000E+00 0.  1.
         11    1    5    5    0    0  0.12579722264E+03 -0.68176199769E+02 -0.78028680185E+03  0.79329718806E+03  0.00000000000E+00 0.  1.
        -11    1    5    5    0    0 -0.54237701611E+00 -0.54247530678E+02 -0.29492859533E+03  0.29987658311E+03  0.00000000000E+00 0. -1.
          1    1    6    6  503    0 -0.21931649491E+02 -0.12315515352E+03 -0.54673953733E+02  0.13651897416E+03  0.00000000000E+00 0. -1.
         -1    1    6    6    0  503 -0.15138856956E+03 -0.29655121436E+03 -0.28042300755E+02  0.33413693655E+03  0.00000000000E+00 0.  1.
<mgrwt>
<rscale>  0 0.17154368E+04</rscale>
<asrwt>0</asrwt>
<pdfrwt beam="1">  1        2 0.25917685E+00 0.17154368E+04</pdfrwt>
<pdfrwt beam="2">  1       -1 0.67184101E-01 0.17154368E+04</pdfrwt>
<totfact> 0.24300037E+01</totfact>
</mgrwt>
</event>
<event>
12    6  0.1647231E-007  0.1291053E+04  0.7818608E-02  0.9036691E-01
          2   -1    0    0  501    0  0.00000000000E+00  0.00000000000E+00  0.34499426779E+03  0.34499426779E+03  0.00000000000E+00 0. -1.
         -1   -1    0    0    0  501 -0.00000000000E+00 -0.00000000000E+00 -0.12078585703E+04  0.12078585703E+04  0.00000000000E+00 0.  1.
         24    2    1    2    0    0  0.15296231467E+03  0.72631631914E+02 -0.59149228319E+03  0.62034896541E+03  0.79352971894E+02 0.  0.
        254    2    1    2    0    0 -0.15296231467E+03 -0.72631631914E+02 -0.27137201936E+03  0.93250387273E+03  0.87592686687E+03 0.  0.
         23    2    4    4    0    0  0.10315752384E+03 -0.27619947367E+03 -0.45219456390E+03  0.54777055044E+03  0.92978644447E+02 0.  0.
         23    2    4    4    0    0 -0.25611983851E+03  0.20356784176E+03  0.18082254454E+03  0.38473332229E+03  0.91025813852E+02 0.  0.
          4    1    3    3  502    0  0.10450663244E+02  0.32581751289E+02 -0.17545405200E+03  0.17875936687E+03  0.00000000000E+00 0. -1.
         -3    1    3    3    0  502  0.14251165142E+03  0.40049880626E+02 -0.41603823119E+03  0.44158959854E+03  0.00000000000E+00 0.  1.
         11    1    5    5    0    0  0.11811421313E+03 -0.25375219623E+03 -0.39061735860E+03  0.48054455077E+03  0.00000000000E+00 0. -1.
        -11    1    5    5    0    0 -0.14956689282E+02 -0.22447277442E+02 -0.61577205302E+02  0.67225999670E+02  0.00000000000E+00 0.  1.
          4    1    6    6  503    0 -0.15196112303E+03  0.10653282146E+03  0.51969987787E+02  0.19272338880E+03  0.00000000000E+00 0. -1.
         -4    1    6    6    0  503 -0.10415871548E+03  0.97035020302E+02  0.12885255676E+03  0.19200993349E+03  0.00000000000E+00 0.  1.
<mgrwt>
<rscale>  0 0.12910527E+04</rscale>
<asrwt>0</asrwt>
<pdfrwt beam="1">  1        2 0.53076041E-01 0.12910527E+04</pdfrwt>
<pdfrwt beam="2">  1       -1 0.18582440E+00 0.12910527E+04</pdfrwt>
<totfact> 0.19943357E+01</totfact>
</mgrwt>
</event>
<event>
12    6  0.1647231E-007  0.2119770E+04  0.7818608E-02  0.8552584E-01
         -1   -1    0    0    0  501 -0.00000000000E+00  0.00000000000E+00  0.43789924795E+03  0.43789924795E+03  0.00000000000E+00 0.  1.
          2   -1    0    0  501    0  0.00000000000E+00 -0.00000000000E+00 -0.25653308513E+04  0.25653308513E+04  0.00000000000E+00 0. -1.
         24    2    1    2    0    0  0.10427494494E+03  0.14991981957E+03 -0.20801372742E+04  0.20896192033E+04  0.78664597109E+02 0.  0.
        254    2    1    2    0    0 -0.10427494494E+03 -0.14991981957E+03 -0.47294329116E+02  0.91361089592E+03  0.89392331838E+03 0.  0.
         23    2    4    4    0    0  0.13439445676E+03 -0.30386385042E+03 -0.34823884992E+03  0.49019124232E+03  0.92854982922E+02 0.  0.
         23    2    4    4    0    0 -0.23866940170E+03  0.15394403085E+03  0.30094452081E+03  0.42341965360E+03  0.89748261892E+02 0.  0.
          4    1    3    3  502    0  0.11149529559E+03  0.14036231609E+03 -0.17268537385E+04  0.17361326605E+04  0.00000000000E+00 0. -1.
         -3    1    3    3    0  502 -0.72203506522E+01  0.95575034781E+01 -0.35328353575E+03  0.35348654284E+03  0.00000000000E+00 0.  1.
         11    1    5    5    0    0  0.10120783907E+03 -0.14135956587E+03 -0.22077998179E+03  0.28101486421E+03  0.00000000000E+00 0. -1.
        -11    1    5    5    0    0  0.33186617691E+02 -0.16250428455E+03 -0.12745886813E+03  0.20917637811E+03  0.00000000000E+00 0.  1.
          2    1    6    6  503    0 -0.49459565445E+02 -0.55447126286E+01  0.40574483261E+02  0.64212780224E+02  0.00000000000E+00 0. -1.
         -2    1    6    6    0  503 -0.18920983625E+03  0.15948874348E+03  0.26037003754E+03  0.35920687338E+03  0.00000000000E+00 0.  1.
<mgrwt>
<rscale>  0 0.21197702E+04</rscale>
<asrwt>0</asrwt>
<pdfrwt beam="1">  1        2 0.39466627E+00 0.21197702E+04</pdfrwt>
<pdfrwt beam="2">  1       -1 0.67369117E-01 0.21197702E+04</pdfrwt>
<totfact> 0.74548783E+00</totfact>
</mgrwt>
</event>
<event>
12    6  0.1647231E-007  0.1888647E+04  0.7818608E-02  0.8660528E-01
         -1   -1    0    0    0  501 -0.00000000000E+00  0.00000000000E+00  0.37099787540E+03  0.37099787540E+03  0.00000000000E+00 0.  1.
          2   -1    0    0  501    0  0.00000000000E+00 -0.00000000000E+00 -0.24036453006E+04  0.24036453006E+04  0.00000000000E+00 0. -1.
         24    2    1    2    0    0 -0.20907990075E+03 -0.50086969483E+03 -0.80179785498E+02  0.55480963694E+03  0.82462592379E+02 0.  0.
        254    2    1    2    0    0  0.20907990075E+03  0.50086969483E+03 -0.19524676397E+04  0.22198335390E+04  0.90606081524E+03 0.  0.
         23    2    4    4    0    0  0.67997358978E+02  0.73330655810E+03 -0.11576737768E+04  0.13749366500E+04  0.88769753326E+02 0.  0.
         23    2    4    4    0    0  0.14108254177E+03 -0.23243686327E+03 -0.79479386285E+03  0.84489688898E+03  0.90676841515E+02 0.  0.
          2    1    3    3  502    0 -0.50422784193E+02 -0.97237546923E+02  0.15672260546E+02  0.11064907342E+03  0.00000000000E+00 0. -1.
         -1    1    3    3    0  502 -0.15865711656E+03 -0.40363214791E+03 -0.95852046044E+02  0.44416056353E+03  0.00000000000E+00 0.  1.
         11    1    5    5    0    0  0.53909164929E+01  0.41651164698E+02 -0.11234872698E+03  0.11994214420E+03  0.00000000000E+00 0. -1.
        -11    1    5    5    0    0  0.62606442485E+02  0.69165539340E+03 -0.10453250498E+04  0.12549945058E+04  0.00000000000E+00 0.  1.
          3    1    6    6  503    0 -0.69084505402E+01  0.10556717951E+01 -0.49409967991E+02  0.49901764184E+02  0.00000000000E+00 0. -1.
         -3    1    6    6    0  503  0.14799099232E+03 -0.23349253506E+03 -0.74538389486E+03  0.79499512480E+03  0.00000000000E+00 0.  1.
<mgrwt>
<rscale>  0 0.18886475E+04</rscale>
<asrwt>0</asrwt>
<pdfrwt beam="1">  1        2 0.36979159E+00 0.18886475E+04</pdfrwt>
<pdfrwt beam="2">  1       -1 0.57076596E-01 0.18886475E+04</pdfrwt>
<totfact> 0.13131304E+01</totfact>
</mgrwt>
</event>
<event>
12    6  0.1647231E-007  0.1334723E+04  0.7818608E-02  0.9002474E-01
         -1   -1    0    0    0  501 -0.00000000000E+00  0.00000000000E+00  0.42354789654E+03  0.42354789654E+03  0.00000000000E+00 0.  1.
          2   -1    0    0  501    0  0.00000000000E+00 -0.00000000000E+00 -0.10515260488E+04  0.10515260488E+04  0.00000000000E+00 0. -1.
         24    2    1    2    0    0 -0.20575107598E+03  0.18940387157E+03  0.48364691538E+02  0.29463542258E+03  0.79142637176E+02 0.  0.
        254    2    1    2    0    0  0.20575107598E+03 -0.18940387157E+03 -0.67634284383E+03  0.11804385228E+04  0.92616852237E+03 0.  0.
         23    2    4    4    0    0  0.47953390581E+03 -0.13566071423E+03 -0.72229229348E+03  0.88300881533E+03  0.98192741731E+02 0.  0.
         23    2    4    4    0    0 -0.27378282983E+03 -0.53743157343E+02  0.45949449652E+02  0.29742970745E+03  0.92237270558E+02 0.  0.
          2    1    3    3  502    0 -0.15289763150E+03  0.91754000767E+02  0.16282584438E+02  0.17905754642E+03  0.00000000000E+00 0. -1.
         -1    1    3    3    0  502 -0.52853444483E+02  0.97649870805E+02  0.32082107100E+02  0.11557787616E+03  0.00000000000E+00 0.  1.
         11    1    5    5    0    0  0.11127162241E+03 -0.59236053577E+01 -0.22194391635E+03  0.24834565642E+03  0.00000000000E+00 0. -1.
        -11    1    5    5    0    0  0.36826228340E+03 -0.12973710887E+03 -0.50034837712E+03  0.63466315892E+03  0.00000000000E+00 0.  1.
          1    1    6    6  503    0 -0.68823745314E+02 -0.45469085935E+02  0.41305233151E+02  0.92251113709E+02  0.00000000000E+00 0. -1.
         -1    1    6    6    0  503 -0.20495908451E+03 -0.82740714075E+01  0.46442165015E+01  0.20517859374E+03  0.00000000000E+00 0.  1.
<mgrwt>
<rscale>  0 0.13347234E+04</rscale>
<asrwt>0</asrwt>
<pdfrwt beam="1">  1        2 0.16177324E+00 0.13347234E+04</pdfrwt>
<pdfrwt beam="2">  1       -1 0.65161215E-01 0.13347234E+04</pdfrwt>
<totfact> 0.62207483E+01</totfact>
</mgrwt>
</event>
<event>
12    6  0.1647231E-007  0.1261038E+04  0.7818608E-02  0.9061046E-01
         -1   -1    0    0    0  501 -0.00000000000E+00  0.00000000000E+00  0.25234160806E+03  0.25234160806E+03  0.00000000000E+00 0.  1.
          2   -1    0    0  501    0  0.00000000000E+00 -0.00000000000E+00 -0.15754608284E+04  0.15754608284E+04  0.00000000000E+00 0. -1.
         24    2    1    2    0    0  0.27973589657E+03 -0.33934420880E+02 -0.19304624000E+03  0.35177026544E+03  0.84093710338E+02 0.  0.
        254    2    1    2    0    0 -0.27973589657E+03  0.33934420880E+02 -0.11300729804E+04  0.14760321710E+04  0.90675372194E+03 0.  0.
         23    2    4    4    0    0  0.18057376732E+03 -0.20256226238E+03 -0.81257496311E+03  0.86151465472E+03  0.91055335003E+02 0.  0.
         23    2    4    4    0    0 -0.46030966390E+03  0.23649668326E+03 -0.31749801724E+03  0.61451751632E+03  0.94926914217E+02 0.  0.
          4    1    3    3  502    0  0.12034342683E+03  0.25912443088E+02 -0.93122651477E+02  0.15435615733E+03  0.00000000000E+00 0. -1.
         -3    1    3    3    0  502  0.15939246974E+03 -0.59846863967E+02 -0.99923588520E+02  0.19741410810E+03  0.00000000000E+00 0.  1.
         11    1    5    5    0    0 -0.51467930831E+01 -0.37197937505E+02 -0.10898870154E+03  0.11527668063E+03  0.00000000000E+00 0. -1.
        -11    1    5    5    0    0  0.18572056041E+03 -0.16536432487E+03 -0.70358626157E+03  0.74623797409E+03  0.00000000000E+00 0.  1.
          3    1    6    6  503    0  0.31115489533E+01  0.26364098678E+01 -0.10922378137E+02  0.11658933830E+02  0.00000000000E+00 0. -1.
         -3    1    6    6    0  503 -0.46342121285E+03  0.23386027339E+03 -0.30657563911E+03  0.60285858249E+03  0.00000000000E+00 0.  1.
<mgrwt>
<rscale>  0 0.12610382E+04</rscale>
<asrwt>0</asrwt>
<pdfrwt beam="1">  1        2 0.24237858E+00 0.12610382E+04</pdfrwt>
<pdfrwt beam="2">  1       -1 0.38821787E-01 0.12610382E+04</pdfrwt>
<totfact> 0.82891013E+01</totfact>
</mgrwt>
</event>
<event>
12    6  0.1647231E-007  0.2036054E+04  0.7818608E-02  0.8589948E-01
         -1   -1    0    0    0  501 -0.00000000000E+00  0.00000000000E+00  0.88645521796E+03  0.88645521796E+03  0.00000000000E+00 0.  1.
          2   -1    0    0  501    0  0.00000000000E+00 -0.00000000000E+00 -0.11691268598E+04  0.11691268598E+04  0.00000000000E+00 0. -1.
         24    2    1    2    0    0  0.52599904541E+03  0.24730090911E+03 -0.69687815680E+03  0.91065094772E+03  0.76244657075E+02 0.  0.
        254    2    1    2    0    0 -0.52599904541E+03 -0.24730090911E+03  0.41420651497E+03  0.11449311300E+04  0.89524718379E+03 0.  0.
         23    2    4    4    0    0 -0.30958206287E+03 -0.56775372364E+03  0.15644626239E+03  0.67103316845E+03  0.87319733053E+02 0.  0.
         23    2    4    4    0    0 -0.21641698254E+03  0.32045281453E+03  0.25776025257E+03  0.47389796159E+03  0.92804167597E+02 0.  0.
          2    1    3    3  502    0  0.30590900268E+03  0.12200531771E+03 -0.44345307342E+03  0.55237328302E+03  0.00000000000E+00 0. -1.
         -1    1    3    3    0  502  0.22009004273E+03  0.12529559140E+03 -0.25342508339E+03  0.35827766470E+03  0.00000000000E+00 0.  1.
         11    1    5    5    0    0 -0.70792824002E+02 -0.10272116661E+03 -0.20714629478E+01  0.12477000024E+03  0.00000000000E+00 0.  1.
        -11    1    5    5    0    0 -0.23878923887E+03 -0.46503255703E+03  0.15851772534E+03  0.54626316821E+03  0.00000000000E+00 0. -1.
          1    1    6    6  503    0 -0.20031955410E+03  0.30350378269E+03  0.20803437802E+03  0.41895199284E+03  0.00000000000E+00 0. -1.
         -1    1    6    6    0  503 -0.16097428438E+02  0.16949031837E+02  0.49725874549E+02  0.54945968753E+02  0.00000000000E+00 0.  1.
<mgrwt>
<rscale>  0 0.20360536E+04</rscale>
<asrwt>0</asrwt>
<pdfrwt beam="1">  1        2 0.17986567E+00 0.20360536E+04</pdfrwt>
<pdfrwt beam="2">  1       -1 0.13637773E+00 0.20360536E+04</pdfrwt>
<totfact> 0.93708020E+00</totfact>
</mgrwt>
</event>
<event>
12    6  0.1647231E-007  0.1624129E+04  0.7818608E-02  0.8805860E-01
          2   -1    0    0  501    0  0.00000000000E+00  0.00000000000E+00  0.25304003108E+04  0.25304003108E+04  0.00000000000E+00 0. -1.
         -1   -1    0    0    0  501 -0.00000000000E+00 -0.00000000000E+00 -0.26061050881E+03  0.26061050881E+03  0.00000000000E+00 0.  1.
         24    2    1    2    0    0  0.36193045368E+03 -0.13366985659E+03  0.14881724132E+04  0.15394357758E+04  0.79649810809E+02 0.  0.
        254    2    1    2    0    0 -0.36193045368E+03  0.13366985659E+03  0.78161738880E+03  0.12515750439E+04  0.89813866642E+03 0.  0.
         23    2    4    4    0    0 -0.41458439258E+03  0.32037259135E+03  0.10554020004E+03  0.54229383260E+03  0.91788077680E+02 0.  0.
         23    2    4    4    0    0  0.52653938894E+02 -0.18670273476E+03  0.67607718877E+03  0.70928121127E+03  0.91482911232E+02 0.  0.
          4    1    3    3  502    0  0.27994298789E+03 -0.79783195692E+02  0.10001653670E+04  0.10416641475E+04  0.00000000000E+00 0. -1.
         -3    1    3    3    0  502  0.81987465794E+02 -0.53886660894E+02  0.48800704620E+03  0.49777162827E+03  0.00000000000E+00 0.  1.
         11    1    5    5    0    0 -0.18355426430E+03  0.92169269204E+02  0.62665608898E+02  0.21474245194E+03  0.00000000000E+00 0. -1.
        -11    1    5    5    0    0 -0.23103012828E+03  0.22820332214E+03  0.42874591138E+02  0.32755138066E+03  0.00000000000E+00 0.  1.
          3    1    6    6  503    0 -0.76703499811E+01 -0.83815576336E+02  0.17475476521E+03  0.19396678341E+03  0.00000000000E+00 0. -1.
         -3    1    6    6    0  503  0.60324288875E+02 -0.10288715842E+03  0.50132242356E+03  0.51531442786E+03  0.00000000000E+00 0.  1.
<mgrwt>
<rscale>  0 0.16241292E+04</rscale>
<asrwt>0</asrwt>
<pdfrwt beam="1">  1        2 0.38929234E+00 0.16241292E+04</pdfrwt>
<pdfrwt beam="2">  1       -1 0.40093926E-01 0.16241292E+04</pdfrwt>
<totfact> 0.22142962E+01</totfact>
</mgrwt>
</event>
<event>
12    6  0.1647231E-007  0.3144872E+04  0.7818608E-02  0.8203530E-01
          2   -1    0    0  501    0  0.00000000000E+00  0.00000000000E+00  0.15059363060E+04  0.15059363060E+04  0.00000000000E+00 0. -1.
         -1   -1    0    0    0  501 -0.00000000000E+00 -0.00000000000E+00 -0.16418722018E+04  0.16418722018E+04  0.00000000000E+00 0.  1.
         24    2    1    2    0    0 -0.69048522417E+03 -0.12616815917E+04  0.54042412680E+02  0.14415340188E+04  0.80557192536E+02 0.  0.
        254    2    1    2    0    0  0.69048522417E+03  0.12616815917E+04 -0.18997830840E+03  0.17062744890E+04  0.89814842352E+03 0.  0.
         23    2    4    4    0    0  0.74211886539E+03  0.46771806096E+03 -0.20476837887E+03  0.90535104945E+03  0.90718459235E+02 0.  0.
         23    2    4    4    0    0 -0.51633641213E+02  0.79396353072E+03  0.14790070465E+02  0.80092343958E+03  0.90639334026E+02 0.  0.
          4    1    3    3  502    0 -0.16062709572E+03 -0.31341376191E+03 -0.20062808089E+02  0.35274887144E+03  0.00000000000E+00 0. -1.
         -3    1    3    3    0  502 -0.52985812845E+03 -0.94826782977E+03  0.74105220769E+02  0.10887851473E+04  0.00000000000E+00 0.  1.
         11    1    5    5    0    0  0.24354842947E+03  0.18769429163E+03 -0.38762800099E+02  0.30991537438E+03  0.00000000000E+00 0.  1.
        -11    1    5    5    0    0  0.49857043592E+03  0.28002376933E+03 -0.16600557877E+03  0.59543567507E+03  0.00000000000E+00 0. -1.
          2    1    6    6  503    0  0.32658042347E+01  0.53588411920E+03 -0.92745171498E+01  0.53597431968E+03  0.00000000000E+00 0. -1.
         -2    1    6    6    0  503 -0.54899445448E+02  0.25807941152E+03  0.24064587615E+02  0.26494911991E+03  0.00000000000E+00 0.  1.
<mgrwt>
<rscale>  0 0.31448720E+04</rscale>
<asrwt>0</asrwt>
<pdfrwt beam="1">  1        2 0.23168251E+00 0.31448720E+04</pdfrwt>
<pdfrwt beam="2">  1       -1 0.25259572E+00 0.31448720E+04</pdfrwt>
<totfact> 0.81338304E-01</totfact>
</mgrwt>
</event>
<event>
12    6  0.1647231E-007  0.4126422E+04  0.7818608E-02  0.7979518E-01
         -1   -1    0    0    0  501 -0.00000000000E+00  0.00000000000E+00  0.95512548933E+03  0.95512548933E+03  0.00000000000E+00 0.  1.
          2   -1    0    0  501    0  0.00000000000E+00 -0.00000000000E+00 -0.44568388749E+04  0.44568388749E+04  0.00000000000E+00 0. -1.
         24    2    1    2    0    0 -0.92763703305E+03  0.90831748459E+03 -0.36057121020E+04  0.38331563945E+04  0.79856526400E+02 0.  0.
        254    2    1    2    0    0  0.92763703305E+03 -0.90831748459E+03  0.10399871641E+03  0.15788079697E+04  0.89233836307E+03 0.  0.
         23    2    4    4    0    0  0.46128596892E+03 -0.88209252624E+03 -0.19197467294E+03  0.10187914951E+04  0.10104387859E+03 0.  0.
         23    2    4    4    0    0  0.46635106414E+03 -0.26224958344E+02  0.29597338935E+03  0.56001647461E+03  0.88584090960E+02 0.  0.
          2    1    3    3  502    0 -0.90654338215E+03  0.87064660820E+03 -0.34625540748E+04  0.36836296151E+04  0.00000000000E+00 0. -1.
         -1    1    3    3    0  502 -0.21093650906E+02  0.37670876385E+02 -0.14315802715E+03  0.14952677945E+03  0.00000000000E+00 0.  1.
         11    1    5    5    0    0  0.15658794401E+01 -0.21394892253E+02 -0.17174690602E+02  0.27480236357E+02  0.00000000000E+00 0. -1.
        -11    1    5    5    0    0  0.45972008948E+03 -0.86069763399E+03 -0.17479998234E+03  0.99131125871E+03  0.00000000000E+00 0.  1.
          3    1    6    6  503    0  0.18923167339E+02 -0.87532450041E+01  0.37751196760E+02  0.43126075836E+02  0.00000000000E+00 0. -1.
         -3    1    6    6    0  503  0.44742789680E+03 -0.17471713340E+02  0.25822219259E+03  0.51689039877E+03  0.00000000000E+00 0.  1.
<mgrwt>
<rscale>  0 0.41264224E+04</rscale>
<asrwt>0</asrwt>
<pdfrwt beam="1">  1        2 0.68566752E+00 0.41264224E+04</pdfrwt>
<pdfrwt beam="2">  1       -1 0.14694238E+00 0.41264224E+04</pdfrwt>
<totfact> 0.43940342E-02</totfact>
</mgrwt>
</event>
<event>
12    6  0.1647231E-007  0.2131047E+04  0.7818608E-02  0.8547689E-01
         -1   -1    0    0    0  501 -0.00000000000E+00  0.00000000000E+00  0.14423935884E+04  0.14423935884E+04  0.00000000000E+00 0.  1.
          2   -1    0    0  501    0  0.00000000000E+00 -0.00000000000E+00 -0.78712278462E+03  0.78712278462E+03  0.00000000000E+00 0. -1.
         24    2    1    2    0    0 -0.61710616391E+03  0.53443571054E+02  0.91692010818E+03  0.11093400193E+04  0.78845170262E+02 0.  0.
        254    2    1    2    0    0  0.61710616391E+03 -0.53443571054E+02 -0.26164930439E+03  0.11201763537E+04  0.89591208949E+03 0.  0.
         23    2    4    4    0    0  0.79968500570E+03 -0.12498652176E+03 -0.47185012767E+02  0.81574136927E+03  0.89943410790E+02 0.  0.
         23    2    4    4    0    0 -0.18257884179E+03  0.71542950710E+02 -0.21446429162E+03  0.30443498444E+03  0.90732023589E+02 0.  0.
          2    1    3    3  502    0 -0.26750723948E+03  0.55706201963E+02  0.44144709652E+03  0.51917130423E+03  0.00000000000E+00 0. -1.
         -1    1    3    3    0  502 -0.34959892443E+03 -0.22626309093E+01  0.47547301166E+03  0.59016871509E+03  0.00000000000E+00 0.  1.
         11    1    5    5    0    0  0.29130726985E+03 -0.63711708434E+02  0.22134604713E+02  0.29901345787E+03  0.00000000000E+00 0. -1.
        -11    1    5    5    0    0  0.50837773584E+03 -0.61274813329E+02 -0.69319617480E+02  0.51672791140E+03  0.00000000000E+00 0.  1.
          2    1    6    6  503    0 -0.35691020184E+02 -0.47770183209E+01 -0.91194625843E+02  0.98046563471E+02  0.00000000000E+00 0. -1.
         -2    1    6    6    0  503 -0.14688782161E+03  0.76319969030E+02 -0.12326966578E+03  0.20638842097E+03  0.00000000000E+00 0.  1.
<mgrwt>
<rscale>  0 0.21310475E+04</rscale>
<asrwt>0</asrwt>
<pdfrwt beam="1">  1        2 0.12109581E+00 0.21310475E+04</pdfrwt>
<pdfrwt beam="2">  1       -1 0.22190671E+00 0.21310475E+04</pdfrwt>
<totfact> 0.39448479E+00</totfact>
</mgrwt>
</event>
<event>
12    6  0.1647231E-007  0.1827899E+04  0.7818608E-02  0.8691602E-01
          2   -1    0    0  501    0  0.00000000000E+00  0.00000000000E+00  0.63257861857E+03  0.63257861857E+03  0.00000000000E+00 0. -1.
         -1   -1    0    0    0  501 -0.00000000000E+00 -0.00000000000E+00 -0.13204746983E+04  0.13204746983E+04  0.00000000000E+00 0.  1.
         24    2    1    2    0    0  0.27680048946E+03 -0.58891193787E+03 -0.21345995101E+02  0.65642514508E+03  0.83681169094E+02 0.  0.
        254    2    1    2    0    0 -0.27680048946E+03  0.58891193787E+03 -0.66655008466E+03  0.12966281718E+04  0.90195333530E+03 0.  0.
         23    2    4    4    0    0  0.20301509139E+03  0.52108780784E+03 -0.54985300283E+03  0.78968177181E+03  0.92256952060E+02 0.  0.
         23    2    4    4    0    0 -0.47981558085E+03  0.67824130032E+02 -0.11669708183E+03  0.50694640001E+03  0.92484265333E+02 0.  0.
          2    1    3    3  502    0  0.20779668294E+03 -0.47983016730E+03  0.12299683387E+02  0.52303702843E+03  0.00000000000E+00 0. -1.
         -1    1    3    3    0  502  0.69003806517E+02 -0.10908177056E+03 -0.33645678489E+02  0.13338811665E+03  0.00000000000E+00 0.  1.
         11    1    5    5    0    0  0.27055118001E+02  0.26858573116E+02 -0.64832111751E+02  0.75210139436E+02  0.00000000000E+00 0.  1.
        -11    1    5    5    0    0  0.17595997339E+03  0.49422923472E+03 -0.48502089108E+03  0.71447163238E+03  0.00000000000E+00 0. -1.
          3    1    6    6  503    0 -0.14373271973E+03 -0.15654578015E+02 -0.57653532302E+02  0.15565375138E+03  0.00000000000E+00 0. -1.
         -3    1    6    6    0  503 -0.33608286112E+03  0.83478708047E+02 -0.59043549528E+02  0.35129264862E+03  0.00000000000E+00 0.  1.
<mgrwt>
<rscale>  0 0.18278994E+04</rscale>
<asrwt>0</asrwt>
<pdfrwt beam="1">  1        2 0.97319788E-01 0.18278994E+04</pdfrwt>
<pdfrwt beam="2">  1       -1 0.20314995E+00 0.18278994E+04</pdfrwt>
<totfact> 0.71603629E+00</totfact>
</mgrwt>
</event>
<event>
12    6  0.1647231E-007  0.2522197E+04  0.7818608E-02  0.8395120E-01
          2   -1    0    0  501    0  0.00000000000E+00  0.00000000000E+00  0.26603610925E+04  0.26603610925E+04  0.00000000000E+00 0. -1.
         -1   -1    0    0    0  501 -0.00000000000E+00 -0.00000000000E+00 -0.59780194862E+03  0.59780194862E+03  0.00000000000E+00 0.  1.
         24    2    1    2    0    0  0.68155574242E+03 -0.24916157953E+03  0.19505982015E+04  0.20827427029E+04  0.79900562647E+02 0.  0.
        254    2    1    2    0    0 -0.68155574242E+03  0.24916157953E+03  0.11196094237E+03  0.11754203382E+04  0.91786600121E+03 0.  0.
         23    2    4    4    0    0 -0.25124989181E+03  0.56685623846E+03  0.81956587501E+02  0.63196722972E+03  0.90626673734E+02 0.  0.
         23    2    4    4    0    0 -0.43030585061E+03 -0.31769465892E+03  0.30004354870E+02  0.54345310852E+03  0.91367381870E+02 0.  0.
          4    1    3    3  502    0  0.47451946069E+03 -0.21055114421E+03  0.14151117305E+04  0.15073293312E+04  0.00000000000E+00 0. -1.
         -3    1    3    3    0  502  0.20703628173E+03 -0.38610435329E+02  0.53548647099E+03  0.57541337166E+03  0.00000000000E+00 0.  1.
         11    1    5    5    0    0 -0.16304824489E+03  0.45606655197E+03  0.75710396342E+02  0.49021780272E+03  0.00000000000E+00 0.  1.
        -11    1    5    5    0    0 -0.88201646916E+02  0.11078968648E+03  0.62461911587E+01  0.14174942700E+03  0.00000000000E+00 0. -1.
          3    1    6    6  503    0 -0.10150191766E+03 -0.44593877869E+02 -0.21500643949E+02  0.11293153201E+03  0.00000000000E+00 0. -1.
         -3    1    6    6    0  503 -0.32880393295E+03 -0.27310078105E+03  0.51504998818E+02  0.43052157651E+03  0.00000000000E+00 0.  1.
<mgrwt>
<rscale>  0 0.25221967E+04</rscale>
<asrwt>0</asrwt>
<pdfrwt beam="1">  1        2 0.40928632E+00 0.25221967E+04</pdfrwt>
<pdfrwt beam="2">  1       -1 0.91969532E-01 0.25221967E+04</pdfrwt>
<totfact> 0.32674385E+00</totfact>
</mgrwt>
</event>
<event>
12    6  0.1647231E-007  0.2486248E+04  0.7818608E-02  0.8407901E-01
         -1   -1    0    0    0  501 -0.00000000000E+00  0.00000000000E+00  0.10883655628E+04  0.10883655628E+04  0.00000000000E+00 0.  1.
          2   -1    0    0  501    0  0.00000000000E+00 -0.00000000000E+00 -0.14198882273E+04  0.14198882273E+04  0.00000000000E+00 0. -1.
         24    2    1    2    0    0  0.14800436298E+03  0.56459083954E+03 -0.10594489685E+04  0.12122760785E+04  0.80703569341E+02 0.  0.
        254    2    1    2    0    0 -0.14800436298E+03 -0.56459083954E+03  0.72792630389E+03  0.12959777116E+04  0.89945173165E+03 0.  0.
         23    2    4    4    0    0 -0.47928664751E+03 -0.17140175458E+03  0.52523384381E+03  0.73712186354E+03  0.91563087920E+02 0.  0.
         23    2    4    4    0    0  0.33128228453E+03 -0.39318908496E+03  0.20269246008E+03  0.55885584808E+03  0.83006126219E+02 0.  0.
          4    1    3    3  502    0  0.15519561490E+03  0.48323121731E+03 -0.91129762596E+03  0.10431018413E+04  0.00000000000E+00 0. -1.
         -3    1    3    3    0  502 -0.71912519172E+01  0.81359622227E+02 -0.14815134249E+03  0.16917423715E+03  0.00000000000E+00 0.  1.
         11    1    5    5    0    0 -0.15834861439E+03 -0.40035792479E+02  0.22751497622E+03  0.28007179930E+03  0.00000000000E+00 0. -1.
        -11    1    5    5    0    0 -0.32093803312E+03 -0.13136596210E+03  0.29771886759E+03  0.45705006424E+03  0.00000000000E+00 0.  1.
          1    1    6    6  503    0  0.22249697059E+03 -0.29896555396E+03  0.11363974322E+03  0.38961429083E+03  0.00000000000E+00 0. -1.
         -1    1    6    6    0  503  0.10878531394E+03 -0.94223530991E+02  0.89052716856E+02  0.16924155725E+03  0.00000000000E+00 0.  1.
<mgrwt>
<rscale>  0 0.24862481E+04</rscale>
<asrwt>0</asrwt>
<pdfrwt beam="1">  1        2 0.21844434E+00 0.24862481E+04</pdfrwt>
<pdfrwt beam="2">  1       -1 0.16744086E+00 0.24862481E+04</pdfrwt>
<totfact> 0.36853140E+00</totfact>
</mgrwt>
</event>
<event>
12    6  0.1647231E-007  0.1232324E+04  0.7818608E-02  0.9085025E-01
          2   -1    0    0  501    0  0.00000000000E+00  0.00000000000E+00  0.31013417487E+04  0.31013417487E+04  0.00000000000E+00 0. -1.
         -1   -1    0    0    0  501 -0.00000000000E+00 -0.00000000000E+00 -0.12241658422E+03  0.12241658422E+03  0.00000000000E+00 0.  1.
         24    2    1    2    0    0 -0.76568721856E+02  0.64081201446E+02  0.13612066346E+04  0.13671073121E+04  0.78292599734E+02 0.  0.
        254    2    1    2    0    0  0.76568721856E+02 -0.64081201446E+02  0.16177185299E+04  0.18566510209E+04  0.90563270793E+03 0.  0.
         23    2    4    4    0    0  0.13757905758E+03  0.12430851231E+03  0.16243958512E+04  0.16374808935E+04  0.91110877646E+02 0.  0.
         23    2    4    4    0    0 -0.61010335724E+02 -0.18838971375E+03 -0.66773212633E+01  0.21917012733E+03  0.93691049643E+02 0.  0.
          4    1    3    3  502    0 -0.58087414696E+02  0.13955731460E+02  0.40206698502E+03  0.40648095974E+03  0.00000000000E+00 0. -1.
         -3    1    3    3    0  502 -0.18481307160E+02  0.50125469986E+02  0.95913964957E+03  0.96062635235E+03  0.00000000000E+00 0.  1.
         11    1    5    5    0    0  0.59189075320E+02  0.10181208565E+01  0.38960025962E+03  0.39407200548E+03  0.00000000000E+00 0. -1.
        -11    1    5    5    0    0  0.78389982259E+02  0.12329039145E+03  0.12347955916E+04  0.12434088880E+04  0.00000000000E+00 0.  1.
          1    1    6    6  503    0  0.87434030256E+01  0.66319453823E+01 -0.49582547419E+01  0.12042179458E+02  0.00000000000E+00 0. -1.
         -1    1    6    6    0  503 -0.69753738749E+02 -0.19502165913E+03 -0.17190665214E+01  0.20712794787E+03  0.00000000000E+00 0.  1.
<mgrwt>
<rscale>  0 0.12323241E+04</rscale>
<asrwt>0</asrwt>
<pdfrwt beam="1">  1        2 0.47712944E+00 0.12323241E+04</pdfrwt>
<pdfrwt beam="2">  1       -1 0.18833323E-01 0.12323241E+04</pdfrwt>
<totfact> 0.38680958E+01</totfact>
</mgrwt>
</event>
<event>
12    6  0.1647231E-007  0.1565642E+04  0.7818608E-02  0.8841938E-01
          2   -1    0    0  501    0  0.00000000000E+00  0.00000000000E+00  0.60226760740E+04  0.60226760740E+04  0.00000000000E+00 0. -1.
         -1   -1    0    0    0  501 -0.00000000000E+00 -0.00000000000E+00 -0.10175018527E+03  0.10175018527E+03  0.00000000000E+00 0.  1.
         24    2    1    2    0    0  0.36308687987E+03  0.23757970277E+03  0.86829302724E+03  0.97388793519E+03  0.79048919439E+02 0.  0.
        254    2    1    2    0    0 -0.36308687987E+03 -0.23757970277E+03  0.50526328615E+04  0.51505383241E+04  0.90037214381E+03 0.  0.
         23    2    4    4    0    0 -0.28322990361E+02 -0.33414980170E+03  0.43239670829E+04  0.43378873709E+04  0.90095653118E+02 0.  0.
         23    2    4    4    0    0 -0.33476388951E+03  0.96570098930E+02  0.72866577859E+03  0.81265095320E+03  0.89750259742E+02 0.  0.
          4    1    3    3  502    0  0.30322866992E+03  0.22707342297E+03  0.71886544816E+03  0.81257461088E+03  0.00000000000E+00 0. -1.
         -3    1    3    3    0  502  0.59858209949E+02  0.10506279798E+02  0.14942757907E+03  0.16131332431E+03  0.00000000000E+00 0.  1.
         11    1    5    5    0    0 -0.52298017730E+02 -0.14584568808E+03  0.16890463451E+04  0.16961378491E+04  0.00000000000E+00 0.  1.
        -11    1    5    5    0    0  0.23975027368E+02 -0.18830411362E+03  0.26349207379E+04  0.26417495218E+04  0.00000000000E+00 0. -1.
          3    1    6    6  503    0 -0.30847266605E+03  0.97195243583E+02  0.71061498434E+03  0.78075345471E+03  0.00000000000E+00 0. -1.
         -3    1    6    6    0  503 -0.26291223456E+02 -0.62514465283E+00  0.18050794244E+02  0.31897498483E+02  0.00000000000E+00 0.  1.
<mgrwt>
<rscale>  0 0.15656416E+04</rscale>
<asrwt>0</asrwt>
<pdfrwt beam="1">  1        2 0.92656527E+00 0.15656416E+04</pdfrwt>
<pdfrwt beam="2">  1       -1 0.15653879E-01 0.15656416E+04</pdfrwt>
<totfact> 0.10276389E-02</totfact>
</mgrwt>
</event>
<event>
12    6  0.1647231E-007  0.2570210E+04  0.7818608E-02  0.8378391E-01
         -1   -1    0    0    0  501 -0.00000000000E+00  0.00000000000E+00  0.12934983387E+04  0.12934983387E+04  0.00000000000E+00 0.  1.
          2   -1    0    0  501    0  0.00000000000E+00 -0.00000000000E+00 -0.12767664915E+04  0.12767664915E+04  0.00000000000E+00 0. -1.
         24    2    1    2    0    0  0.17909594286E+03 -0.32628577818E+03  0.10703924458E+04  0.11356950181E+04  0.74333170905E+02 0.  0.
        254    2    1    2    0    0 -0.17909594286E+03  0.32628577818E+03 -0.10536605986E+04  0.14345698121E+04  0.89958441689E+03 0.  0.
         23    2    4    4    0    0 -0.26203832823E+02  0.33630546071E+03  0.15972679274E+02  0.34991925792E+03  0.91653460523E+02 0.  0.
         23    2    4    4    0    0 -0.15289211003E+03 -0.10019682526E+02 -0.10696332779E+04  0.10846505542E+04  0.94207665922E+02 0.  0.
          2    1    3    3  502    0  0.22301240560E+02 -0.98637640177E+02  0.23758091219E+03  0.25820809287E+03  0.00000000000E+00 0. -1.
         -1    1    3    3    0  502  0.15679470230E+03 -0.22764813800E+03  0.83281153359E+03  0.87748692519E+03  0.00000000000E+00 0.  1.
         11    1    5    5    0    0 -0.53554739096E+02  0.23520003145E+03 -0.11968247920E+02  0.24151688105E+03  0.00000000000E+00 0. -1.
        -11    1    5    5    0    0  0.27350906272E+02  0.10110542925E+03  0.27940927194E+02  0.10840237687E+03  0.00000000000E+00 0.  1.
          1    1    6    6  503    0  0.10666480002E+02 -0.68761452095E+01 -0.36439233254E+02  0.38585915678E+02  0.00000000000E+00 0. -1.
         -1    1    6    6    0  503 -0.16355859004E+03 -0.31435373165E+01 -0.10331940446E+04  0.10460646385E+04  0.00000000000E+00 0.  1.
<mgrwt>
<rscale>  0 0.25702104E+04</rscale>
<asrwt>0</asrwt>
<pdfrwt beam="1">  1        2 0.19642561E+00 0.25702104E+04</pdfrwt>
<pdfrwt beam="2">  1       -1 0.19899975E+00 0.25702104E+04</pdfrwt>
<totfact> 0.26355508E+00</totfact>
</mgrwt>
</event>
<event>
12    6  0.1647231E-007  0.1315502E+04  0.7818608E-02  0.9017362E-01
         -1   -1    0    0    0  501 -0.00000000000E+00  0.00000000000E+00  0.18659787781E+04  0.18659787781E+04  0.00000000000E+00 0.  1.
          2   -1    0    0  501    0  0.00000000000E+00 -0.00000000000E+00 -0.23185483695E+03  0.23185483695E+03  0.00000000000E+00 0. -1.
         24    2    1    2    0    0 -0.19390564395E+03 -0.26487997186E+03  0.59694286465E+03  0.68568479820E+03  0.77859235651E+02 0.  0.
        254    2    1    2    0    0  0.19390564395E+03  0.26487997186E+03  0.10371810765E+04  0.14121488169E+04  0.90036597962E+03 0.  0.
         23    2    4    4    0    0  0.50321364622E+03 -0.11762867965E+02  0.41648972493E+03  0.65964975026E+03  0.91168872065E+02 0.  0.
         23    2    4    4    0    0 -0.30930800227E+03  0.27664283982E+03  0.62069135156E+03  0.75249906660E+03  0.93778410273E+02 0.  0.
          4    1    3    3  502    0 -0.34960029448E+02 -0.94058349573E+02  0.13557846978E+03  0.16867334778E+03  0.00000000000E+00 0. -1.
         -3    1    3    3    0  502 -0.15894561450E+03 -0.17082162228E+03  0.46136439487E+03  0.51701145042E+03  0.00000000000E+00 0.  1.
         11    1    5    5    0    0  0.45480124093E+03 -0.34328380813E+02  0.35340684677E+03  0.57699133947E+03  0.00000000000E+00 0. -1.
        -11    1    5    5    0    0  0.48412405289E+02  0.22565512848E+02  0.63082878168E+02  0.82658410788E+02  0.00000000000E+00 0.  1.
          4    1    6    6  503    0 -0.56991026836E+01  0.21197379736E+02  0.72725005628E+02  0.75965354753E+02  0.00000000000E+00 0.  1.
         -4    1    6    6    0  503 -0.30360889959E+03  0.25544546009E+03  0.54796634593E+03  0.67653371184E+03  0.00000000000E+00 0. -1.
<mgrwt>
<rscale>  0 0.13155017E+04</rscale>
<asrwt>0</asrwt>
<pdfrwt beam="1">  1        2 0.35669976E-01 0.13155017E+04</pdfrwt>
<pdfrwt beam="2">  1       -1 0.28707365E+00 0.13155017E+04</pdfrwt>
<totfact> 0.66089753E+00</totfact>
</mgrwt>
</event>
<event>
12    6  0.1647231E-007  0.2677371E+04  0.7818608E-02  0.8342385E-01
          2   -1    0    0  501    0  0.00000000000E+00  0.00000000000E+00  0.34359916282E+04  0.34359916282E+04  0.00000000000E+00 0. -1.
         -1   -1    0    0    0  501 -0.00000000000E+00 -0.00000000000E+00 -0.52156086891E+03  0.52156086891E+03  0.00000000000E+00 0.  1.
         24    2    1    2    0    0 -0.35305295564E+03  0.89177852019E+03  0.23264431590E+04  0.25178351905E+04  0.85093807088E+02 0.  0.
        254    2    1    2    0    0  0.35305295564E+03 -0.89177852019E+03  0.58798760029E+03  0.14397173066E+04  0.89841036629E+03 0.  0.
         23    2    4    4    0    0 -0.17938969610E+03 -0.66534079595E+03  0.16006632870E+03  0.71412897123E+03  0.97467533819E+02 0.  0.
         23    2    4    4    0    0  0.53244265175E+03 -0.22643772424E+03  0.42792127159E+03  0.72558833537E+03  0.92696264111E+02 0.  0.
          4    1    3    3  502    0 -0.19825204320E+03  0.57630451739E+03  0.13955612688E+04  0.15228335511E+04  0.00000000000E+00 0. -1.
         -3    1    3    3    0  502 -0.15480091245E+03  0.31547400281E+03  0.93088189024E+03  0.99500163945E+03  0.00000000000E+00 0.  1.
         11    1    5    5    0    0 -0.71556810475E+02 -0.42063850955E+03  0.12375856170E+03  0.44426716560E+03  0.00000000000E+00 0. -1.
        -11    1    5    5    0    0 -0.10783288563E+03 -0.24470228640E+03  0.36307767004E+02  0.26986180563E+03  0.00000000000E+00 0.  1.
          3    1    6    6  503    0  0.42439335512E+03 -0.14307732197E+03  0.35032140925E+03  0.56859997337E+03  0.00000000000E+00 0. -1.
         -3    1    6    6    0  503  0.10804929663E+03 -0.83360402270E+02  0.77599862339E+02  0.15698836200E+03  0.00000000000E+00 0.  1.
<mgrwt>
<rscale>  0 0.26773709E+04</rscale>
<asrwt>0</asrwt>
<pdfrwt beam="1">  1        2 0.52861408E+00 0.26773709E+04</pdfrwt>
<pdfrwt beam="2">  1       -1 0.80240136E-01 0.26773709E+04</pdfrwt>
<totfact> 0.13951020E+00</totfact>
</mgrwt>
</event>
<event>
12    6  0.1647231E-007  0.1181686E+04  0.7818608E-02  0.9129040E-01
         -1   -1    0    0    0  501 -0.00000000000E+00  0.00000000000E+00  0.86202107738E+03  0.86202107738E+03  0.00000000000E+00 0.  1.
          2   -1    0    0  501    0  0.00000000000E+00 -0.00000000000E+00 -0.40497290345E+03  0.40497290345E+03  0.00000000000E+00 0. -1.
         24    2    1    2    0    0 -0.90421534250E+02 -0.22340152080E+02  0.30119563739E+03  0.32470903253E+03  0.77730351668E+02 0.  0.
        254    2    1    2    0    0  0.90421534250E+02  0.22340152080E+02  0.15585253654E+03  0.94228494829E+03  0.92462737056E+03 0.  0.
         23    2    4    4    0    0  0.18948970941E+03 -0.80515221135E+02 -0.34612969570E+03  0.41218301055E+03  0.87749741496E+02 0.  0.
         23    2    4    4    0    0 -0.99068175162E+02  0.10285537322E+03  0.50198223223E+03  0.53010193775E+03  0.92887952892E+02 0.  0.
          4    1    3    3  502    0  0.10042780610E+02 -0.82195105042E+00  0.50981864467E+01  0.11292676873E+02  0.00000000000E+00 0. -1.
         -3    1    3    3    0  502 -0.10046431486E+03 -0.21518201030E+02  0.29609745095E+03  0.31341635566E+03  0.00000000000E+00 0.  1.
         11    1    5    5    0    0  0.15835015424E+03 -0.42139012467E+02 -0.31107038314E+03  0.35158960591E+03  0.00000000000E+00 0.  1.
        -11    1    5    5    0    0  0.31139555174E+02 -0.38376208668E+02 -0.35059312556E+02  0.60593404634E+02  0.00000000000E+00 0. -1.
          3    1    6    6  503    0 -0.18170082970E+02  0.44719652314E+01  0.86919480355E+01  0.20632507090E+02  0.00000000000E+00 0. -1.
         -3    1    6    6    0  503 -0.80898092192E+02  0.98383407984E+02  0.49329028420E+03  0.50946943066E+03  0.00000000000E+00 0.  1.
<mgrwt>
<rscale>  0 0.11816855E+04</rscale>
<asrwt>0</asrwt>
<pdfrwt beam="1">  1        2 0.62303524E-01 0.11816855E+04</pdfrwt>
<pdfrwt beam="2">  1       -1 0.13261863E+00 0.11816855E+04</pdfrwt>
<totfact> 0.42754732E+01</totfact>
</mgrwt>
</event>
<event>
12    6  0.1647231E-007  0.2775520E+04  0.7818608E-02  0.8310909E-01
          2   -1    0    0  501    0  0.00000000000E+00  0.00000000000E+00  0.13904200155E+04  0.13904200155E+04  0.00000000000E+00 0. -1.
         -1   -1    0    0    0  501 -0.00000000000E+00 -0.00000000000E+00 -0.13851050268E+04  0.13851050268E+04  0.00000000000E+00 0.  1.
         24    2    1    2    0    0 -0.86998236379E+03  0.18206756462E+03 -0.86139292894E+03  0.12402739821E+04  0.79144559645E+02 0.  0.
        254    2    1    2    0    0  0.86998236379E+03 -0.18206756462E+03  0.86670791760E+03  0.15352510601E+04  0.90321386826E+03 0.  0.
         23    2    4    4    0    0  0.17252375592E+03 -0.44820254874E+03  0.19449650855E+03  0.52655536993E+03  0.93710696877E+02 0.  0.
         23    2    4    4    0    0  0.69745860787E+03  0.26613498411E+03  0.67221140905E+03  0.10086956902E+04  0.91227613817E+02 0.  0.
          4    1    3    3  502    0 -0.12053091953E+03  0.36265298691E+01 -0.94087869975E+02  0.15294895082E+03  0.00000000000E+00 0. -1.
         -3    1    3    3    0  502 -0.74945144426E+03  0.17844103476E+03 -0.76730505897E+03  0.10873250313E+04  0.00000000000E+00 0.  1.
         11    1    5    5    0    0 -0.56835451397E+01 -0.48468291271E+02  0.31687342426E+01  0.48903157575E+02  0.00000000000E+00 0.  1.
        -11    1    5    5    0    0  0.17820730106E+03 -0.39973425746E+03  0.19132777430E+03  0.47765221235E+03  0.00000000000E+00 0. -1.
          2    1    6    6  503    0  0.63378941263E+03  0.23173892805E+03  0.56931140851E+03  0.88289717986E+03  0.00000000000E+00 0. -1.
         -2    1    6    6    0  503  0.63669195232E+02  0.34396056062E+02  0.10290000054E+03  0.12579851035E+03  0.00000000000E+00 0.  1.
<mgrwt>
<rscale>  0 0.27755200E+04</rscale>
<asrwt>0</asrwt>
<pdfrwt beam="1">  1        2 0.21391077E+00 0.27755200E+04</pdfrwt>
<pdfrwt beam="2">  1       -1 0.21309308E+00 0.27755200E+04</pdfrwt>
<totfact> 0.17828473E+00</totfact>
</mgrwt>
</event>
<event>
12    6  0.1647231E-007  0.1307448E+04  0.7818608E-02  0.9023680E-01
          2   -1    0    0  501    0  0.00000000000E+00  0.00000000000E+00  0.18590411976E+04  0.18590411976E+04  0.00000000000E+00 0. -1.
         -1   -1    0    0    0  501 -0.00000000000E+00 -0.00000000000E+00 -0.22987917168E+03  0.22987917168E+03  0.00000000000E+00 0.  1.
         24    2    1    2    0    0 -0.31331739227E+03 -0.54207585430E+02  0.26606796907E+03  0.42222021584E+03  0.79821650430E+02 0.  0.
        254    2    1    2    0    0  0.31331739227E+03  0.54207585430E+02  0.13630940568E+04  0.16667001534E+04  0.90485233217E+03 0.  0.
         23    2    4    4    0    0  0.45275996305E+03 -0.30302286829E+03  0.92527833299E+03  0.10775721436E+04  0.90594084973E+02 0.  0.
         23    2    4    4    0    0 -0.13944257078E+03  0.35723045372E+03  0.43781572383E+03  0.58912800986E+03  0.91276373453E+02 0.  0.
          2    1    3    3  502    0 -0.60311757233E+02  0.11280062732E+02  0.82649519511E+02  0.10293537269E+03  0.00000000000E+00 0. -1.
         -1    1    3    3    0  502 -0.25300563504E+03 -0.65487648163E+02  0.18341844956E+03  0.31928484314E+03  0.00000000000E+00 0.  1.
         11    1    5    5    0    0  0.87601867738E+01 -0.94936703546E+01  0.38758798107E+01  0.13486774760E+02  0.00000000000E+00 0. -1.
        -11    1    5    5    0    0  0.44399977628E+03 -0.29352919793E+03  0.92140245318E+03  0.10640853688E+04  0.00000000000E+00 0.  1.
          4    1    6    6  503    0 -0.63286990761E+02  0.63886327062E+02  0.81585025070E+02  0.12142002430E+03  0.00000000000E+00 0. -1.
         -4    1    6    6    0  503 -0.76155580019E+02  0.29334412666E+03  0.35623069876E+03  0.46770798556E+03  0.00000000000E+00 0.  1.
<mgrwt>
<rscale>  0 0.13074477E+04</rscale>
<asrwt>0</asrwt>
<pdfrwt beam="1">  1        2 0.28600633E+00 0.13074477E+04</pdfrwt>
<pdfrwt beam="2">  1       -1 0.35366028E-01 0.13074477E+04</pdfrwt>
<totfact> 0.68032638E+01</totfact>
</mgrwt>
</event>
<event>
12    6  0.1647231E-007  0.2227915E+04  0.7818608E-02  0.8506898E-01
         -1   -1    0    0    0  501 -0.00000000000E+00  0.00000000000E+00  0.16740360009E+04  0.16740360009E+04  0.00000000000E+00 0.  1.
          2   -1    0    0  501    0  0.00000000000E+00 -0.00000000000E+00 -0.74126299598E+03  0.74126299598E+03  0.00000000000E+00 0. -1.
         24    2    1    2    0    0  0.86531857654E+03 -0.32043693322E+03  0.25468103023E+03  0.96034735954E+03  0.77126887250E+02 0.  0.
        254    2    1    2    0    0 -0.86531857654E+03  0.32043693322E+03  0.67809197465E+03  0.14549516373E+04  0.89756307507E+03 0.  0.
         23    2    4    4    0    0  0.40346817120E+02 -0.62497411930E+02  0.41797933241E+03  0.43374507516E+03  0.88849736933E+02 0.  0.
         23    2    4    4    0    0 -0.90566539366E+03  0.38293434515E+03  0.26011264224E+03  0.10212065621E+04  0.91300262550E+02 0.  0.
          4    1    3    3  502    0  0.69709386793E+03 -0.22682647251E+03  0.21276248420E+03  0.76332036788E+03  0.00000000000E+00 0. -1.
         -3    1    3    3    0  502  0.16822470861E+03 -0.93610460704E+02  0.41918546030E+02  0.19702699166E+03  0.00000000000E+00 0.  1.
         11    1    5    5    0    0 -0.23518104985E+02 -0.13043211730E+01  0.14194494934E+03  0.14388596582E+03  0.00000000000E+00 0.  1.
        -11    1    5    5    0    0  0.63864922105E+02 -0.61193090757E+02  0.27603438307E+03  0.28985910934E+03  0.00000000000E+00 0. -1.
          2    1    6    6  503    0 -0.49833883467E+03  0.23553723694E+03  0.18601436351E+03  0.58173939832E+03  0.00000000000E+00 0. -1.
         -2    1    6    6    0  503 -0.40732655899E+03  0.14739710820E+03  0.74098278727E+02  0.43946716382E+03  0.00000000000E+00 0.  1.
<mgrwt>
<rscale>  0 0.22279147E+04</rscale>
<asrwt>0</asrwt>
<pdfrwt beam="1">  1        2 0.11404046E+00 0.22279147E+04</pdfrwt>
<pdfrwt beam="2">  1       -1 0.25754400E+00 0.22279147E+04</pdfrwt>
<totfact> 0.24663577E+00</totfact>
</mgrwt>
</event>
<event>
12    6  0.1647231E-007  0.1502442E+04  0.7818608E-02  0.8882831E-01
         -1   -1    0    0    0  501 -0.00000000000E+00  0.00000000000E+00  0.58850095661E+03  0.58850095661E+03  0.00000000000E+00 0.  1.
          2   -1    0    0  501    0  0.00000000000E+00 -0.00000000000E+00 -0.95893316224E+03  0.95893316224E+03  0.00000000000E+00 0. -1.
         24    2    1    2    0    0  0.22883028274E+03  0.26098079222E+03  0.24099199024E+03  0.43012108212E+03  0.80328909612E+02 0.  0.
        254    2    1    2    0    0 -0.22883028274E+03 -0.26098079222E+03 -0.61142419586E+03  0.11173130367E+04  0.86837469017E+03 0.  0.
         23    2    4    4    0    0  0.19746734656E+03 -0.27244734567E+03  0.21300572787E+02  0.34892829538E+03  0.89868413776E+02 0.  0.
         23    2    4    4    0    0 -0.42629762930E+03  0.11466553445E+02 -0.63272476865E+03  0.76838474135E+03  0.90627409062E+02 0.  0.
          2    1    3    3  502    0  0.46291711369E+01  0.27443009765E+01  0.25152239839E+02  0.25721500387E+02  0.00000000000E+00 0. -1.
         -1    1    3    3    0  502  0.22420111161E+03  0.25823649125E+03  0.21583975040E+03  0.40439958174E+03  0.00000000000E+00 0.  1.
         11    1    5    5    0    0  0.16115237854E+03 -0.26521108539E+03  0.26819160133E+02  0.31149041121E+03  0.00000000000E+00 0.  1.
        -11    1    5    5    0    0  0.36314968016E+02 -0.72362602788E+01 -0.55185873462E+01  0.37437884170E+02  0.00000000000E+00 0. -1.
          1    1    6    6  503    0 -0.37114544200E+03 -0.73966240774E+01 -0.58597499785E+03  0.69366443420E+03  0.00000000000E+00 0.  1.
         -1    1    6    6    0  503 -0.55152187306E+02  0.18863177522E+02 -0.46749770802E+02  0.74720307152E+02  0.00000000000E+00 0. -1.
<mgrwt>
<rscale>  0 0.15024421E+04</rscale>
<asrwt>0</asrwt>
<pdfrwt beam="1">  1        2 0.14752818E+00 0.15024421E+04</pdfrwt>
<pdfrwt beam="2">  1       -1 0.90538608E-01 0.15024421E+04</pdfrwt>
<totfact> 0.35206385E+01</totfact>
</mgrwt>
</event>
<event>
12    6  0.1647231E-007  0.2212147E+04  0.7818608E-02  0.8513389E-01
         -1   -1    0    0    0  501 -0.00000000000E+00  0.00000000000E+00  0.58478180461E+03  0.58478180461E+03  0.00000000000E+00 0.  1.
          2   -1    0    0  501    0  0.00000000000E+00 -0.00000000000E+00 -0.20920607775E+04  0.20920607775E+04  0.00000000000E+00 0. -1.
         24    2    1    2    0    0  0.14593620476E+03  0.87338604711E+03 -0.93428435575E+03  0.12896711435E+04  0.79144411781E+02 0.  0.
        254    2    1    2    0    0 -0.14593620476E+03 -0.87338604711E+03 -0.57299461717E+03  0.13871714386E+04  0.90101121284E+03 0.  0.
         23    2    4    4    0    0 -0.41081042796E+03 -0.88653395934E+03 -0.47091684681E+03  0.10886063562E+04  0.92700880979E+02 0.  0.
         23    2    4    4    0    0  0.26487422321E+03  0.13147912234E+02 -0.10207777036E+03  0.29856508243E+03  0.91597027943E+02 0.  0.
          2    1    3    3  502    0  0.10555028642E+03  0.56907216832E+03 -0.66199967339E+03  0.87933359044E+03  0.00000000000E+00 0. -1.
         -1    1    3    3    0  502  0.40385918334E+02  0.30431387879E+03 -0.27228468236E+03  0.41033755308E+03  0.00000000000E+00 0.  1.
         11    1    5    5    0    0 -0.18247530525E+03 -0.49776696258E+03 -0.27103215996E+03  0.59542221809E+03  0.00000000000E+00 0. -1.
        -11    1    5    5    0    0 -0.22833512271E+03 -0.38876699676E+03 -0.19988468685E+03  0.49318413810E+03  0.00000000000E+00 0.  1.
          2    1    6    6  503    0  0.15002127544E+03  0.28908969443E+02 -0.14882662245E+02  0.15350441438E+03  0.00000000000E+00 0. -1.
         -2    1    6    6    0  503  0.11485294776E+03 -0.15761057209E+02 -0.87195108113E+02  0.14506066804E+03  0.00000000000E+00 0.  1.
<mgrwt>
<rscale>  0 0.22121474E+04</rscale>
<asrwt>0</asrwt>
<pdfrwt beam="1">  1        2 0.32185551E+00 0.22121474E+04</pdfrwt>
<pdfrwt beam="2">  1       -1 0.89966431E-01 0.22121474E+04</pdfrwt>
<totfact> 0.74576476E+00</totfact>
</mgrwt>
</event>
<event>
12    6  0.1647231E-007  0.2347245E+04  0.7818608E-02  0.8459523E-01
         -1   -1    0    0    0  501 -0.00000000000E+00  0.00000000000E+00  0.98052570575E+03  0.98052570575E+03  0.00000000000E+00 0.  1.
          2   -1    0    0  501    0  0.00000000000E+00 -0.00000000000E+00 -0.14047457611E+04  0.14047457611E+04  0.00000000000E+00 0. -1.
         24    2    1    2    0    0  0.53895482361E+03 -0.66981298370E+03 -0.69944313016E+03  0.11112145026E+04  0.80344529234E+02 0.  0.
        254    2    1    2    0    0 -0.53895482361E+03  0.66981298370E+03  0.27522307476E+03  0.12740569643E+04  0.89908379611E+03 0.  0.
         23    2    4    4    0    0 -0.49928584911E+03  0.83616894483E+03  0.38497206147E+03  0.10511516093E+04  0.90836965336E+02 0.  0.
         23    2    4    4    0    0 -0.39668974497E+02 -0.16635596114E+03 -0.10974898670E+03  0.22290535498E+03  0.91618905553E+02 0.  0.
          2    1    3    3  502    0  0.41020932782E+03 -0.45713824488E+03 -0.47807267716E+03  0.77833190363E+03  0.00000000000E+00 0. -1.
         -1    1    3    3    0  502  0.12874549579E+03 -0.21267473882E+03 -0.22137045300E+03  0.33288259894E+03  0.00000000000E+00 0.  1.
         11    1    5    5    0    0 -0.13017594210E+03  0.17015718360E+03  0.11570657479E+03  0.24348974205E+03  0.00000000000E+00 0. -1.
        -11    1    5    5    0    0 -0.36910990701E+03  0.66601176124E+03  0.26926548667E+03  0.80766186729E+03  0.00000000000E+00 0.  1.
          3    1    6    6  503    0 -0.11292788330E+02 -0.62818078529E+00 -0.38790951573E+02  0.40406182736E+02  0.00000000000E+00 0. -1.
         -3    1    6    6    0  503 -0.28376186168E+02 -0.16572778035E+03 -0.70958035131E+02  0.18249917225E+03  0.00000000000E+00 0.  1.
<mgrwt>
<rscale>  0 0.23472446E+04</rscale>
<asrwt>0</asrwt>
<pdfrwt beam="1">  1        2 0.21611473E+00 0.23472446E+04</pdfrwt>
<pdfrwt beam="2">  1       -1 0.15085011E+00 0.23472446E+04</pdfrwt>
<totfact> 0.50846451E+00</totfact>
</mgrwt>
</event>
<event>
12    6  0.1647231E-007  0.1712261E+04  0.7818608E-02  0.8754402E-01
         -1   -1    0    0    0  501 -0.00000000000E+00  0.00000000000E+00  0.54904993413E+03  0.54904993413E+03  0.00000000000E+00 0.  1.
          2   -1    0    0  501    0  0.00000000000E+00 -0.00000000000E+00 -0.13349600420E+04  0.13349600420E+04  0.00000000000E+00 0. -1.
         24    2    1    2    0    0 -0.43425230916E+03  0.20546417672E+03  0.14514889691E+03  0.50824060724E+03  0.80310127951E+02 0.  0.
        254    2    1    2    0    0  0.43425230916E+03 -0.20546417672E+03 -0.93105900479E+03  0.13757693689E+04  0.89167252401E+03 0.  0.
         23    2    4    4    0    0  0.62371569825E+02  0.30099956219E+03 -0.54495455578E+03  0.63266551411E+03  0.93804241515E+02 0.  0.
         23    2    4    4    0    0  0.37188073934E+03 -0.50646373890E+03 -0.38610444901E+03  0.74310385478E+03  0.91246316820E+02 0.  0.
          4    1    3    3  502    0 -0.12989866903E+03  0.10185469713E+03  0.38415144405E+02  0.16948087462E+03  0.00000000000E+00 0. -1.
         -3    1    3    3    0  502 -0.30435364014E+03  0.10360947959E+03  0.10673375250E+03  0.33875973263E+03  0.00000000000E+00 0.  1.
         11    1    5    5    0    0  0.34242283804E+02  0.14037885249E+03 -0.16577297726E+03  0.21990779026E+03  0.00000000000E+00 0.  1.
        -11    1    5    5    0    0  0.28129286021E+02  0.16062070970E+03 -0.37918157851E+03  0.41275772385E+03  0.00000000000E+00 0. -1.
          1    1    6    6  503    0  0.59502151047E+02 -0.10402840622E+03 -0.36646265700E+02  0.12532104400E+03  0.00000000000E+00 0. -1.
         -1    1    6    6    0  503  0.31237858829E+03 -0.40243533269E+03 -0.34945818331E+03  0.61778281078E+03  0.00000000000E+00 0.  1.
<mgrwt>
<rscale>  0 0.17122613E+04</rscale>
<asrwt>0</asrwt>
<pdfrwt beam="1">  1        2 0.20537846E+00 0.17122613E+04</pdfrwt>
<pdfrwt beam="2">  1       -1 0.84469222E-01 0.17122613E+04</pdfrwt>
<totfact> 0.23725153E+01</totfact>
</mgrwt>
</event>
<event>
12    6  0.1647231E-007  0.1761813E+04  0.7818608E-02  0.8726875E-01
          2   -1    0    0  501    0  0.00000000000E+00  0.00000000000E+00  0.12131380455E+04  0.12131380455E+04  0.00000000000E+00 0. -1.
         -1   -1    0    0    0  501 -0.00000000000E+00 -0.00000000000E+00 -0.63966045441E+03  0.63966045441E+03  0.00000000000E+00 0.  1.
         24    2    1    2    0    0  0.60543844076E+03 -0.14511450703E+03  0.70506059068E+01  0.62770854967E+03  0.79714406423E+02 0.  0.
        254    2    1    2    0    0 -0.60543844076E+03  0.14511450703E+03  0.56642698522E+03  0.12250899503E+04  0.89016399105E+03 0.  0.
         23    2    4    4    0    0 -0.57779086617E+03  0.46176942053E+03  0.31210920664E+03  0.80793203960E+03  0.90932617818E+02 0.  0.
         23    2    4    4    0    0 -0.27647574593E+02 -0.31665491350E+03  0.25431777858E+03  0.41715791066E+03  0.91150794304E+02 0.  0.
          2    1    3    3  502    0  0.23210536025E+02 -0.23186914706E+02  0.82197852989E+00  0.32818251703E+02  0.00000000000E+00 0. -1.
         -1    1    3    3    0  502  0.58222790474E+03 -0.12192759232E+03  0.62286273769E+01  0.59489029797E+03  0.00000000000E+00 0.  1.
         11    1    5    5    0    0 -0.31701321855E+03  0.25335542779E+03  0.22007913800E+03  0.46165049606E+03  0.00000000000E+00 0. -1.
        -11    1    5    5    0    0 -0.26077764761E+03  0.20841399273E+03  0.92030068637E+02  0.34628154354E+03  0.00000000000E+00 0.  1.
          4    1    6    6  503    0  0.63408474026E+01 -0.39781061485E+02  0.76189926909E+02  0.86183781311E+02  0.00000000000E+00 0.  1.
         -4    1    6    6    0  503 -0.33988421995E+02 -0.27687385202E+03  0.17812785167E+03  0.33097412935E+03  0.00000000000E+00 0. -1.
<mgrwt>
<rscale>  0 0.17618132E+04</rscale>
<asrwt>0</asrwt>
<pdfrwt beam="1">  1        2 0.18663662E+00 0.17618132E+04</pdfrwt>
<pdfrwt beam="2">  1       -1 0.98409301E-01 0.17618132E+04</pdfrwt>
<totfact> 0.19858858E+01</totfact>
</mgrwt>
</event>
<event>
12    6  0.1647231E-007  0.1498577E+04  0.7818608E-02  0.8885400E-01
          2   -1    0    0  501    0  0.00000000000E+00  0.00000000000E+00  0.88598672306E+03  0.88598672306E+03  0.00000000000E+00 0. -1.
         -1   -1    0    0    0  501 -0.00000000000E+00 -0.00000000000E+00 -0.63368108576E+03  0.63368108576E+03  0.00000000000E+00 0.  1.
         24    2    1    2    0    0  0.26770800392E+03 -0.33685604399E+03  0.29082951363E+03  0.52531544412E+03  0.78961636931E+02 0.  0.
        254    2    1    2    0    0 -0.26770800392E+03  0.33685604399E+03 -0.38523876331E+02  0.99435236470E+03  0.89560759622E+03 0.  0.
         23    2    4    4    0    0  0.22602383176E+02 -0.28123757963E+03  0.52674943030E+02  0.29932068506E+03  0.84928081104E+02 0.  0.
         23    2    4    4    0    0 -0.29031038709E+03  0.61809362362E+03 -0.91198819361E+02  0.69503167964E+03  0.91825718822E+02 0.  0.
          2    1    3    3  502    0  0.26455995482E+03 -0.32397912287E+03  0.29451099213E+03  0.51155758838E+03  0.00000000000E+00 0. -1.
         -1    1    3    3    0  502  0.31480490997E+01 -0.12876921121E+02 -0.36814785010E+01  0.13757855743E+02  0.00000000000E+00 0.  1.
         11    1    5    5    0    0  0.38811811721E+02 -0.16997643597E+03 -0.18514222288E+01  0.17436104289E+03  0.00000000000E+00 0.  1.
        -11    1    5    5    0    0 -0.16209428545E+02 -0.11126114366E+03  0.54526365259E+02  0.12495964217E+03  0.00000000000E+00 0. -1.
          1    1    6    6  503    0  0.67430601112E+01  0.21572751546E+02 -0.41237834865E+01  0.22975161788E+02  0.00000000000E+00 0. -1.
         -1    1    6    6    0  503 -0.29705344720E+03  0.59652087207E+03 -0.87075035874E+02  0.67205651785E+03  0.00000000000E+00 0.  1.
<mgrwt>
<rscale>  0 0.14985767E+04</rscale>
<asrwt>0</asrwt>
<pdfrwt beam="1">  1        2 0.13630565E+00 0.14985767E+04</pdfrwt>
<pdfrwt beam="2">  1       -1 0.97489398E-01 0.14985767E+04</pdfrwt>
<totfact> 0.33397003E+01</totfact>
</mgrwt>
</event>
<event>
12    6  0.1647231E-007  0.2399311E+04  0.7818608E-02  0.8439762E-01
         -1   -1    0    0    0  501 -0.00000000000E+00  0.00000000000E+00  0.11804211079E+04  0.11804211079E+04  0.00000000000E+00 0.  1.
          2   -1    0    0  501    0  0.00000000000E+00 -0.00000000000E+00 -0.12192029458E+04  0.12192029458E+04  0.00000000000E+00 0. -1.
         24    2    1    2    0    0 -0.83011222139E+03  0.18729644506E+03 -0.59923265160E+03  0.10438961085E+04  0.80455305361E+02 0.  0.
        254    2    1    2    0    0  0.83011222139E+03 -0.18729644506E+03  0.56045081369E+03  0.13557279452E+04  0.89427450401E+03 0.  0.
         23    2    4    4    0    0 -0.66618731933E+02 -0.13216362282E+02 -0.15364402568E+03  0.19264804432E+03  0.94308295905E+02 0.  0.
         23    2    4    4    0    0  0.89673095332E+03 -0.17408008278E+03  0.71409483937E+03  0.11630799009E+04  0.91614073485E+02 0.  0.
          4    1    3    3  502    0 -0.81585580484E+03  0.17186663210E+03 -0.58504603838E+03  0.10185468573E+04  0.00000000000E+00 0. -1.
         -3    1    3    3    0  502 -0.14256416547E+02  0.15429812962E+02 -0.14186613211E+02  0.25349251176E+02  0.00000000000E+00 0.  1.
         11    1    5    5    0    0 -0.74582518464E+02  0.60691778238E+01 -0.15460400222E+03  0.17176083512E+03  0.00000000000E+00 0. -1.
        -11    1    5    5    0    0  0.79637865307E+01 -0.19285540106E+02  0.95997653863E+00  0.20887209197E+02  0.00000000000E+00 0.  1.
          2    1    6    6  503    0  0.78001768914E+03 -0.15439201922E+03  0.65799527698E+03  0.10320960592E+04  0.00000000000E+00 0. -1.
         -2    1    6    6    0  503  0.11671326419E+03 -0.19688063558E+02  0.56099562389E+02  0.13098384169E+03  0.00000000000E+00 0.  1.
<mgrwt>
<rscale>  0 0.23993106E+04</rscale>
<asrwt>0</asrwt>
<pdfrwt beam="1">  1        2 0.18756968E+00 0.23993106E+04</pdfrwt>
<pdfrwt beam="2">  1       -1 0.18160325E+00 0.23993106E+04</pdfrwt>
<totfact> 0.38321292E+00</totfact>
</mgrwt>
</event>
<event>
12    6  0.1647231E-007  0.2322376E+04  0.7818608E-02  0.8469150E-01
         -1   -1    0    0    0  501 -0.00000000000E+00  0.00000000000E+00  0.43690456776E+03  0.43690456776E+03  0.00000000000E+00 0.  1.
          2   -1    0    0  501    0  0.00000000000E+00 -0.00000000000E+00 -0.30861615135E+04  0.30861615135E+04  0.00000000000E+00 0. -1.
         24    2    1    2    0    0  0.57930221034E+02 -0.97883920474E+03 -0.10688634054E+04  0.14525963864E+04  0.78007584734E+02 0.  0.
        254    2    1    2    0    0 -0.57930221034E+02  0.97883920474E+03 -0.15803935404E+04  0.20704696949E+04  0.90979058885E+03 0.  0.
         23    2    4    4    0    0  0.40277273742E+03  0.60440275289E+03 -0.95494101704E+03  0.12033024739E+04  0.92173380196E+02 0.  0.
         23    2    4    4    0    0 -0.46070295845E+03  0.37443645185E+03 -0.62545252336E+03  0.86716722094E+03  0.91314060740E+02 0.  0.
          2    1    3    3  502    0 -0.41312740042E+01 -0.54597755901E+03 -0.61323422546E+03  0.82107537878E+03  0.00000000000E+00 0. -1.
         -1    1    3    3    0  502  0.62061495038E+02 -0.43286164573E+03 -0.45562917990E+03  0.63152100764E+03  0.00000000000E+00 0.  1.
         11    1    5    5    0    0  0.33118808247E+03  0.47481656022E+03 -0.81425585517E+03  0.99907402604E+03  0.00000000000E+00 0. -1.
        -11    1    5    5    0    0  0.71584654950E+02  0.12958619266E+03 -0.14068516187E+03  0.20422844788E+03  0.00000000000E+00 0.  1.
          4    1    6    6  503    0 -0.16931947366E+03  0.15154626229E+03 -0.30300495088E+03  0.37874444422E+03  0.00000000000E+00 0.  1.
         -4    1    6    6    0  503 -0.29138348479E+03  0.22289018956E+03 -0.32244757249E+03  0.48842277672E+03  0.00000000000E+00 0. -1.
<mgrwt>
<rscale>  0 0.23223764E+04</rscale>
<asrwt>0</asrwt>
<pdfrwt beam="1">  1        2 0.47479408E+00 0.23223764E+04</pdfrwt>
<pdfrwt beam="2">  1       -1 0.67216087E-01 0.23223764E+04</pdfrwt>
<totfact> 0.35481364E+00</totfact>
</mgrwt>
</event>
<event>
12    6  0.1647231E-007  0.1795936E+04  0.7818608E-02  0.8708464E-01
         -1   -1    0    0    0  501 -0.00000000000E+00  0.00000000000E+00  0.35826041036E+03  0.35826041036E+03  0.00000000000E+00 0.  1.
          2   -1    0    0  501    0  0.00000000000E+00 -0.00000000000E+00 -0.22507272284E+04  0.22507272284E+04  0.00000000000E+00 0. -1.
         24    2    1    2    0    0 -0.23135911381E+03  0.15865060578E+03 -0.15270964275E+04  0.15547070238E+04  0.79958593860E+02 0.  0.
        254    2    1    2    0    0  0.23135911381E+03 -0.15865060578E+03 -0.36537039055E+03  0.10542806150E+04  0.94832222295E+03 0.  0.
         23    2    4    4    0    0 -0.47697614238E+02  0.20302069879E+03  0.21340781594E+03  0.31132205194E+03  0.88803477307E+02 0.  0.
         23    2    4    4    0    0  0.27905672804E+03 -0.36167130457E+03 -0.57877820649E+03  0.74295856302E+03  0.91238281627E+02 0.  0.
          4    1    3    3  502    0 -0.15198489512E+03  0.69179771060E+02 -0.10283349685E+04  0.10418051913E+04  0.00000000000E+00 0. -1.
         -3    1    3    3    0  502 -0.79374218690E+02  0.89470834719E+02 -0.49876145891E+03  0.51290183247E+03  0.00000000000E+00 0.  1.
         11    1    5    5    0    0 -0.88500336239E+01  0.27862640155E+02  0.87184153373E+02  0.91955023848E+02  0.00000000000E+00 0.  1.
        -11    1    5    5    0    0 -0.38847580614E+02  0.17515805863E+03  0.12622366257E+03  0.21936702810E+03  0.00000000000E+00 0. -1.
          2    1    6    6  503    0  0.16493009784E+03 -0.27746989755E+03 -0.42629370354E+03  0.53471282283E+03  0.00000000000E+00 0. -1.
         -2    1    6    6    0  503  0.11412663021E+03 -0.84201407018E+02 -0.15248450296E+03  0.20824574019E+03  0.00000000000E+00 0.  1.
<mgrwt>
<rscale>  0 0.17959359E+04</rscale>
<asrwt>0</asrwt>
<pdfrwt beam="1">  1        2 0.34626572E+00 0.17959359E+04</pdfrwt>
<pdfrwt beam="2">  1       -1 0.55116987E-01 0.17959359E+04</pdfrwt>
<totfact> 0.17305564E+01</totfact>
</mgrwt>
</event>
<event>
12    6  0.1647231E-007  0.1916289E+04  0.7818608E-02  0.8646791E-01
         -1   -1    0    0    0  501 -0.00000000000E+00  0.00000000000E+00  0.42388981680E+03  0.42388981680E+03  0.00000000000E+00 0.  1.
          2   -1    0    0  501    0  0.00000000000E+00 -0.00000000000E+00 -0.21657531049E+04  0.21657531049E+04  0.00000000000E+00 0. -1.
         24    2    1    2    0    0 -0.26172162096E+03 -0.88366358154E+02 -0.15328805228E+04  0.15596718246E+04  0.80911576854E+02 0.  0.
        254    2    1    2    0    0  0.26172162096E+03  0.88366358154E+02 -0.20898276531E+03  0.10299710971E+04  0.96997930104E+03 0.  0.
         23    2    4    4    0    0 -0.31753190726E+03  0.23026307723E+03 -0.10958856973E+03  0.41845282452E+03  0.96153600422E+02 0.  0.
         23    2    4    4    0    0  0.57925352822E+03 -0.14189671907E+03 -0.99394195578E+02  0.61151827254E+03  0.91684582614E+02 0.  0.
          4    1    3    3  502    0 -0.20144246860E+03 -0.53025401117E+02 -0.12983350856E+04  0.13149390693E+04  0.00000000000E+00 0. -1.
         -3    1    3    3    0  502 -0.60279152362E+02 -0.35340957037E+02 -0.23454543718E+03  0.24473275537E+03  0.00000000000E+00 0.  1.
         11    1    5    5    0    0 -0.17414642003E+03  0.13231764365E+03 -0.10997977879E+03  0.24480703865E+03  0.00000000000E+00 0.  1.
        -11    1    5    5    0    0 -0.14338548723E+03  0.97945433576E+02  0.39120906135E+00  0.17364578587E+03  0.00000000000E+00 0. -1.
          3    1    6    6  503    0  0.55333098604E+03 -0.12518984286E+03 -0.75113528606E+02  0.57226717453E+03  0.00000000000E+00 0. -1.
         -3    1    6    6    0  503  0.25922542186E+02 -0.16706876213E+02 -0.24280666972E+02  0.39251098007E+02  0.00000000000E+00 0.  1.
<mgrwt>
<rscale>  0 0.19162888E+04</rscale>
<asrwt>0</asrwt>
<pdfrwt beam="1">  1        2 0.33319279E+00 0.19162888E+04</pdfrwt>
<pdfrwt beam="2">  1       -1 0.65213818E-01 0.19162888E+04</pdfrwt>
<totfact> 0.13704819E+01</totfact>
</mgrwt>
</event>
<event>
12    6  0.1647231E-007  0.2347511E+04  0.7818608E-02  0.8459420E-01
          2   -1    0    0  501    0  0.00000000000E+00  0.00000000000E+00  0.22554154633E+04  0.22554154633E+04  0.00000000000E+00 0. -1.
         -1   -1    0    0    0  501 -0.00000000000E+00 -0.00000000000E+00 -0.61084173385E+03  0.61084173385E+03  0.00000000000E+00 0.  1.
         24    2    1    2    0    0 -0.74545206679E+03 -0.61635997281E+03  0.54764684675E+03  0.11142686687E+04  0.77969206936E+02 0.  0.
        254    2    1    2    0    0  0.74545206679E+03  0.61635997281E+03  0.10969268827E+04  0.17519885285E+04  0.96468482835E+03 0.  0.
         23    2    4    4    0    0  0.56553215105E+03  0.76114568948E+03  0.11566231264E+04  0.14985958248E+04  0.94037307520E+02 0.  0.
         23    2    4    4    0    0  0.17991991574E+03 -0.14478571666E+03 -0.59696243631E+02  0.25339270372E+03  0.85499362373E+02 0.  0.
          2    1    3    3  502    0 -0.17291210442E+03 -0.10244287910E+03  0.11853948986E+03  0.23333398807E+03  0.00000000000E+00 0. -1.
         -1    1    3    3    0  502 -0.57253996237E+03 -0.51391709372E+03  0.42910735689E+03  0.88093468058E+03  0.00000000000E+00 0.  1.
         11    1    5    5    0    0  0.39041262873E+03  0.58884417187E+03  0.88314817283E+03  0.11309775305E+04  0.00000000000E+00 0. -1.
        -11    1    5    5    0    0  0.17511952232E+03  0.17230151760E+03  0.27347495353E+03  0.36761829426E+03  0.00000000000E+00 0.  1.
          1    1    6    6  503    0  0.14098204808E+03 -0.14709931041E+03 -0.33703033142E+02  0.20651885979E+03  0.00000000000E+00 0. -1.
         -1    1    6    6    0  503  0.38937867658E+02  0.23135937469E+01 -0.25993210489E+02  0.46873843935E+02  0.00000000000E+00 0.  1.
<mgrwt>
<rscale>  0 0.23475109E+04</rscale>
<asrwt>0</asrwt>
<pdfrwt beam="1">  1        2 0.34698699E+00 0.23475109E+04</pdfrwt>
<pdfrwt beam="2">  1       -1 0.93975653E-01 0.23475109E+04</pdfrwt>
<totfact> 0.54164339E+00</totfact>
</mgrwt>
</event>
<event>
12    6  0.1647231E-007  0.2326144E+04  0.7818608E-02  0.8467684E-01
          2   -1    0    0  501    0  0.00000000000E+00  0.00000000000E+00  0.22470884406E+04  0.22470884406E+04  0.00000000000E+00 0. -1.
         -1   -1    0    0    0  501 -0.00000000000E+00 -0.00000000000E+00 -0.60199538952E+03  0.60199538952E+03  0.00000000000E+00 0.  1.
         24    2    1    2    0    0 -0.26103085831E+02  0.95846505333E+03  0.93295002568E+03  0.13401689690E+04  0.79501481041E+02 0.  0.
        254    2    1    2    0    0  0.26103085831E+02 -0.95846505333E+03  0.71214302543E+03  0.15089148612E+04  0.92213867722E+03 0.  0.
         23    2    4    4    0    0 -0.39117823141E+03 -0.35000477832E+03  0.51263546321E+03  0.73916937655E+03  0.89735698105E+02 0.  0.
         23    2    4    4    0    0  0.41728131724E+03 -0.60846027501E+03  0.19950756222E+03  0.76974548461E+03  0.91417939801E+02 0.  0.
          2    1    3    3  502    0 -0.17665275779E+02  0.81017251291E+03  0.74657386043E+03  0.11018457659E+04  0.00000000000E+00 0. -1.
         -1    1    3    3    0  502 -0.84378100526E+01  0.14829254041E+03  0.18637616524E+03  0.23832320313E+03  0.00000000000E+00 0.  1.
         11    1    5    5    0    0 -0.65918152288E+02 -0.94948316421E+02  0.14950854996E+03  0.18897934306E+03  0.00000000000E+00 0. -1.
        -11    1    5    5    0    0 -0.32526007912E+03 -0.25505646190E+03  0.36312691325E+03  0.55019003349E+03  0.00000000000E+00 0.  1.
          2    1    6    6  503    0  0.41148284304E+03 -0.60043944978E+03  0.18309455272E+03  0.75057929508E+03  0.00000000000E+00 0.  1.
         -2    1    6    6    0  503  0.57984742009E+01 -0.80208252322E+01  0.16413009499E+02  0.19166189535E+02  0.00000000000E+00 0. -1.
<mgrwt>
<rscale>  0 0.23261443E+04</rscale>
<asrwt>0</asrwt>
<pdfrwt beam="1">  1        2 0.34570591E+00 0.23261443E+04</pdfrwt>
<pdfrwt beam="2">  1       -1 0.92614676E-01 0.23261443E+04</pdfrwt>
<totfact> 0.56671285E+00</totfact>
</mgrwt>
</event>
<event>
12    6  0.1647231E-007  0.2095376E+04  0.7818608E-02  0.8563283E-01
          2   -1    0    0  501    0  0.00000000000E+00  0.00000000000E+00  0.13600692031E+04  0.13600692031E+04  0.00000000000E+00 0. -1.
         -1   -1    0    0    0  501 -0.00000000000E+00 -0.00000000000E+00 -0.80705433787E+03  0.80705433787E+03  0.00000000000E+00 0.  1.
         24    2    1    2    0    0 -0.64321032540E+03  0.30584580793E+03 -0.27176001285E+03  0.76640605159E+03  0.79142595347E+02 0.  0.
        254    2    1    2    0    0  0.64321032540E+03 -0.30584580793E+03  0.82477487806E+03  0.14007174894E+04  0.88005380777E+03 0.  0.
         23    2    4    4    0    0 -0.17619571625E+03  0.73725540778E+02  0.80152870138E+02  0.22659054068E+03  0.91860790040E+02 0.  0.
         23    2    4    4    0    0  0.81940604165E+03 -0.37957134871E+03  0.74462200792E+03  0.11741269487E+04  0.92798098367E+02 0.  0.
          4    1    3    3  502    0 -0.22211912466E+03  0.14007482857E+03 -0.76344489373E+02  0.27347092020E+03  0.00000000000E+00 0. -1.
         -3    1    3    3    0  502 -0.42109120075E+03  0.16577097936E+03 -0.19541552348E+03  0.49293513139E+03  0.00000000000E+00 0.  1.
         11    1    5    5    0    0 -0.73552776660E+01  0.28217177598E+02 -0.87204408553E+01  0.30436085653E+02  0.00000000000E+00 0. -1.
        -11    1    5    5    0    0 -0.16884043858E+03  0.45508363180E+02  0.88873310993E+02  0.19615445503E+03  0.00000000000E+00 0.  1.
          1    1    6    6  503    0  0.29951701261E+03 -0.16974522616E+03  0.32938202923E+03  0.47646238448E+03  0.00000000000E+00 0. -1.
         -1    1    6    6    0  503  0.51988902904E+03 -0.20982612256E+03  0.41523997869E+03  0.69766456419E+03  0.00000000000E+00 0.  1.
<mgrwt>
<rscale>  0 0.20953756E+04</rscale>
<asrwt>0</asrwt>
<pdfrwt beam="1">  1        2 0.20924142E+00 0.20953756E+04</pdfrwt>
<pdfrwt beam="2">  1       -1 0.12416221E+00 0.20953756E+04</pdfrwt>
<totfact> 0.91222434E+00</totfact>
</mgrwt>
</event>
<event>
12    6  0.1647231E-007  0.2119699E+04  0.7818608E-02  0.8552615E-01
         -1   -1    0    0    0  501 -0.00000000000E+00  0.00000000000E+00  0.90824978917E+03  0.90824978917E+03  0.00000000000E+00 0.  1.
          2   -1    0    0  501    0  0.00000000000E+00 -0.00000000000E+00 -0.12367536360E+04  0.12367536360E+04  0.00000000000E+00 0. -1.
         24    2    1    2    0    0 -0.27806423405E+03 -0.73195384758E+03  0.23690665524E+03  0.82193956065E+03  0.79898215330E+02 0.  0.
        254    2    1    2    0    0  0.27806423405E+03  0.73195384758E+03 -0.56541050207E+03  0.13230638645E+04  0.90428579583E+03 0.  0.
         23    2    4    4    0    0  0.15380534480E+03  0.11264807662E+02  0.19443838855E+03  0.26454928086E+03  0.91635446638E+02 0.  0.
         23    2    4    4    0    0  0.12425888926E+03  0.72068903992E+03 -0.75984889062E+03  0.10585145837E+04  0.90828538741E+02 0.  0.
          2    1    3    3  502    0 -0.89302859913E+02 -0.15001763394E+03  0.66985857893E+02  0.18699571236E+03  0.00000000000E+00 0. -1.
         -1    1    3    3    0  502 -0.18876137414E+03 -0.58193621363E+03  0.16992079734E+03  0.63494384829E+03  0.00000000000E+00 0.  1.
         11    1    5    5    0    0  0.23420516939E+02  0.43948109021E+01 -0.66963715287E+01  0.24752300261E+02  0.00000000000E+00 0.  1.
        -11    1    5    5    0    0  0.13038482786E+03  0.68699967595E+01  0.20113476008E+03  0.23979698060E+03  0.00000000000E+00 0. -1.
          2    1    6    6  503    0  0.98067617101E+02  0.37664780754E+03 -0.35743472564E+03  0.52843203115E+03  0.00000000000E+00 0.  1.
         -2    1    6    6    0  503  0.26191272157E+02  0.34404123237E+03 -0.40241416498E+03  0.53008255252E+03  0.00000000000E+00 0. -1.
<mgrwt>
<rscale>  0 0.21196993E+04</rscale>
<asrwt>0</asrwt>
<pdfrwt beam="1">  1        2 0.19026979E+00 0.21196993E+04</pdfrwt>
<pdfrwt beam="2">  1       -1 0.13973074E+00 0.21196993E+04</pdfrwt>
<totfact> 0.79583295E+00</totfact>
</mgrwt>
</event>
<event>
12    6  0.1647231E-007  0.3453638E+04  0.7818608E-02  0.8124866E-01
         -1   -1    0    0    0  501 -0.00000000000E+00  0.00000000000E+00  0.19521562051E+04  0.19521562051E+04  0.00000000000E+00 0.  1.
          2   -1    0    0  501    0  0.00000000000E+00 -0.00000000000E+00 -0.15274924558E+04  0.15274924558E+04  0.00000000000E+00 0. -1.
         24    2    1    2    0    0  0.74001562674E+02  0.14638605417E+03  0.18102647283E+04  0.18194382994E+04  0.79951425537E+02 0.  0.
        254    2    1    2    0    0 -0.74001562674E+02 -0.14638605417E+03 -0.13856009790E+04  0.16602103616E+04  0.89972399298E+03 0.  0.
         23    2    4    4    0    0 -0.13265812515E+03 -0.40046786408E+02 -0.14747340325E+04  0.14840286801E+04  0.91097385374E+02 0.  0.
         23    2    4    4    0    0  0.58656562471E+02 -0.10633926777E+03  0.89133053451E+02  0.17618168147E+03  0.91360010278E+02 0.  0.
          4    1    3    3  502    0  0.17774362986E+02 -0.64553064701E+01  0.14463832007E+03  0.14586926542E+03  0.00000000000E+00 0. -1.
         -3    1    3    3    0  502  0.56227199688E+02  0.15284136064E+03  0.16656264082E+04  0.16735690339E+04  0.00000000000E+00 0.  1.
         11    1    5    5    0    0 -0.13642790712E+03 -0.12419382570E+02 -0.11597399644E+04  0.11678028943E+04  0.00000000000E+00 0.  1.
        -11    1    5    5    0    0  0.37697819716E+01 -0.27627403838E+02 -0.31499406810E+03  0.31622578585E+03  0.00000000000E+00 0. -1.
          4    1    6    6  503    0 -0.90527349815E+01 -0.28610289766E+02  0.63083305111E+02  0.69857025952E+02  0.00000000000E+00 0. -1.
         -4    1    6    6    0  503  0.67709297452E+02 -0.77728977999E+02  0.26049748340E+02  0.10632465552E+03  0.00000000000E+00 0.  1.
<mgrwt>
<rscale>  0 0.34536380E+04</rscale>
<asrwt>0</asrwt>
<pdfrwt beam="1">  1        2 0.23499884E+00 0.34536380E+04</pdfrwt>
<pdfrwt beam="2">  1       -1 0.30033173E+00 0.34536380E+04</pdfrwt>
<totfact> 0.37791928E-01</totfact>
</mgrwt>
</event>
<event>
12    6  0.1718149E-007  0.2686691E+04  0.7818608E-02  0.8339336E-01
         -1   -1    0    0    0  501 -0.00000000000E+00  0.00000000000E+00  0.10008959012E+04  0.10008959012E+04  0.00000000000E+00 0.  1.
          2   -1    0    0  501    0  0.00000000000E+00 -0.00000000000E+00 -0.18029619891E+04  0.18029619891E+04  0.00000000000E+00 0. -1.
         24    2    1    2    0    0  0.12929289926E+03  0.43570186840E+02 -0.15956904748E+04  0.16033100428E+04  0.75894577290E+02 0.  0.
        254    2    1    2    0    0 -0.12929289926E+03 -0.43570186840E+02  0.79362438688E+03  0.12005478475E+04  0.89042711752E+03 0.  0.
         23    2    4    4    0    0 -0.31454098145E+02  0.39148447020E+03  0.19130097563E+03  0.44589823231E+03  0.89329276292E+02 0.  0.
         23    2    4    4    0    0 -0.97838801117E+02 -0.43505465704E+03  0.60232341125E+03  0.75464961515E+03  0.88642903237E+02 0.  0.
          2    1    3    3  502    0  0.12893012710E+03  0.58223152467E+02 -0.14470572236E+04  0.14539558183E+04  0.00000000000E+00 0. -1.
         -1    1    3    3    0  502  0.36277216338E+00 -0.14652965627E+02 -0.14863325123E+03  0.14935422450E+03  0.00000000000E+00 0.  1.
         11    1    5    5    0    0  0.23687674066E+01  0.34639924623E+03  0.16357943296E+03  0.38308782248E+03  0.00000000000E+00 0. -1.
        -11    1    5    5    0    0 -0.33822865552E+02  0.45085223967E+02  0.27721542671E+02  0.62810409825E+02  0.00000000000E+00 0.  1.
          4    1    6    6  503    0 -0.25724133976E+01 -0.21928688416E+02  0.74130819550E+02  0.77348969570E+02  0.00000000000E+00 0.  1.
         -4    1    6    6    0  503 -0.95266387719E+02 -0.41312596862E+03  0.52819259170E+03  0.67730064558E+03  0.00000000000E+00 0. -1.
<mgrwt>
<rscale>  0 0.26866911E+04</rscale>
<asrwt>0</asrwt>
<pdfrwt beam="1">  1        2 0.27737877E+00 0.26866911E+04</pdfrwt>
<pdfrwt beam="2">  1       -1 0.15398398E+00 0.26866911E+04</pdfrwt>
<totfact> 0.27919566E+00</totfact>
</mgrwt>
</event>
<event>
12    6  0.1647231E-007  0.1382589E+04  0.7818608E-02  0.8966519E-01
          2   -1    0    0  501    0  0.00000000000E+00  0.00000000000E+00  0.32816134982E+04  0.32816134982E+04  0.00000000000E+00 0. -1.
         -1   -1    0    0    0  501 -0.00000000000E+00 -0.00000000000E+00 -0.14562585626E+03  0.14562585626E+03  0.00000000000E+00 0.  1.
         24    2    1    2    0    0 -0.22338357997E+03 -0.21379951562E+03  0.30105505412E+03  0.43917772922E+03  0.81440011991E+02 0.  0.
        254    2    1    2    0    0  0.22338357997E+03  0.21379951562E+03  0.28349325878E+04  0.29880616253E+04  0.89222140867E+03 0.  0.
         23    2    4    4    0    0 -0.17823439645E+03  0.14854182193E+03  0.22819820023E+04  0.22955337974E+04  0.90561489595E+02 0.  0.
         23    2    4    4    0    0  0.40161797642E+03  0.65257693690E+02  0.55295058555E+03  0.69252782784E+03  0.91021298060E+02 0.  0.
          4    1    3    3  502    0 -0.85484588655E+02 -0.50325213982E+02  0.13937726916E+03  0.17107385896E+03  0.00000000000E+00 0. -1.
         -3    1    3    3    0  502 -0.13789899131E+03 -0.16347430163E+03  0.16167778496E+03  0.26810387027E+03  0.00000000000E+00 0.  1.
         11    1    5    5    0    0 -0.50352073756E+01 -0.34781761222E+01  0.89073678479E+01  0.10807045129E+02  0.00000000000E+00 0.  1.
        -11    1    5    5    0    0 -0.17319918908E+03  0.15201999805E+03  0.22730746344E+04  0.22847267523E+04  0.00000000000E+00 0. -1.
          1    1    6    6  503    0  0.30313970039E+03  0.50304149284E+02  0.34534364623E+03  0.46226228419E+03  0.00000000000E+00 0. -1.
         -1    1    6    6    0  503  0.98478276028E+02  0.14953544406E+02  0.20760693932E+03  0.23026554365E+03  0.00000000000E+00 0.  1.
<mgrwt>
<rscale>  0 0.13825886E+04</rscale>
<asrwt>0</asrwt>
<pdfrwt beam="1">  1        2 0.50486356E+00 0.13825886E+04</pdfrwt>
<pdfrwt beam="2">  1       -1 0.22403980E-01 0.13825886E+04</pdfrwt>
<totfact> 0.21776761E+01</totfact>
</mgrwt>
</event>
<event>
12    6  0.1647231E-007  0.2434816E+04  0.7818608E-02  0.8426583E-01
         -1   -1    0    0    0  501 -0.00000000000E+00  0.00000000000E+00  0.64866434981E+03  0.64866434981E+03  0.00000000000E+00 0.  1.
          2   -1    0    0  501    0  0.00000000000E+00 -0.00000000000E+00 -0.22848219386E+04  0.22848219386E+04  0.00000000000E+00 0. -1.
         24    2    1    2    0    0 -0.44041848250E+03  0.72603821100E+01  0.43954864102E+03  0.62747391302E+03  0.80618551420E+02 0.  0.
        254    2    1    2    0    0  0.44041848250E+03 -0.72603821100E+01 -0.20757062298E+04  0.23060123754E+04  0.90283751037E+03 0.  0.
         23    2    4    4    0    0 -0.62877148976E+02  0.34184555626E+03 -0.10274083031E+04  0.10883983265E+04  0.90725826356E+02 0.  0.
         23    2    4    4    0    0  0.50329563147E+03 -0.34910593837E+03 -0.10482979267E+04  0.12176140489E+04  0.92054223948E+02 0.  0.
          4    1    3    3  502    0 -0.30875618701E+02  0.34892567587E+01  0.66855105351E+02  0.73723021197E+02  0.00000000000E+00 0. -1.
         -3    1    3    3    0  502 -0.40954286380E+03  0.37711253513E+01  0.37269353566E+03  0.55375089183E+03  0.00000000000E+00 0.  1.
         11    1    5    5    0    0 -0.36816095728E+02  0.41145032773E+02 -0.11959330233E+03  0.13172280209E+03  0.00000000000E+00 0.  1.
        -11    1    5    5    0    0 -0.26061053248E+02  0.30070052349E+03 -0.90781500076E+03  0.95667552437E+03  0.00000000000E+00 0. -1.
          1    1    6    6  503    0  0.17570022007E+03 -0.17666432498E+03 -0.41586877458E+03  0.48479654364E+03  0.00000000000E+00 0. -1.
         -1    1    6    6    0  503  0.32759541140E+03 -0.17244161339E+03 -0.63242915211E+03  0.73281750528E+03  0.00000000000E+00 0.  1.
<mgrwt>
<rscale>  0 0.24348162E+04</rscale>
<asrwt>0</asrwt>
<pdfrwt beam="1">  1        2 0.35151107E+00 0.24348162E+04</pdfrwt>
<pdfrwt beam="2">  1       -1 0.99794516E-01 0.24348162E+04</pdfrwt>
<totfact> 0.45166602E+00</totfact>
</mgrwt>
</event>
<event>
12    6  0.1647231E-007  0.1513916E+04  0.7818608E-02  0.8875251E-01
         -1   -1    0    0    0  501 -0.00000000000E+00  0.00000000000E+00  0.43183856620E+03  0.43183856620E+03  0.00000000000E+00 0.  1.
          2   -1    0    0  501    0  0.00000000000E+00 -0.00000000000E+00 -0.13268506441E+04  0.13268506441E+04  0.00000000000E+00 0. -1.
         24    2    1    2    0    0  0.30330948196E+02  0.49459507390E+03 -0.28596064843E+03  0.57775807688E+03  0.80539738046E+02 0.  0.
        254    2    1    2    0    0 -0.30330948196E+02 -0.49459507390E+03 -0.60905142947E+03  0.11809311334E+04  0.88210568787E+03 0.  0.
         23    2    4    4    0    0  0.33844568243E+03 -0.25848741477E+01 -0.38462148000E+03  0.52004121485E+03  0.89202134134E+02 0.  0.
         23    2    4    4    0    0 -0.36877663062E+03 -0.49201019976E+03 -0.22442994947E+03  0.66088991857E+03  0.91304119759E+02 0.  0.
          2    1    3    3  502    0 -0.73831601831E+01  0.36302205730E+02 -0.15671368638E+01  0.37078526308E+02  0.00000000000E+00 0. -1.
         -1    1    3    3    0  502  0.37714108379E+02  0.45829286817E+03 -0.28439351157E+03  0.54067955058E+03  0.00000000000E+00 0.  1.
         11    1    5    5    0    0  0.12176344716E+03 -0.21094580210E+02 -0.19837155500E+03  0.23371476678E+03  0.00000000000E+00 0. -1.
        -11    1    5    5    0    0  0.21668223527E+03  0.18509706062E+02 -0.18624992500E+03  0.28632644807E+03  0.00000000000E+00 0.  1.
          1    1    6    6  503    0 -0.32865251546E+03 -0.47564747831E+03 -0.21228462592E+03  0.61588778356E+03  0.00000000000E+00 0. -1.
         -1    1    6    6    0  503 -0.40124115161E+02 -0.16362721447E+02 -0.12145323552E+02  0.45002135002E+02  0.00000000000E+00 0.  1.
<mgrwt>
<rscale>  0 0.15139158E+04</rscale>
<asrwt>0</asrwt>
<pdfrwt beam="1">  1        2 0.20413087E+00 0.15139158E+04</pdfrwt>
<pdfrwt beam="2">  1       -1 0.66436703E-01 0.15139158E+04</pdfrwt>
<totfact> 0.40279017E+01</totfact>
</mgrwt>
</event>
<event>
12    6  0.1647231E-007  0.1493639E+04  0.7818608E-02  0.8888694E-01
          2   -1    0    0  501    0  0.00000000000E+00  0.00000000000E+00  0.30286592902E+03  0.30286592902E+03  0.00000000000E+00 0. -1.
         -1   -1    0    0    0  501 -0.00000000000E+00 -0.00000000000E+00 -0.18415390600E+04  0.18415390600E+04  0.00000000000E+00 0.  1.
         24    2    1    2    0    0 -0.11208809370E+03  0.12553921634E+03  0.13854623216E+03  0.23159290830E+03  0.78207295948E+02 0.  0.
        254    2    1    2    0    0  0.11208809370E+03 -0.12553921634E+03 -0.16772193632E+04  0.19128120808E+04  0.90413573565E+03 0.  0.
         23    2    4    4    0    0  0.19431449361E+03 -0.47513944292E+03 -0.74531041431E+03  0.91017787887E+03  0.97059491361E+02 0.  0.
         23    2    4    4    0    0 -0.82226399911E+02  0.34960022658E+03 -0.93190894887E+03  0.10026342019E+04  0.88541259001E+02 0.  0.
          4    1    3    3  502    0 -0.66676031128E+02  0.63481492147E+02  0.12216252095E+03  0.15296821401E+03  0.00000000000E+00 0. -1.
         -3    1    3    3    0  502 -0.45412062569E+02  0.62057724196E+02  0.16383711213E+02  0.78624694291E+02  0.00000000000E+00 0.  1.
         11    1    5    5    0    0  0.10988995056E+03 -0.27516376326E+03 -0.34472710434E+03  0.45456316868E+03  0.00000000000E+00 0.  1.
        -11    1    5    5    0    0  0.84424543047E+02 -0.19997567966E+03 -0.40058330997E+03  0.45561471020E+03  0.00000000000E+00 0. -1.
          1    1    6    6  503    0 -0.81849320005E+02  0.35506307708E+03 -0.91616845315E+03  0.98596842467E+03  0.00000000000E+00 0. -1.
         -1    1    6    6    0  503 -0.37707990579E+00 -0.54628505037E+01 -0.15740495719E+02  0.16665777220E+02  0.00000000000E+00 0.  1.
<mgrwt>
<rscale>  0 0.14936391E+04</rscale>
<asrwt>0</asrwt>
<pdfrwt beam="1">  1        2 0.46594758E-01 0.14936391E+04</pdfrwt>
<pdfrwt beam="2">  1       -1 0.28331370E+00 0.14936391E+04</pdfrwt>
<totfact> 0.51031722E+00</totfact>
</mgrwt>
</event>
<event>
12    6  0.1647231E-007  0.1738830E+04  0.7818608E-02  0.8739523E-01
         -3   -1    0    0    0  501 -0.00000000000E+00  0.00000000000E+00  0.10788754070E+04  0.10788754070E+04  0.00000000000E+00 0.  1.
          4   -1    0    0  501    0  0.00000000000E+00 -0.00000000000E+00 -0.70062078714E+03  0.70062078714E+03  0.00000000000E+00 0. -1.
         24    2    1    2    0    0  0.38027786259E+03 -0.49944586359E+03  0.71756319851E+02  0.63673296025E+03  0.78882633038E+02 0.  0.
        254    2    1    2    0    0 -0.38027786259E+03  0.49944586359E+03  0.30649830001E+03  0.11427632339E+04  0.90438331331E+03 0.  0.
         23    2    4    4    0    0 -0.33482711042E+03  0.57360631859E+03  0.54979319254E+03  0.86749063016E+03  0.95572152116E+02 0.  0.
         23    2    4    4    0    0 -0.45450752167E+02 -0.74160454999E+02 -0.24329489253E+03  0.27527260373E+03  0.94958189093E+02 0.  0.
          4    1    3    3  502    0  0.58580992190E+02 -0.50918033954E+02 -0.11699903632E+02  0.78493735882E+02  0.00000000000E+00 0. -1.
         -3    1    3    3    0  502  0.32169687040E+03 -0.44852782964E+03  0.83456223483E+02  0.55823922437E+03  0.00000000000E+00 0.  1.
         11    1    5    5    0    0 -0.93915699823E+02  0.11184030514E+03  0.82376826303E+02  0.16767335518E+03  0.00000000000E+00 0. -1.
        -11    1    5    5    0    0 -0.24091141060E+03  0.46176601346E+03  0.46741636624E+03  0.69981727498E+03  0.00000000000E+00 0.  1.
          2    1    6    6  503    0 -0.28515239980E+01 -0.83925181813E+02 -0.17638355384E+03  0.19535282285E+03  0.00000000000E+00 0. -1.
         -2    1    6    6    0  503 -0.42599228169E+02  0.97647268143E+01 -0.66911338692E+02  0.79919780880E+02  0.00000000000E+00 0.  1.
<mgrwt>
<rscale>  0 0.17388301E+04</rscale>
<asrwt>0</asrwt>
<pdfrwt beam="1">  1        4 0.10778781E+00 0.17388301E+04</pdfrwt>
<pdfrwt beam="2">  1       -3 0.16598083E+00 0.17388301E+04</pdfrwt>
<totfact> 0.36907742E-01</totfact>
</mgrwt>
</event>
<event>
12    6  0.1647231E-007  0.2230130E+04  0.7818608E-02  0.8505991E-01
         -1   -1    0    0    0  501 -0.00000000000E+00  0.00000000000E+00  0.41986655580E+03  0.41986655580E+03  0.00000000000E+00 0.  1.
          2   -1    0    0  501    0  0.00000000000E+00 -0.00000000000E+00 -0.29613461053E+04  0.29613461053E+04  0.00000000000E+00 0. -1.
         24    2    1    2    0    0  0.16343359998E+03  0.25586673325E+03  0.26618063420E+03  0.41138332714E+03  0.78776805203E+02 0.  0.
        254    2    1    2    0    0 -0.16343359998E+03 -0.25586673325E+03 -0.28076601837E+04  0.29698293339E+04  0.91910404140E+03 0.  0.
         23    2    4    4    0    0 -0.43520900805E+03 -0.37500797614E+03 -0.12111740516E+04  0.13435193543E+04  0.89798715206E+02 0.  0.
         23    2    4    4    0    0  0.27177540807E+03  0.11914124289E+03 -0.15964861321E+04  0.16263099796E+04  0.89775674678E+02 0.  0.
          2    1    3    3  502    0  0.35261266139E+02  0.14254498672E+02  0.18065209245E+02  0.42105812036E+02  0.00000000000E+00 0. -1.
         -1    1    3    3    0  502  0.12817233384E+03  0.24161223458E+03  0.24811542496E+03  0.36927751511E+03  0.00000000000E+00 0.  1.
         11    1    5    5    0    0 -0.18523516295E+03 -0.19898481265E+03 -0.64785049707E+03  0.70257902603E+03  0.00000000000E+00 0.  1.
        -11    1    5    5    0    0 -0.24997384510E+03 -0.17602316349E+03 -0.56332355455E+03  0.64094032829E+03  0.00000000000E+00 0. -1.
          2    1    6    6  503    0  0.25763578330E+03  0.82945697496E+02 -0.13631944894E+04  0.13898040874E+04  0.00000000000E+00 0. -1.
         -2    1    6    6    0  503  0.14139624773E+02  0.36195545396E+02 -0.23329164271E+03  0.23650589222E+03  0.00000000000E+00 0.  1.
<mgrwt>
<rscale>  0 0.22301302E+04</rscale>
<asrwt>0</asrwt>
<pdfrwt beam="1">  1        2 0.45559171E+00 0.22301302E+04</pdfrwt>
<pdfrwt beam="2">  1       -1 0.64594855E-01 0.22301302E+04</pdfrwt>
<totfact> 0.46453419E+00</totfact>
</mgrwt>
</event>
<event>
12    6  0.1876900E-007  0.1504327E+04  0.7818608E-02  0.8881581E-01
          2   -1    0    0  501    0  0.00000000000E+00  0.00000000000E+00  0.10725912876E+04  0.10725912876E+04  0.00000000000E+00 0. -1.
         -1   -1    0    0    0  501 -0.00000000000E+00 -0.00000000000E+00 -0.52746056462E+03  0.52746056462E+03  0.00000000000E+00 0.  1.
         24    2    1    2    0    0 -0.37578081303E+03  0.11836830519E+03 -0.11049860296E+03  0.41586830474E+03  0.74257864982E+02 0.  0.
        254    2    1    2    0    0  0.37578081303E+03 -0.11836830519E+03  0.65562932598E+03  0.11841835475E+04  0.90400143033E+03 0.  0.
         23    2    4    4    0    0  0.64933443505E+03 -0.48254120496E+02  0.30577808158E+03  0.72514697415E+03  0.91510820451E+02 0.  0.
         23    2    4    4    0    0 -0.27355362202E+03 -0.70114184696E+02  0.34985124441E+03  0.45903657338E+03  0.92580232648E+02 0.  0.
          2    1    3    3  502    0 -0.55225040183E+02 -0.53503485638E+01 -0.29540882648E+02  0.62857736521E+02  0.00000000000E+00 0. -1.
         -1    1    3    3    0  502 -0.32055577285E+03  0.12371865376E+03 -0.80957720317E+02  0.35301056821E+03  0.00000000000E+00 0.  1.
         11    1    5    5    0    0  0.18490592196E+02 -0.16544315879E+02  0.40487228404E+01  0.25139780116E+02  0.00000000000E+00 0. -1.
        -11    1    5    5    0    0  0.63084384285E+03 -0.31709804617E+02  0.30172935874E+03  0.70000719403E+03  0.00000000000E+00 0.  1.
          4    1    6    6  503    0 -0.98250142405E+02  0.16164920218E+02  0.92395722471E+02  0.13583580036E+03  0.00000000000E+00 0. -1.
         -4    1    6    6    0  503 -0.17530347961E+03 -0.86279104915E+02  0.25745552194E+03  0.32320077303E+03  0.00000000000E+00 0.  1.
<mgrwt>
<rscale>  0 0.15043266E+04</rscale>
<asrwt>0</asrwt>
<pdfrwt beam="1">  1        2 0.16501404E+00 0.15043266E+04</pdfrwt>
<pdfrwt beam="2">  1       -1 0.81147780E-01 0.15043266E+04</pdfrwt>
<totfact> 0.37778146E+01</totfact>
</mgrwt>
</event>
<event>
12    6  0.1647231E-007  0.1845853E+04  0.7818608E-02  0.8682289E-01
          2   -1    0    0  501    0  0.00000000000E+00  0.00000000000E+00  0.82396000741E+03  0.82396000741E+03  0.00000000000E+00 0. -1.
         -1   -1    0    0    0  501 -0.00000000000E+00 -0.00000000000E+00 -0.10337793815E+04  0.10337793815E+04  0.00000000000E+00 0.  1.
         24    2    1    2    0    0 -0.23641398928E+03  0.77651757212E+02  0.59020301729E+03  0.64665451241E+03  0.88888059292E+02 0.  0.
        254    2    1    2    0    0  0.23641398928E+03 -0.77651757212E+02 -0.80002239134E+03  0.12110848765E+04  0.87451093853E+03 0.  0.
         23    2    4    4    0    0  0.52994799091E+02 -0.24639096326E+03  0.89755419697E+02  0.28262524754E+03  0.91126503693E+02 0.  0.
         23    2    4    4    0    0  0.18341919018E+03  0.16873920605E+03 -0.88977781103E+03  0.92845962891E+03  0.90648830847E+02 0.  0.
          4    1    3    3  502    0 -0.22202101746E+03  0.53892843911E+02  0.56379053876E+03  0.60832355077E+03  0.00000000000E+00 0. -1.
         -3    1    3    3    0  502 -0.14392971813E+02  0.23758913301E+02  0.26412478528E+02  0.38330961648E+02  0.00000000000E+00 0.  1.
         11    1    5    5    0    0  0.46790067214E+02 -0.74079584220E+02 -0.13152314063E+01  0.87628905173E+02  0.00000000000E+00 0. -1.
        -11    1    5    5    0    0  0.62047318764E+01 -0.17231137904E+03  0.91070651103E+02  0.19499634237E+03  0.00000000000E+00 0.  1.
          1    1    6    6  503    0  0.99803267356E+02  0.67020957048E+02 -0.28155029655E+03  0.30614223875E+03  0.00000000000E+00 0. -1.
         -1    1    6    6    0  503  0.83615922829E+02  0.10171824900E+03 -0.60822751448E+03  0.62231739017E+03  0.00000000000E+00 0.  1.
<mgrwt>
<rscale>  0 0.18458525E+04</rscale>
<asrwt>0</asrwt>
<pdfrwt beam="1">  1        2 0.12676308E+00 0.18458525E+04</pdfrwt>
<pdfrwt beam="2">  1       -1 0.15904298E+00 0.18458525E+04</pdfrwt>
<totfact> 0.10563423E+01</totfact>
</mgrwt>
</event>
<event>
12    6  0.1647231E-007  0.1262209E+04  0.7818608E-02  0.9060082E-01
          2   -1    0    0  501    0  0.00000000000E+00  0.00000000000E+00  0.28961298365E+03  0.28961298365E+03  0.00000000000E+00 0. -1.
         -1   -1    0    0    0  501 -0.00000000000E+00 -0.00000000000E+00 -0.13752600928E+04  0.13752600928E+04  0.00000000000E+00 0.  1.
         24    2    1    2    0    0 -0.17819719518E+03  0.25606856370E+00 -0.58843099986E+03  0.62047301666E+03  0.83554873415E+02 0.  0.
        254    2    1    2    0    0  0.17819719518E+03 -0.25606856370E+00 -0.49721610934E+03  0.10444000598E+04  0.90099573786E+03 0.  0.
         23    2    4    4    0    0  0.46517561183E+03  0.36171132760E+02 -0.56067915439E+03  0.73484442237E+03  0.89098317755E+02 0.  0.
         23    2    4    4    0    0 -0.28697841665E+03 -0.36427201324E+02  0.63463045055E+02  0.30955563746E+03  0.90075423839E+02 0.  0.
          4    1    3    3  502    0 -0.61757059160E+01 -0.96236809079E+01 -0.13376280659E+03  0.13425067227E+03  0.00000000000E+00 0. -1.
         -3    1    3    3    0  502 -0.17202148926E+03  0.98797494716E+01 -0.45466819326E+03  0.48622234439E+03  0.00000000000E+00 0.  1.
         11    1    5    5    0    0  0.37299763974E+03  0.19886539047E+02 -0.38896403711E+03  0.53927334057E+03  0.00000000000E+00 0.  1.
        -11    1    5    5    0    0  0.92177972087E+02  0.16284593713E+02 -0.17171511728E+03  0.19557108179E+03  0.00000000000E+00 0. -1.
          4    1    6    6  503    0 -0.63143575039E+02 -0.37324258376E+01  0.53965400614E+02  0.83146295977E+02  0.00000000000E+00 0. -1.
         -4    1    6    6    0  503 -0.22383484161E+03 -0.32694775486E+02  0.94976444410E+01  0.22640934149E+03  0.00000000000E+00 0.  1.
<mgrwt>
<rscale>  0 0.12622095E+04</rscale>
<asrwt>0</asrwt>
<pdfrwt beam="1">  1        2 0.44555844E-01 0.12622095E+04</pdfrwt>
<pdfrwt beam="2">  1       -1 0.21157847E+00 0.12622095E+04</pdfrwt>
<totfact> 0.16133023E+01</totfact>
</mgrwt>
</event>
<event>
12    6  0.1647231E-007  0.1385087E+04  0.7818608E-02  0.8964684E-01
          2   -1    0    0  501    0  0.00000000000E+00  0.00000000000E+00  0.16711118829E+04  0.16711118829E+04  0.00000000000E+00 0. -1.
         -3   -1    0    0    0  501 -0.00000000000E+00 -0.00000000000E+00 -0.28700454741E+03  0.28700454741E+03  0.00000000000E+00 0.  1.
         24    2    1    2    0    0 -0.40717361160E+02 -0.29470440939E+03  0.76676507826E+03  0.82632644759E+03  0.79863135047E+02 0.  0.
        254    2    1    2    0    0  0.40717361160E+02  0.29470440939E+03  0.61734225726E+03  0.11317899828E+04  0.90073775876E+03 0.  0.
         23    2    4    4    0    0  0.26050617834E+03  0.33694054983E+03  0.74154165337E+03  0.85987292114E+03  0.90027849875E+02 0.  0.
         23    2    4    4    0    0 -0.21978881718E+03 -0.42236140437E+02 -0.12419939611E+03  0.27191706162E+03  0.91773540259E+02 0.  0.
          2    1    3    3  502    0 -0.48325726544E+01 -0.16935188684E+03  0.52475780914E+03  0.55142920995E+03  0.00000000000E+00 0. -1.
         -1    1    3    3    0  502 -0.35884788505E+02 -0.12535252255E+03  0.24200726912E+03  0.27489723764E+03  0.00000000000E+00 0.  1.
         11    1    5    5    0    0  0.77287783866E+02  0.11602784542E+03  0.32898437939E+03  0.35730461000E+03  0.00000000000E+00 0. -1.
        -11    1    5    5    0    0  0.18321839447E+03  0.22091270441E+03  0.41255727398E+03  0.50256831114E+03  0.00000000000E+00 0.  1.
          1    1    6    6  503    0 -0.48216314611E+01  0.56725850684E+01  0.11152615736E+02  0.13409220300E+02  0.00000000000E+00 0. -1.
         -1    1    6    6    0  503 -0.21496718572E+03 -0.47908725506E+02 -0.13535201184E+03  0.25850784132E+03  0.00000000000E+00 0.  1.
<mgrwt>
<rscale>  0 0.13850873E+04</rscale>
<asrwt>0</asrwt>
<pdfrwt beam="1">  1        2 0.25709413E+00 0.13850873E+04</pdfrwt>
<pdfrwt beam="2">  1       -3 0.44154547E-01 0.13850873E+04</pdfrwt>
<totfact> 0.32502032E+01</totfact>
</mgrwt>
</event>
<event>
12    6  0.1647231E-007  0.1417431E+04  0.7818608E-02  0.8941297E-01
         -1   -1    0    0    0  501 -0.00000000000E+00  0.00000000000E+00  0.38741839404E+03  0.38741839404E+03  0.00000000000E+00 0.  1.
          2   -1    0    0  501    0  0.00000000000E+00 -0.00000000000E+00 -0.12964727303E+04  0.12964727303E+04  0.00000000000E+00 0. -1.
         24    2    1    2    0    0  0.15264033853E+03  0.12625263644E+03  0.16375906675E+03  0.26875811146E+03  0.78581736923E+02 0.  0.
        254    2    1    2    0    0 -0.15264033853E+03 -0.12625263644E+03 -0.10728134030E+04  0.14151330129E+04  0.90135123305E+03 0.  0.
         23    2    4    4    0    0 -0.44987611823E+03  0.15036541863E+03 -0.73174501288E+03  0.87687490677E+03  0.91981288198E+02 0.  0.
         23    2    4    4    0    0  0.29723577970E+03 -0.27661805507E+03 -0.34106839014E+03  0.53825810612E+03  0.92344382210E+02 0.  0.
          2    1    3    3  502    0  0.12374649343E+03  0.72130102802E+02  0.77354682580E+02  0.16278726388E+03  0.00000000000E+00 0. -1.
         -1    1    3    3    0  502  0.28893845102E+02  0.54122533641E+02  0.86404384166E+02  0.10597084757E+03  0.00000000000E+00 0.  1.
         11    1    5    5    0    0 -0.93679403144E+02  0.69390132531E+02 -0.15038451575E+03  0.19027959334E+03  0.00000000000E+00 0. -1.
        -11    1    5    5    0    0 -0.35619671508E+03  0.80975286099E+02 -0.58136049713E+03  0.68659531343E+03  0.00000000000E+00 0.  1.
          3    1    6    6  503    0  0.13814446829E+02 -0.45304656127E+02 -0.19628052398E+02  0.51269983898E+02  0.00000000000E+00 0. -1.
         -3    1    6    6    0  503  0.28342133287E+03 -0.23131339895E+03 -0.32144033774E+03  0.48698812222E+03  0.00000000000E+00 0.  1.
<mgrwt>
<rscale>  0 0.14174306E+04</rscale>
<asrwt>0</asrwt>
<pdfrwt beam="1">  1        2 0.19945735E+00 0.14174306E+04</pdfrwt>
<pdfrwt beam="2">  1       -1 0.59602829E-01 0.14174306E+04</pdfrwt>
<totfact> 0.52524800E+01</totfact>
</mgrwt>
</event>
<event>
12    6  0.1647231E-007  0.2088275E+04  0.7818608E-02  0.8566426E-01
         -1   -1    0    0    0  501 -0.00000000000E+00  0.00000000000E+00  0.70571413994E+03  0.70571413994E+03  0.00000000000E+00 0.  1.
          2   -1    0    0  501    0  0.00000000000E+00 -0.00000000000E+00 -0.15448502754E+04  0.15448502754E+04  0.00000000000E+00 0. -1.
         24    2    1    2    0    0  0.75685989650E+02 -0.72603583972E+03  0.11602048616E+03  0.74366829765E+03  0.82008378468E+02 0.  0.
        254    2    1    2    0    0 -0.75685989650E+02  0.72603583972E+03 -0.95515662158E+03  0.15068961176E+04  0.90860075281E+03 0.  0.
         23    2    4    4    0    0  0.56852174908E+02  0.90053118964E+03 -0.63091424624E+03  0.11046129964E+04  0.89042081619E+02 0.  0.
         23    2    4    4    0    0 -0.13253816456E+03 -0.17449534992E+03 -0.32424237534E+03  0.40228312128E+03  0.93185833120E+02 0.  0.
          4    1    3    3  502    0  0.56823181459E+02 -0.29132094202E+03  0.16267286835E+02  0.29725643783E+03  0.00000000000E+00 0. -1.
         -3    1    3    3    0  502  0.18862808191E+02 -0.43471489770E+03  0.99753199329E+02  0.44641185983E+03  0.00000000000E+00 0.  1.
         11    1    5    5    0    0 -0.20288456690E+02  0.16735722317E+03 -0.98618821096E+02  0.19530932772E+03  0.00000000000E+00 0.  1.
        -11    1    5    5    0    0  0.77140631598E+02  0.73317396647E+03 -0.53229542514E+03  0.90930366863E+03  0.00000000000E+00 0. -1.
          1    1    6    6  503    0 -0.13444211374E+03 -0.14249090820E+03 -0.22676033471E+03  0.29966412910E+03  0.00000000000E+00 0. -1.
         -1    1    6    6    0  503  0.19039491859E+01 -0.32004441715E+02 -0.97482040629E+02  0.10261899219E+03  0.00000000000E+00 0.  1.
<mgrwt>
<rscale>  0 0.20882746E+04</rscale>
<asrwt>0</asrwt>
<pdfrwt beam="1">  1        2 0.23766927E+00 0.20882746E+04</pdfrwt>
<pdfrwt beam="2">  1       -1 0.10857141E+00 0.20882746E+04</pdfrwt>
<totfact> 0.99056801E+00</totfact>
</mgrwt>
</event>
<event>
12    6  0.1647231E-007  0.2217139E+04  0.7818608E-02  0.8511328E-01
          2   -1    0    0  501    0  0.00000000000E+00  0.00000000000E+00  0.11320726094E+04  0.11320726094E+04  0.00000000000E+00 0. -1.
         -1   -1    0    0    0  501 -0.00000000000E+00 -0.00000000000E+00 -0.10855539642E+04  0.10855539642E+04  0.00000000000E+00 0.  1.
         24    2    1    2    0    0  0.33747686654E+03  0.66375331805E+03 -0.52666637367E+03  0.91548078870E+03  0.79173876124E+02 0.  0.
        254    2    1    2    0    0 -0.33747686654E+03 -0.66375331805E+03  0.57318501882E+03  0.13021457849E+04  0.90143412217E+03 0.  0.
         23    2    4    4    0    0 -0.38107096553E+03 -0.84893122105E+03  0.56247261330E+03  0.10911709636E+04  0.91538692563E+02 0.  0.
         23    2    4    4    0    0  0.43594098989E+02  0.18517790300E+03  0.10712405515E+02  0.21097482128E+03  0.90577692386E+02 0.  0.
          2    1    3    3  502    0  0.24339050053E+01  0.42658348133E+02 -0.37173502680E+02  0.56635040924E+02  0.00000000000E+00 0. -1.
         -1    1    3    3    0  502  0.33504296153E+03  0.62109496991E+03 -0.48949287099E+03  0.85884574778E+03  0.00000000000E+00 0.  1.
         11    1    5    5    0    0 -0.31421154872E+03 -0.62668815761E+03  0.45207430589E+03  0.83416912091E+03  0.00000000000E+00 0.  1.
        -11    1    5    5    0    0 -0.66859416808E+02 -0.22224306344E+03  0.11039830741E+03  0.25700184268E+03  0.00000000000E+00 0. -1.
          1    1    6    6  503    0  0.42456986331E+02  0.17164977006E+03  0.37671013363E+02  0.18079088610E+03  0.00000000000E+00 0. -1.
         -1    1    6    6    0  503  0.11371126573E+01  0.13528132942E+02 -0.26958607848E+02  0.30183935184E+02  0.00000000000E+00 0.  1.
<mgrwt>
<rscale>  0 0.22171386E+04</rscale>
<asrwt>0</asrwt>
<pdfrwt beam="1">  1        2 0.17416502E+00 0.22171386E+04</pdfrwt>
<pdfrwt beam="2">  1       -1 0.16700830E+00 0.22171386E+04</pdfrwt>
<totfact> 0.56099200E+00</totfact>
</mgrwt>
</event>
<event>
12    6  0.1647231E-007  0.2223677E+04  0.7818608E-02  0.8508637E-01
         -1   -1    0    0    0  501 -0.00000000000E+00  0.00000000000E+00  0.11907143608E+04  0.11907143608E+04  0.00000000000E+00 0.  1.
          2   -1    0    0  501    0  0.00000000000E+00 -0.00000000000E+00 -0.10381877395E+04  0.10381877395E+04  0.00000000000E+00 0. -1.
         24    2    1    2    0    0 -0.79792014879E+03  0.16503265574E+03  0.50607785453E+03  0.96231419591E+03  0.77598166785E+02 0.  0.
        254    2    1    2    0    0  0.79792014879E+03 -0.16503265574E+03 -0.35355123320E+03  0.12665879043E+04  0.90295852817E+03 0.  0.
         23    2    4    4    0    0  0.96385844247E+03 -0.15298462297E+03 -0.15649839000E+03  0.99259647015E+03  0.91261243096E+02 0.  0.
         23    2    4    4    0    0 -0.16593829367E+03 -0.12048032764E+02 -0.19705284319E+03  0.27399143419E+03  0.92524648591E+02 0.  0.
          2    1    3    3  502    0 -0.14163326086E+03  0.11955758620E+02  0.60826679790E+02  0.15460532242E+03  0.00000000000E+00 0. -1.
         -1    1    3    3    0  502 -0.65628688794E+03  0.15307689712E+03  0.44525117474E+03  0.80770887349E+03  0.00000000000E+00 0.  1.
         11    1    5    5    0    0  0.54826878032E+03 -0.97050755142E+02 -0.13381577444E+03  0.57264663278E+03  0.00000000000E+00 0.  1.
        -11    1    5    5    0    0  0.41558966215E+03 -0.55933867831E+02 -0.22682615567E+02  0.41994983737E+03  0.00000000000E+00 0. -1.
          1    1    6    6  503    0  0.11693645143E+02 -0.42806178855E+01 -0.15391121540E+02  0.19797768775E+02  0.00000000000E+00 0. -1.
         -1    1    6    6    0  503 -0.17763193882E+03 -0.77674148785E+01 -0.18166172165E+03  0.25419366541E+03  0.00000000000E+00 0.  1.
<mgrwt>
<rscale>  0 0.22236772E+04</rscale>
<asrwt>0</asrwt>
<pdfrwt beam="1">  1        2 0.15972119E+00 0.22236772E+04</pdfrwt>
<pdfrwt beam="2">  1       -1 0.18318682E+00 0.22236772E+04</pdfrwt>
<totfact> 0.48916380E+00</totfact>
</mgrwt>
</event>
<event>
12    6  0.1647231E-007  0.1341924E+04  0.7818608E-02  0.8996964E-01
         -1   -1    0    0    0  501 -0.00000000000E+00  0.00000000000E+00  0.74258661308E+03  0.74258661308E+03  0.00000000000E+00 0.  1.
          2   -1    0    0  501    0  0.00000000000E+00 -0.00000000000E+00 -0.60624620536E+03  0.60624620536E+03  0.00000000000E+00 0. -1.
         24    2    1    2    0    0  0.24524422845E+03 -0.26222333414E+03 -0.43901716168E+02  0.37035484513E+03  0.79558419247E+02 0.  0.
        254    2    1    2    0    0 -0.24524422845E+03  0.26222333414E+03  0.18024212389E+03  0.97847797331E+03  0.89220295475E+03 0.  0.
         23    2    4    4    0    0 -0.14014027744E+03 -0.41060387980E+02 -0.32798001045E+03  0.37018399069E+03  0.90222208374E+02 0.  0.
         23    2    4    4    0    0 -0.10510395102E+03  0.30328372212E+03  0.50822213434E+03  0.60829398262E+03  0.93295095445E+02 0.  0.
          2    1    3    3  502    0  0.20522342962E+03 -0.18919509770E+03 -0.60088983549E+02  0.28552079960E+03  0.00000000000E+00 0. -1.
         -1    1    3    3    0  502  0.40020798837E+02 -0.73028236436E+02  0.16187267381E+02  0.84834045535E+02  0.00000000000E+00 0.  1.
         11    1    5    5    0    0 -0.47166416724E+00 -0.78577266192E+01 -0.10301366367E+03  0.10331399343E+03  0.00000000000E+00 0. -1.
        -11    1    5    5    0    0 -0.13966861327E+03 -0.33202661361E+02 -0.22496634678E+03  0.26686999726E+03  0.00000000000E+00 0.  1.
          3    1    6    6  503    0 -0.72090650842E+02  0.20615565159E+03  0.25903078097E+03  0.33881286887E+03  0.00000000000E+00 0. -1.
         -3    1    6    6    0  503 -0.33013300177E+02  0.97128070531E+02  0.24919135337E+03  0.26948111375E+03  0.00000000000E+00 0.  1.
<mgrwt>
<rscale>  0 0.13419245E+04</rscale>
<asrwt>0</asrwt>
<pdfrwt beam="1">  1        2 0.93268647E-01 0.13419245E+04</pdfrwt>
<pdfrwt beam="2">  1       -1 0.11424409E+00 0.13419245E+04</pdfrwt>
<totfact> 0.38161692E+01</totfact>
</mgrwt>
</event>
<event>
12    6  0.1647231E-007  0.2358267E+04  0.7818608E-02  0.8455295E-01
         -1   -1    0    0    0  501 -0.00000000000E+00  0.00000000000E+00  0.10117625482E+04  0.10117625482E+04  0.00000000000E+00 0.  1.
          2   -1    0    0  501    0  0.00000000000E+00 -0.00000000000E+00 -0.13741918002E+04  0.13741918002E+04  0.00000000000E+00 0. -1.
         24    2    1    2    0    0 -0.61183529646E+03 -0.67757580395E+03 -0.57602935148E+03  0.10816960243E+04  0.69318648889E+02 0.  0.
        254    2    1    2    0    0  0.61183529646E+03  0.67757580395E+03  0.21360009944E+03  0.13042583241E+04  0.90664953176E+03 0.  0.
         23    2    4    4    0    0 -0.98116453719E+02 -0.11707589865E+03  0.15039724529E+03  0.23289479857E+03  0.91033242706E+02 0.  0.
         23    2    4    4    0    0  0.70995175017E+03  0.79465170259E+03  0.63202854156E+02  0.10713635255E+04  0.91227118012E+02 0.  0.
          2    1    3    3  502    0 -0.48087697295E+03 -0.51992295430E+03 -0.47862404349E+03  0.85477688114E+03  0.00000000000E+00 0. -1.
         -1    1    3    3    0  502 -0.13095832351E+03 -0.15765284965E+03 -0.97405307983E+02  0.22691914313E+03  0.00000000000E+00 0.  1.
         11    1    5    5    0    0  0.68018576708E-01 -0.20769787089E+02 -0.87648934073E+01  0.22543558696E+02  0.00000000000E+00 0. -1.
        -11    1    5    5    0    0 -0.98184472295E+02 -0.96306111558E+02  0.15916213869E+03  0.21035123987E+03  0.00000000000E+00 0.  1.
          1    1    6    6  503    0  0.95037596246E+02  0.71723304499E+02  0.24121357368E+02  0.12148340212E+03  0.00000000000E+00 0. -1.
         -1    1    6    6    0  503  0.61491415393E+03  0.72292839809E+03  0.39081496788E+02  0.94988012342E+03  0.00000000000E+00 0.  1.
<mgrwt>
<rscale>  0 0.23582670E+04</rscale>
<asrwt>0</asrwt>
<pdfrwt beam="1">  1        2 0.21141412E+00 0.23582670E+04</pdfrwt>
<pdfrwt beam="2">  1       -1 0.15565578E+00 0.23582670E+04</pdfrwt>
<totfact> 0.48560700E+00</totfact>
</mgrwt>
</event>
<event>
12    6  0.1647231E-007  0.2103746E+04  0.7818608E-02  0.8559595E-01
          2   -1    0    0  501    0  0.00000000000E+00  0.00000000000E+00  0.21515569067E+04  0.21515569067E+04  0.00000000000E+00 0. -1.
         -1   -1    0    0    0  501 -0.00000000000E+00 -0.00000000000E+00 -0.51424931697E+03  0.51424931697E+03  0.00000000000E+00 0.  1.
         24    2    1    2    0    0  0.84593762283E+03  0.12300996302E+03  0.73051000143E+03  0.11272287208E+04  0.79106346741E+02 0.  0.
        254    2    1    2    0    0 -0.84593762283E+03 -0.12300996302E+03  0.90679758826E+03  0.15385775028E+04  0.90232862827E+03 0.  0.
         23    2    4    4    0    0 -0.58458920192E+03  0.26633150817E+03  0.18712843151E+03  0.67497583775E+03  0.88872517835E+02 0.  0.
         23    2    4    4    0    0 -0.26134842091E+03 -0.38934147118E+03  0.71966915675E+03  0.86360166507E+03  0.89411198632E+02 0.  0.
          2    1    3    3  502    0  0.15964204149E+03  0.89472133023E+01  0.10198116061E+03  0.18964648997E+03  0.00000000000E+00 0. -1.
         -1    1    3    3    0  502  0.68629558134E+03  0.11406274972E+03  0.62852884082E+03  0.93758223084E+03  0.00000000000E+00 0.  1.
         11    1    5    5    0    0 -0.41279643643E+03  0.20210658746E+03  0.17274208370E+03  0.49100692267E+03  0.00000000000E+00 0. -1.
        -11    1    5    5    0    0 -0.17179276549E+03  0.64224920701E+02  0.14386347804E+02  0.18396891508E+03  0.00000000000E+00 0.  1.
          3    1    6    6  503    0 -0.14972115572E+03 -0.25704922851E+03  0.38212238018E+03  0.48426051231E+03  0.00000000000E+00 0. -1.
         -3    1    6    6    0  503 -0.11162726519E+03 -0.13229224267E+03  0.33754677657E+03  0.37934115276E+03  0.00000000000E+00 0.  1.
<mgrwt>
<rscale>  0 0.21037459E+04</rscale>
<asrwt>0</asrwt>
<pdfrwt beam="1">  1        2 0.33100875E+00 0.21037459E+04</pdfrwt>
<pdfrwt beam="2">  1       -1 0.79115281E-01 0.21037459E+04</pdfrwt>
<totfact> 0.92085579E+00</totfact>
</mgrwt>
</event>
<event>
12    6  0.1647231E-007  0.1554607E+04  0.7818608E-02  0.8848930E-01
         -1   -1    0    0    0  501 -0.00000000000E+00  0.00000000000E+00  0.17495139722E+03  0.17495139722E+03  0.00000000000E+00 0.  1.
          2   -1    0    0  501    0  0.00000000000E+00 -0.00000000000E+00 -0.34535341589E+04  0.34535341589E+04  0.00000000000E+00 0. -1.
         24    2    1    2    0    0  0.11785404908E+03 -0.12088834988E+03  0.36271818955E+02  0.19044231901E+03  0.80306052072E+02 0.  0.
        254    2    1    2    0    0 -0.11785404908E+03  0.12088834988E+03 -0.33148545807E+04  0.34380432371E+04  0.89631291380E+03 0.  0.
         23    2    4    4    0    0 -0.14180897419E+03  0.40385352693E+03 -0.28593691084E+04  0.28924922721E+04  0.85512512672E+02 0.  0.
         23    2    4    4    0    0  0.23954925109E+02 -0.28296517705E+03 -0.45548547223E+03  0.54555096498E+03  0.97548501365E+02 0.  0.
          2    1    3    3  502    0  0.10068229692E+02 -0.19557300509E+02 -0.22307125713E+02  0.31328343555E+02  0.00000000000E+00 0. -1.
         -1    1    3    3    0  502  0.10778581939E+03 -0.10133104937E+03  0.58578944667E+02  0.15911397546E+03  0.00000000000E+00 0.  1.
         11    1    5    5    0    0 -0.86886347346E+02  0.31240217555E+03 -0.23325972740E+04  0.23550274732E+04  0.00000000000E+00 0.  1.
        -11    1    5    5    0    0 -0.54922626840E+02  0.91451351385E+02 -0.52677183442E+03  0.53746479898E+03  0.00000000000E+00 0. -1.
          2    1    6    6  503    0 -0.46616115278E+01 -0.99270155964E+02 -0.24684216231E+03  0.26609650050E+03  0.00000000000E+00 0. -1.
         -2    1    6    6    0  503  0.28616536636E+02 -0.18369502109E+03 -0.20864330993E+03  0.27945446448E+03  0.00000000000E+00 0.  1.
<mgrwt>
<rscale>  0 0.15546069E+04</rscale>
<asrwt>0</asrwt>
<pdfrwt beam="1">  1        2 0.53131299E+00 0.15546069E+04</pdfrwt>
<pdfrwt beam="2">  1       -1 0.26915598E-01 0.15546069E+04</pdfrwt>
<totfact> 0.11979500E+01</totfact>
</mgrwt>
</event>
<event>
12    6  0.1647231E-007  0.1809463E+04  0.7818608E-02  0.8701284E-01
         -1   -1    0    0    0  501 -0.00000000000E+00  0.00000000000E+00  0.46585040098E+03  0.46585040098E+03  0.00000000000E+00 0.  1.
          2   -1    0    0  501    0  0.00000000000E+00 -0.00000000000E+00 -0.17570847774E+04  0.17570847774E+04  0.00000000000E+00 0. -1.
         24    2    1    2    0    0 -0.73821660861E+02 -0.56932138784E+03 -0.90361828657E+03  0.10736826227E+04  0.81803949654E+02 0.  0.
        254    2    1    2    0    0  0.73821660861E+02  0.56932138784E+03 -0.38761608980E+03  0.11492525556E+04  0.91703801628E+03 0.  0.
         23    2    4    4    0    0  0.24902740575E+03 -0.17059749845E+03 -0.12781959479E+03  0.34055974771E+03  0.92330588934E+02 0.  0.
         23    2    4    4    0    0 -0.17520574489E+03  0.73991888629E+03 -0.25979649501E+03  0.80869280793E+03  0.91174708386E+02 0.  0.
          2    1    3    3  502    0 -0.25023484373E+01 -0.33339022333E+03 -0.52292401081E+03  0.62016515852E+03  0.00000000000E+00 0. -1.
         -1    1    3    3    0  502 -0.71319312423E+02 -0.23593116451E+03 -0.38069427576E+03  0.45351746417E+03  0.00000000000E+00 0.  1.
         11    1    5    5    0    0  0.31335265074E+02 -0.29722773348E+02  0.13501895592E+02  0.45250892558E+02  0.00000000000E+00 0. -1.
        -11    1    5    5    0    0  0.21769214068E+03 -0.14087472511E+03 -0.14132149038E+03  0.29530885515E+03  0.00000000000E+00 0.  1.
          2    1    6    6  503    0 -0.11014122861E+03  0.40634135003E+03 -0.97892409629E+02  0.43223524480E+03  0.00000000000E+00 0.  1.
         -2    1    6    6    0  503 -0.65064516279E+02  0.33357753626E+03 -0.16190408538E+03  0.37645756313E+03  0.00000000000E+00 0. -1.
<mgrwt>
<rscale>  0 0.18094625E+04</rscale>
<asrwt>0</asrwt>
<pdfrwt beam="1">  1        2 0.27032073E+00 0.18094625E+04</pdfrwt>
<pdfrwt beam="2">  1       -1 0.71669293E-01 0.18094625E+04</pdfrwt>
<totfact> 0.19248437E+01</totfact>
</mgrwt>
</event>
<event>
12    6  0.1647231E-007  0.1698435E+04  0.7818608E-02  0.8762257E-01
         -3   -1    0    0    0  501 -0.00000000000E+00  0.00000000000E+00  0.40918058309E+03  0.40918058309E+03  0.00000000000E+00 0.  1.
          2   -1    0    0  501    0  0.00000000000E+00 -0.00000000000E+00 -0.17624747425E+04  0.17624747425E+04  0.00000000000E+00 0. -1.
         24    2    1    2    0    0  0.34610708328E+03 -0.48237446392E+03 -0.57048713407E+03  0.82715170268E+03  0.79051455186E+02 0.  0.
        254    2    1    2    0    0 -0.34610708328E+03  0.48237446392E+03 -0.78280702537E+03  0.13445036229E+04  0.91783872036E+03 0.  0.
         23    2    4    4    0    0 -0.32145596485E+03  0.73577161514E+03 -0.67612389100E+03  0.10536042564E+04  0.90799813111E+02 0.  0.
         23    2    4    4    0    0 -0.24651118434E+02 -0.25339715122E+03 -0.10668313437E+03  0.29089936658E+03  0.91778845224E+02 0.  0.
          2    1    3    3  502    0  0.33876899702E+03 -0.44566025621E+03 -0.51810545108E+03  0.76276520355E+03  0.00000000000E+00 0. -1.
         -1    1    3    3    0  502  0.73380862668E+01 -0.36714207710E+02 -0.52381682982E+02  0.64386499127E+02  0.00000000000E+00 0.  1.
         11    1    5    5    0    0 -0.13250883283E+03  0.30394090830E+03 -0.22164605563E+03  0.39883034049E+03  0.00000000000E+00 0.  1.
        -11    1    5    5    0    0 -0.18894713202E+03  0.43183070684E+03 -0.45447783537E+03  0.65477391587E+03  0.00000000000E+00 0. -1.
          4    1    6    6  503    0 -0.87746449201E+01  0.58501073373E+01 -0.71839930887E+01  0.12760403835E+02  0.00000000000E+00 0. -1.
         -4    1    6    6    0  503 -0.15876473514E+02 -0.25924725856E+03 -0.99499141284E+02  0.27813896274E+03  0.00000000000E+00 0.  1.
<mgrwt>
<rscale>  0 0.16984351E+04</rscale>
<asrwt>0</asrwt>
<pdfrwt beam="1">  1        2 0.27114996E+00 0.16984351E+04</pdfrwt>
<pdfrwt beam="2">  1       -3 0.62950858E-01 0.16984351E+04</pdfrwt>
<totfact> 0.13521926E+01</totfact>
</mgrwt>
</event>
<event>
12    6  0.1647231E-007  0.2337727E+04  0.7818608E-02  0.8463193E-01
          2   -1    0    0  501    0  0.00000000000E+00  0.00000000000E+00  0.10090866070E+04  0.10090866070E+04  0.00000000000E+00 0. -1.
         -1   -1    0    0    0  501 -0.00000000000E+00 -0.00000000000E+00 -0.13539393097E+04  0.13539393097E+04  0.00000000000E+00 0.  1.
         24    2    1    2    0    0  0.45192694186E+03 -0.75178013421E+03 -0.44571472636E+03  0.98715886730E+03  0.80060483626E+02 0.  0.
        254    2    1    2    0    0 -0.45192694186E+03  0.75178013421E+03  0.10086202362E+03  0.13758670494E+04  0.10551898687E+04 0.  0.
         23    2    4    4    0    0  0.20145473382E+03  0.59329042901E+03 -0.15276454554E+03  0.65155907616E+03  0.92815302737E+02 0.  0.
         23    2    4    4    0    0 -0.65338167567E+03  0.15848970520E+03  0.25362656916E+03  0.72430797328E+03  0.90934057527E+02 0.  0.
          4    1    3    3  502    0 -0.14246755120E+01 -0.51350372403E+01 -0.92649112305E+01  0.10688165787E+02  0.00000000000E+00 0. -1.
         -3    1    3    3    0  502  0.45335161737E+03 -0.74664509697E+03 -0.43644981513E+03  0.97647070152E+03  0.00000000000E+00 0.  1.
         11    1    5    5    0    0  0.19304914053E+03  0.58081020479E+03 -0.16296967708E+03  0.63337791270E+03  0.00000000000E+00 0.  1.
        -11    1    5    5    0    0  0.84055932863E+01  0.12480224217E+02  0.10205131540E+02  0.18181163459E+02  0.00000000000E+00 0. -1.
          4    1    6    6  503    0 -0.19467455485E+03  0.38060007472E+02  0.32377339684E+02  0.20098517010E+03  0.00000000000E+00 0.  1.
         -4    1    6    6    0  503 -0.45870712082E+03  0.12042969773E+03  0.22124922947E+03  0.52332280318E+03  0.00000000000E+00 0. -1.
<mgrwt>
<rscale>  0 0.23377271E+04</rscale>
<asrwt>0</asrwt>
<pdfrwt beam="1">  1        2 0.15524409E+00 0.23377271E+04</pdfrwt>
<pdfrwt beam="2">  1       -1 0.20829836E+00 0.23377271E+04</pdfrwt>
<totfact> 0.33815365E+00</totfact>
</mgrwt>
</event>
<event>
12    6  0.1813811E-007  0.3080650E+04  0.7818608E-02  0.8221069E-01
          2   -1    0    0  501    0  0.00000000000E+00  0.00000000000E+00  0.24389895499E+04  0.24389895499E+04  0.00000000000E+00 0. -1.
         -1   -1    0    0    0  501 -0.00000000000E+00 -0.00000000000E+00 -0.97278016003E+03  0.97278016003E+03  0.00000000000E+00 0.  1.
         24    2    1    2    0    0  0.48101747655E+03 -0.41353219350E+03  0.20092509977E+04  0.21084409397E+04  0.77762052195E+02 0.  0.
        254    2    1    2    0    0 -0.48101747655E+03  0.41353219350E+03 -0.54304160776E+03  0.13033287703E+04  0.10006922643E+04 0.  0.
         23    2    4    4    0    0 -0.34022113517E+03 -0.24383866512E+03 -0.44431245715E+03  0.61746400076E+03  0.92954382484E+02 0.  0.
         23    2    4    4    0    0 -0.14079634137E+03  0.65737085862E+03 -0.98729150610E+02  0.68586476950E+03  0.93289770885E+02 0.  0.
          4    1    3    3  502    0  0.41909549449E+03 -0.38909369021E+03  0.17690665973E+04  0.18592018608E+04  0.00000000000E+00 0. -1.
         -3    1    3    3    0  502  0.61921982054E+02 -0.24438503296E+02  0.24018440033E+03  0.24923907893E+03  0.00000000000E+00 0.  1.
         11    1    5    5    0    0 -0.33241761677E+03 -0.24929376706E+03 -0.44376391428E+03  0.60792702346E+03  0.00000000000E+00 0. -1.
        -11    1    5    5    0    0 -0.78035184074E+01  0.54551019402E+01 -0.54854287075E+00  0.95369772986E+01  0.00000000000E+00 0.  1.
          4    1    6    6  503    0 -0.95820856349E+02  0.57022134321E+03 -0.10467325222E+03  0.58761424973E+03  0.00000000000E+00 0. -1.
         -4    1    6    6    0  503 -0.44975485024E+02  0.87149515419E+02  0.59441016143E+01  0.98250519769E+02  0.00000000000E+00 0.  1.
<mgrwt>
<rscale>  0 0.30806497E+04</rscale>
<asrwt>0</asrwt>
<pdfrwt beam="1">  1        2 0.37522916E+00 0.30806497E+04</pdfrwt>
<pdfrwt beam="2">  1       -1 0.14965849E+00 0.30806497E+04</pdfrwt>
<totfact> 0.12808793E+00</totfact>
</mgrwt>
</event>
<event>
12    6  0.1647231E-007  0.3236484E+04  0.7818608E-02  0.8179248E-01
         -1   -1    0    0    0  501 -0.00000000000E+00  0.00000000000E+00  0.16450484575E+04  0.16450484575E+04  0.00000000000E+00 0.  1.
          2   -1    0    0  501    0  0.00000000000E+00 -0.00000000000E+00 -0.15918726260E+04  0.15918726260E+04  0.00000000000E+00 0. -1.
         24    2    1    2    0    0  0.34543775231E+03  0.11348423417E+04 -0.88006306775E+03  0.14791884933E+04  0.79329782493E+02 0.  0.
        254    2    1    2    0    0 -0.34543775231E+03 -0.11348423417E+04  0.93323889922E+03  0.17577325902E+04  0.90082996967E+03 0.  0.
         23    2    4    4    0    0 -0.54226417865E+03 -0.10542136049E+04  0.95489027344E+03  0.15250953668E+04  0.93186260982E+02 0.  0.
         23    2    4    4    0    0  0.19682642634E+03 -0.80628736746E+02 -0.21651374218E+02  0.23263722335E+03  0.91704200509E+02 0.  0.
          4    1    3    3  502    0  0.28045729895E+03  0.86460750126E+03 -0.70959772741E+03  0.11531397845E+04  0.00000000000E+00 0. -1.
         -3    1    3    3    0  502  0.64980453366E+02  0.27023484042E+03 -0.17046534034E+03  0.32604870887E+03  0.00000000000E+00 0.  1.
         11    1    5    5    0    0 -0.76105746032E+02 -0.17601408019E+03  0.19699270245E+03  0.27491665250E+03  0.00000000000E+00 0. -1.
        -11    1    5    5    0    0 -0.46615843262E+03 -0.87819952474E+03  0.75789757099E+03  0.12501787143E+04  0.00000000000E+00 0.  1.
          3    1    6    6  503    0  0.40053435337E+01 -0.28193092395E+02  0.10287036347E+02  0.30277324063E+02  0.00000000000E+00 0. -1.
         -3    1    6    6    0  503  0.19282108280E+03 -0.52435644350E+02 -0.31938410565E+02  0.20235989929E+03  0.00000000000E+00 0.  1.
<mgrwt>
<rscale>  0 0.32364843E+04</rscale>
<asrwt>0</asrwt>
<pdfrwt beam="1">  1        2 0.24490348E+00 0.32364843E+04</pdfrwt>
<pdfrwt beam="2">  1       -1 0.25308438E+00 0.32364843E+04</pdfrwt>
<totfact> 0.71682775E-01</totfact>
</mgrwt>
</event>
<event>
12    6  0.1647231E-007  0.1231427E+04  0.7818608E-02  0.9085785E-01
          2   -1    0    0  501    0  0.00000000000E+00  0.00000000000E+00  0.11144953903E+04  0.11144953903E+04  0.00000000000E+00 0. -1.
         -1   -1    0    0    0  501 -0.00000000000E+00 -0.00000000000E+00 -0.34015673178E+03  0.34015673178E+03  0.00000000000E+00 0.  1.
         24    2    1    2    0    0 -0.10745687807E+03 -0.13956413793E+03  0.36947335890E+03  0.41723607512E+03  0.80933616051E+02 0.  0.
        254    2    1    2    0    0  0.10745687807E+03  0.13956413793E+03  0.40486529965E+03  0.10374160470E+04  0.93877101279E+03 0.  0.
         23    2    4    4    0    0  0.95177472132E+02 -0.31665635427E+03 -0.94230007698E+02  0.35495484067E+03  0.88224977554E+02 0.  0.
         23    2    4    4    0    0  0.12279405940E+02  0.45622049220E+03  0.49909530735E+03  0.68246120632E+03  0.91483610562E+02 0.  0.
          2    1    3    3  502    0 -0.10030865091E+02 -0.46920999787E+02  0.17033606296E+03  0.17696489149E+03  0.00000000000E+00 0. -1.
         -1    1    3    3    0  502 -0.97426012981E+02 -0.92643138145E+02  0.19913729594E+03  0.24027118363E+03  0.00000000000E+00 0.  1.
         11    1    5    5    0    0  0.17650674402E+02 -0.26142476146E+02 -0.37443452594E+02  0.48959039084E+02  0.00000000000E+00 0.  1.
        -11    1    5    5    0    0  0.77526797730E+02 -0.29051387812E+03 -0.56786555104E+02  0.30599580159E+03  0.00000000000E+00 0. -1.
          1    1    6    6  503    0  0.16608185686E+01  0.40261709031E+03  0.47517012138E+03  0.62280809563E+03  0.00000000000E+00 0. -1.
         -1    1    6    6    0  503  0.10618587372E+02  0.53603401886E+02  0.23925185975E+02  0.59653110694E+02  0.00000000000E+00 0.  1.
<mgrwt>
<rscale>  0 0.12314270E+04</rscale>
<asrwt>0</asrwt>
<pdfrwt beam="1">  1        2 0.17146083E+00 0.12314270E+04</pdfrwt>
<pdfrwt beam="2">  1       -1 0.52331805E-01 0.12314270E+04</pdfrwt>
<totfact> 0.88132174E+01</totfact>
</mgrwt>
</event>
<event>
12    6  0.1647231E-007  0.1723902E+04  0.7818608E-02  0.8747848E-01
         -1   -1    0    0    0  501 -0.00000000000E+00  0.00000000000E+00  0.74074052758E+03  0.74074052758E+03  0.00000000000E+00 0.  1.
          2   -1    0    0  501    0  0.00000000000E+00 -0.00000000000E+00 -0.10029957768E+04  0.10029957768E+04  0.00000000000E+00 0. -1.
         24    2    1    2    0    0 -0.43837701169E+03  0.59899409536E+02  0.33723510786E+03  0.56194817171E+03  0.79346619766E+02 0.  0.
        254    2    1    2    0    0  0.43837701169E+03 -0.59899409536E+02 -0.59949035705E+03  0.11817881327E+04  0.91731791580E+03 0.  0.
         23    2    4    4    0    0  0.67733773147E+03  0.13456286119E+03 -0.39738495281E+03  0.80210430122E+03  0.92536172610E+02 0.  0.
         23    2    4    4    0    0 -0.23896071977E+03 -0.19446227073E+03 -0.20210540424E+03  0.37968383143E+03  0.91626508704E+02 0.  0.
          4    1    3    3  502    0 -0.14147545339E+03  0.19233543436E+02  0.64209716453E+02  0.15655069720E+03  0.00000000000E+00 0. -1.
         -3    1    3    3    0  502 -0.29690155830E+03  0.40665866100E+02  0.27302539140E+03  0.40539747451E+03  0.00000000000E+00 0.  1.
         11    1    5    5    0    0  0.37407683103E+03  0.10316646311E+03 -0.18062203670E+03  0.42801999342E+03  0.00000000000E+00 0.  1.
        -11    1    5    5    0    0  0.30326090044E+03  0.31396398080E+02 -0.21676291611E+03  0.37408430780E+03  0.00000000000E+00 0. -1.
          1    1    6    6  503    0 -0.15478901554E+03 -0.15169755134E+03 -0.18232614556E+03  0.28322183845E+03  0.00000000000E+00 0. -1.
         -1    1    6    6    0  503 -0.84171704231E+02 -0.42764719383E+02 -0.19779258674E+02  0.96461992986E+02  0.00000000000E+00 0.  1.
<mgrwt>
<rscale>  0 0.17239021E+04</rscale>
<asrwt>0</asrwt>
<pdfrwt beam="1">  1        2 0.15430704E+00 0.17239021E+04</pdfrwt>
<pdfrwt beam="2">  1       -1 0.11396008E+00 0.17239021E+04</pdfrwt>
<totfact> 0.19065783E+01</totfact>
</mgrwt>
</event>
<event>
12    6  0.1647231E-007  0.1466863E+04  0.7818608E-02  0.8906793E-01
          2   -1    0    0  501    0  0.00000000000E+00  0.00000000000E+00  0.15844761009E+04  0.15844761009E+04  0.00000000000E+00 0. -1.
         -1   -1    0    0    0  501 -0.00000000000E+00 -0.00000000000E+00 -0.33949482313E+03  0.33949482313E+03  0.00000000000E+00 0.  1.
         24    2    1    2    0    0  0.10368830570E+03 -0.40386805475E+03  0.16317086649E+03  0.45506621813E+03  0.81239527500E+02 0.  0.
        254    2    1    2    0    0 -0.10368830570E+03  0.40386805475E+03  0.10818104112E+04  0.14689047059E+04  0.90194600652E+03 0.  0.
         23    2    4    4    0    0  0.21678362039E+02 -0.15251990330E+03  0.81423534682E+03  0.83374819366E+03  0.91785500714E+02 0.  0.
         23    2    4    4    0    0 -0.12536666774E+03  0.55638795805E+03  0.26757506443E+03  0.63515651221E+03  0.80888927932E+02 0.  0.
          4    1    3    3  502    0  0.20770614295E+02 -0.21567306437E+03  0.59129336319E+02  0.22459422862E+03  0.00000000000E+00 0. -1.
         -3    1    3    3    0  502  0.82917691409E+02 -0.18819499037E+03  0.10404153018E+03  0.23047198952E+03  0.00000000000E+00 0.  1.
         11    1    5    5    0    0  0.32700706927E+02 -0.14251237129E+02  0.10007470440E+03  0.10624208419E+03  0.00000000000E+00 0. -1.
        -11    1    5    5    0    0 -0.11022344888E+02 -0.13826866617E+03  0.71416064242E+03  0.72750610947E+03  0.00000000000E+00 0.  1.
          3    1    6    6  503    0  0.26692119522E+01  0.72506397851E+02  0.13395965193E+02  0.73781801992E+02  0.00000000000E+00 0. -1.
         -3    1    6    6    0  503 -0.12803587970E+03  0.48388156020E+03  0.25417909924E+03  0.56137471022E+03  0.00000000000E+00 0.  1.
<mgrwt>
<rscale>  0 0.14668625E+04</rscale>
<asrwt>0</asrwt>
<pdfrwt beam="1">  1        2 0.24376555E+00 0.14668625E+04</pdfrwt>
<pdfrwt beam="2">  1       -1 0.52229974E-01 0.14668625E+04</pdfrwt>
<totfact> 0.46354030E+01</totfact>
</mgrwt>
</event>
<event>
12    6  0.3584449E-007  0.2936514E+04  0.7818608E-02  0.8262096E-01
          2   -1    0    0  501    0  0.00000000000E+00  0.00000000000E+00  0.16017972473E+04  0.16017972473E+04  0.00000000000E+00 0. -1.
         -1   -1    0    0    0  501 -0.00000000000E+00 -0.00000000000E+00 -0.13458501196E+04  0.13458501196E+04  0.00000000000E+00 0.  1.
         24    2    1    2    0    0 -0.11700341333E+04  0.31394571106E+03  0.66389131848E+03  0.13836807174E+04  0.79239273226E+02 0.  0.
        254    2    1    2    0    0  0.11700341333E+04 -0.31394571106E+03 -0.40794419074E+03  0.15639666495E+04  0.90112786852E+03 0.  0.
         23    2    4    4    0    0  0.32217960058E+03 -0.26434470287E+03  0.24165190195E+03  0.49101555349E+03  0.94988499754E+02 0.  0.
         23    2    4    4    0    0  0.84785453268E+03 -0.49601008193E+02 -0.64959609269E+03  0.10729510960E+04  0.89058419774E+02 0.  0.
          2    1    3    3  502    0 -0.10008012445E+04  0.26787604146E+03  0.53492785059E+03  0.11659796353E+04  0.00000000000E+00 0. -1.
         -1    1    3    3    0  502 -0.16923288881E+03  0.46069669606E+02  0.12896346789E+03  0.21770108213E+03  0.00000000000E+00 0.  1.
         11    1    5    5    0    0  0.25508374778E+03 -0.18114906676E+03  0.21863340855E+03  0.38168477845E+03  0.00000000000E+00 0. -1.
        -11    1    5    5    0    0  0.67095852799E+02 -0.83195636115E+02  0.23018493400E+02  0.10933077503E+03  0.00000000000E+00 0.  1.
          1    1    6    6  503    0  0.82905613356E+03 -0.57255455321E+02 -0.64542736429E+03  0.10522303656E+04  0.00000000000E+00 0. -1.
         -1    1    6    6    0  503  0.18798399116E+02  0.76544471281E+01 -0.41687283987E+01  0.20720730359E+02  0.00000000000E+00 0.  1.
<mgrwt>
<rscale>  0 0.29365143E+04</rscale>
<asrwt>0</asrwt>
<pdfrwt beam="1">  1        2 0.24643035E+00 0.29365143E+04</pdfrwt>
<pdfrwt beam="2">  1       -1 0.20705386E+00 0.29365143E+04</pdfrwt>
<totfact> 0.14674641E+00</totfact>
</mgrwt>
</event>
<event>
12    6  0.1647231E-007  0.1890506E+04  0.7818608E-02  0.8659597E-01
          2   -1    0    0  501    0  0.00000000000E+00  0.00000000000E+00  0.88175163672E+03  0.88175163672E+03  0.00000000000E+00 0. -1.
         -1   -1    0    0    0  501 -0.00000000000E+00 -0.00000000000E+00 -0.10133270563E+04  0.10133270563E+04  0.00000000000E+00 0.  1.
         24    2    1    2    0    0  0.26443713480E+03 -0.35625791885E+03 -0.63043699943E+03  0.77568703418E+03  0.85981752366E+02 0.  0.
        254    2    1    2    0    0 -0.26443713480E+03  0.35625791885E+03  0.49886157986E+03  0.11193916588E+04  0.89851438887E+03 0.  0.
         23    2    4    4    0    0  0.31502532626E+02 -0.10799325123E+03 -0.18646191807E+03  0.23563606073E+03  0.90007523868E+02 0.  0.
         23    2    4    4    0    0 -0.29593966742E+03  0.46425117008E+03  0.68532349792E+03  0.88375559811E+03  0.90808725950E+02 0.  0.
          4    1    3    3  502    0  0.16563778104E+01 -0.35380560192E+02 -0.33074406980E+02  0.48460747250E+02  0.00000000000E+00 0. -1.
         -3    1    3    3    0  502  0.26278075699E+03 -0.32087735866E+03 -0.59736259245E+03  0.72722628693E+03  0.00000000000E+00 0.  1.
         11    1    5    5    0    0 -0.12066915503E+02  0.80353399081E-01  0.36914985030E+01  0.12619194412E+02  0.00000000000E+00 0.  1.
        -11    1    5    5    0    0  0.43569448129E+02 -0.10807360463E+03 -0.19015341657E+03  0.22301686631E+03  0.00000000000E+00 0. -1.
          1    1    6    6  503    0 -0.14845016645E+03  0.26659149232E+03  0.31269231393E+03  0.43690383253E+03  0.00000000000E+00 0. -1.
         -1    1    6    6    0  503 -0.14748950097E+03  0.19765967776E+03  0.37263118399E+03  0.44685176557E+03  0.00000000000E+00 0.  1.
<mgrwt>
<rscale>  0 0.18905055E+04</rscale>
<asrwt>0</asrwt>
<pdfrwt beam="1">  1        2 0.13565410E+00 0.18905055E+04</pdfrwt>
<pdfrwt beam="2">  1       -1 0.15589647E+00 0.18905055E+04</pdfrwt>
<totfact> 0.10137018E+01</totfact>
</mgrwt>
</event>
<event>
12    6  0.1647231E-007  0.1735973E+04  0.7818608E-02  0.8741110E-01
          2   -1    0    0  501    0  0.00000000000E+00  0.00000000000E+00  0.10376219559E+04  0.10376219559E+04  0.00000000000E+00 0. -1.
         -1   -1    0    0    0  501 -0.00000000000E+00 -0.00000000000E+00 -0.72608360964E+03  0.72608360964E+03  0.00000000000E+00 0.  1.
         24    2    1    2    0    0 -0.10569648013E+03 -0.39426334268E+03 -0.37840885239E+03  0.56228409321E+03  0.79717078573E+02 0.  0.
        254    2    1    2    0    0  0.10569648013E+03  0.39426334268E+03  0.68994719862E+03  0.12014214723E+04  0.89485813842E+03 0.  0.
         23    2    4    4    0    0 -0.36785150139E+03  0.35022448490E+02  0.23701676554E+03  0.44864470222E+03  0.92540924525E+02 0.  0.
         23    2    4    4    0    0  0.47354798152E+03  0.35924089419E+03  0.45293043308E+03  0.75277677006E+03  0.90692764213E+02 0.  0.
          4    1    3    3  502    0 -0.30063029156E+02 -0.11036610745E+03 -0.60485466933E+02  0.12939457140E+03  0.00000000000E+00 0. -1.
         -3    1    3    3    0  502 -0.75633450972E+02 -0.28389723522E+03 -0.31792338546E+03  0.43288952181E+03  0.00000000000E+00 0.  1.
         11    1    5    5    0    0 -0.32649000018E+03  0.59742724163E+02  0.19670951022E+03  0.38582320397E+03  0.00000000000E+00 0.  1.
        -11    1    5    5    0    0 -0.41361501210E+02 -0.24720275673E+02  0.40307255318E+02  0.62821498254E+02  0.00000000000E+00 0. -1.
          4    1    6    6  503    0  0.40230347153E+02  0.45002219883E+02  0.17724560820E+02  0.62911371649E+02  0.00000000000E+00 0. -1.
         -4    1    6    6    0  503  0.43331763436E+03  0.31423867430E+03  0.43520587226E+03  0.68986539841E+03  0.00000000000E+00 0.  1.
<mgrwt>
<rscale>  0 0.17359727E+04</rscale>
<asrwt>0</asrwt>
<pdfrwt beam="1">  1        2 0.15963415E+00 0.17359727E+04</pdfrwt>
<pdfrwt beam="2">  1       -1 0.11170517E+00 0.17359727E+04</pdfrwt>
<totfact> 0.18985916E+01</totfact>
</mgrwt>
</event>
<event>
12    6  0.1647231E-007  0.1441281E+04  0.7818608E-02  0.8924468E-01
         -1   -1    0    0    0  501 -0.00000000000E+00  0.00000000000E+00  0.40001663363E+03  0.40001663363E+03  0.00000000000E+00 0.  1.
          2   -1    0    0  501    0  0.00000000000E+00 -0.00000000000E+00 -0.12982529350E+04  0.12982529350E+04  0.00000000000E+00 0. -1.
         24    2    1    2    0    0 -0.24257273655E+02 -0.19575278816E+03  0.18391872639E+03  0.28172107533E+03  0.81443827103E+02 0.  0.
        254    2    1    2    0    0  0.24257273655E+02  0.19575278816E+03 -0.10821550277E+04  0.14165484933E+04  0.89254835183E+03 0.  0.
         23    2    4    4    0    0  0.39619273210E+03  0.15067562541E+03 -0.87969724492E+03  0.98099092033E+03  0.93830261587E+02 0.  0.
         23    2    4    4    0    0 -0.37193545845E+03  0.45077162749E+02 -0.20245778280E+03  0.43555757293E+03  0.91396442322E+02 0.  0.
          4    1    3    3  502    0 -0.20201822272E+02 -0.28311798004E+02  0.25926409469E+01  0.34876830653E+02  0.00000000000E+00 0. -1.
         -3    1    3    3    0  502 -0.40554513833E+01 -0.16744099015E+03  0.18132608544E+03  0.24684424468E+03  0.00000000000E+00 0.  1.
         11    1    5    5    0    0  0.12318158460E+03  0.70645759594E+02 -0.38453823293E+03  0.40991972228E+03  0.00000000000E+00 0.  1.
        -11    1    5    5    0    0  0.27301114751E+03  0.80029865814E+02 -0.49515901199E+03  0.57107119805E+03  0.00000000000E+00 0. -1.
          4    1    6    6  503    0 -0.16379509142E+03 -0.19793146540E+01 -0.43552023581E+02  0.16949787143E+03  0.00000000000E+00 0. -1.
         -4    1    6    6    0  503 -0.20814036703E+03  0.47056477403E+02 -0.15890575922E+03  0.26605970151E+03  0.00000000000E+00 0.  1.
<mgrwt>
<rscale>  0 0.14412811E+04</rscale>
<asrwt>0</asrwt>
<pdfrwt beam="1">  1        2 0.19973122E+00 0.14412811E+04</pdfrwt>
<pdfrwt beam="2">  1       -1 0.61541020E-01 0.14412811E+04</pdfrwt>
<totfact> 0.49087365E+01</totfact>
</mgrwt>
</event>
<event>
12    6  0.1647231E-007  0.1549708E+04  0.7818608E-02  0.8852054E-01
         -1   -1    0    0    0  501 -0.00000000000E+00  0.00000000000E+00  0.20391140857E+03  0.20391140857E+03  0.00000000000E+00 0.  1.
          2   -1    0    0  501    0  0.00000000000E+00 -0.00000000000E+00 -0.29444101630E+04  0.29444101630E+04  0.00000000000E+00 0. -1.
         24    2    1    2    0    0  0.46047832652E+03  0.25420798000E+02 -0.47115068699E+03  0.66408669956E+03  0.79634593723E+02 0.  0.
        254    2    1    2    0    0 -0.46047832652E+03 -0.25420798000E+02 -0.22693480674E+04  0.24842348720E+04  0.89933071887E+03 0.  0.
         23    2    4    4    0    0 -0.73372849831E+02  0.40636595783E+03 -0.10328874221E+04  0.11154682077E+04  0.83042331270E+02 0.  0.
         23    2    4    4    0    0 -0.38710547669E+03 -0.43178675583E+03 -0.12364606453E+04  0.13687666643E+04  0.91634062173E+02 0.  0.
          4    1    3    3  502    0  0.39615484081E+03  0.15105461253E+02 -0.43875363872E+03  0.59133035466E+03  0.00000000000E+00 0. -1.
         -3    1    3    3    0  502  0.64323485717E+02  0.10315336747E+02 -0.32397048272E+02  0.72756344904E+02  0.00000000000E+00 0.  1.
         11    1    5    5    0    0 -0.82114750392E+02  0.23211601480E+03 -0.57693836024E+03  0.62727868454E+03  0.00000000000E+00 0.  1.
        -11    1    5    5    0    0  0.87419005607E+01  0.17424994303E+03 -0.45594906187E+03  0.48818952313E+03  0.00000000000E+00 0. -1.
          3    1    6    6  503    0 -0.96572871411E+02 -0.63286034338E+02 -0.29633634580E+03  0.31803564497E+03  0.00000000000E+00 0. -1.
         -3    1    6    6    0  503 -0.29053260528E+03 -0.36850072149E+03 -0.94012429951E+03  0.10507310193E+04  0.00000000000E+00 0.  1.
<mgrwt>
<rscale>  0 0.15497081E+04</rscale>
<asrwt>0</asrwt>
<pdfrwt beam="1">  1        2 0.45298619E+00 0.15497081E+04</pdfrwt>
<pdfrwt beam="2">  1       -1 0.31370985E-01 0.15497081E+04</pdfrwt>
<totfact> 0.19613924E+01</totfact>
</mgrwt>
</event>
<event>
12    6  0.1647231E-007  0.1392987E+04  0.7818608E-02  0.8958910E-01
          2   -1    0    0  501    0  0.00000000000E+00  0.00000000000E+00  0.82782953452E+03  0.82782953452E+03  0.00000000000E+00 0. -1.
         -1   -1    0    0    0  501 -0.00000000000E+00 -0.00000000000E+00 -0.58599425123E+03  0.58599425123E+03  0.00000000000E+00 0.  1.
         24    2    1    2    0    0 -0.37201236086E+03  0.54586001389E+01 -0.85961006553E+02  0.39011299293E+03  0.79848980346E+02 0.  0.
        254    2    1    2    0    0  0.37201236086E+03 -0.54586001389E+01  0.32779628984E+03  0.10237107928E+04  0.89560615604E+03 0.  0.
         23    2    4    4    0    0  0.40815299163E+03 -0.33327945487E+03 -0.20193925980E+02  0.53567723394E+03  0.94224437876E+02 0.  0.
         23    2    4    4    0    0 -0.36140630777E+02  0.32782085473E+03  0.34799021582E+03  0.48803355887E+03  0.91142231070E+02 0.  0.
          2    1    3    3  502    0 -0.61056056215E+02  0.30871571440E+02 -0.19150371339E+02  0.71046693422E+02  0.00000000000E+00 0. -1.
         -1    1    3    3    0  502 -0.31095630464E+03 -0.25412971301E+02 -0.66810635213E+02  0.31906629951E+03  0.00000000000E+00 0.  1.
         11    1    5    5    0    0  0.49379177908E+02 -0.75367846762E+02 -0.26010717655E+02  0.93782583507E+02  0.00000000000E+00 0.  1.
        -11    1    5    5    0    0  0.35877381373E+03 -0.25791160811E+03  0.58167916749E+01  0.44189465043E+03  0.00000000000E+00 0. -1.
          4    1    6    6  503    0 -0.80105570959E+01  0.11364929957E+03  0.62237894406E+02  0.12982252431E+03  0.00000000000E+00 0. -1.
         -4    1    6    6    0  503 -0.28130073681E+02  0.21417155516E+03  0.28575232142E+03  0.35821103456E+03  0.00000000000E+00 0.  1.
<mgrwt>
<rscale>  0 0.13929872E+04</rscale>
<asrwt>0</asrwt>
<pdfrwt beam="1">  1        2 0.12735839E+00 0.13929872E+04</pdfrwt>
<pdfrwt beam="2">  1       -1 0.90152962E-01 0.13929872E+04</pdfrwt>
<totfact> 0.44032182E+01</totfact>
</mgrwt>
</event>
<event>
12    6  0.1647231E-007  0.1971004E+04  0.7818608E-02  0.8620299E-01
         -1   -1    0    0    0  501 -0.00000000000E+00  0.00000000000E+00  0.24938185453E+04  0.24938185453E+04  0.00000000000E+00 0.  1.
          2   -1    0    0  501    0  0.00000000000E+00 -0.00000000000E+00 -0.38944853309E+03  0.38944853309E+03  0.00000000000E+00 0. -1.
         24    2    1    2    0    0 -0.66104844071E+03 -0.12730570608E+03  0.14054967056E+04  0.15603784664E+04  0.78537794473E+02 0.  0.
        254    2    1    2    0    0  0.66104844071E+03  0.12730570608E+03  0.69887330661E+03  0.13228886120E+04  0.89912101371E+03 0.  0.
         23    2    4    4    0    0  0.76407745751E+03  0.20641139010E+02  0.20112683894E+03  0.79571341433E+03  0.92018556352E+02 0.  0.
         23    2    4    4    0    0 -0.10302901679E+03  0.10666456707E+03  0.49774646767E+03  0.52717519767E+03  0.90387138415E+02 0.  0.
          2    1    3    3  502    0 -0.22411615377E+03 -0.79311543224E+02  0.52120421184E+03  0.57286316142E+03  0.00000000000E+00 0. -1.
         -1    1    3    3    0  502 -0.43693228694E+03 -0.47994162858E+02  0.88429249378E+03  0.98751530499E+03  0.00000000000E+00 0.  1.
         11    1    5    5    0    0  0.40020809152E+03 -0.31171826949E+01  0.15045049659E+03  0.42756471472E+03  0.00000000000E+00 0.  1.
        -11    1    5    5    0    0  0.36386936599E+03  0.23758321705E+02  0.50676342352E+02  0.36814869962E+03  0.00000000000E+00 0. -1.
          3    1    6    6  503    0  0.46104887411E+01  0.52001388943E+02  0.17348538079E+03  0.18117002624E+03  0.00000000000E+00 0. -1.
         -3    1    6    6    0  503 -0.10763950554E+03  0.54663178129E+02  0.32426108688E+03  0.34600517143E+03  0.00000000000E+00 0.  1.
<mgrwt>
<rscale>  0 0.19710038E+04</rscale>
<asrwt>0</asrwt>
<pdfrwt beam="1">  1        2 0.59915161E-01 0.19710038E+04</pdfrwt>
<pdfrwt beam="2">  1       -1 0.38366438E+00 0.19710038E+04</pdfrwt>
<totfact> 0.80779342E-01</totfact>
</mgrwt>
</event>
<event>
12    6  0.1647231E-007  0.1388430E+04  0.7818608E-02  0.8962236E-01
         -1   -1    0    0    0  501 -0.00000000000E+00  0.00000000000E+00  0.59955478473E+03  0.59955478473E+03  0.00000000000E+00 0.  1.
          2   -1    0    0  501    0  0.00000000000E+00 -0.00000000000E+00 -0.80382055263E+03  0.80382055263E+03  0.00000000000E+00 0. -1.
         24    2    1    2    0    0 -0.13201691584E+02 -0.22189196607E+03  0.27082192660E+03  0.35896872450E+03  0.78126179815E+02 0.  0.
        254    2    1    2    0    0  0.13201691584E+02  0.22189196607E+03 -0.47508769450E+03  0.10444066129E+04  0.90314258357E+03 0.  0.
         23    2    4    4    0    0  0.16944093342E+03  0.27019501275E+03  0.16946258010E+03  0.37230406748E+03  0.90427748917E+02 0.  0.
         23    2    4    4    0    0 -0.15623924183E+03 -0.48303046679E+02 -0.64455027460E+03  0.67210254538E+03  0.97636519884E+02 0.  0.
          4    1    3    3  502    0  0.23603837203E+02 -0.41709462900E+02  0.32347708462E+02  0.57820365520E+02  0.00000000000E+00 0. -1.
         -1    1    3    3    0  502 -0.36805528787E+02 -0.18018250317E+03  0.23847421814E+03  0.30114835898E+03  0.00000000000E+00 0.  1.
         11    1    5    5    0    0  0.11793696502E+03  0.24845939635E+03  0.13246498406E+03  0.30526737682E+03  0.00000000000E+00 0. -1.
        -11    1    5    5    0    0  0.51503968400E+02  0.21735616408E+02  0.36997596047E+02  0.67036690661E+02  0.00000000000E+00 0.  1.
          4    1    6    6  503    0 -0.10913847447E+03 -0.32465607612E+02 -0.25338321012E+03  0.27779178076E+03  0.00000000000E+00 0. -1.
         -4    1    6    6    0  503 -0.47100767361E+02 -0.15837439067E+02 -0.39116706448E+03  0.39431076462E+03  0.00000000000E+00 0.  1.
<mgrwt>
<rscale>  0 0.13884300E+04</rscale>
<asrwt>0</asrwt>
<pdfrwt beam="1">  1        2 0.12366470E+00 0.13884300E+04</pdfrwt>
<pdfrwt beam="2">  1       -1 0.92239198E-01 0.13884300E+04</pdfrwt>
<totfact> 0.43559887E+01</totfact>
</mgrwt>
</event>
<event>
12    6  0.1647231E-007  0.1886002E+04  0.7818608E-02  0.8661855E-01
          2   -1    0    0  501    0  0.00000000000E+00  0.00000000000E+00  0.67890723239E+03  0.67890723239E+03  0.00000000000E+00 0. -1.
         -1   -1    0    0    0  501 -0.00000000000E+00 -0.00000000000E+00 -0.13098274464E+04  0.13098274464E+04  0.00000000000E+00 0.  1.
         24    2    1    2    0    0  0.23245166242E+03 -0.49626967283E+03  0.26048236810E+03  0.61187280023E+03  0.78866317516E+02 0.  0.
        254    2    1    2    0    0 -0.23245166242E+03  0.49626967283E+03 -0.89140258213E+03  0.13768618786E+04  0.89489256661E+03 0.  0.
         23    2    4    4    0    0 -0.44651467395E+03  0.51663915733E+03 -0.31989468109E+03  0.75953504406E+03  0.90936808977E+02 0.  0.
         23    2    4    4    0    0  0.21406301154E+03 -0.20369484497E+02 -0.57150790104E+03  0.61732683454E+03  0.90737262915E+02 0.  0.
          4    1    3    3  502    0  0.21043108742E+03 -0.40300717257E+03  0.18917427707E+03  0.49242555864E+03  0.00000000000E+00 0. -1.
         -3    1    3    3    0  502  0.22020575001E+02 -0.93262500259E+02  0.71308091022E+02  0.11944724159E+03  0.00000000000E+00 0.  1.
         11    1    5    5    0    0 -0.34573044235E+03  0.36556692636E+03 -0.27083877397E+03  0.57142134883E+03  0.00000000000E+00 0.  1.
        -11    1    5    5    0    0 -0.10078423160E+03  0.15107223096E+03 -0.49055907120E+02  0.18811369523E+03  0.00000000000E+00 0. -1.
          3    1    6    6  503    0  0.76332706563E+02 -0.44046974046E+02 -0.28906745499E+03  0.30220326197E+03  0.00000000000E+00 0. -1.
         -3    1    6    6    0  503  0.13773030497E+03  0.23677489549E+02 -0.28244044606E+03  0.31512357257E+03  0.00000000000E+00 0.  1.
<mgrwt>
<rscale>  0 0.18860025E+04</rscale>
<asrwt>0</asrwt>
<pdfrwt beam="1">  1        2 0.10444727E+00 0.18860025E+04</pdfrwt>
<pdfrwt beam="2">  1       -1 0.20151191E+00 0.18860025E+04</pdfrwt>
<totfact> 0.66980324E+00</totfact>
</mgrwt>
</event>
<event>
12    6  0.1647231E-007  0.1726881E+04  0.7818608E-02  0.8746180E-01
         -1   -1    0    0    0  501 -0.00000000000E+00  0.00000000000E+00  0.99560493029E+03  0.99560493029E+03  0.00000000000E+00 0.  1.
          2   -1    0    0  501    0  0.00000000000E+00 -0.00000000000E+00 -0.74882047850E+03  0.74882047850E+03  0.00000000000E+00 0. -1.
         24    2    1    2    0    0  0.15309766686E+03  0.25361828063E+03  0.64623815187E+03  0.71559473608E+03  0.81798224363E+02 0.  0.
        254    2    1    2    0    0 -0.15309766686E+03 -0.25361828063E+03 -0.39945370008E+03  0.10288306727E+04  0.90064874771E+03 0.  0.
         23    2    4    4    0    0 -0.22581043417E+03 -0.49629471080E+03 -0.49588146490E+03  0.74303229618E+03  0.94338612395E+02 0.  0.
         23    2    4    4    0    0  0.72712767304E+02  0.24267643017E+03  0.96427764827E+02  0.28579837653E+03  0.90572633332E+02 0.  0.
          2    1    3    3  502    0  0.35927740682E+02  0.47569076011E+02  0.66703346485E+02  0.89459241978E+02  0.00000000000E+00 0. -1.
         -1    1    3    3    0  502  0.11716992618E+03  0.20604920462E+03  0.57953480538E+03  0.62613549410E+03  0.00000000000E+00 0.  1.
         11    1    5    5    0    0 -0.11593543124E+03 -0.23242511023E+03 -0.17438109096E+03  0.31284376447E+03  0.00000000000E+00 0.  1.
        -11    1    5    5    0    0 -0.10987500293E+03 -0.26386960057E+03 -0.32150037394E+03  0.43018853172E+03  0.00000000000E+00 0. -1.
          4    1    6    6  503    0  0.85898696400E+02  0.22508250840E+03  0.10419096171E+03  0.26248138626E+03  0.00000000000E+00 0. -1.
         -4    1    6    6    0  503 -0.13185929096E+02  0.17593921769E+02 -0.77631968844E+01  0.23316990269E+02  0.00000000000E+00 0.  1.
<mgrwt>
<rscale>  0 0.17268808E+04</rscale>
<asrwt>0</asrwt>
<pdfrwt beam="1">  1        2 0.11520315E+00 0.17268808E+04</pdfrwt>
<pdfrwt beam="2">  1       -1 0.15316999E+00 0.17268808E+04</pdfrwt>
<totfact> 0.13430497E+01</totfact>
</mgrwt>
</event>
<event>
12    6  0.1647231E-007  0.2089292E+04  0.7818608E-02  0.8565975E-01
         -1   -1    0    0    0  501 -0.00000000000E+00  0.00000000000E+00  0.55786269931E+03  0.55786269931E+03  0.00000000000E+00 0.  1.
          2   -1    0    0  501    0  0.00000000000E+00 -0.00000000000E+00 -0.19561892930E+04  0.19561892930E+04  0.00000000000E+00 0. -1.
         24    2    1    2    0    0 -0.20366143622E+03 -0.82091102859E+03 -0.53681609315E+03  0.10048304228E+04  0.78356641868E+02 0.  0.
        254    2    1    2    0    0  0.20366143622E+03  0.82091102859E+03 -0.86151050055E+03  0.15092215695E+04  0.90563596759E+03 0.  0.
         23    2    4    4    0    0 -0.96241714540E+02 -0.16056980107E+03 -0.12853756299E+03  0.24479153024E+03  0.91410390809E+02 0.  0.
         23    2    4    4    0    0  0.29990315076E+03  0.98148082966E+03 -0.73297293757E+03  0.12644300392E+04  0.91035587110E+02 0.  0.
          2    1    3    3  502    0 -0.30250472615E+02 -0.49250717541E+02 -0.26539962113E+02  0.63601052355E+02  0.00000000000E+00 0. -1.
         -1    1    3    3    0  502 -0.17341096361E+03 -0.77166031105E+03 -0.51027613104E+03  0.94122937048E+03  0.00000000000E+00 0.  1.
         11    1    5    5    0    0 -0.16795442556E+01 -0.73569958806E+02 -0.76529931884E+02  0.10617057117E+03  0.00000000000E+00 0. -1.
        -11    1    5    5    0    0 -0.94562170285E+02 -0.86999842264E+02 -0.52007631102E+02  0.13862095908E+03  0.00000000000E+00 0.  1.
          2    1    6    6  503    0  0.23194111065E+03  0.69190174978E+03 -0.47518204797E+03  0.87081725343E+03  0.00000000000E+00 0.  1.
         -2    1    6    6    0  503  0.67962040113E+02  0.28957907987E+03 -0.25779088960E+03  0.39361278581E+03  0.00000000000E+00 0. -1.
<mgrwt>
<rscale>  0 0.20892918E+04</rscale>
<asrwt>0</asrwt>
<pdfrwt beam="1">  1        2 0.30095220E+00 0.20892918E+04</pdfrwt>
<pdfrwt beam="2">  1       -1 0.85825031E-01 0.20892918E+04</pdfrwt>
<totfact> 0.99477309E+00</totfact>
</mgrwt>
</event>
<event>
12    6  0.1647231E-007  0.1598728E+04  0.7818608E-02  0.8821330E-01
         -1   -1    0    0    0  501 -0.00000000000E+00  0.00000000000E+00  0.53314597980E+03  0.53314597980E+03  0.00000000000E+00 0.  1.
          2   -1    0    0  501    0  0.00000000000E+00 -0.00000000000E+00 -0.11985133297E+04  0.11985133297E+04  0.00000000000E+00 0. -1.
         24    2    1    2    0    0  0.26448466314E+03 -0.25532238121E+03  0.20769423260E+03  0.43020555552E+03  0.82451624366E+02 0.  0.
        254    2    1    2    0    0 -0.26448466314E+03  0.25532238121E+03 -0.87306158250E+03  0.13014537540E+04  0.89241452898E+03 0.  0.
         23    2    4    4    0    0 -0.41711092880E+03 -0.11200294199E+03 -0.14140224270E+03  0.46382107519E+03  0.92785826547E+02 0.  0.
         23    2    4    4    0    0  0.15262626566E+03  0.36732532321E+03 -0.73165933980E+03  0.83763267879E+03  0.89891295654E+02 0.  0.
          2    1    3    3  502    0  0.17950060666E+03 -0.21007536816E+03  0.12495295771E+03  0.30325792609E+03  0.00000000000E+00 0. -1.
         -1    1    3    3    0  502  0.84984056482E+02 -0.45247013054E+02  0.82741274897E+02  0.12694762943E+03  0.00000000000E+00 0.  1.
         11    1    5    5    0    0 -0.40519414256E+03 -0.12437567094E+03 -0.14081633085E+03  0.44663277950E+03  0.00000000000E+00 0. -1.
        -11    1    5    5    0    0 -0.11916786234E+02  0.12372728950E+02 -0.58591184542E+00  0.17188295684E+02  0.00000000000E+00 0.  1.
          1    1    6    6  503    0  0.16250892527E+03  0.34132581138E+03 -0.69946459968E+03  0.79508690501E+03  0.00000000000E+00 0. -1.
         -1    1    6    6    0  503 -0.98826596083E+01  0.25999511822E+02 -0.32194740115E+02  0.42545773785E+02  0.00000000000E+00 0.  1.
<mgrwt>
<rscale>  0 0.15987277E+04</rscale>
<asrwt>0</asrwt>
<pdfrwt beam="1">  1        2 0.18438667E+00 0.15987277E+04</pdfrwt>
<pdfrwt beam="2">  1       -1 0.82022459E-01 0.15987277E+04</pdfrwt>
<totfact> 0.30694876E+01</totfact>
</mgrwt>
</event>
<event>
12    6  0.1647231E-007  0.1585995E+04  0.7818608E-02  0.8829198E-01
         -1   -1    0    0    0  501 -0.00000000000E+00  0.00000000000E+00  0.14455075422E+04  0.14455075422E+04  0.00000000000E+00 0.  1.
          2   -1    0    0  501    0  0.00000000000E+00 -0.00000000000E+00 -0.43503424654E+03  0.43503424654E+03  0.00000000000E+00 0. -1.
         24    2    1    2    0    0 -0.13799017270E+03 -0.63653748874E+02  0.95382624514E+03  0.96915628700E+03  0.79914424301E+02 0.  0.
        254    2    1    2    0    0  0.13799017270E+03  0.63653748874E+02  0.56647050487E+02  0.91138550171E+03  0.89683976099E+03 0.  0.
         23    2    4    4    0    0  0.11661335797E+03  0.24331012470E+03 -0.35378698829E+03  0.45389996103E+03  0.89785575102E+02 0.  0.
         23    2    4    4    0    0  0.21376814731E+02 -0.17965637582E+03  0.41043403878E+03  0.45748554068E+03  0.90019654299E+02 0.  0.
          2    1    3    3  502    0 -0.31997762435E+02 -0.14267502983E+02  0.77350958298E+02  0.84915188228E+02  0.00000000000E+00 0. -1.
         -1    1    3    3    0  502 -0.10599241027E+03 -0.49386245891E+02  0.87647528684E+03  0.88424109878E+03  0.00000000000E+00 0.  1.
         11    1    5    5    0    0  0.75872588289E+01  0.10723544951E+03 -0.10653293128E+03  0.15134818656E+03  0.00000000000E+00 0.  1.
        -11    1    5    5    0    0  0.10902609914E+03  0.13607467518E+03 -0.24725405702E+03  0.30255177447E+03  0.00000000000E+00 0. -1.
          3    1    6    6  503    0  0.26604546484E+02 -0.16992570006E+03  0.41187617239E+03  0.44634574807E+03  0.00000000000E+00 0. -1.
         -3    1    6    6    0  503 -0.52277317534E+01 -0.97306757666E+01 -0.14421336095E+01  0.11139792615E+02  0.00000000000E+00 0.  1.
<mgrwt>
<rscale>  0 0.15859953E+04</rscale>
<asrwt>0</asrwt>
<pdfrwt beam="1">  1        2 0.66928346E-01 0.15859953E+04</pdfrwt>
<pdfrwt beam="2">  1       -1 0.22238577E+00 0.15859953E+04</pdfrwt>
<totfact> 0.84178730E+00</totfact>
</mgrwt>
</event>
<event>
12    6  0.1647231E-007  0.1966348E+04  0.7818608E-02  0.8622518E-01
          2   -1    0    0  501    0  0.00000000000E+00  0.00000000000E+00  0.16259771336E+04  0.16259771336E+04  0.00000000000E+00 0. -1.
         -1   -1    0    0    0  501 -0.00000000000E+00 -0.00000000000E+00 -0.59449235529E+03  0.59449235529E+03  0.00000000000E+00 0.  1.
         24    2    1    2    0    0 -0.70423122446E+03  0.59326126613E+01  0.78329311019E+03  0.10561552464E+04  0.77064873375E+02 0.  0.
        254    2    1    2    0    0  0.70423122446E+03 -0.59326126613E+01  0.24819166809E+03  0.11643142424E+04  0.89333741530E+03 0.  0.
         23    2    4    4    0    0  0.26855446574E+03  0.37801477866E+02  0.55398630105E+03  0.62357485448E+03  0.91620546752E+02 0.  0.
         23    2    4    4    0    0  0.43567675872E+03 -0.43734090528E+02 -0.30579463297E+03  0.54073938793E+03  0.84627533041E+02 0.  0.
          2    1    3    3  502    0 -0.57696112349E+03  0.34245690945E+02  0.63209479725E+03  0.85650495508E+03  0.00000000000E+00 0. -1.
         -1    1    3    3    0  502 -0.12727010097E+03 -0.28313078283E+02  0.15119831294E+03  0.19965029136E+03  0.00000000000E+00 0.  1.
         11    1    5    5    0    0 -0.70453267655E+01  0.31392776532E+01  0.23994328284E+02  0.25203560923E+02  0.00000000000E+00 0.  1.
        -11    1    5    5    0    0  0.27559979251E+03  0.34662200213E+02  0.52999197277E+03  0.59837129356E+03  0.00000000000E+00 0. -1.
          3    1    6    6  503    0  0.33682029932E+03 -0.70211493724E+01 -0.26099725214E+03  0.42616519825E+03  0.00000000000E+00 0. -1.
         -3    1    6    6    0  503  0.98856459398E+02 -0.36712941155E+02 -0.44797380826E+02  0.11457418968E+03  0.00000000000E+00 0.  1.
<mgrwt>
<rscale>  0 0.19663479E+04</rscale>
<asrwt>0</asrwt>
<pdfrwt beam="1">  1        2 0.25015033E+00 0.19663479E+04</pdfrwt>
<pdfrwt beam="2">  1       -1 0.91460363E-01 0.19663479E+04</pdfrwt>
<totfact> 0.13340013E+01</totfact>
</mgrwt>
</event>
<event>
12    6  0.1647231E-007  0.1835130E+04  0.7818608E-02  0.8687838E-01
          2   -1    0    0  501    0  0.00000000000E+00  0.00000000000E+00  0.13542835401E+04  0.13542835401E+04  0.00000000000E+00 0. -1.
         -1   -1    0    0    0  501 -0.00000000000E+00 -0.00000000000E+00 -0.62167597774E+03  0.62167597774E+03  0.00000000000E+00 0.  1.
         24    2    1    2    0    0  0.54844645337E+03 -0.45558073929E+02 -0.16699281784E+03  0.58104565494E+03  0.82815467140E+02 0.  0.
        254    2    1    2    0    0 -0.54844645337E+03  0.45558073929E+02  0.89960038019E+03  0.13949138629E+04  0.91303602916E+03 0.  0.
         23    2    4    4    0    0 -0.27534590463E+03  0.40380638685E+03  0.15619374538E+03  0.52109249986E+03  0.90917226414E+02 0.  0.
         23    2    4    4    0    0 -0.27310054874E+03 -0.35824831292E+03  0.74340663481E+03  0.87382136303E+03  0.89356512780E+02 0.  0.
          2    1    3    3  502    0  0.19064332137E+03 -0.53568140139E+02 -0.46485534937E+02  0.20340925883E+03  0.00000000000E+00 0. -1.
         -1    1    3    3    0  502  0.35780313200E+03  0.80100662100E+01 -0.12050728291E+03  0.37763639611E+03  0.00000000000E+00 0.  1.
         11    1    5    5    0    0 -0.25269977406E+03  0.31706318859E+03  0.14569799594E+03  0.43082960366E+03  0.00000000000E+00 0.  1.
        -11    1    5    5    0    0 -0.22646130568E+02  0.86743198263E+02  0.10495749440E+02  0.90262896202E+02  0.00000000000E+00 0. -1.
          1    1    6    6  503    0 -0.11096330070E+03 -0.78723858664E+02  0.22633525171E+03  0.26407943159E+03  0.00000000000E+00 0. -1.
         -1    1    6    6    0  503 -0.16213724804E+03 -0.27952445426E+03  0.51707138310E+03  0.60974193144E+03  0.00000000000E+00 0.  1.
<mgrwt>
<rscale>  0 0.18351300E+04</rscale>
<asrwt>0</asrwt>
<pdfrwt beam="1">  1        2 0.20835131E+00 0.18351300E+04</pdfrwt>
<pdfrwt beam="2">  1       -1 0.95642458E-01 0.18351300E+04</pdfrwt>
<totfact> 0.17399174E+01</totfact>
</mgrwt>
</event>
<event>
12    6  0.1647231E-007  0.1359421E+04  0.7818608E-02  0.8983727E-01
         -1   -1    0    0    0  501 -0.00000000000E+00  0.00000000000E+00  0.98308712421E+03  0.98308712421E+03  0.00000000000E+00 0.  1.
          2   -1    0    0  501    0  0.00000000000E+00 -0.00000000000E+00 -0.46995461737E+03  0.46995461737E+03  0.00000000000E+00 0. -1.
         24    2    1    2    0    0 -0.35135806244E+02  0.27406716727E+03 -0.93714201531E+02  0.30262727105E+03  0.80334155646E+02 0.  0.
        254    2    1    2    0    0  0.35135806244E+02 -0.27406716727E+03  0.60684670837E+03  0.11504144705E+04  0.93746636712E+03 0.  0.
         23    2    4    4    0    0  0.27028626666E+03  0.68866881174E+02 -0.11231734405E+03  0.31460949184E+03  0.92556108977E+02 0.  0.
         23    2    4    4    0    0 -0.23515046042E+03 -0.34293404844E+03  0.71916405242E+03  0.83580497869E+03  0.92051765275E+02 0.  0.
          2    1    3    3  502    0 -0.45739604719E+02  0.25011962622E+03 -0.10369607721E+03  0.27459937234E+03  0.00000000000E+00 0. -1.
         -1    1    3    3    0  502  0.10603798475E+02  0.23947541050E+02  0.99818756806E+01  0.28027898718E+02  0.00000000000E+00 0.  1.
         11    1    5    5    0    0  0.17781911943E+03  0.22675229987E+02 -0.11176217478E+03  0.21124532895E+03  0.00000000000E+00 0.  1.
        -11    1    5    5    0    0  0.92467147232E+02  0.46191651187E+02 -0.55516927069E+00  0.10336416289E+03  0.00000000000E+00 0. -1.
          2    1    6    6  503    0 -0.18764972703E+03 -0.32348969479E+03  0.61744431492E+03  0.72186943745E+03  0.00000000000E+00 0.  1.
         -2    1    6    6    0  503 -0.47500733391E+02 -0.19444353655E+02  0.10171973750E+03  0.11393554124E+03  0.00000000000E+00 0. -1.
<mgrwt>
<rscale>  0 0.13594210E+04</rscale>
<asrwt>0</asrwt>
<pdfrwt beam="1">  1        2 0.72300711E-01 0.13594210E+04</pdfrwt>
<pdfrwt beam="2">  1       -1 0.15124417E+00 0.13594210E+04</pdfrwt>
<totfact> 0.25204368E+01</totfact>
</mgrwt>
</event>
<event>
12    6  0.1647231E-007  0.1828172E+04  0.7818608E-02  0.8691460E-01
          2   -1    0    0  501    0  0.00000000000E+00  0.00000000000E+00  0.10496333049E+04  0.10496333049E+04  0.00000000000E+00 0. -1.
         -1   -1    0    0    0  501 -0.00000000000E+00 -0.00000000000E+00 -0.79604336689E+03  0.79604336689E+03  0.00000000000E+00 0.  1.
         24    2    1    2    0    0 -0.20093971175E+03  0.44290731882E+03  0.57586725975E+03  0.75805137322E+03  0.80468147536E+02 0.  0.
        254    2    1    2    0    0  0.20093971175E+03 -0.44290731882E+03 -0.32227732176E+03  0.10876252986E+04  0.91789022062E+03 0.  0.
         23    2    4    4    0    0  0.15528414514E+03 -0.60518839690E+03 -0.51570683965E+03  0.81537182552E+03  0.92257833922E+02 0.  0.
         23    2    4    4    0    0  0.45655566605E+02  0.16228107808E+03  0.19342951789E+03  0.27225347303E+03  0.91035136719E+02 0.  0.
          2    1    3    3  502    0 -0.81656697110E+02  0.27587832613E+03  0.33359040077E+03  0.44052153466E+03  0.00000000000E+00 0. -1.
         -1    1    3    3    0  502 -0.11928301464E+03  0.16702899268E+03  0.24227685899E+03  0.31752983856E+03  0.00000000000E+00 0.  1.
         11    1    5    5    0    0  0.10891651577E+03 -0.29504375023E+03 -0.21554266720E+03  0.38127714767E+03  0.00000000000E+00 0. -1.
        -11    1    5    5    0    0  0.46367629377E+02 -0.31014464667E+03 -0.30016417245E+03  0.43409467785E+03  0.00000000000E+00 0.  1.
          4    1    6    6  503    0  0.54578953555E+02  0.91784281606E+02  0.16319878880E+03  0.19503092367E+03  0.00000000000E+00 0.  1.
         -4    1    6    6    0  503 -0.89233869496E+01  0.70496796476E+02  0.30230729095E+02  0.77222549360E+02  0.00000000000E+00 0. -1.
<mgrwt>
<rscale>  0 0.18281725E+04</rscale>
<asrwt>0</asrwt>
<pdfrwt beam="1">  1        2 0.16148205E+00 0.18281725E+04</pdfrwt>
<pdfrwt beam="2">  1       -1 0.12246821E+00 0.18281725E+04</pdfrwt>
<totfact> 0.14818854E+01</totfact>
</mgrwt>
</event>
<event>
12    6  0.1647231E-007  0.2530605E+04  0.7818608E-02  0.8392163E-01
         -1   -1    0    0    0  501 -0.00000000000E+00  0.00000000000E+00  0.80601093648E+03  0.80601093648E+03  0.00000000000E+00 0.  1.
          2   -1    0    0  501    0  0.00000000000E+00 -0.00000000000E+00 -0.19863140249E+04  0.19863140249E+04  0.00000000000E+00 0. -1.
         24    2    1    2    0    0  0.75705297300E+01 -0.63797359643E+03  0.48162836801E+03  0.80341654377E+03  0.80278485765E+02 0.  0.
        254    2    1    2    0    0 -0.75705297300E+01  0.63797359643E+03 -0.16619314565E+04  0.19889084176E+04  0.88694582990E+03 0.  0.
         23    2    4    4    0    0 -0.24945036946E+03 -0.68654960632E+02 -0.18518421977E+03  0.33108249590E+03  0.91561091064E+02 0.  0.
         23    2    4    4    0    0  0.24187983973E+03  0.70662855706E+03 -0.14767472367E+04  0.16578259217E+04  0.98866633526E+02 0.  0.
          2    1    3    3  502    0  0.96913589068E+00 -0.63938989413E+02  0.81804260821E+02  0.10383193478E+03  0.00000000000E+00 0. -1.
         -1    1    3    3    0  502  0.66013938393E+01 -0.57403460701E+03  0.39982410719E+03  0.69958460899E+03  0.00000000000E+00 0.  1.
         11    1    5    5    0    0 -0.16634712805E+03 -0.63283366404E+02 -0.75409018885E+02  0.19329426169E+03  0.00000000000E+00 0. -1.
        -11    1    5    5    0    0 -0.83103241418E+02 -0.53715942282E+01 -0.10977520088E+03  0.13778823422E+03  0.00000000000E+00 0.  1.
          4    1    6    6  503    0  0.19246882596E+03  0.46209000678E+03 -0.10569132554E+04  0.11694601544E+04  0.00000000000E+00 0. -1.
         -4    1    6    6    0  503  0.49411013779E+02  0.24453855027E+03 -0.41983398131E+03  0.48836576735E+03  0.00000000000E+00 0.  1.
<mgrwt>
<rscale>  0 0.25306053E+04</rscale>
<asrwt>0</asrwt>
<pdfrwt beam="1">  1        2 0.30558677E+00 0.25306053E+04</pdfrwt>
<pdfrwt beam="2">  1       -1 0.12400168E+00 0.25306053E+04</pdfrwt>
<totfact> 0.39293968E+00</totfact>
</mgrwt>
</event>
<event>
12    6  0.1647231E-007  0.1440575E+04  0.7818608E-02  0.8924961E-01
          2   -1    0    0  501    0  0.00000000000E+00  0.00000000000E+00  0.84640626545E+03  0.84640626545E+03  0.00000000000E+00 0. -1.
         -1   -1    0    0    0  501 -0.00000000000E+00 -0.00000000000E+00 -0.61296097938E+03  0.61296097938E+03  0.00000000000E+00 0.  1.
         24    2    1    2    0    0 -0.13335436966E+03 -0.13909759113E+03  0.46306162439E+03  0.50778974316E+03  0.79327344027E+02 0.  0.
        254    2    1    2    0    0  0.13335436966E+03  0.13909759113E+03 -0.22961633832E+03  0.95157750167E+03  0.90313041754E+03 0.  0.
         23    2    4    4    0    0 -0.33740614414E+03  0.49977718437E+02 -0.29380580708E+03  0.45918706291E+03  0.90499878563E+02 0.  0.
         23    2    4    4    0    0  0.47076051380E+03  0.89119872697E+02  0.64189468766E+02  0.49239043876E+03  0.93649576708E+02 0.  0.
          4    1    3    3  502    0  0.54719225141E+01 -0.22770704523E+01  0.57663614669E+02  0.57967399825E+02  0.00000000000E+00 0. -1.
         -3    1    3    3    0  502 -0.13882629217E+03 -0.13682052068E+03  0.40539800972E+03  0.44982234334E+03  0.00000000000E+00 0.  1.
         11    1    5    5    0    0 -0.24949637729E+03  0.41686055248E+02 -0.16147291740E+03  0.30009943775E+03  0.00000000000E+00 0.  1.
        -11    1    5    5    0    0 -0.87909766849E+02  0.82916631891E+01 -0.13233288968E+03  0.15908762516E+03  0.00000000000E+00 0. -1.
          4    1    6    6  503    0  0.27124199704E+03  0.54985018544E+01  0.24017984498E+02  0.27235880389E+03  0.00000000000E+00 0.  1.
         -4    1    6    6    0  503  0.19951851676E+03  0.83621370842E+02  0.40171484268E+02  0.22003163486E+03  0.00000000000E+00 0. -1.
<mgrwt>
<rscale>  0 0.14405749E+04</rscale>
<asrwt>0</asrwt>
<pdfrwt beam="1">  1        2 0.13021635E+00 0.14405749E+04</pdfrwt>
<pdfrwt beam="2">  1       -1 0.94301688E-01 0.14405749E+04</pdfrwt>
<totfact> 0.38513224E+01</totfact>
</mgrwt>
</event>
<event>
12    6  0.1647231E-007  0.1566769E+04  0.7818608E-02  0.8841227E-01
         -1   -1    0    0    0  501 -0.00000000000E+00  0.00000000000E+00  0.33010090976E+03  0.33010090976E+03  0.00000000000E+00 0.  1.
          2   -1    0    0  501    0  0.00000000000E+00 -0.00000000000E+00 -0.18591028005E+04  0.18591028005E+04  0.00000000000E+00 0. -1.
         24    2    1    2    0    0 -0.44811198252E+03 -0.26962538437E+03 -0.48430788675E+03  0.71742758457E+03  0.81523083557E+02 0.  0.
        254    2    1    2    0    0  0.44811198252E+03  0.26962538437E+03 -0.10446940040E+04  0.14717761257E+04  0.89511854265E+03 0.  0.
         23    2    4    4    0    0  0.70852151875E+03  0.23503488305E+03 -0.69146128315E+03  0.10221186001E+04  0.96765633481E+02 0.  0.
         23    2    4    4    0    0 -0.26040953623E+03  0.34590501319E+02 -0.35323272082E+03  0.44965752556E+03  0.91700086688E+02 0.  0.
          4    1    3    3  502    0 -0.27672977412E+03 -0.17937625031E+03 -0.35498493562E+03  0.48453019676E+03  0.00000000000E+00 0. -1.
         -3    1    3    3    0  502 -0.17138220841E+03 -0.90249134066E+02 -0.12932295112E+03  0.23289738780E+03  0.00000000000E+00 0.  1.
         11    1    5    5    0    0  0.84997277020E+02  0.51233007645E+02 -0.12715998600E+03  0.16130412336E+03  0.00000000000E+00 0. -1.
        -11    1    5    5    0    0  0.62352424173E+03  0.18380187541E+03 -0.56430129715E+03  0.86081447675E+03  0.00000000000E+00 0.  1.
          4    1    6    6  503    0 -0.92479416482E+02 -0.20145333920E+02 -0.78101841965E+02  0.12271175441E+03  0.00000000000E+00 0. -1.
         -4    1    6    6    0  503 -0.16793011974E+03  0.54735835239E+02 -0.27513087885E+03  0.32694577115E+03  0.00000000000E+00 0.  1.
<mgrwt>
<rscale>  0 0.15667693E+04</rscale>
<asrwt>0</asrwt>
<pdfrwt beam="1">  1        2 0.28601581E+00 0.15667693E+04</pdfrwt>
<pdfrwt beam="2">  1       -1 0.50784756E-01 0.15667693E+04</pdfrwt>
<totfact> 0.34140324E+01</totfact>
</mgrwt>
</event>
<event>
12    6  0.1647231E-007  0.2105437E+04  0.7818608E-02  0.8558852E-01
          2   -1    0    0  501    0  0.00000000000E+00  0.00000000000E+00  0.17057409430E+04  0.17057409430E+04  0.00000000000E+00 0. -1.
         -1   -1    0    0    0  501 -0.00000000000E+00 -0.00000000000E+00 -0.64969793159E+03  0.64969793159E+03  0.00000000000E+00 0.  1.
         24    2    1    2    0    0 -0.20979151059E+02 -0.67956119789E+03 -0.15601016177E+03  0.70202111821E+03  0.79062844512E+02 0.  0.
        254    2    1    2    0    0  0.20979151059E+02  0.67956119789E+03  0.12120531732E+04  0.16534177564E+04  0.89580903995E+03 0.  0.
         23    2    4    4    0    0 -0.34703301481E+03  0.10260853228E+03  0.18703633765E+03  0.41739398337E+03  0.90965496171E+02 0.  0.
         23    2    4    4    0    0  0.36801216586E+03  0.57695266560E+03  0.10250168355E+04  0.12360237730E+04  0.93743915795E+02 0.  0.
          4    1    3    3  502    0  0.18149106518E+02 -0.29512334047E+03 -0.38822505876E+02  0.29821864985E+03  0.00000000000E+00 0. -1.
         -3    1    3    3    0  502 -0.39128257577E+02 -0.38443785742E+03 -0.11718765589E+03  0.40380246836E+03  0.00000000000E+00 0.  1.
         11    1    5    5    0    0 -0.26564486829E+03  0.47124897469E+02  0.16568242276E+03  0.31660482817E+03  0.00000000000E+00 0. -1.
        -11    1    5    5    0    0 -0.81388146518E+02  0.55483634814E+02  0.21353914890E+02  0.10078915521E+03  0.00000000000E+00 0.  1.
          3    1    6    6  503    0  0.37313570519E+03  0.56267582847E+03  0.99574742801E+03  0.12030574728E+04  0.00000000000E+00 0. -1.
         -3    1    6    6    0  503 -0.51235393278E+01  0.14276837137E+02  0.29269407536E+02  0.32966300238E+02  0.00000000000E+00 0.  1.
<mgrwt>
<rscale>  0 0.21054371E+04</rscale>
<asrwt>0</asrwt>
<pdfrwt beam="1">  1        2 0.26242168E+00 0.21054371E+04</pdfrwt>
<pdfrwt beam="2">  1       -1 0.99953528E-01 0.21054371E+04</pdfrwt>
<totfact> 0.97438234E+00</totfact>
</mgrwt>
</event>
<event>
12    6  0.1647231E-007  0.1221339E+04  0.7818608E-02  0.9094380E-01
         -1   -1    0    0    0  501 -0.00000000000E+00  0.00000000000E+00  0.61636785687E+03  0.61636785687E+03  0.00000000000E+00 0.  1.
          2   -1    0    0  501    0  0.00000000000E+00 -0.00000000000E+00 -0.60502431508E+03  0.60502431508E+03  0.00000000000E+00 0. -1.
         24    2    1    2    0    0  0.21553993246E+03  0.12744925463E+02  0.16750620039E+03  0.28418251652E+03  0.77983843939E+02 0.  0.
        254    2    1    2    0    0 -0.21553993246E+03 -0.12744925463E+02 -0.15616265859E+03  0.93720965543E+03  0.89852950240E+03 0.  0.
         23    2    4    4    0    0  0.33462666808E+03  0.85569862636E+02 -0.61677811267E+02  0.36284916058E+03  0.92510283471E+02 0.  0.
         23    2    4    4    0    0 -0.55016660054E+03 -0.98314788099E+02 -0.94484847325E+02  0.57436049485E+03  0.92808974594E+02 0.  0.
          4    1    3    3  502    0  0.34311709836E+02  0.80000701729E+01  0.69922530084E+02  0.78297220691E+02  0.00000000000E+00 0. -1.
         -3    1    3    3    0  502  0.18122822263E+03  0.47448552903E+01  0.97583670306E+02  0.20588529583E+03  0.00000000000E+00 0.  1.
         11    1    5    5    0    0  0.11924217744E+03  0.69878336060E+02  0.18110226019E+00  0.13820894157E+03  0.00000000000E+00 0.  1.
        -11    1    5    5    0    0  0.21538449064E+03  0.15691526575E+02 -0.61858913528E+02  0.22464021901E+03  0.00000000000E+00 0. -1.
          1    1    6    6  503    0 -0.33077576397E+03 -0.28150561887E+02 -0.21208269523E+02  0.33264823893E+03  0.00000000000E+00 0. -1.
         -1    1    6    6    0  503 -0.21939083657E+03 -0.70164226212E+02 -0.73276577802E+02  0.24171225593E+03  0.00000000000E+00 0.  1.
<mgrwt>
<rscale>  0 0.12213395E+04</rscale>
<asrwt>0</asrwt>
<pdfrwt beam="1">  1        2 0.93080664E-01 0.12213395E+04</pdfrwt>
<pdfrwt beam="2">  1       -1 0.94825824E-01 0.12213395E+04</pdfrwt>
<totfact> 0.59477387E+01</totfact>
</mgrwt>
</event>
<event>
12    6  0.1647231E-007  0.1229592E+04  0.7818608E-02  0.9087342E-01
         -1   -1    0    0    0  501 -0.00000000000E+00  0.00000000000E+00  0.42704447304E+03  0.42704447304E+03  0.00000000000E+00 0.  1.
          2   -1    0    0  501    0  0.00000000000E+00 -0.00000000000E+00 -0.88509372217E+03  0.88509372217E+03  0.00000000000E+00 0. -1.
         24    2    1    2    0    0 -0.22976928805E+03 -0.43800104968E+02 -0.25545979372E+03  0.35502990706E+03  0.77936857602E+02 0.  0.
        254    2    1    2    0    0  0.22976928805E+03  0.43800104968E+02 -0.20258945540E+03  0.95710828815E+03  0.90570492595E+03 0.  0.
         23    2    4    4    0    0 -0.16624842836E+02 -0.17234540189E+03  0.29494313032E+03  0.35446458629E+03  0.93136297205E+02 0.  0.
         23    2    4    4    0    0  0.24639413088E+03  0.21614550686E+03 -0.49753258572E+03  0.60264370186E+03  0.90619035905E+02 0.  0.
          4    1    3    3  502    0 -0.14338954269E+03 -0.54414726758E+02 -0.19919572133E+03  0.25139701437E+03  0.00000000000E+00 0. -1.
         -3    1    3    3    0  502 -0.86379745360E+02  0.10614621789E+02 -0.56264072394E+02  0.10363289269E+03  0.00000000000E+00 0.  1.
         11    1    5    5    0    0  0.22011522447E+01  0.11082880611E+02  0.10144663987E+02  0.15185174390E+02  0.00000000000E+00 0.  1.
        -11    1    5    5    0    0 -0.18825995080E+02 -0.18342828250E+03  0.28479846633E+03  0.33927941190E+03  0.00000000000E+00 0. -1.
          4    1    6    6  503    0  0.11300400448E+03  0.56763772179E+02 -0.24389012266E+03  0.27472608684E+03  0.00000000000E+00 0. -1.
         -4    1    6    6    0  503  0.13339012641E+03  0.15938173468E+03 -0.25364246307E+03  0.32791761503E+03  0.00000000000E+00 0.  1.
<mgrwt>
<rscale>  0 0.12295924E+04</rscale>
<asrwt>0</asrwt>
<pdfrwt beam="1">  1        2 0.13616826E+00 0.12295924E+04</pdfrwt>
<pdfrwt beam="2">  1       -1 0.65699150E-01 0.12295924E+04</pdfrwt>
<totfact> 0.79233424E+01</totfact>
</mgrwt>
</event>
<event>
12    6  0.1647231E-007  0.1822981E+04  0.7818608E-02  0.8694173E-01
          2   -1    0    0  501    0  0.00000000000E+00  0.00000000000E+00  0.14938789956E+04  0.14938789956E+04  0.00000000000E+00 0. -1.
         -1   -1    0    0    0  501 -0.00000000000E+00 -0.00000000000E+00 -0.55614588014E+03  0.55614588014E+03  0.00000000000E+00 0.  1.
         24    2    1    2    0    0 -0.24063069805E+03 -0.34388008763E+03 -0.25449756281E+03  0.49749291173E+03  0.81077371913E+02 0.  0.
        254    2    1    2    0    0  0.24063069805E+03  0.34388008763E+03  0.11922306783E+04  0.15525319641E+04  0.90154581780E+03 0.  0.
         23    2    4    4    0    0  0.18261153267E+03  0.51543758980E+02 -0.91974706985E+02  0.23087015959E+03  0.94010387258E+02 0.  0.
         23    2    4    4    0    0  0.58019165383E+02  0.29233632865E+03  0.12842053853E+04  0.13216618045E+04  0.93700059469E+02 0.  0.
          4    1    3    3  502    0 -0.81298058386E+02 -0.56928317863E+02 -0.58523613586E+02  0.11521814536E+03  0.00000000000E+00 0. -1.
         -3    1    3    3    0  502 -0.15933263967E+03 -0.28695176977E+03 -0.19597394922E+03  0.38227476638E+03  0.00000000000E+00 0.  1.
         11    1    5    5    0    0  0.21597689439E+02 -0.18215741449E+02  0.74031845511E+01  0.29207542984E+02  0.00000000000E+00 0. -1.
        -11    1    5    5    0    0  0.16101384323E+03  0.69759500429E+02 -0.99377891536E+02  0.20166261661E+03  0.00000000000E+00 0.  1.
          4    1    6    6  503    0  0.26526372462E+02  0.17088044890E+03  0.54178165439E+03  0.56871006434E+03  0.00000000000E+00 0. -1.
         -4    1    6    6    0  503  0.31492792921E+02  0.12145587975E+03  0.74242373090E+03  0.75295174011E+03  0.00000000000E+00 0.  1.
<mgrwt>
<rscale>  0 0.18229807E+04</rscale>
<asrwt>0</asrwt>
<pdfrwt beam="1">  1        2 0.22982754E+00 0.18229807E+04</pdfrwt>
<pdfrwt beam="2">  1       -1 0.85560905E-01 0.18229807E+04</pdfrwt>
<totfact> 0.18543296E+01</totfact>
</mgrwt>
</event>
<event>
12    6  0.1647231E-007  0.3346318E+04  0.7818608E-02  0.8151209E-01
         -1   -1    0    0    0  501 -0.00000000000E+00  0.00000000000E+00  0.13093695339E+04  0.13093695339E+04  0.00000000000E+00 0.  1.
          2   -1    0    0  501    0  0.00000000000E+00 -0.00000000000E+00 -0.21380227157E+04  0.21380227157E+04  0.00000000000E+00 0. -1.
         24    2    1    2    0    0 -0.58462283236E+03 -0.76591512942E+00 -0.18668013420E+04  0.19579373184E+04  0.82382339394E+02 0.  0.
        254    2    1    2    0    0  0.58462283236E+03  0.76591512942E+00  0.10381481601E+04  0.14894549312E+04  0.89383440691E+03 0.  0.
         23    2    4    4    0    0  0.68863187329E+03  0.23212527355E+03  0.96294508185E+03  0.12098231762E+04  0.91175037204E+02 0.  0.
         23    2    4    4    0    0 -0.10400904093E+03 -0.23135935842E+03  0.75203078258E+02  0.27963175502E+03  0.90517302850E+02 0.  0.
          2    1    3    3  502    0 -0.53931435147E+03  0.24407204640E+01 -0.16326777514E+04  0.17194483321E+04  0.00000000000E+00 0. -1.
         -1    1    3    3    0  502 -0.45308480896E+02 -0.32066355935E+01 -0.23412359051E+03  0.23848898630E+03  0.00000000000E+00 0.  1.
         11    1    5    5    0    0  0.13015439661E+03  0.41995825279E+02  0.24494247646E+03  0.28053633111E+03  0.00000000000E+00 0. -1.
        -11    1    5    5    0    0  0.55847747668E+03  0.19012944827E+03  0.71800260539E+03  0.92928684506E+03  0.00000000000E+00 0.  1.
          1    1    6    6  503    0 -0.61972473227E+02 -0.42959644922E+02  0.11012821529E+02  0.76206303990E+02  0.00000000000E+00 0. -1.
         -1    1    6    6    0  503 -0.42036567704E+02 -0.18839971349E+03  0.64190256729E+02  0.20342545103E+03  0.00000000000E+00 0.  1.
<mgrwt>
<rscale>  0 0.33463185E+04</rscale>
<asrwt>0</asrwt>
<pdfrwt beam="1">  1        2 0.32892657E+00 0.33463185E+04</pdfrwt>
<pdfrwt beam="2">  1       -1 0.20144147E+00 0.33463185E+04</pdfrwt>
<totfact> 0.77869340E-01</totfact>
</mgrwt>
</event>
<event>
12    6  0.1647231E-007  0.1415453E+04  0.7818608E-02  0.8942708E-01
          2   -1    0    0  501    0  0.00000000000E+00  0.00000000000E+00  0.19966710693E+04  0.19966710693E+04  0.00000000000E+00 0. -1.
         -1   -1    0    0    0  501 -0.00000000000E+00 -0.00000000000E+00 -0.25085601776E+03  0.25085601776E+03  0.00000000000E+00 0.  1.
         24    2    1    2    0    0 -0.69532302962E+02  0.40503655290E+03  0.38977958664E+03  0.57053917638E+03  0.68538130113E+02 0.  0.
        254    2    1    2    0    0  0.69532302962E+02 -0.40503655290E+03  0.13560354649E+04  0.16769879107E+04  0.89697654385E+03 0.  0.
         23    2    4    4    0    0  0.24102681545E+03  0.21093718286E+03  0.36798017432E+03  0.49659055718E+03  0.92759645913E+02 0.  0.
         23    2    4    4    0    0 -0.17149451248E+03 -0.61597373576E+03  0.98805529060E+03  0.11803973535E+04  0.90833055624E+02 0.  0.
          4    1    3    3  502    0 -0.68065394623E+02  0.38251312333E+03  0.38596520324E+03  0.54764799422E+03  0.00000000000E+00 0. -1.
         -3    1    3    3    0  502 -0.14669083398E+01  0.22523429569E+02  0.38143833996E+01  0.22891182152E+02  0.00000000000E+00 0.  1.
         11    1    5    5    0    0  0.21667368212E+03  0.21873391634E+03  0.34020882172E+03  0.45883989916E+03  0.00000000000E+00 0. -1.
        -11    1    5    5    0    0  0.24353133328E+02 -0.77967334841E+01  0.27771352599E+02  0.37750658022E+02  0.00000000000E+00 0.  1.
          3    1    6    6  503    0 -0.16218706876E+03 -0.58802549245E+03  0.89745551384E+03  0.10851290358E+04  0.00000000000E+00 0. -1.
         -3    1    6    6    0  503 -0.93074437233E+01 -0.27948243312E+02  0.90599776759E+02  0.95268317723E+02  0.00000000000E+00 0.  1.
<mgrwt>
<rscale>  0 0.14154532E+04</rscale>
<asrwt>0</asrwt>
<pdfrwt beam="1">  1        2 0.30718015E+00 0.14154532E+04</pdfrwt>
<pdfrwt beam="2">  1       -1 0.38593235E-01 0.14154532E+04</pdfrwt>
<totfact> 0.48348699E+01</totfact>
</mgrwt>
</event>
<event>
12    6  0.1647231E-007  0.3231530E+04  0.7818608E-02  0.8180540E-01
         -1   -1    0    0    0  501 -0.00000000000E+00  0.00000000000E+00  0.11354996843E+04  0.11354996843E+04  0.00000000000E+00 0.  1.
          2   -1    0    0  501    0  0.00000000000E+00 -0.00000000000E+00 -0.22991605591E+04  0.22991605591E+04  0.00000000000E+00 0. -1.
         24    2    1    2    0    0 -0.64316736348E+03 -0.38188214158E+02 -0.19853544353E+04  0.20889075240E+04  0.82339619869E+02 0.  0.
        254    2    1    2    0    0  0.64316736348E+03  0.38188214158E+02  0.82169356048E+03  0.13457527194E+04  0.84896847834E+03 0.  0.
         23    2    4    4    0    0  0.74809137727E+03 -0.67355677660E+02  0.88144376472E+03  0.11615882094E+04  0.90369030812E+02 0.  0.
         23    2    4    4    0    0 -0.10492401379E+03  0.10554389182E+03 -0.59750204244E+02  0.18416450999E+03  0.90542355085E+02 0.  0.
          4    1    3    3  502    0 -0.34459795114E+03 -0.58630294270E+02 -0.11185096163E+04  0.11718570822E+04  0.00000000000E+00 0. -1.
         -3    1    3    3    0  502 -0.29856941235E+03  0.20442080112E+02 -0.86684481894E+03  0.91705044177E+03  0.00000000000E+00 0.  1.
         11    1    5    5    0    0  0.24435111344E+02 -0.18178459998E+02  0.46574307646E+02  0.55647975767E+02  0.00000000000E+00 0.  1.
        -11    1    5    5    0    0  0.72365626593E+03 -0.49177217662E+02  0.83486945708E+03  0.11059402336E+04  0.00000000000E+00 0. -1.
          3    1    6    6  503    0 -0.14613587328E+02  0.55631282739E+02  0.11647252001E+02  0.58686071882E+02  0.00000000000E+00 0. -1.
         -3    1    6    6    0  503 -0.90310426462E+02  0.49912609079E+02 -0.71397456245E+02  0.12547843811E+03  0.00000000000E+00 0.  1.
<mgrwt>
<rscale>  0 0.32315297E+04</rscale>
<asrwt>0</asrwt>
<pdfrwt beam="1">  1        2 0.35371701E+00 0.32315297E+04</pdfrwt>
<pdfrwt beam="2">  1       -1 0.17469226E+00 0.32315297E+04</pdfrwt>
<totfact> 0.98515139E-01</totfact>
</mgrwt>
</event>
<event>
12    6  0.1647231E-007  0.2244112E+04  0.7818608E-02  0.8500289E-01
         -1   -1    0    0    0  501 -0.00000000000E+00  0.00000000000E+00  0.20922764316E+04  0.20922764316E+04  0.00000000000E+00 0.  1.
          2   -1    0    0  501    0  0.00000000000E+00 -0.00000000000E+00 -0.60174140910E+03  0.60174140910E+03  0.00000000000E+00 0. -1.
         24    2    1    2    0    0 -0.26020562190E+03 -0.16687453621E+03 -0.43784037170E+03  0.54098340793E+03  0.73517209279E+02 0.  0.
        254    2    1    2    0    0  0.26020562190E+03  0.16687453621E+03  0.19283753942E+04  0.21530344328E+04  0.90629549888E+03 0.  0.
         23    2    4    4    0    0  0.11360945730E+03 -0.19273099174E+03  0.68096193884E+02  0.25051273350E+03  0.89817559868E+02 0.  0.
         23    2    4    4    0    0  0.14659616460E+03  0.35960552794E+03  0.18602792003E+04  0.19025216993E+04  0.90241575291E+02 0.  0.
          2    1    3    3  502    0 -0.26246366809E+03 -0.16821501424E+03 -0.43873280801E+03  0.53820994501E+03  0.00000000000E+00 0. -1.
         -1    1    3    3    0  502  0.22580461934E+01  0.13404780292E+01  0.89243631472E+00  0.27734629138E+01  0.00000000000E+00 0.  1.
         11    1    5    5    0    0  0.41102543930E+02 -0.23861445871E+02 -0.13541925776E+02  0.49418331319E+02  0.00000000000E+00 0. -1.
        -11    1    5    5    0    0  0.72506913368E+02 -0.16886954587E+03  0.81638119660E+02  0.20109440218E+03  0.00000000000E+00 0.  1.
          3    1    6    6  503    0  0.12419492011E+03  0.28213826412E+03  0.16200872912E+04  0.16491540891E+04  0.00000000000E+00 0. -1.
         -3    1    6    6    0  503  0.22401244489E+02  0.77467263823E+02  0.24019190907E+03  0.25336761021E+03  0.00000000000E+00 0.  1.
<mgrwt>
<rscale>  0 0.22441117E+04</rscale>
<asrwt>0</asrwt>
<pdfrwt beam="1">  1        2 0.92575602E-01 0.22441117E+04</pdfrwt>
<pdfrwt beam="2">  1       -1 0.32188868E+00 0.22441117E+04</pdfrwt>
<totfact> 0.12229714E+00</totfact>
</mgrwt>
</event>
<event>
12    6  0.1647231E-007  0.1536628E+04  0.7818608E-02  0.8860455E-01
         -1   -1    0    0    0  501 -0.00000000000E+00  0.00000000000E+00  0.75897617644E+03  0.75897617644E+03  0.00000000000E+00 0.  1.
          2   -1    0    0  501    0  0.00000000000E+00 -0.00000000000E+00 -0.77776641623E+03  0.77776641623E+03  0.00000000000E+00 0. -1.
         24    2    1    2    0    0  0.46359467956E+03  0.37181570637E+02 -0.38083248179E+02  0.47502106179E+03  0.88837938087E+02 0.  0.
        254    2    1    2    0    0 -0.46359467956E+03 -0.37181570637E+02  0.19293008391E+02  0.10617215309E+04  0.95424205150E+03 0.  0.
         23    2    4    4    0    0 -0.24433625349E+03 -0.96127465524E+02 -0.45245802130E+03  0.53058064272E+03  0.88638947415E+02 0.  0.
         23    2    4    4    0    0 -0.21925842607E+03  0.58945894887E+02  0.47175102969E+03  0.53114088816E+03  0.89513871168E+02 0.  0.
          4    1    3    3  502    0  0.40430259187E+03  0.28348231638E+02 -0.24875994339E+01  0.40530284502E+03  0.00000000000E+00 0. -1.
         -3    1    3    3    0  502  0.59292087691E+02  0.88333389983E+01 -0.35595648745E+02  0.69718216775E+02  0.00000000000E+00 0.  1.
         11    1    5    5    0    0 -0.12725491439E+03 -0.44531432584E+01 -0.18542605674E+03  0.22493658271E+03  0.00000000000E+00 0. -1.
        -11    1    5    5    0    0 -0.11708133910E+03 -0.91674322266E+02 -0.26703196456E+03  0.30564406001E+03  0.00000000000E+00 0.  1.
          1    1    6    6  503    0  0.39088591788E+01 -0.97148926369E+01  0.23335604609E+02  0.25577504990E+02  0.00000000000E+00 0. -1.
         -1    1    6    6    0  503 -0.22316728525E+03  0.68660787524E+02  0.44841542508E+03  0.50556338317E+03  0.00000000000E+00 0.  1.
<mgrwt>
<rscale>  0 0.15366277E+04</rscale>
<asrwt>0</asrwt>
<pdfrwt beam="1">  1        2 0.11965637E+00 0.15366277E+04</pdfrwt>
<pdfrwt beam="2">  1       -1 0.11676557E+00 0.15366277E+04</pdfrwt>
<totfact> 0.26037004E+01</totfact>
</mgrwt>
</event>
<event>
12    6  0.1647231E-007  0.1778535E+04  0.7818608E-02  0.8717799E-01
          2   -1    0    0  501    0  0.00000000000E+00  0.00000000000E+00  0.18796436820E+04  0.18796436820E+04  0.00000000000E+00 0. -1.
         -1   -1    0    0    0  501 -0.00000000000E+00 -0.00000000000E+00 -0.42071607773E+03  0.42071607773E+03  0.00000000000E+00 0.  1.
         24    2    1    2    0    0  0.56732728928E+03 -0.30802651285E+03  0.71002729338E+03  0.96293874128E+03  0.79822780749E+02 0.  0.
        254    2    1    2    0    0 -0.56732728928E+03  0.30802651285E+03  0.74890031085E+03  0.13374210184E+04  0.90061241336E+03 0.  0.
         23    2    4    4    0    0 -0.46047561103E+03  0.89430276814E+02  0.91329827942E+03  0.10303977263E+04  0.87006691350E+02 0.  0.
         23    2    4    4    0    0 -0.10685167825E+03  0.21859623604E+03 -0.16439796858E+03  0.30702329213E+03  0.89638241205E+02 0.  0.
          2    1    3    3  502    0  0.89632639161E+02 -0.63930977307E+02  0.83824093233E+02  0.13837506448E+03  0.00000000000E+00 0. -1.
         -1    1    3    3    0  502  0.47769465011E+03 -0.24409553554E+03  0.62620320015E+03  0.82456367680E+03  0.00000000000E+00 0.  1.
         11    1    5    5    0    0 -0.31408690629E+02  0.26186036343E+02  0.11242155325E+03  0.11962783949E+03  0.00000000000E+00 0.  1.
        -11    1    5    5    0    0 -0.42906692040E+03  0.63244240471E+02  0.80087672618E+03  0.91076988678E+03  0.00000000000E+00 0. -1.
          2    1    6    6  503    0 -0.55106451662E+02  0.19208717232E+03 -0.13986504695E+03  0.24391890895E+03  0.00000000000E+00 0.  1.
         -2    1    6    6    0  503 -0.51745226587E+02  0.26509063718E+02 -0.24532921630E+02  0.63104383188E+02  0.00000000000E+00 0. -1.
<mgrwt>
<rscale>  0 0.17785346E+04</rscale>
<asrwt>0</asrwt>
<pdfrwt beam="1">  1        2 0.28917595E+00 0.17785346E+04</pdfrwt>
<pdfrwt beam="2">  1       -1 0.64725551E-01 0.17785346E+04</pdfrwt>
<totfact> 0.20315816E+01</totfact>
</mgrwt>
</event>
<event>
12    6  0.1647231E-007  0.4243848E+04  0.7818608E-02  0.7957084E-01
          2   -1    0    0  501    0  0.00000000000E+00  0.00000000000E+00  0.37969688206E+04  0.37969688206E+04  0.00000000000E+00 0. -1.
         -1   -1    0    0    0  501 -0.00000000000E+00 -0.00000000000E+00 -0.11858303267E+04  0.11858303267E+04  0.00000000000E+00 0.  1.
         24    2    1    2    0    0 -0.11563142388E+04  0.15688644758E+04  0.59659589714E+03  0.20398652630E+04  0.82007709817E+02 0.  0.
        254    2    1    2    0    0  0.11563142388E+04 -0.15688644758E+04  0.20145425968E+04  0.29429338843E+04  0.89670486240E+03 0.  0.
         23    2    4    4    0    0  0.12883068269E+04 -0.12984843013E+04  0.17053463479E+04  0.25021520044E+04  0.82234579437E+02 0.  0.
         23    2    4    4    0    0 -0.13199258807E+03 -0.27038017454E+03  0.30919624892E+03  0.44078187982E+03  0.90326425491E+02 0.  0.
          4    1    3    3  502    0 -0.23105701556E+03  0.35462637145E+03  0.15411294366E+03  0.45044201310E+03  0.00000000000E+00 0. -1.
         -3    1    3    3    0  502 -0.92525722326E+03  0.12142381044E+04  0.44248295348E+03  0.15894232499E+04  0.00000000000E+00 0.  1.
         11    1    5    5    0    0  0.27571578045E+03 -0.23154821907E+03  0.33365069942E+03  0.49087326121E+03  0.00000000000E+00 0.  1.
        -11    1    5    5    0    0  0.10125910464E+04 -0.10669360822E+04  0.13716956485E+04  0.20112787432E+04  0.00000000000E+00 0. -1.
          4    1    6    6  503    0 -0.71378445749E+02 -0.21484631643E+03  0.26092451549E+03  0.34544959833E+03  0.00000000000E+00 0. -1.
         -4    1    6    6    0  503 -0.60614142326E+02 -0.55533858108E+02  0.48271733431E+02  0.95332281493E+02  0.00000000000E+00 0.  1.
<mgrwt>
<rscale>  0 0.42438477E+04</rscale>
<asrwt>0</asrwt>
<pdfrwt beam="1">  1        2 0.58414904E+00 0.42438477E+04</pdfrwt>
<pdfrwt beam="2">  1       -1 0.18243544E+00 0.42438477E+04</pdfrwt>
<totfact> 0.86363407E-02</totfact>
</mgrwt>
</event>
<event>
12    6  0.1647231E-007  0.4572026E+04  0.7818608E-02  0.7898147E-01
          2   -1    0    0  501    0  0.00000000000E+00  0.00000000000E+00  0.26986063707E+04  0.26986063707E+04  0.00000000000E+00 0. -1.
         -1   -1    0    0    0  501 -0.00000000000E+00 -0.00000000000E+00 -0.19365015427E+04  0.19365015427E+04  0.00000000000E+00 0.  1.
         24    2    1    2    0    0 -0.17961537404E+04  0.12356247192E+04  0.63368967775E+03  0.22716734327E+04  0.77465288968E+02 0.  0.
        254    2    1    2    0    0  0.17961537404E+04 -0.12356247192E+04  0.12841515030E+03  0.23634344808E+04  0.90354600770E+03 0.  0.
         23    2    4    4    0    0  0.10844675613E+04 -0.73610049555E+03 -0.35864981024E+03  0.13619650330E+04  0.91680062423E+02 0.  0.
         23    2    4    4    0    0  0.71168617912E+03 -0.49952422369E+03  0.48706496054E+03  0.10014694477E+04  0.98423123772E+02 0.  0.
          2    1    3    3  502    0 -0.10604610226E+04  0.70750614495E+03  0.33546198906E+03  0.13182098739E+04  0.00000000000E+00 0. -1.
         -1    1    3    3    0  502 -0.73569271778E+03  0.52811857429E+03  0.29822768869E+03  0.95346355872E+03  0.00000000000E+00 0.  1.
         11    1    5    5    0    0  0.10110535889E+03 -0.45542238395E+02 -0.48097896043E+02  0.12087099188E+03  0.00000000000E+00 0. -1.
        -11    1    5    5    0    0  0.98336220239E+03 -0.69055825715E+03 -0.31055191420E+03  0.12410940412E+04  0.00000000000E+00 0.  1.
          4    1    6    6  503    0  0.45311373570E+03 -0.37265962553E+03  0.31320815520E+03  0.66504631603E+03  0.00000000000E+00 0.  1.
         -4    1    6    6    0  503  0.25857244342E+03 -0.12686459816E+03  0.17385680534E+03  0.33642313168E+03  0.00000000000E+00 0. -1.
<mgrwt>
<rscale>  0 0.45720260E+04</rscale>
<asrwt>0</asrwt>
<pdfrwt beam="1">  1        2 0.41517021E+00 0.45720260E+04</pdfrwt>
<pdfrwt beam="2">  1       -1 0.29792331E+00 0.45720260E+04</pdfrwt>
<totfact> 0.77604125E-02</totfact>
</mgrwt>
</event>
<event>
12    6  0.1647231E-007  0.2344064E+04  0.7818608E-02  0.8460747E-01
          2   -1    0    0  501    0  0.00000000000E+00  0.00000000000E+00  0.25812402627E+04  0.25812402627E+04  0.00000000000E+00 0. -1.
         -1   -1    0    0    0  501 -0.00000000000E+00 -0.00000000000E+00 -0.53217024513E+03  0.53217024513E+03  0.00000000000E+00 0.  1.
         24    2    1    2    0    0  0.84671833189E+03 -0.47616450637E+03  0.11965479582E+04  0.15442392158E+04  0.96349201396E+02 0.  0.
        254    2    1    2    0    0 -0.84671833189E+03  0.47616450637E+03  0.85252205931E+03  0.15691712920E+04  0.88985398316E+03 0.  0.
         23    2    4    4    0    0 -0.68924186484E+03  0.16984801501E+03  0.81585089712E+02  0.72042610991E+03  0.91950837579E+02 0.  0.
         23    2    4    4    0    0 -0.15747646705E+03  0.30631649136E+03  0.77093696960E+03  0.84874518209E+03  0.85999665539E+02 0.  0.
          2    1    3    3  502    0  0.49948953021E+03 -0.22739065438E+03  0.65626823562E+03  0.85550236561E+03  0.00000000000E+00 0. -1.
         -1    1    3    3    0  502  0.34722880168E+03 -0.24877385199E+03  0.54027972260E+03  0.68873685019E+03  0.00000000000E+00 0.  1.
         11    1    5    5    0    0 -0.44367998047E+03  0.12155058403E+03  0.95252915430E+02  0.46978674677E+03  0.00000000000E+00 0. -1.
        -11    1    5    5    0    0 -0.24556188437E+03  0.48297430979E+02 -0.13667825718E+02  0.25063936314E+03  0.00000000000E+00 0.  1.
          3    1    6    6  503    0 -0.42821781015E+02  0.16543667399E+03  0.32391297219E+03  0.36622754072E+03  0.00000000000E+00 0. -1.
         -3    1    6    6    0  503 -0.11465468603E+03  0.14087981737E+03  0.44702399741E+03  0.48251764137E+03  0.00000000000E+00 0.  1.
<mgrwt>
<rscale>  0 0.23440642E+04</rscale>
<asrwt>0</asrwt>
<pdfrwt beam="1">  1        2 0.39711388E+00 0.23440642E+04</pdfrwt>
<pdfrwt beam="2">  1       -1 0.81872347E-01 0.23440642E+04</pdfrwt>
<totfact> 0.47621953E+00</totfact>
</mgrwt>
</event>
<event>
12    6  0.1647231E-007  0.2423562E+04  0.7818608E-02  0.8430735E-01
          2   -1    0    0  501    0  0.00000000000E+00  0.00000000000E+00  0.25446636831E+04  0.25446636831E+04  0.00000000000E+00 0. -1.
         -1   -1    0    0    0  501 -0.00000000000E+00 -0.00000000000E+00 -0.57705604325E+03  0.57705604325E+03  0.00000000000E+00 0.  1.
         24    2    1    2    0    0  0.73071174907E+03 -0.22574654954E+02  0.17926045284E+04  0.19376235957E+04  0.80653135557E+02 0.  0.
        254    2    1    2    0    0 -0.73071174907E+03  0.22574654954E+02  0.17500311149E+03  0.11840961306E+04  0.91488156737E+03 0.  0.
         23    2    4    4    0    0  0.84858346808E+01  0.26737757960E+03 -0.16772849877E+03  0.32846085866E+03  0.90503629276E+02 0.  0.
         23    2    4    4    0    0 -0.73919758375E+03 -0.24480292464E+03  0.34273161026E+03  0.85563527199E+03  0.91132992182E+02 0.  0.
          2    1    3    3  502    0  0.37443593367E+03 -0.33439829509E+02  0.83071810191E+03  0.91181854305E+03  0.00000000000E+00 0. -1.
         -1    1    3    3    0  502  0.35627581540E+03  0.10865174555E+02  0.96188642649E+03  0.10258050527E+04  0.00000000000E+00 0.  1.
         11    1    5    5    0    0 -0.13202440585E+02  0.24576483124E+03 -0.16773615263E+03  0.29784236369E+03  0.00000000000E+00 0.  1.
        -11    1    5    5    0    0  0.21688275265E+02  0.21612748355E+02  0.76538601269E-02  0.30618494967E+02  0.00000000000E+00 0. -1.
          3    1    6    6  503    0 -0.26925062859E+03 -0.13585232970E+03  0.13251148776E+03  0.32941015599E+03  0.00000000000E+00 0. -1.
         -3    1    6    6    0  503 -0.46994695516E+03 -0.10895059494E+03  0.21022012250E+03  0.52622511600E+03  0.00000000000E+00 0.  1.
<mgrwt>
<rscale>  0 0.24235623E+04</rscale>
<asrwt>0</asrwt>
<pdfrwt beam="1">  1        2 0.39148671E+00 0.24235623E+04</pdfrwt>
<pdfrwt beam="2">  1       -1 0.88777854E-01 0.24235623E+04</pdfrwt>
<totfact> 0.41669296E+00</totfact>
</mgrwt>
</event>
<event>
12    6  0.1647231E-007  0.1579689E+04  0.7818608E-02  0.8833124E-01
         -1   -1    0    0    0  501 -0.00000000000E+00  0.00000000000E+00  0.29247497944E+03  0.29247497944E+03  0.00000000000E+00 0.  1.
          2   -1    0    0  501    0  0.00000000000E+00 -0.00000000000E+00 -0.21330169366E+04  0.21330169366E+04  0.00000000000E+00 0. -1.
         24    2    1    2    0    0 -0.46942781652E+03 -0.16890924136E+03 -0.34041466904E+03  0.60897738981E+03  0.77964784726E+02 0.  0.
        254    2    1    2    0    0  0.46942781652E+03  0.16890924136E+03 -0.15001272881E+04  0.18165145263E+04  0.89467890148E+03 0.  0.
         23    2    4    4    0    0  0.31721730407E+03 -0.34043476778E+03 -0.57146689336E+03  0.74259373630E+03  0.91369567541E+02 0.  0.
         23    2    4    4    0    0  0.15221051245E+03  0.50934400914E+03 -0.92866039477E+03  0.10739207900E+04  0.91084436326E+02 0.  0.
          4    1    3    3  502    0 -0.12841336468E+03 -0.11956532542E+02 -0.99950745012E+02  0.16316587366E+03  0.00000000000E+00 0. -1.
         -3    1    3    3    0  502 -0.34101445184E+03 -0.15695270882E+03 -0.24046392403E+03  0.44581151615E+03  0.00000000000E+00 0.  1.
         11    1    5    5    0    0  0.13312201172E+03 -0.18567339752E+03 -0.22354732943E+03  0.31963962371E+03  0.00000000000E+00 0. -1.
        -11    1    5    5    0    0  0.18409529234E+03 -0.15476137025E+03 -0.34791956393E+03  0.42295411259E+03  0.00000000000E+00 0.  1.
          2    1    6    6  503    0  0.81302818041E+02  0.13094870363E+03 -0.27986158711E+03  0.31949995171E+03  0.00000000000E+00 0. -1.
         -2    1    6    6    0  503  0.70907694412E+02  0.37839530551E+03 -0.64879880766E+03  0.75442083825E+03  0.00000000000E+00 0.  1.
<mgrwt>
<rscale>  0 0.15796887E+04</rscale>
<asrwt>0</asrwt>
<pdfrwt beam="1">  1        2 0.32815647E+00 0.15796887E+04</pdfrwt>
<pdfrwt beam="2">  1       -1 0.44996149E-01 0.15796887E+04</pdfrwt>
<totfact> 0.30189670E+01</totfact>
</mgrwt>
</event>
<event>
12    6  0.1647231E-007  0.2288378E+04  0.7818608E-02  0.8482518E-01
          2   -1    0    0  501    0  0.00000000000E+00  0.00000000000E+00  0.98426417103E+03  0.98426417103E+03  0.00000000000E+00 0. -1.
         -1   -1    0    0    0  501 -0.00000000000E+00 -0.00000000000E+00 -0.13300981680E+04  0.13300981680E+04  0.00000000000E+00 0.  1.
         24    2    1    2    0    0  0.94004085799E+03  0.85227072266E+02  0.40117552497E+02  0.94984380436E+03  0.98251545135E+02 0.  0.
        254    2    1    2    0    0 -0.94004085799E+03 -0.85227072266E+02 -0.38595154946E+03  0.13645185347E+04  0.90664864438E+03 0.  0.
         23    2    4    4    0    0 -0.76361225821E+03 -0.30603124941E+03  0.58490287216E+02  0.82998946022E+03  0.93287640478E+02 0.  0.
         23    2    4    4    0    0 -0.17642859978E+03  0.22080417714E+03 -0.44444183668E+03  0.53452907444E+03  0.91166056011E+02 0.  0.
          4    1    3    3  502    0  0.40261181629E+03  0.68235309023E+02  0.54373350163E+02  0.41195727112E+03  0.00000000000E+00 0. -1.
         -3    1    3    3    0  502  0.53742904170E+03  0.16991763242E+02 -0.14255797666E+02  0.53788653325E+03  0.00000000000E+00 0.  1.
         11    1    5    5    0    0 -0.86562775994E+02 -0.59259067134E+02 -0.13562886005E+02  0.10577666615E+03  0.00000000000E+00 0. -1.
        -11    1    5    5    0    0 -0.67704948222E+03 -0.24677218227E+03  0.72053173221E+02  0.72421279407E+03  0.00000000000E+00 0.  1.
          3    1    6    6  503    0 -0.45789581414E+02  0.40773480039E+02 -0.40771565973E+02  0.73630720711E+02  0.00000000000E+00 0. -1.
         -3    1    6    6    0  503 -0.13063901837E+03  0.18003069710E+03 -0.40367027070E+03  0.46089835373E+03  0.00000000000E+00 0.  1.
<mgrwt>
<rscale>  0 0.22883776E+04</rscale>
<asrwt>0</asrwt>
<pdfrwt beam="1">  1        2 0.15142526E+00 0.22883776E+04</pdfrwt>
<pdfrwt beam="2">  1       -1 0.20463049E+00 0.22883776E+04</pdfrwt>
<totfact> 0.37320331E+00</totfact>
</mgrwt>
</event>
<event>
12    6  0.1647231E-007  0.1207307E+04  0.7818608E-02  0.9106484E-01
          2   -1    0    0  501    0  0.00000000000E+00  0.00000000000E+00  0.47970492328E+03  0.47970492328E+03  0.00000000000E+00 0. -1.
         -1   -1    0    0    0  501 -0.00000000000E+00 -0.00000000000E+00 -0.75962880978E+03  0.75962880978E+03  0.00000000000E+00 0.  1.
         24    2    1    2    0    0 -0.16411392249E+02  0.19277213061E+03 -0.22216258560E+03  0.30541977464E+03  0.80589057355E+02 0.  0.
        254    2    1    2    0    0  0.16411392249E+02 -0.19277213061E+03 -0.57761300898E+02  0.93391395843E+03  0.91182700428E+03 0.  0.
         23    2    4    4    0    0  0.45283084921E+02 -0.53011541532E+03 -0.17068019473E+03  0.56563437810E+03  0.87963682749E+02 0.  0.
         23    2    4    4    0    0 -0.28871692672E+02  0.33734328471E+03  0.11291889384E+03  0.36827958032E+03  0.90802567819E+02 0.  0.
          2    1    3    3  502    0  0.80424106385E+00  0.98212487754E+02 -0.54925072308E+02  0.11253045420E+03  0.00000000000E+00 0. -1.
         -1    1    3    3    0  502 -0.17215633313E+02  0.94559642853E+02 -0.16723751329E+03  0.19288932044E+03  0.00000000000E+00 0.  1.
         11    1    5    5    0    0  0.22646175419E+02 -0.38386391085E+02  0.19747332149E+00  0.44569084323E+02  0.00000000000E+00 0. -1.
        -11    1    5    5    0    0  0.22636909502E+02 -0.49172902423E+03 -0.17087766806E+03  0.52106529378E+03  0.00000000000E+00 0.  1.
          2    1    6    6  503    0 -0.51170824108E+02  0.20843811744E+03  0.10013317894E+03  0.23683655876E+03  0.00000000000E+00 0. -1.
         -2    1    6    6    0  503  0.22299131436E+02  0.12890516727E+03  0.12785714894E+02  0.13144302156E+03  0.00000000000E+00 0.  1.
<mgrwt>
<rscale>  0 0.12073072E+04</rscale>
<asrwt>0</asrwt>
<pdfrwt beam="1">  1        2 0.73800758E-01 0.12073072E+04</pdfrwt>
<pdfrwt beam="2">  1       -1 0.11686597E+00 0.12073072E+04</pdfrwt>
<totfact> 0.48149082E+01</totfact>
</mgrwt>
</event>
<event>
12    6  0.1647231E-007  0.1427643E+04  0.7818608E-02  0.8934048E-01
          2   -1    0    0  501    0  0.00000000000E+00  0.00000000000E+00  0.28610793971E+04  0.28610793971E+04  0.00000000000E+00 0. -1.
         -1   -1    0    0    0  501 -0.00000000000E+00 -0.00000000000E+00 -0.17809412592E+03  0.17809412592E+03  0.00000000000E+00 0.  1.
         24    2    1    2    0    0  0.38615957791E+02  0.43108940875E+03  0.85872691777E+03  0.96488126131E+03  0.79086399578E+02 0.  0.
        254    2    1    2    0    0 -0.38615957791E+02 -0.43108940875E+03  0.18242583534E+04  0.20742922617E+04  0.88737848548E+03 0.  0.
         23    2    4    4    0    0  0.35749821046E+03 -0.83341358005E+02  0.38757154494E+03  0.54104246329E+03  0.88116356032E+02 0.  0.
         23    2    4    4    0    0 -0.39611416825E+03 -0.34774805074E+03  0.14366868085E+04  0.15332497984E+04  0.94608760950E+02 0.  0.
          4    1    3    3  502    0  0.11327421809E+02  0.31345939815E+03  0.68397532512E+03  0.75246750770E+03  0.00000000000E+00 0. -1.
         -1    1    3    3    0  502  0.27288535981E+02  0.11763001060E+03  0.17475159265E+03  0.21241375361E+03  0.00000000000E+00 0.  1.
         11    1    5    5    0    0 -0.38288922846E+01 -0.11513914418E+00 -0.98750880363E+00  0.39558623317E+01  0.00000000000E+00 0.  1.
        -11    1    5    5    0    0  0.36132710275E+03 -0.83226218861E+02  0.38855905375E+03  0.53708660096E+03  0.00000000000E+00 0. -1.
          1    1    6    6  503    0 -0.37750221226E+03 -0.33167256827E+03  0.12882234864E+04  0.13827633072E+04  0.00000000000E+00 0. -1.
         -1    1    6    6    0  503 -0.18611955990E+02 -0.16075482474E+02  0.14846332210E+03  0.15048649126E+03  0.00000000000E+00 0.  1.
<mgrwt>
<rscale>  0 0.14276434E+04</rscale>
<asrwt>0</asrwt>
<pdfrwt beam="1">  1        2 0.44016603E+00 0.14276434E+04</pdfrwt>
<pdfrwt beam="2">  1       -1 0.27399098E-01 0.14276434E+04</pdfrwt>
<totfact> 0.28270941E+01</totfact>
</mgrwt>
</event>
<event>
12    6  0.1647231E-007  0.1136695E+04  0.7818608E-02  0.9170146E-01
          4   -1    0    0  501    0  0.00000000000E+00  0.00000000000E+00  0.27130838967E+03  0.27130838967E+03  0.00000000000E+00 0. -1.
         -3   -1    0    0    0  501 -0.00000000000E+00 -0.00000000000E+00 -0.11905974525E+04  0.11905974525E+04  0.00000000000E+00 0.  1.
         24    2    1    2    0    0 -0.21170165463E+03  0.66542100781E+02 -0.21810974228E+03  0.32132712568E+03  0.80211098189E+02 0.  0.
        254    2    1    2    0    0  0.21170165463E+03 -0.66542100781E+02 -0.70117932059E+03  0.11405787165E+04  0.87179236475E+03 0.  0.
         23    2    4    4    0    0  0.11201828661E+03  0.64191198248E+02 -0.87215366702E+03  0.88629079566E+03  0.90502757446E+02 0.  0.
         23    2    4    4    0    0  0.99683368019E+02 -0.13073329903E+03  0.17097434642E+03  0.25428792088E+03  0.91663243648E+02 0.  0.
          2    1    3    3  502    0 -0.55575352676E+02  0.46166455392E+02 -0.36428221362E+02  0.80913390364E+02  0.00000000000E+00 0. -1.
         -1    1    3    3    0  502 -0.15612630195E+03  0.20375645389E+02 -0.18168152092E+03  0.24041373532E+03  0.00000000000E+00 0.  1.
         11    1    5    5    0    0  0.84481359246E+02  0.92915816083E+01 -0.65922256123E+03  0.66467873351E+03  0.00000000000E+00 0.  1.
        -11    1    5    5    0    0  0.27536927360E+02  0.54899616640E+02 -0.21293110579E+03  0.22161206215E+03  0.00000000000E+00 0. -1.
          3    1    6    6  503    0  0.53417652030E+02 -0.30279513630E+02  0.11492531666E+03  0.13030012626E+03  0.00000000000E+00 0. -1.
         -3    1    6    6    0  503  0.46265715989E+02 -0.10045378540E+03  0.56049029761E+02  0.12398779462E+03  0.00000000000E+00 0.  1.
<mgrwt>
<rscale>  0 0.11366953E+04</rscale>
<asrwt>0</asrwt>
<pdfrwt beam="1">  1        4 0.41739752E-01 0.11366953E+04</pdfrwt>
<pdfrwt beam="2">  1       -3 0.18316884E+00 0.11366953E+04</pdfrwt>
<totfact> 0.23889711E+00</totfact>
</mgrwt>
</event>
<event>
12    6  0.1647231E-007  0.1320892E+04  0.7818608E-02  0.9013160E-01
         -1   -1    0    0    0  501 -0.00000000000E+00  0.00000000000E+00  0.36333333810E+03  0.36333333810E+03  0.00000000000E+00 0.  1.
          2   -1    0    0  501    0  0.00000000000E+00 -0.00000000000E+00 -0.12005203688E+04  0.12005203688E+04  0.00000000000E+00 0. -1.
         24    2    1    2    0    0 -0.29347025356E+03 -0.14192760399E+03 -0.18689288440E+03  0.38411590337E+03  0.79673348636E+02 0.  0.
        254    2    1    2    0    0  0.29347025356E+03  0.14192760399E+03 -0.65029414633E+03  0.11797378036E+04  0.92877907702E+03 0.  0.
         23    2    4    4    0    0  0.49420078301E+03 -0.21789270613E+03 -0.26441704049E+03  0.60783989156E+03  0.88551212074E+02 0.  0.
         23    2    4    4    0    0 -0.20073052945E+03  0.35982031012E+03 -0.38587710584E+03  0.57189791200E+03  0.91666132852E+02 0.  0.
          2    1    3    3  502    0 -0.92610840581E+02 -0.80761275878E+02 -0.93040227509E+02  0.15412863267E+03  0.00000000000E+00 0. -1.
         -1    1    3    3    0  502 -0.20085941298E+03 -0.61166328112E+02 -0.93852656892E+02  0.22998727070E+03  0.00000000000E+00 0.  1.
         11    1    5    5    0    0  0.35187637704E+03 -0.12745932225E+03 -0.14567486098E+03  0.40160182852E+03  0.00000000000E+00 0.  1.
        -11    1    5    5    0    0  0.14232440598E+03 -0.90433383874E+02 -0.11874217950E+03  0.20623806305E+03  0.00000000000E+00 0. -1.
          4    1    6    6  503    0  0.68242565669E+01  0.41372840441E+01 -0.67396512882E+00  0.80088592163E+01  0.00000000000E+00 0. -1.
         -4    1    6    6    0  503 -0.20755478602E+03  0.35568302607E+03 -0.38520314071E+03  0.56388905278E+03  0.00000000000E+00 0.  1.
<mgrwt>
<rscale>  0 0.13208922E+04</rscale>
<asrwt>0</asrwt>
<pdfrwt beam="1">  1        2 0.18469544E+00 0.13208922E+04</pdfrwt>
<pdfrwt beam="2">  1       -1 0.55897437E-01 0.13208922E+04</pdfrwt>
<totfact> 0.68372093E+01</totfact>
</mgrwt>
</event>
<event>
12    6  0.1647231E-007  0.2163191E+04  0.7818608E-02  0.8533907E-01
         -1   -1    0    0    0  501 -0.00000000000E+00  0.00000000000E+00  0.17304289575E+04  0.17304289575E+04  0.00000000000E+00 0.  1.
          2   -1    0    0  501    0  0.00000000000E+00 -0.00000000000E+00 -0.67604555007E+03  0.67604555007E+03  0.00000000000E+00 0. -1.
         24    2    1    2    0    0  0.37164160353E+03 -0.70741586876E+03  0.87781801101E+03  0.11910068771E+04  0.96841251057E+02 0.  0.
        254    2    1    2    0    0 -0.37164160353E+03  0.70741586876E+03  0.17656539638E+03  0.12154676305E+04  0.89868321932E+03 0.  0.
         23    2    4    4    0    0 -0.51557507562E+03  0.14935916199E+03 -0.12458823914E+03  0.55869123112E+03  0.92129498680E+02 0.  0.
         23    2    4    4    0    0  0.14393347209E+03  0.55805670677E+03  0.30115363552E+03  0.65677639935E+03  0.92290813223E+02 0.  0.
          2    1    3    3  502    0  0.21147358223E+02 -0.46413973735E+02  0.97031308853E+02  0.10961999186E+03  0.00000000000E+00 0. -1.
         -1    1    3    3    0  502  0.35049424531E+03 -0.66100189502E+03  0.78078670216E+03  0.10813868852E+04  0.00000000000E+00 0.  1.
         11    1    5    5    0    0 -0.51800280636E+03  0.14236247066E+03 -0.12322391661E+03  0.55116069714E+03  0.00000000000E+00 0. -1.
        -11    1    5    5    0    0  0.24277307364E+01  0.69966913275E+01 -0.13643225242E+01  0.75305339791E+01  0.00000000000E+00 0.  1.
          4    1    6    6  503    0  0.70297375332E+02  0.41923650053E+03  0.19911141097E+03  0.46941060740E+03  0.00000000000E+00 0. -1.
         -4    1    6    6    0  503  0.73636096761E+02  0.13882020623E+03  0.10204222454E+03  0.18736579195E+03  0.00000000000E+00 0.  1.
<mgrwt>
<rscale>  0 0.21631910E+04</rscale>
<asrwt>0</asrwt>
<pdfrwt beam="1">  1        2 0.10400701E+00 0.21631910E+04</pdfrwt>
<pdfrwt beam="2">  1       -1 0.26621984E+00 0.21631910E+04</pdfrwt>
<totfact> 0.24495075E+00</totfact>
</mgrwt>
</event>
<event>
12    6  0.1647231E-007  0.2212209E+04  0.7818608E-02  0.8513364E-01
          2   -1    0    0  501    0  0.00000000000E+00  0.00000000000E+00  0.18538097249E+04  0.18538097249E+04  0.00000000000E+00 0. -1.
         -1   -1    0    0    0  501 -0.00000000000E+00 -0.00000000000E+00 -0.65997445914E+03  0.65997445914E+03  0.00000000000E+00 0.  1.
         24    2    1    2    0    0 -0.60382692991E+02  0.91249403323E+03  0.55326079498E+03  0.10719074687E+04  0.81219972749E+02 0.  0.
        254    2    1    2    0    0  0.60382692991E+02 -0.91249403323E+03  0.64057447078E+03  0.14418767153E+04  0.91234937345E+03 0.  0.
         23    2    4    4    0    0 -0.40488496704E+03 -0.31335622710E+03  0.33810712850E+03  0.62045650242E+03  0.92335688957E+02 0.  0.
         23    2    4    4    0    0  0.46526766003E+03 -0.59913780613E+03  0.30246734228E+03  0.82142021289E+03  0.88343459270E+02 0.  0.
          2    1    3    3  502    0 -0.34631930195E+02  0.59199100493E+03  0.31312681075E+03  0.67059758433E+03  0.00000000000E+00 0. -1.
         -1    1    3    3    0  502 -0.25750762796E+02  0.32050302831E+03  0.24013398423E+03  0.40130988440E+03  0.00000000000E+00 0.  1.
         11    1    5    5    0    0 -0.35020025259E+03 -0.23057628834E+03  0.25275048471E+03  0.48957987007E+03  0.00000000000E+00 0. -1.
        -11    1    5    5    0    0 -0.54684714451E+02 -0.82779938762E+02  0.85356643790E+02  0.13087663235E+03  0.00000000000E+00 0.  1.
          1    1    6    6  503    0  0.22562170043E+03 -0.27706138231E+03  0.18913808389E+03  0.40427883453E+03  0.00000000000E+00 0. -1.
         -1    1    6    6    0  503  0.23964595960E+03 -0.32207642382E+03  0.11332925840E+03  0.41714137836E+03  0.00000000000E+00 0.  1.
<mgrwt>
<rscale>  0 0.22122089E+04</rscale>
<asrwt>0</asrwt>
<pdfrwt beam="1">  1        2 0.28520149E+00 0.22122089E+04</pdfrwt>
<pdfrwt beam="2">  1       -1 0.10153453E+00 0.22122089E+04</pdfrwt>
<totfact> 0.77060674E+00</totfact>
</mgrwt>
</event>
<event>
12    6  0.1647231E-007  0.1555596E+04  0.7818608E-02  0.8848301E-01
         -1   -1    0    0    0  501 -0.00000000000E+00  0.00000000000E+00  0.10379911307E+04  0.10379911307E+04  0.00000000000E+00 0.  1.
          2   -1    0    0  501    0  0.00000000000E+00 -0.00000000000E+00 -0.58282723591E+03  0.58282723591E+03  0.00000000000E+00 0. -1.
         24    2    1    2    0    0 -0.93109124611E+01 -0.48816606527E+03  0.27283908653E+03  0.56605948971E+03  0.87117038387E+02 0.  0.
        254    2    1    2    0    0  0.93109124611E+01  0.48816606527E+03  0.18232480823E+03  0.10547588769E+04  0.91699572096E+03 0.  0.
         23    2    4    4    0    0 -0.12473037459E+02  0.71043470472E+03 -0.52852243236E+02  0.71829883787E+03  0.91031942327E+02 0.  0.
         23    2    4    4    0    0  0.21783949920E+02 -0.22226863945E+03  0.23517705146E+03  0.33646003901E+03  0.89550118678E+02 0.  0.
          4    1    3    3  502    0  0.84874696508E+01 -0.13329553007E+03  0.11893155551E+03  0.17884197039E+03  0.00000000000E+00 0. -1.
         -3    1    3    3    0  502 -0.17798382112E+02 -0.35487053521E+03  0.15390753102E+03  0.38721751932E+03  0.00000000000E+00 0.  1.
         11    1    5    5    0    0 -0.34739993629E+01  0.69888491002E+03 -0.42151296384E+02  0.70016349371E+03  0.00000000000E+00 0. -1.
        -11    1    5    5    0    0 -0.89990380962E+01  0.11549794700E+02 -0.10700946852E+02  0.18135344160E+02  0.00000000000E+00 0.  1.
          3    1    6    6  503    0 -0.21246059896E+02 -0.16305999975E+03  0.13717565885E+03  0.21414275603E+03  0.00000000000E+00 0. -1.
         -3    1    6    6    0  503  0.43030009817E+02 -0.59208639697E+02  0.98001392611E+02  0.12231728297E+03  0.00000000000E+00 0.  1.
<mgrwt>
<rscale>  0 0.15555957E+04</rscale>
<asrwt>0</asrwt>
<pdfrwt beam="1">  1        2 0.89665728E-01 0.15555957E+04</pdfrwt>
<pdfrwt beam="2">  1       -1 0.15969094E+00 0.15555957E+04</pdfrwt>
<totfact> 0.16593785E+01</totfact>
</mgrwt>
</event>
<event>
12    6  0.1647231E-007  0.1589409E+04  0.7818608E-02  0.8827081E-01
          2   -1    0    0  501    0  0.00000000000E+00  0.00000000000E+00  0.51745177927E+03  0.51745177927E+03  0.00000000000E+00 0. -1.
         -1   -1    0    0    0  501 -0.00000000000E+00 -0.00000000000E+00 -0.12205110243E+04  0.12205110243E+04  0.00000000000E+00 0.  1.
         24    2    1    2    0    0  0.42503232689E+03 -0.28252861056E+03 -0.16611850890E+02  0.51640924510E+03  0.76991299166E+02 0.  0.
        254    2    1    2    0    0 -0.42503232689E+03  0.28252861056E+03 -0.68644739416E+03  0.12215535585E+04  0.87207119930E+03 0.  0.
         23    2    4    4    0    0 -0.19195572306E+03  0.57485667149E+03 -0.50260576188E+03  0.79298097196E+03  0.94334922674E+02 0.  0.
         23    2    4    4    0    0 -0.23307660383E+03 -0.29232806093E+03 -0.18384163228E+03  0.42857258654E+03  0.10048043447E+03 0.  0.
          4    1    3    3  502    0  0.39817838652E+03 -0.28245278684E+03 -0.81517717869E+01  0.48825408925E+03  0.00000000000E+00 0. -1.
         -3    1    3    3    0  502  0.26853940372E+02 -0.75823724731E-01 -0.84600791028E+01  0.28155155854E+02  0.00000000000E+00 0.  1.
         11    1    5    5    0    0 -0.18576987172E+03  0.43548909026E+03 -0.39997604237E+03  0.61979192270E+03  0.00000000000E+00 0.  1.
        -11    1    5    5    0    0 -0.61858513372E+01  0.13936758124E+03 -0.10262971951E+03  0.17318904926E+03  0.00000000000E+00 0. -1.
          1    1    6    6  503    0 -0.14342528692E+03 -0.22816977010E+03 -0.16699769456E+03  0.31704965999E+03  0.00000000000E+00 0.  1.
         -1    1    6    6    0  503 -0.89651316918E+02 -0.64158290836E+02 -0.16843937723E+02  0.11152292655E+03  0.00000000000E+00 0. -1.
<mgrwt>
<rscale>  0 0.15894095E+04</rscale>
<asrwt>0</asrwt>
<pdfrwt beam="1">  1        2 0.79607967E-01 0.15894095E+04</pdfrwt>
<pdfrwt beam="2">  1       -1 0.18777093E+00 0.15894095E+04</pdfrwt>
<totfact> 0.11887286E+01</totfact>
</mgrwt>
</event>
<event>
12    6  0.1647231E-007  0.1910376E+04  0.7818608E-02  0.8649709E-01
         -1   -1    0    0    0  501 -0.00000000000E+00  0.00000000000E+00  0.30673042756E+03  0.30673042756E+03  0.00000000000E+00 0.  1.
          2   -1    0    0  501    0  0.00000000000E+00 -0.00000000000E+00 -0.29745463089E+04  0.29745463089E+04  0.00000000000E+00 0. -1.
         24    2    1    2    0    0  0.20292287099E+03 -0.33459340127E+03  0.51895643045E+01  0.40070894337E+03  0.86083041189E+02 0.  0.
        254    2    1    2    0    0 -0.20292287099E+03  0.33459340127E+03 -0.26730054457E+04  0.28805677931E+04  0.99979110937E+03 0.  0.
         23    2    4    4    0    0  0.20989681471E+03  0.14217599803E+03 -0.22040523490E+04  0.22204691238E+04  0.91464120440E+02 0.  0.
         23    2    4    4    0    0 -0.41281968570E+03  0.19241740323E+03 -0.46895309671E+03  0.66009866936E+03  0.91480579385E+02 0.  0.
          2    1    3    3  502    0  0.96799743494E+02 -0.92062844584E+02 -0.18745579367E+02  0.13489682887E+03  0.00000000000E+00 0. -1.
         -1    1    3    3    0  502  0.10612312749E+03 -0.24253055668E+03  0.23935143672E+02  0.26581211450E+03  0.00000000000E+00 0.  1.
         11    1    5    5    0    0  0.18514333310E+03  0.12381112197E+03 -0.21045355461E+04  0.21162885230E+04  0.00000000000E+00 0. -1.
        -11    1    5    5    0    0  0.24753481617E+02  0.18364876060E+02 -0.99516802897E+02  0.10418060080E+03  0.00000000000E+00 0.  1.
          2    1    6    6  503    0 -0.98797109290E+02  0.82552187056E+02 -0.97903972892E+02  0.16174337792E+03  0.00000000000E+00 0. -1.
         -2    1    6    6    0  503 -0.31402257641E+03  0.10986521618E+03 -0.37104912381E+03  0.49835529144E+03  0.00000000000E+00 0.  1.
<mgrwt>
<rscale>  0 0.19103757E+04</rscale>
<asrwt>0</asrwt>
<pdfrwt beam="1">  1        2 0.45762251E+00 0.19103757E+04</pdfrwt>
<pdfrwt beam="2">  1       -1 0.47189296E-01 0.19103757E+04</pdfrwt>
<totfact> 0.86431640E+00</totfact>
</mgrwt>
</event>
<event>
12    6  0.1647231E-007  0.1651280E+04  0.7818608E-02  0.8789649E-01
         -1   -1    0    0    0  501 -0.00000000000E+00  0.00000000000E+00  0.24939689640E+03  0.24939689640E+03  0.00000000000E+00 0.  1.
          2   -1    0    0  501    0  0.00000000000E+00 -0.00000000000E+00 -0.27333205844E+04  0.27333205844E+04  0.00000000000E+00 0. -1.
         24    2    1    2    0    0  0.28166188710E+03  0.35891113284E+03 -0.14984705423E+04  0.15684208179E+04  0.79870370123E+02 0.  0.
        254    2    1    2    0    0 -0.28166188710E+03 -0.35891113284E+03 -0.98545314571E+03  0.14142966629E+04  0.90607203264E+03 0.  0.
         23    2    4    4    0    0 -0.41372315004E+03 -0.47570979202E+03 -0.30859889579E+03  0.70789486659E+03  0.91734467736E+02 0.  0.
         23    2    4    4    0    0  0.13206126294E+03  0.11679865918E+03 -0.67685424993E+03  0.70640179629E+03  0.98943004830E+02 0.  0.
          4    1    3    3  502    0  0.18394529862E+03  0.21880167059E+03 -0.10595611369E+04  0.10974424116E+04  0.00000000000E+00 0. -1.
         -3    1    3    3    0  502  0.97716588475E+02  0.14010946225E+03 -0.43890940539E+03  0.47097840631E+03  0.00000000000E+00 0.  1.
         11    1    5    5    0    0 -0.29790412775E+03 -0.34478567775E+03 -0.26732943445E+03  0.52828880306E+03  0.00000000000E+00 0. -1.
        -11    1    5    5    0    0 -0.11581902229E+03 -0.13092411426E+03 -0.41269461337E+02  0.17960606353E+03  0.00000000000E+00 0.  1.
          2    1    6    6  503    0  0.50256404563E+02  0.26128781710E+02 -0.85435687475E+02  0.10250695648E+03  0.00000000000E+00 0.  1.
         -2    1    6    6    0  503  0.81804858378E+02  0.90669877471E+02 -0.59141856245E+03  0.60389483981E+03  0.00000000000E+00 0. -1.
<mgrwt>
<rscale>  0 0.16512803E+04</rscale>
<asrwt>0</asrwt>
<pdfrwt beam="1">  1        2 0.42051088E+00 0.16512803E+04</pdfrwt>
<pdfrwt beam="2">  1       -1 0.38368751E-01 0.16512803E+04</pdfrwt>
<totfact> 0.18190754E+01</totfact>
</mgrwt>
</event>
<event>
12    6  0.1647231E-007  0.1464707E+04  0.7818608E-02  0.8908267E-01
          2   -1    0    0  501    0  0.00000000000E+00  0.00000000000E+00  0.98720968562E+03  0.98720968562E+03  0.00000000000E+00 0. -1.
         -1   -1    0    0    0  501 -0.00000000000E+00 -0.00000000000E+00 -0.54329086763E+03  0.54329086763E+03  0.00000000000E+00 0.  1.
         24    2    1    2    0    0  0.31714982374E+02  0.18584111093E+03  0.56170970799E+03  0.59768569120E+03  0.78534265130E+02 0.  0.
        254    2    1    2    0    0 -0.31714982374E+02 -0.18584111093E+03 -0.11779089001E+03  0.93281486205E+03  0.90593935475E+03 0.  0.
         23    2    4    4    0    0 -0.34236363332E+03 -0.15662755804E+03 -0.35858568277E+03  0.52848842397E+03  0.94716804342E+02 0.  0.
         23    2    4    4    0    0  0.31064865095E+03 -0.29213552886E+02  0.24079479276E+03  0.40432643808E+03  0.90231481761E+02 0.  0.
          4    1    3    3  502    0  0.41496361777E+02  0.10727946143E+03  0.41883977502E+03  0.43434731267E+03  0.00000000000E+00 0. -1.
         -3    1    3    3    0  502 -0.97813794028E+01  0.78561649492E+02  0.14286993297E+03  0.16333837853E+03  0.00000000000E+00 0.  1.
         11    1    5    5    0    0 -0.33960872004E+03 -0.13909713353E+03 -0.32370717012E+03  0.48935511367E+03  0.00000000000E+00 0. -1.
        -11    1    5    5    0    0 -0.27549132788E+01 -0.17530424507E+02 -0.34878512649E+02  0.39133310302E+02  0.00000000000E+00 0.  1.
          4    1    6    6  503    0  0.17292906217E+03  0.23235862818E+02  0.10325741098E+03  0.20274727812E+03  0.00000000000E+00 0. -1.
         -4    1    6    6    0  503  0.13771958878E+03 -0.52449415705E+02  0.13753738179E+03  0.20157915996E+03  0.00000000000E+00 0.  1.
<mgrwt>
<rscale>  0 0.14647075E+04</rscale>
<asrwt>0</asrwt>
<pdfrwt beam="1">  1        2 0.15187841E+00 0.14647075E+04</pdfrwt>
<pdfrwt beam="2">  1       -1 0.83583211E-01 0.14647075E+04</pdfrwt>
<totfact> 0.40298385E+01</totfact>
</mgrwt>
</event>
<event>
12    6  0.1647231E-007  0.2037658E+04  0.7818608E-02  0.8589214E-01
         -1   -1    0    0    0  501 -0.00000000000E+00  0.00000000000E+00  0.36843518789E+03  0.36843518789E+03  0.00000000000E+00 0.  1.
          2   -1    0    0  501    0  0.00000000000E+00 -0.00000000000E+00 -0.28173555035E+04  0.28173555035E+04  0.00000000000E+00 0. -1.
         24    2    1    2    0    0 -0.28549628483E+03  0.12474765370E+03 -0.21732950485E+04  0.21969036997E+04  0.78130609148E+02 0.  0.
        254    2    1    2    0    0  0.28549628483E+03 -0.12474765370E+03 -0.27562526711E+03  0.98888699172E+03  0.89713883472E+03 0.  0.
         23    2    4    4    0    0  0.10929705982E+03 -0.46186800565E+03 -0.33942177136E+03  0.59216467028E+03  0.10091558811E+03 0.  0.
         23    2    4    4    0    0  0.17619922501E+03  0.33712035195E+03  0.63796504247E+02  0.39672232144E+03  0.92856382555E+02 0.  0.
          2    1    3    3  502    0 -0.19227171637E+03  0.51736764221E+02 -0.11959300148E+04  0.12123917296E+04  0.00000000000E+00 0. -1.
         -1    1    3    3    0  502 -0.93224568456E+02  0.73010889482E+02 -0.97736503367E+03  0.98451197006E+03  0.00000000000E+00 0.  1.
         11    1    5    5    0    0 -0.10331832489E+02 -0.10877126316E+03 -0.10646689798E+03  0.15255535001E+03  0.00000000000E+00 0. -1.
        -11    1    5    5    0    0  0.11962889231E+03 -0.35309674249E+03 -0.23295487338E+03  0.43960932027E+03  0.00000000000E+00 0.  1.
          4    1    6    6  503    0  0.21498770503E+02  0.13572071988E+03  0.28299619107E+02  0.14029675470E+03  0.00000000000E+00 0. -1.
         -4    1    6    6    0  503  0.15470045451E+03  0.20139963207E+03  0.35496885141E+02  0.25642556674E+03  0.00000000000E+00 0.  1.
<mgrwt>
<rscale>  0 0.20376584E+04</rscale>
<asrwt>0</asrwt>
<pdfrwt beam="1">  1        2 0.43343933E+00 0.20376584E+04</pdfrwt>
<pdfrwt beam="2">  1       -1 0.56682334E-01 0.20376584E+04</pdfrwt>
<totfact> 0.75067580E+00</totfact>
</mgrwt>
</event>
<event>
12    6  0.1647231E-007  0.1466304E+04  0.7818608E-02  0.8907175E-01
          2   -1    0    0  501    0  0.00000000000E+00  0.00000000000E+00  0.11534084407E+04  0.11534084407E+04  0.00000000000E+00 0. -1.
         -1   -1    0    0    0  501 -0.00000000000E+00 -0.00000000000E+00 -0.46602035952E+03  0.46602035952E+03  0.00000000000E+00 0.  1.
         24    2    1    2    0    0  0.42298583093E+03  0.25801180552E+02  0.29756006159E+03  0.52391445987E+03  0.79759995756E+02 0.  0.
        254    2    1    2    0    0 -0.42298583093E+03 -0.25801180552E+02  0.38982801958E+03  0.10955143404E+04  0.93198877192E+03 0.  0.
         23    2    4    4    0    0 -0.70626913210E+02 -0.42486057118E+03  0.33440212136E+03  0.55278119334E+03  0.90816315301E+02 0.  0.
         23    2    4    4    0    0 -0.35235891772E+03  0.39905939063E+03  0.55425898229E+02  0.54273314702E+03  0.89900136453E+02 0.  0.
          2    1    3    3  502    0  0.19231317655E+03  0.78917395773E+01  0.87559940938E+02  0.21145538698E+03  0.00000000000E+00 0. -1.
         -3    1    3    3    0  502  0.23067265438E+03  0.17909440975E+02  0.21000012065E+03  0.31245907289E+03  0.00000000000E+00 0.  1.
         11    1    5    5    0    0 -0.15175133088E+02 -0.63721295598E+02  0.14353755857E+02  0.67057575889E+02  0.00000000000E+00 0.  1.
        -11    1    5    5    0    0 -0.55451780122E+02 -0.36113927558E+03  0.32004836550E+03  0.48572361745E+03  0.00000000000E+00 0. -1.
          2    1    6    6  503    0 -0.27158814597E+03  0.33836959851E+03  0.73600682902E+02  0.44008086388E+03  0.00000000000E+00 0. -1.
         -2    1    6    6    0  503 -0.80770771750E+02  0.60689792118E+02 -0.18174784673E+02  0.10265228314E+03  0.00000000000E+00 0.  1.
<mgrwt>
<rscale>  0 0.14663039E+04</rscale>
<asrwt>0</asrwt>
<pdfrwt beam="1">  1        2 0.17744745E+00 0.14663039E+04</pdfrwt>
<pdfrwt beam="2">  1       -1 0.71695440E-01 0.14663039E+04</pdfrwt>
<totfact> 0.43835350E+01</totfact>
</mgrwt>
</event>
<event>
12    6  0.1647231E-007  0.2477946E+04  0.7818608E-02  0.8410885E-01
          2   -1    0    0  501    0  0.00000000000E+00  0.00000000000E+00  0.17777238326E+04  0.17777238326E+04  0.00000000000E+00 0. -1.
         -3   -1    0    0    0  501 -0.00000000000E+00 -0.00000000000E+00 -0.86349400182E+03  0.86349400182E+03  0.00000000000E+00 0.  1.
         24    2    1    2    0    0 -0.90642628934E+03  0.86385853166E+02  0.10127104184E+04  0.13641510210E+04  0.79085288337E+02 0.  0.
        254    2    1    2    0    0  0.90642628934E+03 -0.86385853166E+02 -0.98480587577E+02  0.12770668135E+04  0.89001690230E+03 0.  0.
         23    2    4    4    0    0  0.48634524186E+03  0.38769383449E+03 -0.97768103355E+02  0.63661892445E+03  0.94270087261E+02 0.  0.
         23    2    4    4    0    0  0.42008104749E+03 -0.47407968765E+03 -0.71248422221E+00  0.64044788905E+03  0.94622165778E+02 0.  0.
          2    1    3    3  502    0 -0.74392119835E+03  0.80074130562E+02  0.78647626179E+03  0.10855300669E+04  0.00000000000E+00 0. -1.
         -1    1    3    3    0  502 -0.16250509099E+03  0.63117226043E+01  0.22623415659E+03  0.27862095407E+03  0.00000000000E+00 0.  1.
         11    1    5    5    0    0  0.49072756491E+03  0.38382103817E+03 -0.95210639680E+02  0.63023582746E+03  0.00000000000E+00 0. -1.
        -11    1    5    5    0    0 -0.43823230550E+01  0.38727963171E+01 -0.25574636753E+01  0.63830969852E+01  0.00000000000E+00 0.  1.
          3    1    6    6  503    0  0.15749234771E+03 -0.24829545347E+03 -0.61068871293E+01  0.29409482463E+03  0.00000000000E+00 0. -1.
         -3    1    6    6    0  503  0.26258869977E+03 -0.22578423418E+03  0.53944029071E+01  0.34635306443E+03  0.00000000000E+00 0.  1.
<mgrwt>
<rscale>  0 0.24779458E+04</rscale>
<asrwt>0</asrwt>
<pdfrwt beam="1">  1        2 0.27349597E+00 0.24779458E+04</pdfrwt>
<pdfrwt beam="2">  1       -3 0.13284523E+00 0.24779458E+04</pdfrwt>
<totfact> 0.22158165E+00</totfact>
</mgrwt>
</event>
<event>
12    6  0.1647231E-007  0.1013428E+04  0.7818608E-02  0.9293939E-01
         -1   -1    0    0    0  501 -0.00000000000E+00  0.00000000000E+00  0.19403818487E+03  0.19403818487E+03  0.00000000000E+00 0.  1.
          2   -1    0    0  501    0  0.00000000000E+00 -0.00000000000E+00 -0.13232397864E+04  0.13232397864E+04  0.00000000000E+00 0. -1.
         24    2    1    2    0    0 -0.65995012473E+02 -0.31540816296E+02 -0.72864150642E+02  0.12941685552E+03  0.78034436496E+02 0.  0.
        254    2    1    2    0    0  0.65995012473E+02  0.31540816296E+02 -0.10563374509E+04  0.13878611158E+04  0.89719535315E+03 0.  0.
         23    2    4    4    0    0 -0.23591493673E+03  0.35294889449E+03 -0.64662755719E+03  0.77878568983E+03  0.90283849487E+02 0.  0.
         23    2    4    4    0    0  0.30190994920E+03 -0.32140807819E+03 -0.40970989371E+03  0.60907542593E+03  0.93047876465E+02 0.  0.
          4    1    3    3  502    0 -0.13205616594E+02  0.13575591928E+02 -0.54340931966E+02  0.57546693152E+02  0.00000000000E+00 0. -1.
         -3    1    3    3    0  502 -0.52789395879E+02 -0.45116408224E+02 -0.18523218677E+02  0.71870162366E+02  0.00000000000E+00 0.  1.
         11    1    5    5    0    0 -0.12722311656E+03  0.11683565199E+03 -0.22832126602E+03  0.28629860544E+03  0.00000000000E+00 0.  1.
        -11    1    5    5    0    0 -0.10869182017E+03  0.23611324250E+03 -0.41830629117E+03  0.49248708439E+03  0.00000000000E+00 0. -1.
          3    1    6    6  503    0  0.19486373686E+03 -0.26657087592E+03 -0.29213572439E+03  0.44088001689E+03  0.00000000000E+00 0. -1.
         -3    1    6    6    0  503  0.10704621234E+03 -0.54837202273E+02 -0.11757416932E+03  0.16819540904E+03  0.00000000000E+00 0.  1.
<mgrwt>
<rscale>  0 0.10134279E+04</rscale>
<asrwt>0</asrwt>
<pdfrwt beam="1">  1        2 0.20357535E+00 0.10134279E+04</pdfrwt>
<pdfrwt beam="2">  1       -1 0.29852028E-01 0.10134279E+04</pdfrwt>
<totfact> 0.18727302E+02</totfact>
</mgrwt>
</event>
<event>
12    6  0.1647231E-007  0.2004235E+04  0.7818608E-02  0.8604643E-01
         -1   -1    0    0    0  501 -0.00000000000E+00  0.00000000000E+00  0.20423135404E+04  0.20423135404E+04  0.00000000000E+00 0.  1.
          2   -1    0    0  501    0  0.00000000000E+00 -0.00000000000E+00 -0.49171653989E+03  0.49171653989E+03  0.00000000000E+00 0. -1.
         24    2    1    2    0    0 -0.18444486311E+03  0.63251383896E+03  0.50379559117E+02  0.66578478140E+03  0.81471535955E+02 0.  0.
        254    2    1    2    0    0  0.18444486311E+03 -0.63251383896E+03  0.15002174414E+04  0.18682452989E+04  0.89754914147E+03 0.  0.
         23    2    4    4    0    0  0.35885296677E+02 -0.59314008552E+03  0.33272610344E+03  0.68712796897E+03  0.91297701351E+02 0.  0.
         23    2    4    4    0    0  0.14855956644E+03 -0.39373753440E+02  0.11674913379E+04  0.11811173299E+04  0.91552638414E+02 0.  0.
          4    1    3    3  502    0 -0.16552161687E+03  0.50400463991E+03  0.67502850582E+02  0.53476604000E+03  0.00000000000E+00 0. -1.
         -3    1    3    3    0  502 -0.18923246244E+02  0.12850919904E+03 -0.17123291465E+02  0.13101874140E+03  0.00000000000E+00 0.  1.
         11    1    5    5    0    0 -0.24747928624E+01 -0.50575178420E+03  0.27918178333E+03  0.57769668509E+03  0.00000000000E+00 0. -1.
        -11    1    5    5    0    0  0.38360089539E+02 -0.87388301318E+02  0.53544320107E+02  0.10943128388E+03  0.00000000000E+00 0.  1.
          1    1    6    6  503    0  0.10324414400E+03 -0.58078426500E+02  0.98712293650E+03  0.99420528497E+03  0.00000000000E+00 0. -1.
         -1    1    6    6    0  503  0.45315422434E+02  0.18704673059E+02  0.18036840142E+03  0.18691204492E+03  0.00000000000E+00 0.  1.
<mgrwt>
<rscale>  0 0.20042349E+04</rscale>
<asrwt>0</asrwt>
<pdfrwt beam="1">  1        2 0.75648700E-01 0.20042349E+04</pdfrwt>
<pdfrwt beam="2">  1       -1 0.31420208E+00 0.20042349E+04</pdfrwt>
<totfact> 0.17804501E+00</totfact>
</mgrwt>
</event>
<event>
12    6  0.1647231E-007  0.1957107E+04  0.7818608E-02  0.8626941E-01
          2   -1    0    0  501    0  0.00000000000E+00  0.00000000000E+00  0.13593667642E+04  0.13593667642E+04  0.00000000000E+00 0. -1.
         -1   -1    0    0    0  501 -0.00000000000E+00 -0.00000000000E+00 -0.70442103991E+03  0.70442103991E+03  0.00000000000E+00 0.  1.
         24    2    1    2    0    0  0.50709894004E+03 -0.45520284862E+03  0.62672761727E+03  0.92791010188E+03  0.62214809685E+02 0.  0.
        254    2    1    2    0    0 -0.50709894004E+03  0.45520284862E+03  0.28218106996E+02  0.11358777022E+04  0.90832974432E+03 0.  0.
         23    2    4    4    0    0 -0.58089299720E+02  0.53604495630E+03 -0.24180632906E+03  0.59812564178E+03  0.92549557849E+02 0.  0.
         23    2    4    4    0    0 -0.44900964032E+03 -0.80842107684E+02  0.27002443606E+03  0.53775206042E+03  0.90105376913E+02 0.  0.
          2    1    3    3  502    0  0.50338118627E+03 -0.44494913145E+03  0.60735360643E+03  0.90567695760E+03  0.00000000000E+00 0. -1.
         -1    1    3    3    0  502  0.37177537612E+01 -0.10253717169E+02  0.19374010836E+02  0.22233144282E+02  0.00000000000E+00 0.  1.
         11    1    5    5    0    0 -0.90865569473E+01  0.24617484751E+03 -0.15713720640E+03  0.29219295456E+03  0.00000000000E+00 0.  1.
        -11    1    5    5    0    0 -0.49002742772E+02  0.28987010880E+03 -0.84669122660E+02  0.30593268721E+03  0.00000000000E+00 0. -1.
          1    1    6    6  503    0 -0.39177213189E+03 -0.62446968191E+02  0.26570373226E+03  0.47747617794E+03  0.00000000000E+00 0. -1.
         -1    1    6    6    0  503 -0.57237508424E+02 -0.18395139494E+02  0.43207037955E+01  0.60275882481E+02  0.00000000000E+00 0.  1.
<mgrwt>
<rscale>  0 0.19571066E+04</rscale>
<asrwt>0</asrwt>
<pdfrwt beam="1">  1        2 0.20913335E+00 0.19571066E+04</pdfrwt>
<pdfrwt beam="2">  1       -1 0.10837247E+00 0.19571066E+04</pdfrwt>
<totfact> 0.12827864E+01</totfact>
</mgrwt>
</event>
<event>
12    6  0.1647231E-007  0.1861765E+04  0.7818608E-02  0.8674126E-01
         -1   -1    0    0    0  501 -0.00000000000E+00  0.00000000000E+00  0.41361130035E+03  0.41361130035E+03  0.00000000000E+00 0.  1.
          2   -1    0    0  501    0  0.00000000000E+00 -0.00000000000E+00 -0.20950648266E+04  0.20950648266E+04  0.00000000000E+00 0. -1.
         24    2    1    2    0    0  0.18286391117E+03  0.52354252059E+03 -0.12559527069E+04  0.13756068476E+04  0.85679731660E+02 0.  0.
        254    2    1    2    0    0 -0.18286391117E+03 -0.52354252059E+03 -0.42550081944E+03  0.11330692794E+04  0.89177298887E+03 0.  0.
         23    2    4    4    0    0  0.58760073116E+02 -0.25332988936E+03  0.24301055103E+03  0.36739425194E+03  0.91080345927E+02 0.  0.
         23    2    4    4    0    0 -0.24162398428E+03 -0.27021263123E+03 -0.66851137047E+03  0.76567502745E+03  0.89183963553E+02 0.  0.
          4    1    3    3  502    0  0.74549076626E+02  0.19030006765E+03 -0.56607110373E+03  0.60183733271E+03  0.00000000000E+00 0. -1.
         -3    1    3    3    0  502  0.10831483454E+03  0.33324245294E+03 -0.68988160314E+03  0.77376951489E+03  0.00000000000E+00 0.  1.
         11    1    5    5    0    0  0.55982360122E+01  0.25641085529E+01  0.28850039209E+02  0.29499824770E+02  0.00000000000E+00 0.  1.
        -11    1    5    5    0    0  0.53161837104E+02 -0.25589399791E+03  0.21416051182E+03  0.33789442717E+03  0.00000000000E+00 0. -1.
          3    1    6    6  503    0 -0.15132395689E+03 -0.15645318865E+03 -0.48530051688E+03  0.53187698940E+03  0.00000000000E+00 0. -1.
         -3    1    6    6    0  503 -0.90300027397E+02 -0.11375944258E+03 -0.18321085359E+03  0.23379803805E+03  0.00000000000E+00 0.  1.
<mgrwt>
<rscale>  0 0.18617653E+04</rscale>
<asrwt>0</asrwt>
<pdfrwt beam="1">  1        2 0.32231767E+00 0.18617653E+04</pdfrwt>
<pdfrwt beam="2">  1       -1 0.63632507E-01 0.18617653E+04</pdfrwt>
<totfact> 0.15844763E+01</totfact>
</mgrwt>
</event>
<event>
12    6  0.1647231E-007  0.1765582E+04  0.7818608E-02  0.8724820E-01
          2   -1    0    0  501    0  0.00000000000E+00  0.00000000000E+00  0.86863592205E+03  0.86863592205E+03  0.00000000000E+00 0. -1.
         -1   -1    0    0    0  501 -0.00000000000E+00 -0.00000000000E+00 -0.89717677132E+03  0.89717677132E+03  0.00000000000E+00 0.  1.
         24    2    1    2    0    0 -0.32801762994E+03  0.56031079853E+03 -0.83097670767E+02  0.65957467154E+03  0.81177385678E+02 0.  0.
        254    2    1    2    0    0  0.32801762994E+03 -0.56031079853E+03  0.54556821498E+02  0.11062380218E+04  0.89400355574E+03 0.  0.
         23    2    4    4    0    0  0.40544266142E+03 -0.12519137186E+02 -0.23207949361E+03  0.47666985329E+03  0.93876393145E+02 0.  0.
         23    2    4    4    0    0 -0.77425031476E+02 -0.54779166134E+03  0.28663631511E+03  0.62956816854E+03  0.90140789688E+02 0.  0.
          4    1    3    3  502    0 -0.95649574387E+02  0.10637394611E+03 -0.35576416733E+02  0.14741078292E+03  0.00000000000E+00 0. -1.
         -3    1    3    3    0  502 -0.23236805556E+03  0.45393685242E+03 -0.47521254034E+02  0.51216388862E+03  0.00000000000E+00 0.  1.
         11    1    5    5    0    0  0.19599275107E+03 -0.25845462181E+02 -0.16142104332E+03  0.25522127578E+03  0.00000000000E+00 0. -1.
        -11    1    5    5    0    0  0.20944991035E+03  0.13326324995E+02 -0.70658450292E+02  0.22144857751E+03  0.00000000000E+00 0.  1.
          1    1    6    6  503    0 -0.17053729818E+02 -0.40448160783E+02  0.49913242315E+02  0.66469656008E+02  0.00000000000E+00 0. -1.
         -1    1    6    6    0  503 -0.60371301658E+02 -0.50734350056E+03  0.23672307279E+03  0.56309851253E+03  0.00000000000E+00 0.  1.
<mgrwt>
<rscale>  0 0.17655820E+04</rscale>
<asrwt>0</asrwt>
<pdfrwt beam="1">  1        2 0.13363630E+00 0.17655820E+04</pdfrwt>
<pdfrwt beam="2">  1       -1 0.13802719E+00 0.17655820E+04</pdfrwt>
<totfact> 0.14479629E+01</totfact>
</mgrwt>
</event>
<event>
12    6  0.1647231E-007  0.2613495E+04  0.7818608E-02  0.8363632E-01
         -1   -1    0    0    0  501 -0.00000000000E+00  0.00000000000E+00  0.10134786449E+04  0.10134786449E+04  0.00000000000E+00 0.  1.
          2   -1    0    0  501    0  0.00000000000E+00 -0.00000000000E+00 -0.16848789594E+04  0.16848789594E+04  0.00000000000E+00 0. -1.
         24    2    1    2    0    0 -0.18369772004E+03 -0.18803624059E+03 -0.14462072698E+04  0.14721360248E+04  0.81034117023E+02 0.  0.
        254    2    1    2    0    0  0.18369772004E+03  0.18803624059E+03  0.77480695530E+03  0.12262215794E+04  0.91334060666E+03 0.  0.
         23    2    4    4    0    0  0.24493958291E+03 -0.26077339864E+03  0.59394044892E+02  0.37393501047E+03  0.91112978097E+02 0.  0.
         23    2    4    4    0    0 -0.61241862874E+02  0.44880963922E+03  0.71541291041E+03  0.85228656896E+03  0.96933509334E+02 0.  0.
          4    1    3    3  502    0 -0.17090578449E+03 -0.14918636105E+03 -0.10746444473E+04  0.10983287511E+04  0.00000000000E+00 0. -1.
         -3    1    3    3    0  502 -0.12791935550E+02 -0.38849879535E+02 -0.37156282254E+03  0.37380727367E+03  0.00000000000E+00 0.  1.
         11    1    5    5    0    0  0.13226849564E+03 -0.89973589197E+02 -0.30668623023E+01  0.15999877292E+03  0.00000000000E+00 0. -1.
        -11    1    5    5    0    0  0.11267108727E+03 -0.17079980944E+03  0.62460907194E+02  0.21393623755E+03  0.00000000000E+00 0.  1.
          2    1    6    6  503    0 -0.27979186419E+02  0.15813920264E+03  0.17333476399E+03  0.23629596419E+03  0.00000000000E+00 0. -1.
         -2    1    6    6    0  503 -0.33262676455E+02  0.29067043658E+03  0.54207814642E+03  0.61599060477E+03  0.00000000000E+00 0.  1.
<mgrwt>
<rscale>  0 0.26134949E+04</rscale>
<asrwt>0</asrwt>
<pdfrwt beam="1">  1        2 0.25921215E+00 0.26134949E+04</pdfrwt>
<pdfrwt beam="2">  1       -1 0.15591979E+00 0.26134949E+04</pdfrwt>
<totfact> 0.31580513E+00</totfact>
</mgrwt>
</event>
<event>
12    6  0.1647231E-007  0.2875264E+04  0.7818608E-02  0.8280275E-01
         -1   -1    0    0    0  501 -0.00000000000E+00  0.00000000000E+00  0.17950139852E+04  0.17950139852E+04  0.00000000000E+00 0.  1.
          2   -1    0    0  501    0  0.00000000000E+00 -0.00000000000E+00 -0.11514040544E+04  0.11514040544E+04  0.00000000000E+00 0. -1.
         24    2    1    2    0    0 -0.48502274816E+03 -0.10206320881E+04  0.94121386762E+03  0.14727963586E+04  0.79426971201E+02 0.  0.
        254    2    1    2    0    0  0.48502274816E+03  0.10206320881E+04 -0.29760393676E+03  0.14736216810E+04  0.89780612053E+03 0.  0.
         23    2    4    4    0    0 -0.22756058104E+03  0.13104645744E+03  0.40937411393E+02  0.28112816140E+03  0.91652492768E+02 0.  0.
         23    2    4    4    0    0  0.71258332920E+03  0.88958563064E+03 -0.33854134816E+03  0.11924935196E+04  0.91065660729E+02 0.  0.
          2    1    3    3  502    0 -0.37504501217E+03 -0.80605911302E+03  0.78044089851E+03  0.11829953723E+04  0.00000000000E+00 0. -1.
         -1    1    3    3    0  502 -0.10997773599E+03 -0.21457297506E+03  0.16077296911E+03  0.28980098625E+03  0.00000000000E+00 0.  1.
         11    1    5    5    0    0 -0.20288803709E+03  0.97964173889E+02  0.33784716563E+01  0.22532631677E+03  0.00000000000E+00 0. -1.
        -11    1    5    5    0    0 -0.24672543952E+02  0.33082283548E+02  0.37558939736E+02  0.55801844629E+02  0.00000000000E+00 0.  1.
          4    1    6    6  503    0  0.60600400720E+03  0.72268560932E+03 -0.30778441099E+03  0.99209202714E+03  0.00000000000E+00 0. -1.
         -4    1    6    6    0  503  0.10657932200E+03  0.16690002132E+03 -0.30756937165E+02  0.20040149245E+03  0.00000000000E+00 0.  1.
<mgrwt>
<rscale>  0 0.28752644E+04</rscale>
<asrwt>0</asrwt>
<pdfrwt beam="1">  1        2 0.17713909E+00 0.28752644E+04</pdfrwt>
<pdfrwt beam="2">  1       -1 0.27615600E+00 0.28752644E+04</pdfrwt>
<totfact> 0.94103685E-01</totfact>
</mgrwt>
</event>
<event>
12    6  0.1647231E-007  0.3353238E+04  0.7818608E-02  0.8149479E-01
         -1   -1    0    0    0  501 -0.00000000000E+00  0.00000000000E+00  0.13513659382E+04  0.13513659382E+04  0.00000000000E+00 0.  1.
          2   -1    0    0  501    0  0.00000000000E+00 -0.00000000000E+00 -0.20801560301E+04  0.20801560301E+04  0.00000000000E+00 0. -1.
         24    2    1    2    0    0  0.10809460436E+04  0.75354881548E+03  0.51009978691E+03  0.14151497605E+04  0.78529521119E+02 0.  0.
        254    2    1    2    0    0 -0.10809460436E+04 -0.75354881548E+03 -0.12388898789E+04  0.20163722078E+04  0.89141941981E+03 0.  0.
         23    2    4    4    0    0 -0.62026452184E+03 -0.15003026655E+03 -0.10419421407E+04  0.12254645483E+04  0.94248484125E+02 0.  0.
         23    2    4    4    0    0 -0.46068152175E+03 -0.60351854893E+03 -0.19694773816E+03  0.79090765946E+03  0.10141208429E+03 0.  0.
          4    1    3    3  502    0  0.12777862700E+03  0.79505325804E+02  0.33399660944E+02  0.15415580333E+03  0.00000000000E+00 0. -1.
         -3    1    3    3    0  502  0.95316741658E+03  0.67404348967E+03  0.47670012597E+03  0.12609939572E+04  0.00000000000E+00 0.  1.
         11    1    5    5    0    0 -0.11847143385E+03  0.79746917625E+01 -0.17883367929E+03  0.21466383300E+03  0.00000000000E+00 0.  1.
        -11    1    5    5    0    0 -0.50179308799E+03 -0.15800495831E+03 -0.86310846140E+03  0.10108007153E+04  0.00000000000E+00 0. -1.
          1    1    6    6  503    0 -0.45001419883E+03 -0.56634976581E+03 -0.16805189316E+03  0.74263468488E+03  0.00000000000E+00 0. -1.
         -1    1    6    6    0  503 -0.10667322916E+02 -0.37168783117E+02 -0.28895845004E+02  0.48272974583E+02  0.00000000000E+00 0.  1.
<mgrwt>
<rscale>  0 0.33532384E+04</rscale>
<asrwt>0</asrwt>
<pdfrwt beam="1">  1        2 0.32002400E+00 0.33532384E+04</pdfrwt>
<pdfrwt beam="2">  1       -1 0.20790245E+00 0.33532384E+04</pdfrwt>
<totfact> 0.75737970E-01</totfact>
</mgrwt>
</event>
<event>
12    6  0.1647231E-007  0.1613789E+04  0.7818608E-02  0.8812122E-01
         -1   -1    0    0    0  501 -0.00000000000E+00  0.00000000000E+00  0.12350944865E+04  0.12350944865E+04  0.00000000000E+00 0.  1.
          2   -1    0    0  501    0  0.00000000000E+00 -0.00000000000E+00 -0.52714874606E+03  0.52714874606E+03  0.00000000000E+00 0. -1.
         24    2    1    2    0    0  0.35538724631E+02 -0.55707153200E+03  0.33050838790E+03  0.65360664547E+03  0.79838335570E+02 0.  0.
        254    2    1    2    0    0 -0.35538724631E+02  0.55707153200E+03  0.37743735253E+03  0.11086365871E+04  0.88035472078E+03 0.  0.
         23    2    4    4    0    0  0.87111260150E+02 -0.20692866945E+03 -0.17528582445E+01  0.24223003182E+03  0.90909129989E+02 0.  0.
         23    2    4    4    0    0 -0.12264998478E+03  0.76400020145E+03  0.37919021078E+03  0.86640655526E+03  0.90198539151E+02 0.  0.
          4    1    3    3  502    0 -0.22819311531E+02 -0.14763301649E+03  0.10445873515E+03  0.18228509507E+03  0.00000000000E+00 0. -1.
         -1    1    3    3    0  502  0.58358036162E+02 -0.40943851550E+03  0.22604965276E+03  0.47132155040E+03  0.00000000000E+00 0.  1.
         11    1    5    5    0    0  0.77729647186E+02 -0.19305315102E+03 -0.29122792334E+02  0.21014174788E+03  0.00000000000E+00 0.  1.
        -11    1    5    5    0    0  0.93816129637E+01 -0.13875518431E+02  0.27369934090E+02  0.32088283931E+02  0.00000000000E+00 0. -1.
          1    1    6    6  503    0  0.13580592471E+02  0.83362948801E+02  0.50183513113E+02  0.98245604039E+02  0.00000000000E+00 0. -1.
         -1    1    6    6    0  503 -0.13623057725E+03  0.68063725265E+03  0.32900669767E+03  0.76816095122E+03  0.00000000000E+00 0.  1.
<mgrwt>
<rscale>  0 0.16137887E+04</rscale>
<asrwt>0</asrwt>
<pdfrwt beam="1">  1        2 0.81099808E-01 0.16137887E+04</pdfrwt>
<pdfrwt beam="2">  1       -1 0.19001453E+00 0.16137887E+04</pdfrwt>
<totfact> 0.11193411E+01</totfact>
</mgrwt>
</event>
<event>
12    6  0.1647231E-007  0.2569330E+04  0.7818608E-02  0.8378694E-01
          2   -1    0    0  501    0  0.00000000000E+00  0.00000000000E+00  0.18230301778E+04  0.18230301778E+04  0.00000000000E+00 0. -1.
         -1   -1    0    0    0  501 -0.00000000000E+00 -0.00000000000E+00 -0.90528594924E+03  0.90528594924E+03  0.00000000000E+00 0.  1.
         24    2    1    2    0    0  0.10377962154E+04 -0.36035643401E+03  0.31974377624E+03  0.11465713689E+04  0.74243365082E+02 0.  0.
        254    2    1    2    0    0 -0.10377962154E+04  0.36035643401E+03  0.59800045232E+03  0.15817447582E+04  0.96821185425E+03 0.  0.
         23    2    4    4    0    0 -0.11627154617E+04  0.37273044538E+03  0.32335498421E+03  0.12663888748E+04  0.91362500814E+02 0.  0.
         23    2    4    4    0    0  0.12491924627E+03 -0.12374011376E+02  0.27464546811E+03  0.31535588340E+03  0.90891505612E+02 0.  0.
          4    1    3    3  502    0  0.26605997625E+03 -0.85597415083E+02  0.11470609368E+03  0.30211308538E+03  0.00000000000E+00 0. -1.
         -3    1    3    3    0  502  0.77173623915E+03 -0.27475901893E+03  0.20503768255E+03  0.84445828350E+03  0.00000000000E+00 0.  1.
         11    1    5    5    0    0 -0.15904685935E+03  0.76394507535E+02  0.25128111270E+02  0.17822302384E+03  0.00000000000E+00 0.  1.
        -11    1    5    5    0    0 -0.10036686023E+04  0.29633593785E+03  0.29822687294E+03  0.10881658509E+04  0.00000000000E+00 0. -1.
          1    1    6    6  503    0  0.10975511570E+03  0.88432165555E+01  0.26598608066E+03  0.28787668021E+03  0.00000000000E+00 0. -1.
         -1    1    6    6    0  503  0.15164130565E+02 -0.21217227932E+02  0.86593874526E+01  0.27479203190E+02  0.00000000000E+00 0.  1.
<mgrwt>
<rscale>  0 0.25693296E+04</rscale>
<asrwt>0</asrwt>
<pdfrwt beam="1">  1        2 0.28046618E+00 0.25693296E+04</pdfrwt>
<pdfrwt beam="2">  1       -1 0.13927476E+00 0.25693296E+04</pdfrwt>
<totfact> 0.35932355E+00</totfact>
</mgrwt>
</event>
<event>
12    6  0.1647231E-007  0.1564797E+04  0.7818608E-02  0.8842471E-01
         -1   -1    0    0    0  501 -0.00000000000E+00  0.00000000000E+00  0.23323444578E+03  0.23323444578E+03  0.00000000000E+00 0.  1.
          2   -1    0    0  501    0  0.00000000000E+00 -0.00000000000E+00 -0.26246001170E+04  0.26246001170E+04  0.00000000000E+00 0. -1.
         24    2    1    2    0    0  0.48592127660E+03  0.13278115802E+03 -0.59131592903E+03  0.78094897064E+03  0.80476355794E+02 0.  0.
        254    2    1    2    0    0 -0.48592127660E+03 -0.13278115802E+03 -0.18000497422E+04  0.20768855921E+04  0.90527585051E+03 0.  0.
         23    2    4    4    0    0 -0.33745778845E+03 -0.50693241680E+02 -0.10260115043E+03  0.36865172151E+03  0.94496200802E+02 0.  0.
         23    2    4    4    0    0 -0.14846348815E+03 -0.82087916342E+02 -0.16974485917E+04  0.17082338706E+04  0.89170633024E+02 0.  0.
          4    1    3    3  502    0  0.44923131480E+03  0.10580104857E+03 -0.56002487291E+03  0.72569311307E+03  0.00000000000E+00 0. -1.
         -3    1    3    3    0  502  0.36689961798E+02  0.26980109453E+02 -0.31291056115E+02  0.55255857568E+02  0.00000000000E+00 0.  1.
         11    1    5    5    0    0 -0.98910780793E+02 -0.39873386019E+02  0.49424607310E+01  0.10675981167E+03  0.00000000000E+00 0. -1.
        -11    1    5    5    0    0 -0.23854700766E+03 -0.10819855660E+02 -0.10754361116E+03  0.26189190984E+03  0.00000000000E+00 0.  1.
          1    1    6    6  503    0 -0.59534053431E+02  0.13439015228E+02 -0.51446584221E+03  0.51807336686E+03  0.00000000000E+00 0. -1.
         -1    1    6    6    0  503 -0.88929434718E+02 -0.95526931570E+02 -0.11829827495E+04  0.11901605037E+04  0.00000000000E+00 0.  1.
<mgrwt>
<rscale>  0 0.15647967E+04</rscale>
<asrwt>0</asrwt>
<pdfrwt beam="1">  1        2 0.40378466E+00 0.15647967E+04</pdfrwt>
<pdfrwt beam="2">  1       -1 0.35882220E-01 0.15647967E+04</pdfrwt>
<totfact> 0.23989916E+01</totfact>
</mgrwt>
</event>
<event>
12    6  0.1647231E-007  0.1378217E+04  0.7818608E-02  0.8969739E-01
         -1   -1    0    0    0  501 -0.00000000000E+00  0.00000000000E+00  0.42148534406E+03  0.42148534406E+03  0.00000000000E+00 0.  1.
          2   -1    0    0  501    0  0.00000000000E+00 -0.00000000000E+00 -0.11266602975E+04  0.11266602975E+04  0.00000000000E+00 0. -1.
         24    2    1    2    0    0 -0.29047280344E+03 -0.22272184943E+03 -0.57769081551E+02  0.37825679521E+03  0.75904312050E+02 0.  0.
        254    2    1    2    0    0  0.29047280344E+03  0.22272184943E+03 -0.64740587193E+03  0.11698888464E+04  0.90306482501E+03 0.  0.
         23    2    4    4    0    0 -0.28471222922E+03  0.17980212630E+03 -0.86195898056E+02  0.35968933787E+03  0.92503128855E+02 0.  0.
         23    2    4    4    0    0  0.57518503266E+03  0.42919723124E+02 -0.56120997388E+03  0.81019950853E+03  0.93737315998E+02 0.  0.
          2    1    3    3  502    0 -0.28299898288E+02 -0.56816302442E+02 -0.12909184832E+02  0.64773632902E+02  0.00000000000E+00 0. -1.
         -1    1    3    3    0  502 -0.26217290515E+03 -0.16590554698E+03 -0.44859896718E+02  0.31348316230E+03  0.00000000000E+00 0.  1.
         11    1    5    5    0    0 -0.65744479475E+01  0.23057661285E+02 -0.24951394201E+02  0.34604207581E+02  0.00000000000E+00 0.  1.
        -11    1    5    5    0    0 -0.27813778127E+03  0.15674446502E+03 -0.61244503855E+02  0.32508513029E+03  0.00000000000E+00 0. -1.
          4    1    6    6  503    0  0.24956803875E+03  0.55460574474E+02 -0.20747774146E+03  0.32925232648E+03  0.00000000000E+00 0. -1.
         -4    1    6    6    0  503  0.32561699390E+03 -0.12540851351E+02 -0.35373223241E+03  0.48094718205E+03  0.00000000000E+00 0.  1.
<mgrwt>
<rscale>  0 0.13782174E+04</rscale>
<asrwt>0</asrwt>
<pdfrwt beam="1">  1        2 0.17333235E+00 0.13782174E+04</pdfrwt>
<pdfrwt beam="2">  1       -1 0.64843900E-01 0.13782174E+04</pdfrwt>
<totfact> 0.56242322E+01</totfact>
</mgrwt>
</event>
<event>
12    6  0.1647231E-007  0.1219001E+04  0.7818608E-02  0.9096385E-01
          2   -1    0    0  501    0  0.00000000000E+00  0.00000000000E+00  0.21987326384E+04  0.21987326384E+04  0.00000000000E+00 0. -1.
         -1   -1    0    0    0  501 -0.00000000000E+00 -0.00000000000E+00 -0.16895693987E+03  0.16895693987E+03  0.00000000000E+00 0.  1.
         24    2    1    2    0    0  0.10275160975E+03  0.97766082675E+02  0.25120063398E+02  0.16471843819E+03  0.79906483259E+02 0.  0.
        254    2    1    2    0    0 -0.10275160975E+03 -0.97766082675E+02  0.20046556351E+04  0.22029711401E+04  0.90239765532E+03 0.  0.
         23    2    4    4    0    0 -0.27355833288E+03 -0.98962309284E+02  0.15297843012E+03  0.34080822702E+03  0.90111860316E+02 0.  0.
         23    2    4    4    0    0  0.17080672314E+03  0.11962266088E+01  0.18516772050E+04  0.18621629130E+04  0.98822444932E+02 0.  0.
          2    1    3    3  502    0  0.78423082773E+01  0.39902865006E+02 -0.19300846871E+02  0.45014032531E+02  0.00000000000E+00 0. -1.
         -1    1    3    3    0  502  0.94909301468E+02  0.57863217670E+02  0.44420910269E+02  0.11970440566E+03  0.00000000000E+00 0.  1.
         11    1    5    5    0    0 -0.27646348518E+03 -0.93983090547E+02  0.13456992265E+03  0.32151818616E+03  0.00000000000E+00 0. -1.
        -11    1    5    5    0    0  0.29051522969E+01 -0.49792187366E+01  0.18408507467E+02  0.19290040857E+02  0.00000000000E+00 0.  1.
          1    1    6    6  503    0  0.18212588974E+03 -0.21933496423E+01  0.17979300471E+04  0.18071322875E+04  0.00000000000E+00 0. -1.
         -1    1    6    6    0  503 -0.11319166603E+02  0.33895762510E+01  0.53747157932E+02  0.55030625524E+02  0.00000000000E+00 0.  1.
<mgrwt>
<rscale>  0 0.12190015E+04</rscale>
<asrwt>0</asrwt>
<pdfrwt beam="1">  1        2 0.33826654E+00 0.12190015E+04</pdfrwt>
<pdfrwt beam="2">  1       -1 0.25993377E-01 0.12190015E+04</pdfrwt>
<totfact> 0.76263799E+01</totfact>
</mgrwt>
</event>
<event>
12    6  0.1647231E-007  0.2203537E+04  0.7818608E-02  0.8516957E-01
          2   -1    0    0  501    0  0.00000000000E+00  0.00000000000E+00  0.33837049229E+04  0.33837049229E+04  0.00000000000E+00 0. -1.
         -1   -1    0    0    0  501 -0.00000000000E+00 -0.00000000000E+00 -0.35874709620E+03  0.35874709620E+03  0.00000000000E+00 0.  1.
         24    2    1    2    0    0 -0.71674636367E+02 -0.69900708152E+03  0.22837321254E+04  0.23906497488E+04  0.77625042474E+02 0.  0.
        254    2    1    2    0    0  0.71674636367E+02  0.69900708152E+03  0.74122570130E+03  0.13518022703E+04  0.88555388560E+03 0.  0.
         23    2    4    4    0    0 -0.45987718176E+02  0.17447618140E+03  0.77960209654E+03  0.80520825355E+03  0.89577310523E+02 0.  0.
         23    2    4    4    0    0  0.11766235454E+03  0.52453090011E+03 -0.38376395240E+02  0.54659401678E+03  0.91187590268E+02 0.  0.
          2    1    3    3  502    0 -0.55177785704E+02 -0.67690743424E+03  0.22054437609E+04  0.23076460831E+04  0.00000000000E+00 0. -1.
         -1    1    3    3    0  502 -0.16496850663E+02 -0.22099647271E+02  0.78288364481E+02  0.83003665609E+02  0.00000000000E+00 0.  1.
         11    1    5    5    0    0 -0.58473657175E+02  0.13971107434E+03  0.47973603247E+03  0.50307555469E+03  0.00000000000E+00 0. -1.
        -11    1    5    5    0    0  0.12485939000E+02  0.34765107066E+02  0.29986606407E+03  0.30213269886E+03  0.00000000000E+00 0.  1.
          1    1    6    6  503    0  0.13083969747E+03  0.42056389005E+03 -0.31022672458E+02  0.44153756154E+03  0.00000000000E+00 0. -1.
         -1    1    6    6    0  503 -0.13177342927E+02  0.10396701006E+03 -0.73537227814E+01  0.10505645524E+03  0.00000000000E+00 0.  1.
<mgrwt>
<rscale>  0 0.22035374E+04</rscale>
<asrwt>0</asrwt>
<pdfrwt beam="1">  1        2 0.52056997E+00 0.22035374E+04</pdfrwt>
<pdfrwt beam="2">  1       -1 0.55191863E-01 0.22035374E+04</pdfrwt>
<totfact> 0.33845081E+00</totfact>
</mgrwt>
</event>
<event>
12    6  0.1647231E-007  0.1452706E+04  0.7818608E-02  0.8916527E-01
         -1   -1    0    0    0  501 -0.00000000000E+00  0.00000000000E+00  0.24192497722E+03  0.24192497722E+03  0.00000000000E+00 0.  1.
          2   -1    0    0  501    0  0.00000000000E+00 -0.00000000000E+00 -0.21807936039E+04  0.21807936039E+04  0.00000000000E+00 0. -1.
         24    2    1    2    0    0 -0.87011292611E+01 -0.15861809985E+03  0.90431580874E+02  0.19948048069E+03  0.79869769660E+02 0.  0.
        254    2    1    2    0    0  0.87011292611E+01  0.15861809985E+03 -0.20293002075E+04  0.22232381004E+04  0.89414367279E+03 0.  0.
         23    2    4    4    0    0 -0.29159791205E+03  0.43270585978E+01 -0.17469641764E+04  0.17736794970E+04  0.94905524532E+02 0.  0.
         23    2    4    4    0    0  0.30029904131E+03  0.15429104125E+03 -0.28233603115E+03  0.44955860347E+03  0.91673681284E+02 0.  0.
          2    1    3    3  502    0  0.40350009294E+01 -0.98211951089E+02  0.96125218925E+02  0.13748427649E+03  0.00000000000E+00 0. -1.
         -1    1    3    3    0  502 -0.12736130191E+02 -0.60406148761E+02 -0.56936380511E+01  0.61996204195E+02  0.00000000000E+00 0.  1.
         11    1    5    5    0    0 -0.70195666223E+02  0.35268181327E+02 -0.33222380815E+03  0.34138531731E+03  0.00000000000E+00 0.  1.
        -11    1    5    5    0    0 -0.22140224583E+03 -0.30941122729E+02 -0.14147403682E+04  0.14322941796E+04  0.00000000000E+00 0. -1.
          3    1    6    6  503    0  0.28692158892E+02  0.45507262405E+02 -0.68823044279E+02  0.87354234800E+02  0.00000000000E+00 0. -1.
         -3    1    6    6    0  503  0.27160688242E+03  0.10878377885E+03 -0.21351298687E+03  0.36220436867E+03  0.00000000000E+00 0.  1.
<mgrwt>
<rscale>  0 0.14527057E+04</rscale>
<asrwt>0</asrwt>
<pdfrwt beam="1">  1        2 0.33550671E+00 0.14527057E+04</pdfrwt>
<pdfrwt beam="2">  1       -1 0.37219227E-01 0.14527057E+04</pdfrwt>
<totfact> 0.40654494E+01</totfact>
</mgrwt>
</event>
<event>
12    6  0.1647231E-007  0.1493119E+04  0.7818608E-02  0.8889041E-01
          2   -1    0    0  501    0  0.00000000000E+00  0.00000000000E+00  0.13405244108E+04  0.13405244108E+04  0.00000000000E+00 0. -1.
         -1   -1    0    0    0  501 -0.00000000000E+00 -0.00000000000E+00 -0.41577112179E+03  0.41577112179E+03  0.00000000000E+00 0.  1.
         24    2    1    2    0    0 -0.34204956560E+03  0.24756141141E+03  0.39293205837E+02  0.43181749081E+03  0.81472888720E+02 0.  0.
        254    2    1    2    0    0  0.34204956560E+03 -0.24756141141E+03  0.88546008319E+03  0.13244780418E+04  0.88989772813E+03 0.  0.
         23    2    4    4    0    0 -0.19700721918E+03  0.13125704723E+03  0.48890146977E+03  0.55050538433E+03  0.89393926910E+02 0.  0.
         23    2    4    4    0    0  0.53905678479E+03 -0.37881845865E+03  0.39655861342E+03  0.77397265747E+03  0.87688646947E+02 0.  0.
          2    1    3    3  502    0 -0.11543734960E+02  0.23289374318E+02 -0.12880514536E+02  0.29009660936E+02  0.00000000000E+00 0. -1.
         -1    1    3    3    0  502 -0.33050583064E+03  0.22427203710E+03  0.52173720373E+02  0.40280782988E+03  0.00000000000E+00 0.  1.
         11    1    5    5    0    0 -0.69503242872E+02  0.99555778137E+02  0.24685142225E+03  0.27509576223E+03  0.00000000000E+00 0.  1.
        -11    1    5    5    0    0 -0.12750397631E+03  0.31701269094E+02  0.24205004752E+03  0.27540962209E+03  0.00000000000E+00 0. -1.
          3    1    6    6  503    0  0.45219083587E+03 -0.27917487839E+03  0.33451525617E+03  0.62794555607E+03  0.00000000000E+00 0. -1.
         -3    1    6    6    0  503  0.86865948911E+02 -0.99643580254E+02  0.62043357251E+02  0.14602710141E+03  0.00000000000E+00 0.  1.
<mgrwt>
<rscale>  0 0.14931193E+04</rscale>
<asrwt>0</asrwt>
<pdfrwt beam="1">  1        2 0.20623452E+00 0.14931193E+04</pdfrwt>
<pdfrwt beam="2">  1       -1 0.63964789E-01 0.14931193E+04</pdfrwt>
<totfact> 0.42764973E+01</totfact>
</mgrwt>
</event>
<event>
12    6  0.1647231E-007  0.1578204E+04  0.7818608E-02  0.8834051E-01
         -1   -1    0    0    0  501 -0.00000000000E+00  0.00000000000E+00  0.50236193603E+03  0.50236193603E+03  0.00000000000E+00 0.  1.
          2   -1    0    0  501    0  0.00000000000E+00 -0.00000000000E+00 -0.12395079663E+04  0.12395079663E+04  0.00000000000E+00 0. -1.
         24    2    1    2    0    0 -0.49833698380E+03 -0.13577452871E+03 -0.36031037353E+03  0.63477167432E+03  0.79605534849E+02 0.  0.
        254    2    1    2    0    0  0.49833698380E+03  0.13577452871E+03 -0.37683565678E+03  0.11070982281E+04  0.90381795859E+03 0.  0.
         23    2    4    4    0    0  0.56635823466E+03  0.28777927857E+03 -0.55373114423E+03  0.84763180041E+03  0.91010580933E+02 0.  0.
         23    2    4    4    0    0 -0.68021250856E+02 -0.15200474986E+03  0.17689548745E+03  0.25946642764E+03  0.91095988070E+02 0.  0.
          4    1    3    3  502    0 -0.46560732582E+03 -0.10420270764E+03 -0.32879576770E+03  0.57944373583E+03  0.00000000000E+00 0. -1.
         -3    1    3    3    0  502 -0.32729657983E+02 -0.31571821067E+02 -0.31514605831E+02  0.55327938492E+02  0.00000000000E+00 0.  1.
         11    1    5    5    0    0  0.89650162231E+02  0.74585066235E+02 -0.71308671402E+02  0.13669312459E+03  0.00000000000E+00 0. -1.
        -11    1    5    5    0    0  0.47670807243E+03  0.21319421234E+03 -0.48242247283E+03  0.71093867582E+03  0.00000000000E+00 0.  1.
          3    1    6    6  503    0  0.18818620642E+02 -0.66795616445E+01  0.25189220325E+02  0.32144266164E+02  0.00000000000E+00 0. -1.
         -3    1    6    6    0  503 -0.86839871498E+02 -0.14532518822E+03  0.15170626712E+03  0.22732216148E+03  0.00000000000E+00 0.  1.
<mgrwt>
<rscale>  0 0.15782036E+04</rscale>
<asrwt>0</asrwt>
<pdfrwt beam="1">  1        2 0.19069353E+00 0.15782036E+04</pdfrwt>
<pdfrwt beam="2">  1       -1 0.77286452E-01 0.15782036E+04</pdfrwt>
<totfact> 0.32983331E+01</totfact>
</mgrwt>
</event>
<event>
12    6  0.1691855E-007  0.2876496E+04  0.7818608E-02  0.8279905E-01
          2   -1    0    0  501    0  0.00000000000E+00  0.00000000000E+00  0.13855253963E+04  0.13855253963E+04  0.00000000000E+00 0. -1.
         -1   -1    0    0    0  501 -0.00000000000E+00 -0.00000000000E+00 -0.14929770906E+04  0.14929770906E+04  0.00000000000E+00 0.  1.
         24    2    1    2    0    0 -0.27401848546E+03  0.81145907474E+03 -0.10251261124E+04  0.13381821775E+04  0.79347549644E+02 0.  0.
        254    2    1    2    0    0  0.27401848546E+03 -0.81145907474E+03  0.91767441812E+03  0.15403203094E+04  0.89269723733E+03 0.  0.
         23    2    4    4    0    0  0.12686589794E+03  0.67384094376E+02 -0.88689306348E+02  0.19308874350E+03  0.93711779260E+02 0.  0.
         23    2    4    4    0    0  0.14715258752E+03 -0.87884316912E+03  0.10063637245E+04  0.13472315659E+04  0.90806091865E+02 0.  0.
          4    1    3    3  502    0  0.56266163530E+00 -0.10965796647E+01 -0.62024808510E+01  0.63237523500E+01  0.00000000000E+00 0. -1.
         -3    1    3    3    0  502 -0.27458114710E+03  0.81255565440E+03 -0.10189236315E+04  0.13318584252E+04  0.00000000000E+00 0.  1.
         11    1    5    5    0    0  0.14024621962E+03  0.66027490925E+02 -0.90534890898E+02  0.17951378260E+03  0.00000000000E+00 0. -1.
        -11    1    5    5    0    0 -0.13380321676E+02  0.13566034512E+01  0.18455845502E+01  0.13574960899E+02  0.00000000000E+00 0.  1.
          3    1    6    6  503    0  0.15202622419E+03 -0.69713553110E+03  0.78557327450E+03  0.10612423339E+04  0.00000000000E+00 0. -1.
         -3    1    6    6    0  503 -0.48736366676E+01 -0.18170763801E+03  0.22079044997E+03  0.28598923204E+03  0.00000000000E+00 0.  1.
<mgrwt>
<rscale>  0 0.28764963E+04</rscale>
<asrwt>0</asrwt>
<pdfrwt beam="1">  1        2 0.21315775E+00 0.28764963E+04</pdfrwt>
<pdfrwt beam="2">  1       -1 0.22968878E+00 0.28764963E+04</pdfrwt>
<totfact> 0.13778012E+00</totfact>
</mgrwt>
</event>
<event>
12    6  0.1647231E-007  0.1322608E+04  0.7818608E-02  0.9011827E-01
         -1   -1    0    0    0  501 -0.00000000000E+00  0.00000000000E+00  0.76220622105E+03  0.76220622105E+03  0.00000000000E+00 0.  1.
          2   -1    0    0  501    0  0.00000000000E+00 -0.00000000000E+00 -0.57375931584E+03  0.57375931584E+03  0.00000000000E+00 0. -1.
         24    2    1    2    0    0 -0.38870383607E+02  0.12728499753E+03 -0.27827887261E+03  0.31817500125E+03  0.77998866409E+02 0.  0.
        254    2    1    2    0    0  0.38870383607E+02 -0.12728499753E+03  0.46672577782E+03  0.10177905356E+04  0.89462408051E+03 0.  0.
         23    2    4    4    0    0  0.25413883617E+02  0.75275729340E+02 -0.24408308369E+03  0.27219123346E+03  0.90549516412E+02 0.  0.
         23    2    4    4    0    0  0.13456499989E+02 -0.20256072687E+03  0.71080886150E+03  0.74559930218E+03  0.97247911835E+02 0.  0.
          4    1    3    3  502    0  0.82519655098E+01  0.74437651094E+02 -0.19486631405E+03  0.20876287790E+03  0.00000000000E+00 0. -1.
         -3    1    3    3    0  502 -0.47122349116E+02  0.52847346436E+02 -0.83412558561E+02  0.10941212336E+03  0.00000000000E+00 0.  1.
         11    1    5    5    0    0  0.54568384216E+02  0.34398660865E+02 -0.94585169372E+02  0.11448725121E+03  0.00000000000E+00 0. -1.
        -11    1    5    5    0    0 -0.29154500598E+02  0.40877068475E+02 -0.14949791431E+03  0.15770398225E+03  0.00000000000E+00 0.  1.
          1    1    6    6  503    0 -0.15944762859E+02 -0.95786044174E+01  0.16282242152E+03  0.16388143908E+03  0.00000000000E+00 0. -1.
         -1    1    6    6    0  503  0.29401262848E+02 -0.19298212245E+03  0.54798643998E+03  0.58171786310E+03  0.00000000000E+00 0.  1.
<mgrwt>
<rscale>  0 0.13226079E+04</rscale>
<asrwt>0</asrwt>
<pdfrwt beam="1">  1        2 0.88270664E-01 0.13226079E+04</pdfrwt>
<pdfrwt beam="2">  1       -1 0.11726250E+00 0.13226079E+04</pdfrwt>
<totfact> 0.38360360E+01</totfact>
</mgrwt>
</event>
<event>
12    6  0.1647231E-007  0.2346303E+04  0.7818608E-02  0.8459885E-01
         -1   -1    0    0    0  501 -0.00000000000E+00  0.00000000000E+00  0.57540023782E+03  0.57540023782E+03  0.00000000000E+00 0.  1.
          2   -1    0    0  501    0  0.00000000000E+00 -0.00000000000E+00 -0.23918725355E+04  0.23918725355E+04  0.00000000000E+00 0. -1.
         24    2    1    2    0    0  0.52062546540E+03  0.33198874546E+03 -0.17700841537E+04  0.18763787497E+04  0.79573227587E+02 0.  0.
        254    2    1    2    0    0 -0.52062546540E+03 -0.33198874546E+03 -0.46388143898E+02  0.10908940236E+04  0.89812610947E+03 0.  0.
         23    2    4    4    0    0 -0.39128852183E+03  0.87386188371E+02  0.31264590977E+03  0.51675933115E+03  0.92464524014E+02 0.  0.
         23    2    4    4    0    0 -0.12933694357E+03 -0.41937493383E+03 -0.35903405367E+03  0.57413469246E+03  0.90121103501E+02 0.  0.
          2    1    3    3  502    0  0.48786222640E+03  0.33099743526E+03 -0.16880448152E+04  0.17880335993E+04  0.00000000000E+00 0. -1.
         -1    1    3    3    0  502  0.32763239003E+02  0.99131020191E+00 -0.82039338530E+02  0.88345150361E+02  0.00000000000E+00 0.  1.
         11    1    5    5    0    0 -0.15287773573E+03  0.74068140752E+02  0.10068553135E+03  0.19747219495E+03  0.00000000000E+00 0. -1.
        -11    1    5    5    0    0 -0.23841078611E+03  0.13318047619E+02  0.21196037842E+03  0.31928713620E+03  0.00000000000E+00 0.  1.
          4    1    6    6  503    0  0.20653783038E+01 -0.18986679015E+00 -0.17683851704E+02  0.17805068043E+02  0.00000000000E+00 0. -1.
         -4    1    6    6    0  503 -0.13140232187E+03 -0.41918506704E+03 -0.34135020196E+03  0.55632962442E+03  0.00000000000E+00 0.  1.
<mgrwt>
<rscale>  0 0.23463026E+04</rscale>
<asrwt>0</asrwt>
<pdfrwt beam="1">  1        2 0.36798039E+00 0.23463026E+04</pdfrwt>
<pdfrwt beam="2">  1       -1 0.88523113E-01 0.23463026E+04</pdfrwt>
<totfact> 0.51725478E+00</totfact>
</mgrwt>
</event>
<event>
12    6  0.1647231E-007  0.1324846E+04  0.7818608E-02  0.9010091E-01
          2   -1    0    0  501    0  0.00000000000E+00  0.00000000000E+00  0.47974577291E+03  0.47974577291E+03  0.00000000000E+00 0. -1.
         -1   -1    0    0    0  501 -0.00000000000E+00 -0.00000000000E+00 -0.91465966660E+03  0.91465966660E+03  0.00000000000E+00 0.  1.
         24    2    1    2    0    0 -0.12564875768E+01 -0.16617667002E+03 -0.40487860102E+03  0.44468863522E+03  0.78772052885E+02 0.  0.
        254    2    1    2    0    0  0.12564875768E+01  0.16617667002E+03 -0.30035292671E+02  0.94971680429E+03  0.93458205906E+03 0.  0.
         23    2    4    4    0    0 -0.21915660305E+03  0.31827321546E+03  0.31184979885E+03  0.50551752278E+03  0.94711205550E+02 0.  0.
         23    2    4    4    0    0  0.22041309063E+03 -0.15209654544E+03 -0.34188509152E+03  0.44419928150E+03  0.93339681958E+02 0.  0.
          2    1    3    3  502    0 -0.24014871410E+02 -0.11156084578E+02 -0.45586660210E+02  0.52719217189E+02  0.00000000000E+00 0. -1.
         -1    1    3    3    0  502  0.22758383833E+02 -0.15502058544E+03 -0.35929194081E+03  0.39196941803E+03  0.00000000000E+00 0.  1.
         11    1    5    5    0    0 -0.10969075207E+02  0.46107932608E+02  0.90755547981E+01  0.48255857211E+02  0.00000000000E+00 0. -1.
        -11    1    5    5    0    0 -0.20818752785E+03  0.27216528285E+03  0.30277424405E+03  0.45726166557E+03  0.00000000000E+00 0.  1.
          2    1    6    6  503    0  0.27155714973E+02  0.11783733539E+02 -0.45270931716E+02  0.54090169996E+02  0.00000000000E+00 0. -1.
         -2    1    6    6    0  503  0.19325737566E+03 -0.16388027898E+03 -0.29661415980E+03  0.39010911151E+03  0.00000000000E+00 0.  1.
<mgrwt>
<rscale>  0 0.13248458E+04</rscale>
<asrwt>0</asrwt>
<pdfrwt beam="1">  1        2 0.73807043E-01 0.13248458E+04</pdfrwt>
<pdfrwt beam="2">  1       -1 0.14071687E+00 0.13248458E+04</pdfrwt>
<totfact> 0.29907584E+01</totfact>
</mgrwt>
</event>
<event>
12    6  0.1647231E-007  0.1810849E+04  0.7818608E-02  0.8700551E-01
          2   -1    0    0  501    0  0.00000000000E+00  0.00000000000E+00  0.97035835348E+03  0.97035835348E+03  0.00000000000E+00 0. -1.
         -1   -1    0    0    0  501 -0.00000000000E+00 -0.00000000000E+00 -0.84483610526E+03  0.84483610526E+03  0.00000000000E+00 0.  1.
         24    2    1    2    0    0 -0.37956326135E+03 -0.50988007475E+03 -0.19464321158E+03  0.66871530730E+03  0.72444616125E+02 0.  0.
        254    2    1    2    0    0  0.37956326135E+03  0.50988007475E+03  0.32016545980E+03  0.11464791514E+04  0.89881175062E+03 0.  0.
         23    2    4    4    0    0 -0.74324735568E+02  0.61562538643E+03  0.16808516185E+03  0.64940070276E+03  0.94603744032E+02 0.  0.
         23    2    4    4    0    0  0.45388799692E+03 -0.10574531168E+03  0.15208029794E+03  0.49707844869E+03  0.82232490130E+02 0.  0.
          2    1    3    3  502    0 -0.82202036510E+02 -0.16518730452E+03 -0.58420412273E+02  0.19353801939E+03  0.00000000000E+00 0. -1.
         -1    1    3    3    0  502 -0.29736122484E+03 -0.34469277023E+03 -0.13622279930E+03  0.47517728790E+03  0.00000000000E+00 0.  1.
         11    1    5    5    0    0 -0.18565633464E+01  0.31558786029E+02  0.32703590734E+02  0.45485477353E+02  0.00000000000E+00 0.  1.
        -11    1    5    5    0    0 -0.72468172222E+02  0.58406660040E+03  0.13538157112E+03  0.60391522541E+03  0.00000000000E+00 0. -1.
          2    1    6    6  503    0  0.80434397956E+02 -0.70143589835E+01  0.58258463567E+02  0.99563759389E+02  0.00000000000E+00 0. -1.
         -2    1    6    6    0  503  0.37345359897E+03 -0.98730952693E+02  0.93821834378E+02  0.39751468930E+03  0.00000000000E+00 0.  1.
<mgrwt>
<rscale>  0 0.18108493E+04</rscale>
<asrwt>0</asrwt>
<pdfrwt beam="1">  1        2 0.14928590E+00 0.18108493E+04</pdfrwt>
<pdfrwt beam="2">  1       -1 0.12997479E+00 0.18108493E+04</pdfrwt>
<totfact> 0.14378128E+01</totfact>
</mgrwt>
</event>
<event>
12    6  0.1647231E-007  0.1519694E+04  0.7818608E-02  0.8871461E-01
          2   -1    0    0  501    0  0.00000000000E+00  0.00000000000E+00  0.36486748007E+03  0.36486748007E+03  0.00000000000E+00 0. -1.
         -1   -1    0    0    0  501 -0.00000000000E+00 -0.00000000000E+00 -0.15824041299E+04  0.15824041299E+04  0.00000000000E+00 0.  1.
         24    2    1    2    0    0  0.44943353394E+02 -0.41030374200E+03 -0.72560462903E+03  0.83802006383E+03  0.73528797091E+02 0.  0.
        254    2    1    2    0    0 -0.44943353394E+02  0.41030374200E+03 -0.49193202076E+03  0.11092515461E+04  0.90447377727E+03 0.  0.
         23    2    4    4    0    0  0.29757676935E+03  0.53264388292E+03 -0.26924072585E+03  0.67314205256E+03  0.91477947112E+02 0.  0.
         23    2    4    4    0    0 -0.34252012274E+03 -0.12234014093E+03 -0.22269129491E+03  0.43610949353E+03  0.91175286996E+02 0.  0.
          4    1    3    3  502    0  0.66470936684E+01 -0.41507578583E+02 -0.37290122296E+02  0.56192669939E+02  0.00000000000E+00 0. -1.
         -3    1    3    3    0  502  0.38296259725E+02 -0.36879616341E+03 -0.68831450673E+03  0.78182739389E+03  0.00000000000E+00 0.  1.
         11    1    5    5    0    0  0.30335962434E+03  0.52968286054E+03 -0.26728287874E+03  0.66635661001E+03  0.00000000000E+00 0. -1.
        -11    1    5    5    0    0 -0.57828549943E+01  0.29610223822E+01 -0.19578471024E+01  0.67854425581E+01  0.00000000000E+00 0.  1.
          4    1    6    6  503    0 -0.16324575962E+03 -0.63434277310E+02 -0.16012470684E+03  0.23730361841E+03  0.00000000000E+00 0. -1.
         -4    1    6    6    0  503 -0.17927436312E+03 -0.58905863616E+02 -0.62566588075E+02  0.19880587512E+03  0.00000000000E+00 0.  1.
<mgrwt>
<rscale>  0 0.15196945E+04</rscale>
<asrwt>0</asrwt>
<pdfrwt beam="1">  1        2 0.56133457E-01 0.15196945E+04</pdfrwt>
<pdfrwt beam="2">  1       -1 0.24344680E+00 0.15196945E+04</pdfrwt>
<totfact> 0.74961325E+00</totfact>
</mgrwt>
</event>
<event>
12    6  0.1647231E-007  0.1164666E+04  0.7818608E-02  0.9144359E-01
          2   -1    0    0  501    0  0.00000000000E+00  0.00000000000E+00  0.45168309556E+03  0.45168309556E+03  0.00000000000E+00 0. -1.
         -1   -1    0    0    0  501 -0.00000000000E+00 -0.00000000000E+00 -0.75077380175E+03  0.75077380175E+03  0.00000000000E+00 0.  1.
         24    2    1    2    0    0 -0.87411396313E+02 -0.89181067707E+02 -0.15656783322E+03  0.21611049422E+03  0.81217265847E+02 0.  0.
        254    2    1    2    0    0  0.87411396313E+02  0.89181067707E+02 -0.14252287297E+03  0.98634640309E+03  0.96797336871E+03 0.  0.
         23    2    4    4    0    0  0.18386821291E+03  0.21518670046E+03 -0.50098661832E+03  0.58441128541E+03  0.10215734434E+03 0.  0.
         23    2    4    4    0    0 -0.96456816595E+02 -0.12600563276E+03  0.35846374535E+03  0.40193511768E+03  0.88736943476E+02 0.  0.
          4    1    3    3  502    0 -0.88716168352E+01 -0.32459983026E+02 -0.96309757849E+02  0.10201924103E+03  0.00000000000E+00 0. -1.
         -3    1    3    3    0  502 -0.78539779478E+02 -0.56721084681E+02 -0.60258075369E+02  0.11409125319E+03  0.00000000000E+00 0.  1.
         11    1    5    5    0    0  0.17838947679E+03  0.18596571854E+03 -0.48822171973E+03  0.55205661079E+03  0.00000000000E+00 0. -1.
        -11    1    5    5    0    0  0.54787361197E+01  0.29220981918E+02 -0.12764898596E+02  0.32354674622E+02  0.00000000000E+00 0.  1.
          4    1    6    6  503    0 -0.69076331481E+02 -0.93040159434E+02  0.33182547511E+03  0.35147710704E+03  0.00000000000E+00 0. -1.
         -4    1    6    6    0  503 -0.27380485114E+02 -0.32965473322E+02  0.26638270240E+02  0.50458010640E+02  0.00000000000E+00 0.  1.
<mgrwt>
<rscale>  0 0.11646662E+04</rscale>
<asrwt>0</asrwt>
<pdfrwt beam="1">  1        2 0.69489708E-01 0.11646662E+04</pdfrwt>
<pdfrwt beam="2">  1       -1 0.11550366E+00 0.11646662E+04</pdfrwt>
<totfact> 0.53243243E+01</totfact>
</mgrwt>
</event>
<event>
12    6  0.1647231E-007  0.3117727E+04  0.7818608E-02  0.8210890E-01
         -1   -1    0    0    0  501 -0.00000000000E+00  0.00000000000E+00  0.78471500245E+03  0.78471500245E+03  0.00000000000E+00 0.  1.
          2   -1    0    0  501    0  0.00000000000E+00 -0.00000000000E+00 -0.30967367387E+04  0.30967367387E+04  0.00000000000E+00 0. -1.
         24    2    1    2    0    0  0.21153886361E+03 -0.90350037036E+03 -0.24059067419E+04  0.25798711465E+04  0.79286012477E+02 0.  0.
        254    2    1    2    0    0 -0.21153886361E+03  0.90350037036E+03  0.93885005596E+02  0.13015805947E+04  0.90787446276E+03 0.  0.
         23    2    4    4    0    0  0.11574909181E+03 -0.13845016537E+03  0.17643373435E+00  0.20149015013E+03  0.89621141039E+02 0.  0.
         23    2    4    4    0    0 -0.32728795543E+03  0.10419505357E+04  0.93708571862E+02  0.11000904446E+04  0.92948184958E+02 0.  0.
          2    1    3    3  502    0  0.16202236946E+03 -0.65219985294E+03 -0.18333079880E+04  0.19525967518E+04  0.00000000000E+00 0. -1.
         -1    1    3    3    0  502  0.49516494152E+02 -0.25130051742E+03 -0.57259875394E+03  0.62727439472E+03  0.00000000000E+00 0.  1.
         11    1    5    5    0    0  0.48092213540E+02 -0.28654044417E+02 -0.37201694265E+02  0.67215186683E+02  0.00000000000E+00 0.  1.
        -11    1    5    5    0    0  0.67656878275E+02 -0.10979612096E+03  0.37378127999E+02  0.13427496344E+03  0.00000000000E+00 0. -1.
          4    1    6    6  503    0 -0.13082104078E+03  0.44345814895E+03  0.85092021896E+02  0.47011692883E+03  0.00000000000E+00 0.  1.
         -4    1    6    6    0  503 -0.19646691464E+03  0.59849238678E+03  0.86165499658E+01  0.62997351573E+03  0.00000000000E+00 0. -1.
<mgrwt>
<rscale>  0 0.31177272E+04</rscale>
<asrwt>0</asrwt>
<pdfrwt beam="1">  1        2 0.47642103E+00 0.31177272E+04</pdfrwt>
<pdfrwt beam="2">  1       -1 0.12072539E+00 0.31177272E+04</pdfrwt>
<totfact> 0.88756699E-01</totfact>
</mgrwt>
</event>
<event>
12    6  0.1647231E-007  0.3160161E+04  0.7818608E-02  0.8199419E-01
         -1   -1    0    0    0  501 -0.00000000000E+00  0.00000000000E+00  0.84493986660E+03  0.84493986660E+03  0.00000000000E+00 0.  1.
          2   -1    0    0  501    0  0.00000000000E+00 -0.00000000000E+00 -0.29548299524E+04  0.29548299524E+04  0.00000000000E+00 0. -1.
         24    2    1    2    0    0  0.47605485548E+03  0.52429376164E+02 -0.26155703619E+04  0.26602787839E+04  0.80609086864E+02 0.  0.
        254    2    1    2    0    0 -0.47605485548E+03 -0.52429376164E+02  0.50568027609E+03  0.11394910352E+04  0.90185930868E+03 0.  0.
         23    2    4    4    0    0 -0.54111155620E+03  0.23398486512E+03  0.62378270612E+02  0.59970924013E+03  0.90606239835E+02 0.  0.
         23    2    4    4    0    0  0.65056700722E+02 -0.28641424128E+03  0.44330200548E+03  0.53978179502E+03  0.92640305801E+02 0.  0.
          4    1    3    3  502    0  0.24305053308E+03  0.19489295877E+02 -0.15475412405E+04  0.15666324665E+04  0.00000000000E+00 0. -1.
         -3    1    3    3    0  502  0.23300432239E+03  0.32940080287E+02 -0.10680291214E+04  0.10936463173E+04  0.00000000000E+00 0.  1.
         11    1    5    5    0    0 -0.13695632494E+03  0.19704412373E+02  0.26282302008E+02  0.14084054178E+03  0.00000000000E+00 0.  1.
        -11    1    5    5    0    0 -0.40415523125E+03  0.21428045274E+03  0.36095968604E+02  0.45886869835E+03  0.00000000000E+00 0. -1.
          2    1    6    6  503    0  0.45538242411E+02 -0.27979967095E+03  0.38619643986E+03  0.47907126562E+03  0.00000000000E+00 0. -1.
         -2    1    6    6    0  503  0.19518458310E+02 -0.66145703347E+01  0.57105565619E+02  0.60710529401E+02  0.00000000000E+00 0.  1.
<mgrwt>
<rscale>  0 0.31601605E+04</rscale>
<asrwt>0</asrwt>
<pdfrwt beam="1">  1        2 0.45458922E+00 0.31601605E+04</pdfrwt>
<pdfrwt beam="2">  1       -1 0.12999075E+00 0.31601605E+04</pdfrwt>
<totfact> 0.90388590E-01</totfact>
</mgrwt>
</event>
<event>
12    6  0.1647231E-007  0.2203041E+04  0.7818608E-02  0.8517163E-01
         -1   -1    0    0    0  501 -0.00000000000E+00  0.00000000000E+00  0.65438365909E+03  0.65438365909E+03  0.00000000000E+00 0.  1.
          2   -1    0    0  501    0  0.00000000000E+00 -0.00000000000E+00 -0.18541841174E+04  0.18541841174E+04  0.00000000000E+00 0. -1.
         24    2    1    2    0    0  0.24600762359E+03  0.87980119173E+03 -0.58508568478E+03  0.10876827234E+04  0.78476495340E+02 0.  0.
        254    2    1    2    0    0 -0.24600762359E+03 -0.87980119173E+03 -0.61471477349E+03  0.14208850531E+04  0.89803685534E+03 0.  0.
         23    2    4    4    0    0 -0.36980979209E+03 -0.96613784591E+03 -0.67574872316E+03  0.12389965650E+04  0.91074319523E+02 0.  0.
         23    2    4    4    0    0  0.12380216850E+03  0.86336654177E+02  0.61033949668E+02  0.18188848807E+03  0.81100458086E+02 0.  0.
          4    1    3    3  502    0  0.20626822079E+03  0.72040337082E+03 -0.44313452194E+03  0.87057211082E+03  0.00000000000E+00 0. -1.
         -3    1    3    3    0  502  0.39739402792E+02  0.15939782091E+03 -0.14195116284E+03  0.21711061254E+03  0.00000000000E+00 0.  1.
         11    1    5    5    0    0 -0.19303932235E+03 -0.57937625474E+03 -0.35525165793E+03  0.70650177989E+03  0.00000000000E+00 0. -1.
        -11    1    5    5    0    0 -0.17677046974E+03 -0.38676159117E+03 -0.32049706523E+03  0.53249478513E+03  0.00000000000E+00 0.  1.
          3    1    6    6  503    0  0.54350942035E+02  0.85099465896E+02  0.26922421826E+02  0.10450244396E+03  0.00000000000E+00 0. -1.
         -3    1    6    6    0  503  0.69451226466E+02  0.12371882815E+01  0.34111527842E+02  0.77386044118E+02  0.00000000000E+00 0.  1.
<mgrwt>
<rscale>  0 0.22030413E+04</rscale>
<asrwt>0</asrwt>
<pdfrwt beam="1">  1        2 0.28525909E+00 0.22030413E+04</pdfrwt>
<pdfrwt beam="2">  1       -1 0.10067441E+00 0.22030413E+04</pdfrwt>
<totfact> 0.78608433E+00</totfact>
</mgrwt>
</event>
<event>
12    6  0.1647231E-007  0.1438490E+04  0.7818608E-02  0.8926419E-01
         -1   -1    0    0    0  501 -0.00000000000E+00  0.00000000000E+00  0.26103190523E+03  0.26103190523E+03  0.00000000000E+00 0.  1.
          2   -1    0    0  501    0  0.00000000000E+00 -0.00000000000E+00 -0.19818023369E+04  0.19818023369E+04  0.00000000000E+00 0. -1.
         24    2    1    2    0    0 -0.79586697495E+02 -0.42313307833E+02  0.13287024859E+03  0.17945206370E+03  0.80150369719E+02 0.  0.
        254    2    1    2    0    0  0.79586697495E+02  0.42313307833E+02 -0.18536406803E+04  0.20633821784E+04  0.90190785801E+03 0.  0.
         23    2    4    4    0    0 -0.31859284931E+03  0.56316493940E+01 -0.14510123756E+04  0.14882737946E+04  0.89380391181E+02 0.  0.
         23    2    4    4    0    0  0.39817954680E+03  0.36681658439E+02 -0.40262830464E+03  0.57510838385E+03  0.93528636935E+02 0.  0.
          4    1    3    3  502    0  0.14840097144E+02 -0.79358847158E+01  0.66029066933E+01  0.18077752246E+02  0.00000000000E+00 0. -1.
         -3    1    3    3    0  502 -0.94426794639E+02 -0.34377423117E+02  0.12626734190E+03  0.16137431145E+03  0.00000000000E+00 0.  1.
         11    1    5    5    0    0 -0.80890273237E+02 -0.65622708103E+01 -0.56705403859E+03  0.57283207172E+03  0.00000000000E+00 0. -1.
        -11    1    5    5    0    0 -0.23770257607E+03  0.12193920204E+02 -0.88395833703E+03  0.91544172287E+03  0.00000000000E+00 0.  1.
          4    1    6    6  503    0  0.12217362663E+02 -0.12558826345E+02 -0.38105713009E+01  0.17930658751E+02  0.00000000000E+00 0. -1.
         -4    1    6    6    0  503  0.38596218414E+03  0.49240484784E+02 -0.39881773334E+03  0.55717772510E+03  0.00000000000E+00 0.  1.
<mgrwt>
<rscale>  0 0.14384904E+04</rscale>
<asrwt>0</asrwt>
<pdfrwt beam="1">  1        2 0.30489266E+00 0.14384904E+04</pdfrwt>
<pdfrwt beam="2">  1       -1 0.40158755E-01 0.14384904E+04</pdfrwt>
<totfact> 0.45742146E+01</totfact>
</mgrwt>
</event>
<event>
12    6  0.1647231E-007  0.1701044E+04  0.7818608E-02  0.8760769E-01
         -1   -1    0    0    0  501 -0.00000000000E+00  0.00000000000E+00  0.20320455944E+04  0.20320455944E+04  0.00000000000E+00 0.  1.
          2   -1    0    0  501    0  0.00000000000E+00 -0.00000000000E+00 -0.35598968255E+03  0.35598968255E+03  0.00000000000E+00 0. -1.
         24    2    1    2    0    0  0.39798206750E+02 -0.25909290482E+01  0.15941086736E+04  0.15966590514E+04  0.80913860133E+02 0.  0.
        254    2    1    2    0    0 -0.39798206750E+02  0.25909290482E+01  0.81947238229E+02  0.79137622560E+03  0.78611091483E+03 0.  0.
         23    2    4    4    0    0 -0.62688542881E+02 -0.31519447260E+03 -0.16982246443E+03  0.37516501241E+03  0.92906986504E+02 0.  0.
         23    2    4    4    0    0  0.22890336131E+02  0.31778540165E+03  0.25176970266E+03  0.41621121319E+03  0.91281223794E+02 0.  0.
          2    1    3    3  502    0  0.20584984688E+01 -0.30011914399E+02  0.10851677716E+04  0.10855846558E+04  0.00000000000E+00 0. -1.
         -1    1    3    3    0  502  0.37739708281E+02  0.27420985351E+02  0.50894090205E+03  0.51107439556E+03  0.00000000000E+00 0.  1.
         11    1    5    5    0    0 -0.44879129641E+02 -0.28362508557E+03 -0.17821272063E+03  0.33796020363E+03  0.00000000000E+00 0. -1.
        -11    1    5    5    0    0 -0.17809413240E+02 -0.31569387034E+02  0.83902561926E+01  0.37204808784E+02  0.00000000000E+00 0.  1.
          1    1    6    6  503    0  0.36171292607E+02  0.27556357147E+03  0.24676587686E+03  0.37166791940E+03  0.00000000000E+00 0. -1.
         -1    1    6    6    0  503 -0.13280956477E+02  0.42221830184E+02  0.50038257988E+01  0.44543293790E+02  0.00000000000E+00 0.  1.
<mgrwt>
<rscale>  0 0.17010435E+04</rscale>
<asrwt>0</asrwt>
<pdfrwt beam="1">  1        2 0.54767645E-01 0.17010435E+04</pdfrwt>
<pdfrwt beam="2">  1       -1 0.31262239E+00 0.17010435E+04</pdfrwt>
<totfact> 0.27034516E+00</totfact>
</mgrwt>
</event>
<event>
12    6  0.1647231E-007  0.1390433E+04  0.7818608E-02  0.8960773E-01
         -1   -1    0    0    0  501 -0.00000000000E+00  0.00000000000E+00  0.12340908067E+04  0.12340908067E+04  0.00000000000E+00 0.  1.
          2   -1    0    0  501    0  0.00000000000E+00 -0.00000000000E+00 -0.39164526509E+03  0.39164526509E+03  0.00000000000E+00 0. -1.
         24    2    1    2    0    0  0.37379018822E+03 -0.35963758507E+01  0.86244837296E+02  0.39171632232E+03  0.79192591066E+02 0.  0.
        254    2    1    2    0    0 -0.37379018822E+03  0.35963758507E+01  0.75620070436E+03  0.12340197495E+04  0.90068484954E+03 0.  0.
         23    2    4    4    0    0  0.33740110521E+02  0.62056559284E+02 -0.17629252910E+03  0.21047795372E+03  0.90733133852E+02 0.  0.
         23    2    4    4    0    0 -0.40753029874E+03 -0.58460183433E+02  0.93249323346E+03  0.10235417958E+04  0.92712673548E+02 0.  0.
          2    1    3    3  502    0  0.31063202257E+03  0.73875919386E+01  0.99483888692E+02  0.32625737397E+03  0.00000000000E+00 0. -1.
         -1    1    3    3    0  502  0.63158165657E+02 -0.10983967789E+02 -0.13239051396E+02  0.65458948353E+02  0.00000000000E+00 0.  1.
         11    1    5    5    0    0  0.11072122543E+02 -0.12432671330E+02 -0.10032115568E+03  0.10169315361E+03  0.00000000000E+00 0.  1.
        -11    1    5    5    0    0  0.22667987978E+02  0.74489230614E+02 -0.75971373423E+02  0.10878480012E+03  0.00000000000E+00 0. -1.
          3    1    6    6  503    0 -0.33946094015E+03 -0.68583828224E+02  0.69853380085E+03  0.77967104750E+03  0.00000000000E+00 0. -1.
         -3    1    6    6    0  503 -0.68069358596E+02  0.10123644791E+02  0.23395943261E+03  0.24387074829E+03  0.00000000000E+00 0.  1.
<mgrwt>
<rscale>  0 0.13904328E+04</rscale>
<asrwt>0</asrwt>
<pdfrwt beam="1">  1        2 0.60253118E-01 0.13904328E+04</pdfrwt>
<pdfrwt beam="2">  1       -1 0.18986012E+00 0.13904328E+04</pdfrwt>
<totfact> 0.16072953E+01</totfact>
</mgrwt>
</event>
<event>
12    6  0.1647231E-007  0.3392510E+04  0.7818608E-02  0.8139747E-01
         -1   -1    0    0    0  501 -0.00000000000E+00  0.00000000000E+00  0.10267081714E+04  0.10267081714E+04  0.00000000000E+00 0.  1.
          2   -1    0    0  501    0  0.00000000000E+00 -0.00000000000E+00 -0.28024325661E+04  0.28024325661E+04  0.00000000000E+00 0. -1.
         24    2    1    2    0    0  0.34898910924E+03  0.47454469990E+03 -0.24652891257E+04  0.25359422978E+04  0.79792189749E+02 0.  0.
        254    2    1    2    0    0 -0.34898910924E+03 -0.47454469990E+03  0.68956473099E+03  0.12931984397E+04  0.92188752874E+03 0.  0.
         23    2    4    4    0    0 -0.12415942676E+03 -0.45334169266E+03  0.86749234044E+03  0.99098970740E+03  0.92646564396E+02 0.  0.
         23    2    4    4    0    0 -0.22482968248E+03 -0.21203007237E+02 -0.17792760945E+03  0.30220873229E+03  0.93133935974E+02 0.  0.
          2    1    3    3  502    0  0.12882931091E+03  0.20865867851E+03 -0.11715827017E+04  0.11969717884E+04  0.00000000000E+00 0. -1.
         -1    1    3    3    0  502  0.22015979833E+03  0.26588602139E+03 -0.12937064241E+04  0.13389705093E+04  0.00000000000E+00 0.  1.
         11    1    5    5    0    0 -0.98117004877E+02 -0.21307193836E+03  0.48108563829E+03  0.53522891265E+03  0.00000000000E+00 0.  1.
        -11    1    5    5    0    0 -0.26042421884E+02 -0.24026975431E+03  0.38640670215E+03  0.45576079476E+03  0.00000000000E+00 0. -1.
          2    1    6    6  503    0 -0.12586597605E+03 -0.55421924252E+02 -0.81513441274E+02  0.15986955534E+03  0.00000000000E+00 0.  1.
         -2    1    6    6    0  503 -0.98963706429E+02  0.34218917015E+02 -0.96414168178E+02  0.14233917696E+03  0.00000000000E+00 0. -1.
<mgrwt>
<rscale>  0 0.33925096E+04</rscale>
<asrwt>0</asrwt>
<pdfrwt beam="1">  1        2 0.43114347E+00 0.33925096E+04</pdfrwt>
<pdfrwt beam="2">  1       -1 0.15795511E+00 0.33925096E+04</pdfrwt>
<totfact> 0.65700653E-01</totfact>
</mgrwt>
</event>
<event>
12    6  0.1647231E-007  0.2084365E+04  0.7818608E-02  0.8568162E-01
         -1   -1    0    0    0  501 -0.00000000000E+00  0.00000000000E+00  0.41607185520E+03  0.41607185520E+03  0.00000000000E+00 0.  1.
          2   -1    0    0  501    0  0.00000000000E+00 -0.00000000000E+00 -0.26104720454E+04  0.26104720454E+04  0.00000000000E+00 0. -1.
         24    2    1    2    0    0 -0.63586258799E+03  0.42752248190E+03 -0.86137845415E+03  0.11557897163E+04  0.82342720383E+02 0.  0.
        254    2    1    2    0    0  0.63586258799E+03 -0.42752248190E+03 -0.13330217360E+04  0.18707541843E+04  0.10656817377E+04 0.  0.
         23    2    4    4    0    0  0.65676244535E+03 -0.16055717402E+03 -0.21207425774E+03  0.71449404283E+03  0.91710035944E+02 0.  0.
         23    2    4    4    0    0 -0.20899857358E+02 -0.26696530788E+03 -0.11209474783E+04  0.11562601415E+04  0.93311232206E+02 0.  0.
          2    1    3    3  502    0 -0.11634577831E+03  0.50914311520E+02 -0.11303493949E+03  0.17001618980E+03  0.00000000000E+00 0. -1.
         -1    1    3    3    0  502 -0.51951680968E+03  0.37660817038E+03 -0.74834351466E+03  0.98577352647E+03  0.00000000000E+00 0.  1.
         11    1    5    5    0    0  0.63370608404E+03 -0.16476453464E+03 -0.18877103886E+03  0.68144351046E+03  0.00000000000E+00 0. -1.
        -11    1    5    5    0    0  0.23056361301E+02  0.42073606202E+01 -0.23303218879E+02  0.33050532370E+02  0.00000000000E+00 0.  1.
          1    1    6    6  503    0  0.30765101273E+02 -0.38254953003E+02 -0.19044878526E+03  0.19667402649E+03  0.00000000000E+00 0.  1.
         -1    1    6    6    0  503 -0.51664958631E+02 -0.22871035488E+03 -0.93049869300E+03  0.95958611498E+03  0.00000000000E+00 0. -1.
<mgrwt>
<rscale>  0 0.20843646E+04</rscale>
<asrwt>0</asrwt>
<pdfrwt beam="1">  1        2 0.40161108E+00 0.20843646E+04</pdfrwt>
<pdfrwt beam="2">  1       -1 0.64011055E-01 0.20843646E+04</pdfrwt>
<totfact> 0.78033446E+00</totfact>
</mgrwt>
</event>
<event>
12    6  0.1647231E-007  0.1525611E+04  0.7818608E-02  0.8867598E-01
         -1   -1    0    0    0  501 -0.00000000000E+00  0.00000000000E+00  0.24925271537E+03  0.24925271537E+03  0.00000000000E+00 0.  1.
          2   -1    0    0  501    0  0.00000000000E+00 -0.00000000000E+00 -0.23344676462E+04  0.23344676462E+04  0.00000000000E+00 0. -1.
         24    2    1    2    0    0 -0.76809664017E+02  0.23480604999E+03  0.40725643594E+02  0.26255320329E+03  0.79006334662E+02 0.  0.
        254    2    1    2    0    0  0.76809664017E+02 -0.23480604999E+03 -0.21259405744E+04  0.23211671583E+04  0.89842086190E+03 0.  0.
         23    2    4    4    0    0  0.18047082493E+03  0.30913159449E+03 -0.87776873733E+03  0.95242489684E+03  0.92212615886E+02 0.  0.
         23    2    4    4    0    0 -0.10366116091E+03 -0.54393764448E+03 -0.12481718371E+04  0.13687422614E+04  0.94385623738E+02 0.  0.
          4    1    3    3  502    0 -0.21557826402E+02  0.44355365995E+01 -0.86524236386E+00  0.22026404801E+02  0.00000000000E+00 0. -1.
         -3    1    3    3    0  502 -0.55251837615E+02  0.23037051339E+03  0.41590885957E+02  0.24052679849E+03  0.00000000000E+00 0.  1.
         11    1    5    5    0    0  0.37753986258E+01  0.69386436449E+02 -0.12751145525E+03  0.14521674290E+03  0.00000000000E+00 0. -1.
        -11    1    5    5    0    0  0.17669542631E+03  0.23974515804E+03 -0.75025728208E+03  0.80720815394E+03  0.00000000000E+00 0.  1.
          3    1    6    6  503    0 -0.48973869038E+02 -0.42694407643E+03 -0.10143027176E+04  0.11015850794E+04  0.00000000000E+00 0. -1.
         -3    1    6    6    0  503 -0.54687291877E+02 -0.11699356805E+03 -0.23386911954E+03  0.26715718207E+03  0.00000000000E+00 0.  1.
<mgrwt>
<rscale>  0 0.15256112E+04</rscale>
<asrwt>0</asrwt>
<pdfrwt beam="1">  1        2 0.35914888E+00 0.15256112E+04</pdfrwt>
<pdfrwt beam="2">  1       -1 0.38346570E-01 0.15256112E+04</pdfrwt>
<totfact> 0.31363725E+01</totfact>
</mgrwt>
</event>
<event>
12    6  0.1647231E-007  0.2123731E+04  0.7818608E-02  0.8550861E-01
          2   -1    0    0  501    0  0.00000000000E+00  0.00000000000E+00  0.40900079650E+04  0.40900079650E+04  0.00000000000E+00 0. -1.
         -1   -1    0    0    0  501 -0.00000000000E+00 -0.00000000000E+00 -0.27568618076E+03  0.27568618076E+03  0.00000000000E+00 0.  1.
         24    2    1    2    0    0 -0.36346022479E+02 -0.61371236811E+03  0.28267369055E+04  0.28939228809E+04  0.79901211585E+02 0.  0.
        254    2    1    2    0    0  0.36346022479E+02  0.61371236811E+03  0.98758487873E+03  0.14717712648E+04  0.90156689112E+03 0.  0.
         23    2    4    4    0    0 -0.32824532327E+03  0.39884891974E+03  0.88162389397E+03  0.10258690165E+04  0.91220039126E+02 0.  0.
         23    2    4    4    0    0  0.36459134575E+03  0.21486344837E+03  0.10596098477E+03  0.44590224835E+03  0.92238462451E+02 0.  0.
          2    1    3    3  502    0 -0.90493201995E+01 -0.54906828568E+03  0.25460575460E+04  0.26046049413E+04  0.00000000000E+00 0. -1.
         -1    1    3    3    0  502 -0.27296702280E+02 -0.64644082427E+02  0.28067935946E+03  0.28931793960E+03  0.00000000000E+00 0.  1.
         11    1    5    5    0    0 -0.18343490937E+03  0.18973956250E+03  0.52784639470E+03  0.59014513804E+03  0.00000000000E+00 0.  1.
        -11    1    5    5    0    0 -0.14481041389E+03  0.20910935723E+03  0.35377749927E+03  0.43572387844E+03  0.00000000000E+00 0. -1.
          3    1    6    6  503    0  0.27337742946E+03  0.14372471836E+03  0.11570498335E+03  0.32981761138E+03  0.00000000000E+00 0. -1.
         -3    1    6    6    0  503  0.91213916284E+02  0.71138730016E+02 -0.97439985875E+01  0.11608463697E+03  0.00000000000E+00 0.  1.
<mgrwt>
<rscale>  0 0.21237313E+04</rscale>
<asrwt>0</asrwt>
<pdfrwt beam="1">  1        2 0.62923195E+00 0.21237313E+04</pdfrwt>
<pdfrwt beam="2">  1       -1 0.42413262E-01 0.21237313E+04</pdfrwt>
<totfact> 0.16664614E+00</totfact>
</mgrwt>
</event>
<event>
12    6  0.1647231E-007  0.1107389E+04  0.7818608E-02  0.9198020E-01
          2   -1    0    0  501    0  0.00000000000E+00  0.00000000000E+00  0.78328725616E+03  0.78328725616E+03  0.00000000000E+00 0. -1.
         -1   -1    0    0    0  501 -0.00000000000E+00 -0.00000000000E+00 -0.39139835283E+03  0.39139835283E+03  0.00000000000E+00 0.  1.
         24    2    1    2    0    0 -0.10550183676E+03  0.85882375295E+02 -0.29937320344E+02  0.16054786877E+03  0.79830790236E+02 0.  0.
        254    2    1    2    0    0  0.10550183676E+03 -0.85882375295E+02  0.42182622367E+03  0.10141377402E+04  0.91215764714E+03 0.  0.
         23    2    4    4    0    0  0.17886941772E+02  0.34409631753E+03  0.43925524240E+03  0.56574679498E+03  0.91662694858E+02 0.  0.
         23    2    4    4    0    0  0.87614894988E+02 -0.42997869283E+03 -0.17429018735E+02  0.44839094524E+03  0.90513109394E+02 0.  0.
          2    1    3    3  502    0 -0.15854566769E+01 -0.91042950182E+01  0.10578543568E+02  0.14046616841E+02  0.00000000000E+00 0. -1.
         -1    1    3    3    0  502 -0.10391638008E+03  0.94986670313E+02 -0.40515863913E+02  0.14650125192E+03  0.00000000000E+00 0.  1.
         11    1    5    5    0    0  0.32556888376E+02  0.30637304748E+03  0.34149181302E+03  0.45993592332E+03  0.00000000000E+00 0.  1.
        -11    1    5    5    0    0 -0.14669946604E+02  0.37723270054E+02  0.97763429380E+02  0.10581087166E+03  0.00000000000E+00 0. -1.
          2    1    6    6  503    0  0.65305533172E+02 -0.31163998762E+03 -0.53076280077E+02  0.32280239474E+03  0.00000000000E+00 0. -1.
         -2    1    6    6    0  503  0.22309361816E+02 -0.11833870521E+03  0.35647261342E+02  0.12558855050E+03  0.00000000000E+00 0.  1.
<mgrwt>
<rscale>  0 0.11073885E+04</rscale>
<asrwt>0</asrwt>
<pdfrwt beam="1">  1        2 0.12050573E+00 0.11073885E+04</pdfrwt>
<pdfrwt beam="2">  1       -1 0.60215131E-01 0.11073885E+04</pdfrwt>
<totfact> 0.11225284E+02</totfact>
</mgrwt>
</event>
<event>
12    6  0.1647231E-007  0.1567802E+04  0.7818608E-02  0.8840576E-01
          2   -1    0    0  501    0  0.00000000000E+00  0.00000000000E+00  0.14644946257E+04  0.14644946257E+04  0.00000000000E+00 0. -1.
         -1   -1    0    0    0  501 -0.00000000000E+00 -0.00000000000E+00 -0.41959905181E+03  0.41959905181E+03  0.00000000000E+00 0.  1.
         24    2    1    2    0    0  0.33248974859E+03 -0.33624290783E+03  0.58447301570E+03  0.75609638550E+03  0.80400945909E+02 0.  0.
        254    2    1    2    0    0 -0.33248974859E+03  0.33624290783E+03  0.46042255815E+03  0.11279972920E+04  0.91475692545E+03 0.  0.
         23    2    4    4    0    0 -0.23916977550E+03  0.60214766192E+03  0.10102344312E+03  0.66228163308E+03  0.92882921882E+02 0.  0.
         23    2    4    4    0    0 -0.93319973090E+02 -0.26590475410E+03  0.35939911503E+03  0.46571565890E+03  0.91155885314E+02 0.  0.
          4    1    3    3  502    0  0.27680761797E+03 -0.25900614243E+03  0.41783883930E+03  0.56417721932E+03  0.00000000000E+00 0. -1.
         -3    1    3    3    0  502  0.55682130626E+02 -0.77236765397E+02  0.16663417640E+03  0.19191916618E+03  0.00000000000E+00 0.  1.
         11    1    5    5    0    0 -0.22597953317E+03  0.56430327123E+03  0.11719722977E+03  0.61906390785E+03  0.00000000000E+00 0. -1.
        -11    1    5    5    0    0 -0.13190242331E+02  0.37844390695E+02 -0.16173786644E+02  0.43217725232E+02  0.00000000000E+00 0.  1.
          1    1    6    6  503    0 -0.57293788445E+02 -0.48403769718E+02  0.10572880776E+03  0.12963056703E+03  0.00000000000E+00 0.  1.
         -1    1    6    6    0  503 -0.36026184644E+02 -0.21750098438E+03  0.25367030727E+03  0.33608509187E+03  0.00000000000E+00 0. -1.
<mgrwt>
<rscale>  0 0.15678017E+04</rscale>
<asrwt>0</asrwt>
<pdfrwt beam="1">  1        2 0.22530686E+00 0.15678017E+04</pdfrwt>
<pdfrwt beam="2">  1       -1 0.64553701E-01 0.15678017E+04</pdfrwt>
<totfact> 0.35439129E+01</totfact>
</mgrwt>
</event>
<event>
12    6  0.1647231E-007  0.1336948E+04  0.7818608E-02  0.9000767E-01
          2   -1    0    0  501    0  0.00000000000E+00  0.00000000000E+00  0.16245565443E+04  0.16245565443E+04  0.00000000000E+00 0. -1.
         -1   -1    0    0    0  501 -0.00000000000E+00 -0.00000000000E+00 -0.27506447668E+03  0.27506447668E+03  0.00000000000E+00 0.  1.
         24    2    1    2    0    0  0.57294088029E+02 -0.37892966857E+01 -0.13361209819E+03  0.16619886694E+03  0.80454330497E+02 0.  0.
        254    2    1    2    0    0 -0.57294088029E+02  0.37892966857E+01  0.14831041658E+04  0.17334221540E+04  0.89546492180E+03 0.  0.
         23    2    4    4    0    0 -0.44814037419E+03 -0.12668375232E+02  0.10322037983E+04  0.11288490973E+04  0.88686641913E+02 0.  0.
         23    2    4    4    0    0  0.39084628616E+03  0.16457671918E+02  0.45090036748E+03  0.60457305675E+03  0.95738002812E+02 0.  0.
          4    1    3    3  502    0  0.18637099776E+02  0.33904899919E+02 -0.28577644615E+02  0.48099537403E+02  0.00000000000E+00 0. -1.
         -3    1    3    3    0  502  0.38656988253E+02 -0.37694196605E+02 -0.10503445358E+03  0.11809932953E+03  0.00000000000E+00 0.  1.
         11    1    5    5    0    0 -0.21824070399E+02 -0.14821541258E+02  0.31303341930E+02  0.40937358855E+02  0.00000000000E+00 0.  1.
        -11    1    5    5    0    0 -0.42631630379E+03  0.21531660252E+01  0.10009004564E+04  0.10879117384E+04  0.00000000000E+00 0. -1.
          3    1    6    6  503    0  0.20562893648E+03  0.30358140713E+01  0.16502797644E+03  0.26367917759E+03  0.00000000000E+00 0. -1.
         -3    1    6    6    0  503  0.18521734968E+03  0.13421857847E+02  0.28587239104E+03  0.34089387916E+03  0.00000000000E+00 0.  1.
<mgrwt>
<rscale>  0 0.13369485E+04</rscale>
<asrwt>0</asrwt>
<pdfrwt beam="1">  1        2 0.24993177E+00 0.13369485E+04</pdfrwt>
<pdfrwt beam="2">  1       -1 0.42317613E-01 0.13369485E+04</pdfrwt>
<totfact> 0.66070679E+01</totfact>
</mgrwt>
</event>
<event>
12    6  0.1647231E-007  0.2935964E+04  0.7818608E-02  0.8262257E-01
          2   -1    0    0  501    0  0.00000000000E+00  0.00000000000E+00  0.15647570823E+04  0.15647570823E+04  0.00000000000E+00 0. -1.
         -1   -1    0    0    0  501 -0.00000000000E+00 -0.00000000000E+00 -0.13771922211E+04  0.13771922211E+04  0.00000000000E+00 0.  1.
         24    2    1    2    0    0  0.87138899515E+03  0.59290704215E+03  0.89584839137E+03  0.13855876035E+04  0.80318897004E+02 0.  0.
        254    2    1    2    0    0 -0.87138899515E+03 -0.59290704215E+03 -0.70828353021E+03  0.15563616998E+04  0.89985478830E+03 0.  0.
         23    2    4    4    0    0 -0.18827272919E+03 -0.64792349487E+03 -0.24255217083E+03  0.72288732339E+03  0.92103479751E+02 0.  0.
         23    2    4    4    0    0 -0.68311626596E+03  0.55016452725E+02 -0.46573135938E+03  0.83347437643E+03  0.89995523094E+02 0.  0.
          4    1    3    3  502    0  0.32862271063E+03  0.27085226514E+03  0.35433560712E+03  0.55399238076E+03  0.00000000000E+00 0. -1.
         -3    1    3    3    0  502  0.54276628452E+03  0.32205477701E+03  0.54151278425E+03  0.83159522276E+03  0.00000000000E+00 0.  1.
         11    1    5    5    0    0  0.52399122826E+01 -0.69749253114E+02 -0.11541995618E+02  0.70891696647E+02  0.00000000000E+00 0.  1.
        -11    1    5    5    0    0 -0.19351264147E+03 -0.57817424176E+03 -0.23101017522E+03  0.65199562675E+03  0.00000000000E+00 0. -1.
          4    1    6    6  503    0 -0.32458104277E+03  0.66708610934E+02 -0.24736734624E+03  0.41351359842E+03  0.00000000000E+00 0. -1.
         -4    1    6    6    0  503 -0.35853522319E+03 -0.11692158209E+02 -0.21836401314E+03  0.41996077801E+03  0.00000000000E+00 0.  1.
<mgrwt>
<rscale>  0 0.29359641E+04</rscale>
<asrwt>0</asrwt>
<pdfrwt beam="1">  1        2 0.24073186E+00 0.29359641E+04</pdfrwt>
<pdfrwt beam="2">  1       -1 0.21187572E+00 0.29359641E+04</pdfrwt>
<totfact> 0.14276015E+00</totfact>
</mgrwt>
</event>
<event>
12    6  0.1647231E-007  0.2539732E+04  0.7818608E-02  0.8388966E-01
          2   -1    0    0  501    0  0.00000000000E+00  0.00000000000E+00  0.27014774069E+04  0.27014774069E+04  0.00000000000E+00 0. -1.
         -1   -1    0    0    0  501 -0.00000000000E+00 -0.00000000000E+00 -0.59691752018E+03  0.59691752018E+03  0.00000000000E+00 0.  1.
         24    2    1    2    0    0 -0.85111023859E+03  0.38571202426E+03  0.14519556259E+03  0.94907553638E+03  0.80623932275E+02 0.  0.
        254    2    1    2    0    0  0.85111023859E+03 -0.38571202426E+03  0.19593643241E+04  0.23493193907E+04  0.89834884144E+03 0.  0.
         23    2    4    4    0    0  0.53591908603E+03 -0.65189916482E+03  0.10776804961E+04  0.13717500962E+04  0.90118182997E+02 0.  0.
         23    2    4    4    0    0  0.31519115257E+03  0.26618714056E+03  0.88168382806E+03  0.97756929451E+03  0.89857089016E+02 0.  0.
          4    1    3    3  502    0 -0.31787949019E+03  0.12846466828E+03  0.16767800970E+02  0.34326622384E+03  0.00000000000E+00 0. -1.
         -3    1    3    3    0  502 -0.53323074840E+03  0.25724735598E+03  0.12842776162E+03  0.60580931253E+03  0.00000000000E+00 0.  1.
         11    1    5    5    0    0  0.76284792532E+02 -0.72229728667E+02  0.18110978601E+03  0.20937348893E+03  0.00000000000E+00 0. -1.
        -11    1    5    5    0    0  0.45963429350E+03 -0.57966943616E+03  0.89657071004E+03  0.11623766072E+04  0.00000000000E+00 0.  1.
          3    1    6    6  503    0  0.22437833240E+03  0.17058818815E+03  0.50304219370E+03  0.57662588793E+03  0.00000000000E+00 0. -1.
         -3    1    6    6    0  503  0.90812820165E+02  0.95598952410E+02  0.37864163436E+03  0.40094340658E+03  0.00000000000E+00 0.  1.
<mgrwt>
<rscale>  0 0.25397316E+04</rscale>
<asrwt>0</asrwt>
<pdfrwt beam="1">  1        2 0.41561190E+00 0.25397316E+04</pdfrwt>
<pdfrwt beam="2">  1       -1 0.91833466E-01 0.25397316E+04</pdfrwt>
<totfact> 0.30941812E+00</totfact>
</mgrwt>
</event>
<event>
12    6  0.1647231E-007  0.2589582E+04  0.7818608E-02  0.8371748E-01
         -1   -1    0    0    0  501 -0.00000000000E+00  0.00000000000E+00  0.10424167267E+04  0.10424167267E+04  0.00000000000E+00 0.  1.
          2   -1    0    0  501    0  0.00000000000E+00 -0.00000000000E+00 -0.16082666309E+04  0.16082666309E+04  0.00000000000E+00 0. -1.
         24    2    1    2    0    0 -0.11305050669E+04 -0.31515795273E+00 -0.17775924255E+03  0.11475384964E+04  0.84879011952E+02 0.  0.
        254    2    1    2    0    0  0.11305050669E+04  0.31515795273E+00 -0.38809066165E+03  0.15031448613E+04  0.91147589474E+03 0.  0.
         23    2    4    4    0    0  0.41113742355E+03  0.42432699021E+03 -0.26579542607E+03  0.65421445032E+03  0.90895339949E+02 0.  0.
         23    2    4    4    0    0  0.71936764337E+03 -0.42401183225E+03 -0.12229523559E+03  0.84893041097E+03  0.91928656040E+02 0.  0.
          2    1    3    3  502    0 -0.56730818188E+02 -0.64510278205E+01  0.84577458349E+01  0.57719450420E+02  0.00000000000E+00 0. -1.
         -1    1    3    3    0  502 -0.10737742487E+04  0.61358698678E+01 -0.18621698839E+03  0.10898190459E+04  0.00000000000E+00 0.  1.
         11    1    5    5    0    0  0.28029314540E+03  0.32199731833E+03 -0.15327981866E+03  0.45358706240E+03  0.00000000000E+00 0.  1.
        -11    1    5    5    0    0  0.13084427815E+03  0.10232967187E+03 -0.11251560741E+03  0.20062738791E+03  0.00000000000E+00 0. -1.
          1    1    6    6  503    0  0.25328554135E+03 -0.13795637454E+03 -0.85521956733E+02  0.30083140098E+03  0.00000000000E+00 0. -1.
         -1    1    6    6    0  503  0.46608210202E+03 -0.28605545771E+03 -0.36773278852E+02  0.54809900998E+03  0.00000000000E+00 0.  1.
<mgrwt>
<rscale>  0 0.25895822E+04</rscale>
<asrwt>0</asrwt>
<pdfrwt beam="1">  1        2 0.24742563E+00 0.25895822E+04</pdfrwt>
<pdfrwt beam="2">  1       -1 0.16037181E+00 0.25895822E+04</pdfrwt>
<totfact> 0.32296677E+00</totfact>
</mgrwt>
</event>
<event>
12    6  0.1647231E-007  0.2427876E+04  0.7818608E-02  0.8429140E-01
          2   -1    0    0  501    0  0.00000000000E+00  0.00000000000E+00  0.11422154148E+04  0.11422154148E+04  0.00000000000E+00 0. -1.
         -1   -1    0    0    0  501 -0.00000000000E+00 -0.00000000000E+00 -0.12901642369E+04  0.12901642369E+04  0.00000000000E+00 0.  1.
         24    2    1    2    0    0 -0.46838024179E+03  0.50634727659E+03  0.72067026814E+03  0.10007073902E+04  0.79259258363E+02 0.  0.
        254    2    1    2    0    0  0.46838024179E+03 -0.50634727659E+03 -0.86861909027E+03  0.14316722614E+04  0.90521750137E+03 0.  0.
         23    2    4    4    0    0 -0.71444637942E+02 -0.57344702649E+03 -0.48146440454E+03  0.75764967537E+03  0.90990270163E+02 0.  0.
         23    2    4    4    0    0  0.53982487973E+03  0.67099749900E+02 -0.38715468572E+03  0.67402258607E+03  0.92219404939E+02 0.  0.
          2    1    3    3  502    0 -0.26657444454E+03  0.33760869171E+03  0.41988038983E+03  0.60111654857E+03  0.00000000000E+00 0. -1.
         -1    1    3    3    0  502 -0.20180579725E+03  0.16873858487E+03  0.30078987831E+03  0.39959084164E+03  0.00000000000E+00 0.  1.
         11    1    5    5    0    0  0.16418264134E+02 -0.13814134642E+03 -0.90265918395E+02  0.16583282851E+03  0.00000000000E+00 0. -1.
        -11    1    5    5    0    0 -0.87862902076E+02 -0.43530568007E+03 -0.39119848615E+03  0.59181684686E+03  0.00000000000E+00 0.  1.
          3    1    6    6  503    0  0.29293653513E+03  0.80399890201E+02 -0.23055896325E+03  0.38135730161E+03  0.00000000000E+00 0. -1.
         -3    1    6    6    0  503  0.24688834460E+03 -0.13300140300E+02 -0.15659572247E+03  0.29266528446E+03  0.00000000000E+00 0.  1.
<mgrwt>
<rscale>  0 0.24278760E+04</rscale>
<asrwt>0</asrwt>
<pdfrwt beam="1">  1        2 0.17572545E+00 0.24278760E+04</pdfrwt>
<pdfrwt beam="2">  1       -1 0.19848681E+00 0.24278760E+04</pdfrwt>
<totfact> 0.32361915E+00</totfact>
</mgrwt>
</event>
<event>
12    6  0.1647231E-007  0.1402883E+04  0.7818608E-02  0.8951734E-01
         -1   -1    0    0    0  501 -0.00000000000E+00  0.00000000000E+00  0.40736185685E+03  0.40736185685E+03  0.00000000000E+00 0.  1.
          2   -1    0    0  501    0  0.00000000000E+00 -0.00000000000E+00 -0.12078208884E+04  0.12078208884E+04  0.00000000000E+00 0. -1.
         24    2    1    2    0    0 -0.33334890637E+03 -0.14419929005E+03 -0.46613283990E+03  0.59860334083E+03  0.95557347120E+02 0.  0.
        254    2    1    2    0    0  0.33334890637E+03  0.14419929005E+03 -0.33432619170E+03  0.10165794045E+04  0.88867584332E+03 0.  0.
         23    2    4    4    0    0  0.12027224580E+03  0.12273266627E+03 -0.61919576263E+03  0.64913669231E+03  0.91903930088E+02 0.  0.
         23    2    4    4    0    0  0.21307666058E+03  0.21466623784E+02  0.28486957093E+03  0.36744271216E+03  0.89448281445E+02 0.  0.
          4    1    3    3  502    0 -0.28011708795E+03 -0.15578141143E+03 -0.38635468965E+03  0.50199937981E+03  0.00000000000E+00 0. -1.
         -1    1    3    3    0  502 -0.53231818422E+02  0.11582121385E+02 -0.79778150249E+02  0.96603961023E+02  0.00000000000E+00 0.  1.
         11    1    5    5    0    0  0.91179871171E+02  0.28099202752E+02 -0.28171209372E+03  0.29743072782E+03  0.00000000000E+00 0.  1.
        -11    1    5    5    0    0  0.29092374625E+02  0.94633463514E+02 -0.33748366891E+03  0.35170596449E+03  0.00000000000E+00 0. -1.
          2    1    6    6  503    0  0.49559116048E+02  0.42219231408E+01  0.13903161054E+03  0.14766082537E+03  0.00000000000E+00 0.  1.
         -2    1    6    6    0  503  0.16351754453E+03  0.17244700643E+02  0.14583796039E+03  0.21978188679E+03  0.00000000000E+00 0. -1.
<mgrwt>
<rscale>  0 0.14028830E+04</rscale>
<asrwt>0</asrwt>
<pdfrwt beam="1">  1        2 0.18581860E+00 0.14028830E+04</pdfrwt>
<pdfrwt beam="2">  1       -1 0.62671056E-01 0.14028830E+04</pdfrwt>
<totfact> 0.53688913E+01</totfact>
</mgrwt>
</event>
<event>
12    6  0.1647231E-007  0.2082784E+04  0.7818608E-02  0.8568865E-01
         -1   -1    0    0    0  501 -0.00000000000E+00  0.00000000000E+00  0.10774270932E+04  0.10774270932E+04  0.00000000000E+00 0.  1.
          2   -1    0    0  501    0  0.00000000000E+00 -0.00000000000E+00 -0.10065625701E+04  0.10065625701E+04  0.00000000000E+00 0. -1.
         24    2    1    2    0    0 -0.80867685154E+03 -0.22936005017E+03  0.98395817366E+02  0.84999951375E+03  0.79076884530E+02 0.  0.
        254    2    1    2    0    0  0.80867685154E+03  0.22936005017E+03 -0.27531294321E+02  0.12339901496E+04  0.90300024045E+03 0.  0.
         23    2    4    4    0    0  0.93112134686E+03  0.29819622271E+03  0.14734805454E+03  0.99283767348E+03  0.90040251453E+02 0.  0.
         23    2    4    4    0    0 -0.12244449532E+03 -0.68836172540E+02 -0.17487934887E+03  0.24115247610E+03  0.88547484356E+02 0.  0.
          4    1    3    3  502    0 -0.17735381537E+03 -0.25124942563E+02  0.42604007602E+02  0.18412153602E+03  0.00000000000E+00 0. -1.
         -3    1    3    3    0  502 -0.63132303618E+03 -0.20423510760E+03  0.55791809764E+02  0.66587797773E+03  0.00000000000E+00 0.  1.
         11    1    5    5    0    0  0.23109087235E+03  0.49677168482E+02  0.66922509263E+02  0.24566121916E+03  0.00000000000E+00 0.  1.
        -11    1    5    5    0    0  0.70003047451E+03  0.24851905422E+03  0.80425545282E+02  0.74717645432E+03  0.00000000000E+00 0. -1.
          4    1    6    6  503    0 -0.61514656585E+02 -0.70361770387E+02 -0.59872257529E+02  0.11099332831E+03  0.00000000000E+00 0. -1.
         -4    1    6    6    0  503 -0.60929838734E+02  0.15255978471E+01 -0.11500709134E+03  0.13015914779E+03  0.00000000000E+00 0.  1.
<mgrwt>
<rscale>  0 0.20827845E+04</rscale>
<asrwt>0</asrwt>
<pdfrwt beam="1">  1        2 0.15485578E+00 0.20827845E+04</pdfrwt>
<pdfrwt beam="2">  1       -1 0.16575802E+00 0.20827845E+04</pdfrwt>
<totfact> 0.69456102E+00</totfact>
</mgrwt>
</event>
<event>
12    6  0.1647231E-007  0.2574887E+04  0.7818608E-02  0.8376782E-01
         -1   -1    0    0    0  501 -0.00000000000E+00  0.00000000000E+00  0.13511655266E+04  0.13511655266E+04  0.00000000000E+00 0.  1.
          2   -1    0    0  501    0  0.00000000000E+00 -0.00000000000E+00 -0.12267262254E+04  0.12267262254E+04  0.00000000000E+00 0. -1.
         24    2    1    2    0    0  0.16338303297E+03 -0.31008925661E+03 -0.10199802337E+04  0.10817666728E+04  0.83726308415E+02 0.  0.
        254    2    1    2    0    0 -0.16338303297E+03  0.31008925661E+03  0.11444195348E+04  0.14961250792E+04  0.89768859771E+03 0.  0.
         23    2    4    4    0    0 -0.75516496593E+01  0.60087106399E+03  0.84441702657E+03  0.10403966610E+04  0.91005684329E+02 0.  0.
         23    2    4    4    0    0 -0.15583138332E+03 -0.29078180737E+03  0.30000250826E+03  0.45572841820E+03  0.94071285005E+02 0.  0.
          4    1    3    3  502    0  0.16391731940E+03 -0.30120081602E+03 -0.10154257256E+04  0.10717650038E+04  0.00000000000E+00 0. -1.
         -3    1    3    3    0  502 -0.53428642369E+00 -0.88884405937E+01 -0.45545080403E+01  0.10001668944E+02  0.00000000000E+00 0.  1.
         11    1    5    5    0    0  0.28640295167E+02  0.69633109158E+02  0.10640353614E+03  0.13034856693E+03  0.00000000000E+00 0. -1.
        -11    1    5    5    0    0 -0.36191944826E+02  0.53123795483E+03  0.73801349043E+03  0.91004809410E+03  0.00000000000E+00 0.  1.
          2    1    6    6  503    0  0.90771171934E+01 -0.19681516222E+02  0.45231738803E+01  0.22140804848E+02  0.00000000000E+00 0. -1.
         -2    1    6    6    0  503 -0.16490850051E+03 -0.27110029115E+03  0.29547933438E+03  0.43358761335E+03  0.00000000000E+00 0.  1.
<mgrwt>
<rscale>  0 0.25748865E+04</rscale>
<asrwt>0</asrwt>
<pdfrwt beam="1">  1        2 0.18872711E+00 0.25748865E+04</pdfrwt>
<pdfrwt beam="2">  1       -1 0.20787162E+00 0.25748865E+04</pdfrwt>
<totfact> 0.24513302E+00</totfact>
</mgrwt>
</event>
<event>
12    6  0.1647231E-007  0.1518534E+04  0.7818608E-02  0.8872221E-01
          2   -1    0    0  501    0  0.00000000000E+00  0.00000000000E+00  0.12668748726E+04  0.12668748726E+04  0.00000000000E+00 0. -1.
         -1   -1    0    0    0  501 -0.00000000000E+00 -0.00000000000E+00 -0.45504583284E+03  0.45504583284E+03  0.00000000000E+00 0.  1.
         24    2    1    2    0    0  0.29624897435E+02 -0.36090661549E+03  0.61914311299E+03  0.72163577674E+03  0.79301830159E+02 0.  0.
        254    2    1    2    0    0 -0.29624897435E+02  0.36090661549E+03  0.19268592679E+03  0.10002849287E+04  0.91231072150E+03 0.  0.
         23    2    4    4    0    0 -0.33678459902E+03  0.54132241415E+02  0.38032262418E+03  0.51835352598E+03  0.87697854837E+02 0.  0.
         23    2    4    4    0    0  0.30715970158E+03  0.30677437407E+03 -0.18763669739E+03  0.48193140273E+03  0.92697075803E+02 0.  0.
          2    1    3    3  502    0  0.38755916736E+02 -0.34220569314E+03  0.60599318476E+03  0.69701829063E+03  0.00000000000E+00 0. -1.
         -1    1    3    3    0  502 -0.91310193014E+01 -0.18700922344E+02  0.13149928225E+02  0.24617486109E+02  0.00000000000E+00 0.  1.
         11    1    5    5    0    0 -0.42457628491E+02  0.37860013305E+02  0.51357267343E+02  0.76639413707E+02  0.00000000000E+00 0.  1.
        -11    1    5    5    0    0 -0.29432697053E+03  0.16272228110E+02  0.32896535683E+03  0.44171411228E+03  0.00000000000E+00 0. -1.
          1    1    6    6  503    0  0.28842290843E+03  0.25175921579E+03 -0.14311680847E+03  0.40872105122E+03  0.00000000000E+00 0. -1.
         -1    1    6    6    0  503  0.18736793151E+02  0.55015158282E+02 -0.44519888915E+02  0.73210351505E+02  0.00000000000E+00 0.  1.
<mgrwt>
<rscale>  0 0.15185337E+04</rscale>
<asrwt>0</asrwt>
<pdfrwt beam="1">  1        2 0.19490383E+00 0.15185337E+04</pdfrwt>
<pdfrwt beam="2">  1       -1 0.70007052E-01 0.15185337E+04</pdfrwt>
<totfact> 0.39227409E+01</totfact>
</mgrwt>
</event>
<event>
12    6  0.1647231E-007  0.1512290E+04  0.7818608E-02  0.8876321E-01
         -1   -1    0    0    0  501 -0.00000000000E+00  0.00000000000E+00  0.37466956377E+03  0.37466956377E+03  0.00000000000E+00 0.  1.
          2   -1    0    0  501    0  0.00000000000E+00 -0.00000000000E+00 -0.15260246888E+04  0.15260246888E+04  0.00000000000E+00 0. -1.
         24    2    1    2    0    0  0.33184254594E+03  0.16178581159E+03  0.18007894639E+02  0.37844427507E+03  0.81250605748E+02 0.  0.
        254    2    1    2    0    0 -0.33184254594E+03 -0.16178581159E+03 -0.11693630196E+04  0.15222499775E+04  0.90196507588E+03 0.  0.
         23    2    4    4    0    0 -0.62717994596E+03 -0.12909481435E+03 -0.91746766313E+03  0.11221372440E+04  0.86168008646E+02 0.  0.
         23    2    4    4    0    0  0.29533740002E+03 -0.32690997246E+02 -0.25189535650E+03  0.40011273350E+03  0.91356706009E+02 0.  0.
          4    1    3    3  502    0 -0.37989590236E+01  0.50571811219E+01  0.45084241621E+01  0.77674358052E+01  0.00000000000E+00 0. -1.
         -3    1    3    3    0  502  0.33564150496E+03  0.15672863047E+03  0.13499470477E+02  0.37067683926E+03  0.00000000000E+00 0.  1.
         11    1    5    5    0    0 -0.46000267821E+03 -0.12426242948E+03 -0.63541202220E+03  0.79422418327E+03  0.00000000000E+00 0.  1.
        -11    1    5    5    0    0 -0.16717726774E+03 -0.48323848695E+01 -0.28205564093E+03  0.32791306070E+03  0.00000000000E+00 0. -1.
          4    1    6    6  503    0  0.29314505309E+03 -0.37324423289E+02 -0.22155475557E+03  0.36934217799E+03  0.00000000000E+00 0. -1.
         -4    1    6    6    0  503  0.21923469310E+01  0.46334260430E+01 -0.30340600928E+02  0.30770555514E+02  0.00000000000E+00 0.  1.
<mgrwt>
<rscale>  0 0.15122897E+04</rscale>
<asrwt>0</asrwt>
<pdfrwt beam="1">  1        2 0.23477303E+00 0.15122897E+04</pdfrwt>
<pdfrwt beam="2">  1       -1 0.57641472E-01 0.15122897E+04</pdfrwt>
<totfact> 0.41145942E+01</totfact>
</mgrwt>
</event>
<event>
12    6  0.1647231E-007  0.2963274E+04  0.7818608E-02  0.8254297E-01
         -1   -1    0    0    0  501 -0.00000000000E+00  0.00000000000E+00  0.89484894822E+03  0.89484894822E+03  0.00000000000E+00 0.  1.
          2   -1    0    0  501    0  0.00000000000E+00 -0.00000000000E+00 -0.24532049169E+04  0.24532049169E+04  0.00000000000E+00 0. -1.
         24    2    1    2    0    0  0.79573060792E+03  0.31362859844E+03  0.46663395145E+03  0.97764236821E+03  0.80543512077E+02 0.  0.
        254    2    1    2    0    0 -0.79573060792E+03 -0.31362859844E+03 -0.20249899201E+04  0.23704114969E+04  0.88697034331E+03 0.  0.
         23    2    4    4    0    0  0.89158924242E+02  0.11473403439E+03 -0.78958424491E+02  0.18831976062E+03  0.90092657992E+02 0.  0.
         23    2    4    4    0    0 -0.88488953216E+03 -0.42836263283E+03 -0.19460314956E+04  0.21820917362E+04  0.89228550425E+02 0.  0.
          4    1    3    3  502    0  0.14473213138E+02  0.47589268279E+01 -0.24876174891E+01  0.15437277087E+02  0.00000000000E+00 0. -1.
         -3    1    3    3    0  502  0.78125739478E+03  0.30886967162E+03  0.46912156894E+03  0.96220509112E+03  0.00000000000E+00 0.  1.
         11    1    5    5    0    0  0.10407738832E+03  0.10923420959E+03 -0.82599243921E+02  0.17200828585E+03  0.00000000000E+00 0. -1.
        -11    1    5    5    0    0 -0.14918464077E+02  0.54998248012E+01  0.36408194299E+01  0.16311474777E+02  0.00000000000E+00 0.  1.
          1    1    6    6  503    0 -0.83362090852E+03 -0.38936377063E+03 -0.18541526395E+04  0.20698816332E+04  0.00000000000E+00 0. -1.
         -1    1    6    6    0  503 -0.51268623641E+02 -0.38998862203E+02 -0.91878856132E+02  0.11221010305E+03  0.00000000000E+00 0.  1.
<mgrwt>
<rscale>  0 0.29632738E+04</rscale>
<asrwt>0</asrwt>
<pdfrwt beam="1">  1        2 0.37741614E+00 0.29632738E+04</pdfrwt>
<pdfrwt beam="2">  1       -1 0.13766907E+00 0.29632738E+04</pdfrwt>
<totfact> 0.15832773E+00</totfact>
</mgrwt>
</event>
<event>
12    6  0.1647231E-007  0.2789043E+04  0.7818608E-02  0.8306678E-01
         -1   -1    0    0    0  501 -0.00000000000E+00  0.00000000000E+00  0.66346661918E+03  0.66346661918E+03  0.00000000000E+00 0.  1.
          2   -1    0    0  501    0  0.00000000000E+00 -0.00000000000E+00 -0.29311038220E+04  0.29311038220E+04  0.00000000000E+00 0. -1.
         24    2    1    2    0    0 -0.28262505520E+03  0.11934677776E+04 -0.13220424869E+04  0.18051034217E+04  0.79748152362E+02 0.  0.
        254    2    1    2    0    0  0.28262505520E+03 -0.11934677776E+04 -0.94559471597E+03  0.17894670196E+04  0.89654926763E+03 0.  0.
         23    2    4    4    0    0 -0.92753303626E+02 -0.11178646112E+04 -0.69964902501E+03  0.13252388107E+04  0.92329208776E+02 0.  0.
         23    2    4    4    0    0  0.37537835882E+03 -0.75603166374E+02 -0.24594569096E+03  0.46422820889E+03  0.91617661992E+02 0.  0.
          4    1    3    3  502    0 -0.32695012621E+02  0.14681230862E+03 -0.12580417498E+03  0.19608546161E+03  0.00000000000E+00 0. -1.
         -3    1    3    3    0  502 -0.24993004258E+03  0.10466554690E+04 -0.11962383119E+04  0.16090179600E+04  0.00000000000E+00 0.  1.
         11    1    5    5    0    0 -0.76332658139E+02 -0.10760031625E+04 -0.65568895916E+03  0.12623539486E+04  0.00000000000E+00 0. -1.
        -11    1    5    5    0    0 -0.16420645487E+02 -0.41861448671E+02 -0.43960065856E+02  0.62884862035E+02  0.00000000000E+00 0.  1.
          4    1    6    6  503    0  0.27735315929E+03 -0.31339825310E+02 -0.13623864802E+03  0.31059286668E+03  0.00000000000E+00 0. -1.
         -4    1    6    6    0  503  0.98025199537E+02 -0.44263341064E+02 -0.10970704294E+03  0.15363534221E+03  0.00000000000E+00 0.  1.
<mgrwt>
<rscale>  0 0.27890425E+04</rscale>
<asrwt>0</asrwt>
<pdfrwt beam="1">  1        2 0.45093905E+00 0.27890425E+04</pdfrwt>
<pdfrwt beam="2">  1       -1 0.10207179E+00 0.27890425E+04</pdfrwt>
<totfact> 0.17291852E+00</totfact>
</mgrwt>
</event>
<event>
12    6  0.1647231E-007  0.1798359E+04  0.7818608E-02  0.8707173E-01
         -1   -1    0    0    0  501 -0.00000000000E+00  0.00000000000E+00  0.45302699695E+03  0.45302699695E+03  0.00000000000E+00 0.  1.
          2   -1    0    0  501    0  0.00000000000E+00 -0.00000000000E+00 -0.17847140608E+04  0.17847140608E+04  0.00000000000E+00 0. -1.
         24    2    1    2    0    0 -0.25233494447E+03 -0.26881214330E+03 -0.11647802467E+04  0.12243949788E+04  0.80604890855E+02 0.  0.
        254    2    1    2    0    0  0.25233494447E+03  0.26881214330E+03 -0.16690681719E+03  0.10133460790E+04  0.92902071966E+03 0.  0.
         23    2    4    4    0    0  0.40256077664E+03  0.22314463908E+03  0.26947948283E+03  0.54095300092E+03  0.90345164235E+02 0.  0.
         23    2    4    4    0    0 -0.15022583217E+03  0.45667504218E+02 -0.43638630002E+03  0.47239307805E+03  0.89827032418E+02 0.  0.
          4    1    3    3  502    0 -0.20524333508E+03 -0.22349873831E+03 -0.10422806653E+04  0.10855530839E+04  0.00000000000E+00 0. -1.
         -3    1    3    3    0  502 -0.47091609393E+02 -0.45313404987E+02 -0.12249958133E+03  0.13884189488E+03  0.00000000000E+00 0.  1.
         11    1    5    5    0    0  0.25176544145E+03  0.10040861048E+03  0.18945545283E+03  0.33069789110E+03  0.00000000000E+00 0. -1.
        -11    1    5    5    0    0  0.15079533519E+03  0.12273602860E+03  0.80024030002E+02  0.21025510982E+03  0.00000000000E+00 0.  1.
          4    1    6    6  503    0 -0.14554322288E+02  0.28929085314E+02 -0.16915830946E+03  0.17223023525E+03  0.00000000000E+00 0. -1.
         -4    1    6    6    0  503 -0.13567150988E+03  0.16738418904E+02 -0.26722799056E+03  0.30016284280E+03  0.00000000000E+00 0.  1.
<mgrwt>
<rscale>  0 0.17983589E+04</rscale>
<asrwt>0</asrwt>
<pdfrwt beam="1">  1        2 0.27457140E+00 0.17983589E+04</pdfrwt>
<pdfrwt beam="2">  1       -1 0.69696460E-01 0.17983589E+04</pdfrwt>
<totfact> 0.19698238E+01</totfact>
</mgrwt>
</event>
<event>
12    6  0.1647231E-007  0.1692779E+04  0.7818608E-02  0.8765494E-01
          2   -1    0    0  501    0  0.00000000000E+00  0.00000000000E+00  0.15131280360E+04  0.15131280360E+04  0.00000000000E+00 0. -1.
         -1   -1    0    0    0  501 -0.00000000000E+00 -0.00000000000E+00 -0.47343964124E+03  0.47343964124E+03  0.00000000000E+00 0.  1.
         24    2    1    2    0    0  0.13453626372E+02  0.44131928867E+03 -0.10578680913E+03  0.46097206484E+03  0.79753877411E+02 0.  0.
        254    2    1    2    0    0 -0.13453626372E+02 -0.44131928867E+03  0.11454752039E+04  0.15255956124E+04  0.90575096757E+03 0.  0.
         23    2    4    4    0    0 -0.23034570182E+03  0.20265528282E+03  0.42597347377E+03  0.53179204150E+03  0.84976873649E+02 0.  0.
         23    2    4    4    0    0  0.21689207544E+03 -0.64397457148E+03  0.71950173013E+03  0.99380357090E+03  0.90649747807E+02 0.  0.
          2    1    3    3  502    0 -0.85548375222E+01  0.35347667659E+03 -0.57115530898E+02  0.35816355204E+03  0.00000000000E+00 0. -1.
         -1    1    3    3    0  502  0.22008463895E+02  0.87842612075E+02 -0.48671278228E+02  0.10280851280E+03  0.00000000000E+00 0.  1.
         11    1    5    5    0    0 -0.22358217228E+03  0.17481805426E+03  0.41099071924E+03  0.49946342324E+03  0.00000000000E+00 0. -1.
        -11    1    5    5    0    0 -0.67635295393E+01  0.27837228554E+02  0.14982754525E+02  0.32328618259E+02  0.00000000000E+00 0.  1.
          3    1    6    6  503    0  0.92725322876E+02 -0.18456869095E+03  0.17566436284E+03  0.27114858575E+03  0.00000000000E+00 0. -1.
         -3    1    6    6    0  503  0.12416675257E+03 -0.45940588053E+03  0.54383736729E+03  0.72265498515E+03  0.00000000000E+00 0.  1.
<mgrwt>
<rscale>  0 0.16927785E+04</rscale>
<asrwt>0</asrwt>
<pdfrwt beam="1">  1        2 0.23278893E+00 0.16927785E+04</pdfrwt>
<pdfrwt beam="2">  1       -1 0.72836869E-01 0.16927785E+04</pdfrwt>
<totfact> 0.25728877E+01</totfact>
</mgrwt>
</event>
<event>
12    6  0.1647231E-007  0.1762629E+04  0.7818608E-02  0.8726429E-01
         -1   -1    0    0    0  501 -0.00000000000E+00  0.00000000000E+00  0.22563195989E+03  0.22563195989E+03  0.00000000000E+00 0.  1.
          2   -1    0    0  501    0  0.00000000000E+00 -0.00000000000E+00 -0.34423992793E+04  0.34423992793E+04  0.00000000000E+00 0. -1.
         24    2    1    2    0    0  0.33821857876E+02  0.66008234792E+03 -0.12695883964E+04  0.14335985150E+04  0.80606339240E+02 0.  0.
        254    2    1    2    0    0 -0.33821857876E+02 -0.66008234792E+03 -0.19471789230E+04  0.22344327242E+04  0.87426038253E+03 0.  0.
         23    2    4    4    0    0 -0.29627149486E+03  0.29023354314E+02 -0.88698813000E+03  0.93998803197E+03  0.90611278166E+02 0.  0.
         23    2    4    4    0    0  0.26244963699E+03 -0.68910570224E+03 -0.10601907930E+04  0.12944446922E+04  0.88521538202E+02 0.  0.
          2    1    3    3  502    0  0.10114224718E+02  0.71405769709E+01 -0.27013016240E+02  0.29715121193E+02  0.00000000000E+00 0. -1.
         -1    1    3    3    0  502  0.23707633158E+02  0.65294177095E+03 -0.12425753802E+04  0.14038833938E+04  0.00000000000E+00 0.  1.
         11    1    5    5    0    0 -0.15883888314E+03  0.31848277825E+02 -0.34981511962E+03  0.38550579959E+03  0.00000000000E+00 0.  1.
        -11    1    5    5    0    0 -0.13743261173E+03 -0.28249235117E+01 -0.53717301037E+03  0.55448223238E+03  0.00000000000E+00 0. -1.
          2    1    6    6  503    0  0.22033370547E+03 -0.49544945111E+03 -0.81972035453E+03  0.98283190832E+03  0.00000000000E+00 0. -1.
         -2    1    6    6    0  503  0.42115931520E+02 -0.19365625112E+03 -0.24047043852E+03  0.31161278390E+03  0.00000000000E+00 0.  1.
<mgrwt>
<rscale>  0 0.17626291E+04</rscale>
<asrwt>0</asrwt>
<pdfrwt beam="1">  1        2 0.52959991E+00 0.17626291E+04</pdfrwt>
<pdfrwt beam="2">  1       -1 0.34712608E-01 0.17626291E+04</pdfrwt>
<totfact> 0.76315599E+00</totfact>
</mgrwt>
</event>
<event>
12    6  0.1647231E-007  0.2137993E+04  0.7818608E-02  0.8544690E-01
         -1   -1    0    0    0  501 -0.00000000000E+00  0.00000000000E+00  0.53066837688E+03  0.53066837688E+03  0.00000000000E+00 0.  1.
          2   -1    0    0  501    0  0.00000000000E+00 -0.00000000000E+00 -0.21534221534E+04  0.21534221534E+04  0.00000000000E+00 0. -1.
         24    2    1    2    0    0  0.52206182021E+03  0.66879752230E+03 -0.37443763703E+03  0.93106806331E+03  0.82737685187E+02 0.  0.
        254    2    1    2    0    0 -0.52206182021E+03 -0.66879752230E+03 -0.12483161395E+04  0.17530224670E+04  0.89160300336E+03 0.  0.
         23    2    4    4    0    0 -0.27573286438E+03 -0.37577465158E+03 -0.12726040610E+04  0.13586124299E+04  0.95244093863E+02 0.  0.
         23    2    4    4    0    0 -0.24632895583E+03 -0.29302287072E+03  0.24287921441E+02  0.39441003709E+03  0.91809678049E+02 0.  0.
          4    1    3    3  502    0  0.15027961871E+03  0.25326291579E+03 -0.11609347725E+03  0.31654978087E+03  0.00000000000E+00 0. -1.
         -3    1    3    3    0  502  0.37178220151E+03  0.41553460651E+03 -0.25834415978E+03  0.61451828244E+03  0.00000000000E+00 0.  1.
         11    1    5    5    0    0 -0.46334322349E+02 -0.19210853014E+02 -0.17210457945E+03  0.17926492287E+03  0.00000000000E+00 0. -1.
        -11    1    5    5    0    0 -0.22939854203E+03 -0.35656379856E+03 -0.11004994815E+04  0.11793475070E+04  0.00000000000E+00 0.  1.
          1    1    6    6  503    0 -0.11262447143E+03 -0.77935598032E+02  0.33451676342E+02  0.14098667900E+03  0.00000000000E+00 0. -1.
         -1    1    6    6    0  503 -0.13370448440E+03 -0.21508727269E+03 -0.91637549011E+01  0.25342335809E+03  0.00000000000E+00 0.  1.
<mgrwt>
<rscale>  0 0.21379926E+04</rscale>
<asrwt>0</asrwt>
<pdfrwt beam="1">  1        2 0.33129572E+00 0.21379926E+04</pdfrwt>
<pdfrwt beam="2">  1       -1 0.81641287E-01 0.21379926E+04</pdfrwt>
<totfact> 0.85653758E+00</totfact>
</mgrwt>
</event>
<event>
12    6  0.1647231E-007  0.3072826E+04  0.7818608E-02  0.8223235E-01
         -1   -1    0    0    0  501 -0.00000000000E+00  0.00000000000E+00  0.49409829496E+03  0.49409829496E+03  0.00000000000E+00 0.  1.
          2   -1    0    0  501    0  0.00000000000E+00 -0.00000000000E+00 -0.47775197884E+04  0.47775197884E+04  0.00000000000E+00 0. -1.
         24    2    1    2    0    0  0.11579554834E+04 -0.30242553565E+03 -0.32205821362E+04  0.34366913847E+04  0.79851558839E+02 0.  0.
        254    2    1    2    0    0 -0.11579554834E+04  0.30242553565E+03 -0.10628393573E+04  0.18349266988E+04  0.89722148007E+03 0.  0.
         23    2    4    4    0    0 -0.98561964361E+03  0.29740557762E+03 -0.12094046053E+04  0.15907485117E+04  0.89023416397E+02 0.  0.
         23    2    4    4    0    0 -0.17233583975E+03  0.50199580293E+01  0.14656524799E+03  0.24417818706E+03  0.91742975097E+02 0.  0.
          4    1    3    3  502    0  0.99566505229E+03 -0.24895518246E+03 -0.28306052144E+04  0.30109223602E+04  0.00000000000E+00 0. -1.
         -3    1    3    3    0  502  0.16229043107E+03 -0.53470353197E+02 -0.38997692180E+03  0.42576902450E+03  0.00000000000E+00 0.  1.
         11    1    5    5    0    0 -0.24041418617E+03  0.52928016744E+02 -0.23985923920E+03  0.34370453953E+03  0.00000000000E+00 0. -1.
        -11    1    5    5    0    0 -0.74520545744E+03  0.24447756088E+03 -0.96954536609E+03  0.12470439722E+04  0.00000000000E+00 0.  1.
          4    1    6    6  503    0 -0.35733879864E+02 -0.37889338305E+02  0.41126597925E+02  0.66361955850E+02  0.00000000000E+00 0. -1.
         -4    1    6    6    0  503 -0.13660195988E+03  0.42909296334E+02  0.10543865006E+03  0.17781623121E+03  0.00000000000E+00 0.  1.
<mgrwt>
<rscale>  0 0.30728257E+04</rscale>
<asrwt>0</asrwt>
<pdfrwt beam="1">  1        2 0.73500301E+00 0.30728257E+04</pdfrwt>
<pdfrwt beam="2">  1       -1 0.76015126E-01 0.30728257E+04</pdfrwt>
<totfact> 0.10583027E-01</totfact>
</mgrwt>
</event>
<event>
12    6  0.1647231E-007  0.1224471E+04  0.7818608E-02  0.9091703E-01
         -1   -1    0    0    0  501 -0.00000000000E+00  0.00000000000E+00  0.17432750426E+04  0.17432750426E+04  0.00000000000E+00 0.  1.
          2   -1    0    0  501    0  0.00000000000E+00 -0.00000000000E+00 -0.21501616757E+03  0.21501616757E+03  0.00000000000E+00 0. -1.
         24    2    1    2    0    0 -0.43380256903E+02  0.71564750256E+02 -0.59841075571E+02  0.13842142243E+03  0.92607643818E+02 0.  0.
        254    2    1    2    0    0  0.43380256903E+02 -0.71564750256E+02  0.15880999507E+04  0.18198697878E+04  0.88479445695E+03 0.  0.
         23    2    4    4    0    0  0.30445141505E+03  0.26171864388E+03  0.49325633566E+03  0.64246119970E+03  0.90924516901E+02 0.  0.
         23    2    4    4    0    0 -0.26107115814E+03 -0.33328339414E+03  0.10948436150E+04  0.11774085881E+04  0.91501210799E+02 0.  0.
          4    1    3    3  502    0 -0.53339978834E+02  0.37301146160E+02 -0.75302431704E+02  0.99533838806E+02  0.00000000000E+00 0. -1.
         -3    1    3    3    0  502  0.99597219310E+01  0.34263604096E+02  0.15461356133E+02  0.38887583623E+02  0.00000000000E+00 0.  1.
         11    1    5    5    0    0  0.97861622962E+01  0.28606139293E+02  0.13559300337E+02  0.33135099266E+02  0.00000000000E+00 0. -1.
        -11    1    5    5    0    0  0.29466525275E+03  0.23311250459E+03  0.47969703532E+03  0.60932610044E+03  0.00000000000E+00 0.  1.
          1    1    6    6  503    0 -0.39368159130E+02 -0.75656843372E+02  0.32246692201E+03  0.33355468172E+03  0.00000000000E+00 0. -1.
         -1    1    6    6    0  503 -0.22170299901E+03 -0.25762655077E+03  0.77237669298E+03  0.84385390636E+03  0.00000000000E+00 0.  1.
<mgrwt>
<rscale>  0 0.12244710E+04</rscale>
<asrwt>0</asrwt>
<pdfrwt beam="1">  1        2 0.33079412E-01 0.12244710E+04</pdfrwt>
<pdfrwt beam="2">  1       -1 0.26819615E+00 0.12244710E+04</pdfrwt>
<totfact> 0.95966845E+00</totfact>
</mgrwt>
</event>
<event>
12    6  0.1647231E-007  0.1980255E+04  0.7818608E-02  0.8615908E-01
          2   -1    0    0  501    0  0.00000000000E+00  0.00000000000E+00  0.34952408610E+03  0.34952408610E+03  0.00000000000E+00 0. -1.
         -1   -1    0    0    0  501 -0.00000000000E+00 -0.00000000000E+00 -0.28048204241E+04  0.28048204241E+04  0.00000000000E+00 0.  1.
         24    2    1    2    0    0 -0.30455893506E+03 -0.34173896460E+03 -0.19692403285E+04  0.20233684060E+04  0.81059052714E+02 0.  0.
        254    2    1    2    0    0  0.30455893506E+03  0.34173896460E+03 -0.48605600949E+03  0.11309761042E+04  0.91286079942E+03 0.  0.
         23    2    4    4    0    0 -0.91366245900E+02 -0.25401627352E+03 -0.22676311052E+03  0.36400229442E+03  0.90576508838E+02 0.  0.
         23    2    4    4    0    0  0.39592518096E+03  0.59575523811E+03 -0.25929289898E+03  0.76697380980E+03  0.96617621626E+02 0.  0.
          4    1    3    3  502    0 -0.39714562929E+02 -0.46127267678E+02 -0.16197840846E+03  0.17303749923E+03  0.00000000000E+00 0. -1.
         -3    1    3    3    0  502 -0.26484437213E+03 -0.29561169692E+03 -0.18072619200E+04  0.18503309067E+04  0.00000000000E+00 0.  1.
         11    1    5    5    0    0 -0.18379188272E+02 -0.76689541735E+01  0.19628274154E+01  0.20011499472E+02  0.00000000000E+00 0.  1.
        -11    1    5    5    0    0 -0.72987057628E+02 -0.24634731934E+03 -0.22872593793E+03  0.34399079495E+03  0.00000000000E+00 0. -1.
          4    1    6    6  503    0  0.11372712800E+03  0.17285428378E+03 -0.12260857082E+03  0.24051055009E+03  0.00000000000E+00 0.  1.
         -4    1    6    6    0  503  0.28219805296E+03  0.42290095433E+03 -0.13668432816E+03  0.52646325972E+03  0.00000000000E+00 0. -1.
<mgrwt>
<rscale>  0 0.19802548E+04</rscale>
<asrwt>0</asrwt>
<pdfrwt beam="1">  1        2 0.53772937E-01 0.19802548E+04</pdfrwt>
<pdfrwt beam="2">  1       -1 0.43151083E+00 0.19802548E+04</pdfrwt>
<totfact> 0.42817467E-01</totfact>
</mgrwt>
</event>
<event>
12    6  0.1647231E-007  0.2195727E+04  0.7818608E-02  0.8520209E-01
          2   -1    0    0  501    0  0.00000000000E+00  0.00000000000E+00  0.82620422343E+03  0.82620422343E+03  0.00000000000E+00 0. -1.
         -1   -1    0    0    0  501 -0.00000000000E+00 -0.00000000000E+00 -0.14588455813E+04  0.14588455813E+04  0.00000000000E+00 0.  1.
         24    2    1    2    0    0  0.42496087702E+03  0.62225838987E+03 -0.81839914094E+03  0.11153095996E+04  0.79631013673E+02 0.  0.
        254    2    1    2    0    0 -0.42496087702E+03 -0.62225838987E+03  0.18575778308E+03  0.11697402051E+04  0.87520794255E+03 0.  0.
         23    2    4    4    0    0 -0.66573283320E+03 -0.31449438234E+03  0.19841659586E+03  0.76835989662E+03  0.94344387776E+02 0.  0.
         23    2    4    4    0    0  0.24077195617E+03 -0.30776400753E+03 -0.12658812773E+02  0.40138030849E+03  0.90863013864E+02 0.  0.
          2    1    3    3  502    0  0.16369822445E+03  0.21829761937E+03 -0.24383586536E+03  0.36593290170E+03  0.00000000000E+00 0. -1.
         -1    1    3    3    0  502  0.26126265257E+03  0.40396077050E+03 -0.57456327559E+03  0.74937669792E+03  0.00000000000E+00 0.  1.
         11    1    5    5    0    0 -0.58023259381E+02 -0.28715628531E+02  0.46860379678E+02  0.79919841933E+02  0.00000000000E+00 0. -1.
        -11    1    5    5    0    0 -0.60770957382E+03 -0.28577875381E+03  0.15155621618E+03  0.68844005469E+03  0.00000000000E+00 0.  1.
          4    1    6    6  503    0  0.19213641296E+03 -0.29292087913E+03 -0.12309841006E+02  0.35052899281E+03  0.00000000000E+00 0.  1.
         -4    1    6    6    0  503  0.48635543215E+02 -0.14843128398E+02 -0.34897176745E+00  0.50851315674E+02  0.00000000000E+00 0. -1.
<mgrwt>
<rscale>  0 0.21957271E+04</rscale>
<asrwt>0</asrwt>
<pdfrwt beam="1">  1        2 0.12710834E+00 0.21957271E+04</pdfrwt>
<pdfrwt beam="2">  1       -1 0.22443778E+00 0.21957271E+04</pdfrwt>
<totfact> 0.35367411E+00</totfact>
</mgrwt>
</event>
<event>
12    6  0.1647231E-007  0.1296769E+04  0.7818608E-02  0.9032131E-01
          2   -1    0    0  501    0  0.00000000000E+00  0.00000000000E+00  0.86902905492E+03  0.86902905492E+03  0.00000000000E+00 0. -1.
         -1   -1    0    0    0  501 -0.00000000000E+00 -0.00000000000E+00 -0.48376113314E+03  0.48376113314E+03  0.00000000000E+00 0.  1.
         24    2    1    2    0    0 -0.33893557426E+01  0.76033457110E+02 -0.23181603213E+03  0.25642589401E+03  0.78885943218E+02 0.  0.
        254    2    1    2    0    0  0.33893557426E+01 -0.76033457110E+02  0.61708395390E+03  0.10963642940E+04  0.90301134254E+03 0.  0.
         23    2    4    4    0    0  0.13772362681E+03  0.30341553369E+03 -0.97082442206E+01  0.34715383451E+03  0.96916207847E+02 0.  0.
         23    2    4    4    0    0 -0.13433427106E+03 -0.37944899080E+03  0.62679219812E+03  0.74921045953E+03  0.80128771592E+02 0.  0.
          2    1    3    3  502    0  0.30698021696E+02  0.55977735488E+01 -0.59962818428E+02  0.67596177396E+02  0.00000000000E+00 0. -1.
         -1    1    3    3    0  502 -0.34087377439E+02  0.70435683561E+02 -0.17185321370E+03  0.18882971662E+03  0.00000000000E+00 0.  1.
         11    1    5    5    0    0  0.14293009863E+03  0.30541403176E+03 -0.14724799568E+01  0.33720752081E+03  0.00000000000E+00 0. -1.
        -11    1    5    5    0    0 -0.52064718194E+01 -0.19984980692E+01 -0.82357642638E+01  0.99463137065E+01  0.00000000000E+00 0.  1.
          4    1    6    6  503    0 -0.12070182080E+03 -0.37223033138E+03  0.61795708361E+03  0.73143373338E+03  0.00000000000E+00 0. -1.
         -4    1    6    6    0  503 -0.13632450265E+02 -0.72186594239E+01  0.88351145105E+01  0.17776726147E+02  0.00000000000E+00 0.  1.
<mgrwt>
<rscale>  0 0.12967690E+04</rscale>
<asrwt>0</asrwt>
<pdfrwt beam="1">  1        2 0.13369678E+00 0.12967690E+04</pdfrwt>
<pdfrwt beam="2">  1       -1 0.74424790E-01 0.12967690E+04</pdfrwt>
<totfact> 0.62614442E+01</totfact>
</mgrwt>
</event>
<event>
12    6  0.1647231E-007  0.2288754E+04  0.7818608E-02  0.8482369E-01
          2   -1    0    0  501    0  0.00000000000E+00  0.00000000000E+00  0.45714758752E+04  0.45714758752E+04  0.00000000000E+00 0. -1.
         -1   -1    0    0    0  501 -0.00000000000E+00 -0.00000000000E+00 -0.28647165712E+03  0.28647165712E+03  0.00000000000E+00 0.  1.
         24    2    1    2    0    0  0.42494410045E+02  0.66096362539E+03  0.33187401843E+04  0.33851188717E+04  0.79464932377E+02 0.  0.
        254    2    1    2    0    0 -0.42494410045E+02 -0.66096362539E+03  0.96626403375E+03  0.14728286606E+04  0.89268101339E+03 0.  0.
         23    2    4    4    0    0  0.37571811383E+03 -0.24056704436E+03  0.65169831407E+03  0.79479758477E+03  0.89195876096E+02 0.  0.
         23    2    4    4    0    0 -0.41821252387E+03 -0.42039658103E+03  0.31456571968E+03  0.67803107585E+03  0.95600979860E+02 0.  0.
          4    1    3    3  502    0  0.59171296471E+02  0.46704115814E+03  0.24533544603E+04  0.24981146478E+04  0.00000000000E+00 0. -1.
         -3    1    3    3    0  502 -0.16676886425E+02  0.19392246726E+03  0.86538572401E+03  0.88700422387E+03  0.00000000000E+00 0.  1.
         11    1    5    5    0    0  0.13231026803E+03 -0.36899137067E+02  0.20854539356E+03  0.24971730921E+03  0.00000000000E+00 0. -1.
        -11    1    5    5    0    0  0.24340784580E+03 -0.20366790729E+03  0.44315292050E+03  0.54508027556E+03  0.00000000000E+00 0.  1.
          4    1    6    6  503    0 -0.35075862433E+03 -0.31277850468E+03  0.27727776444E+03  0.54566011783E+03  0.00000000000E+00 0.  1.
         -4    1    6    6    0  503 -0.67453899541E+02 -0.10761807636E+03  0.37287955234E+02  0.13237095802E+03  0.00000000000E+00 0. -1.
<mgrwt>
<rscale>  0 0.22887536E+04</rscale>
<asrwt>0</asrwt>
<pdfrwt beam="1">  1        2 0.70330393E+00 0.22887536E+04</pdfrwt>
<pdfrwt beam="2">  1       -1 0.44072566E-01 0.22887536E+04</pdfrwt>
<totfact> 0.55501648E-01</totfact>
</mgrwt>
</event>
<event>
12    6  0.1647231E-007  0.1457064E+04  0.7818608E-02  0.8913518E-01
         -1   -1    0    0    0  501 -0.00000000000E+00  0.00000000000E+00  0.42076182519E+03  0.42076182519E+03  0.00000000000E+00 0.  1.
          2   -1    0    0  501    0  0.00000000000E+00 -0.00000000000E+00 -0.12614239259E+04  0.12614239259E+04  0.00000000000E+00 0. -1.
         24    2    1    2    0    0 -0.28276037640E+02  0.10869114549E+03 -0.76022158343E+03  0.77257264143E+03  0.79487929658E+02 0.  0.
        254    2    1    2    0    0  0.28276037640E+02 -0.10869114549E+03 -0.80440517324E+02  0.90961310970E+03  0.89906175154E+03 0.  0.
         23    2    4    4    0    0  0.28393740819E+03  0.17137546612E+03  0.22958885834E+03  0.41139846347E+03  0.80917548907E+02 0.  0.
         23    2    4    4    0    0 -0.25566137055E+03 -0.28006661161E+03 -0.31002937566E+03  0.49821464622E+03  0.91102012113E+02 0.  0.
          2    1    3    3  502    0 -0.39327315682E+02  0.36861150341E+02 -0.48242919057E+03  0.48543105183E+03  0.00000000000E+00 0. -1.
         -1    1    3    3    0  502  0.11051278042E+02  0.71829995149E+02 -0.27779239286E+03  0.28714158961E+03  0.00000000000E+00 0.  1.
         11    1    5    5    0    0  0.28589341659E+03  0.16922563217E+03  0.21318854924E+03  0.39474259684E+03  0.00000000000E+00 0. -1.
        -11    1    5    5    0    0 -0.19560083998E+01  0.21498339414E+01  0.16400309097E+02  0.16655866634E+02  0.00000000000E+00 0.  1.
          3    1    6    6  503    0 -0.18737098090E+03 -0.24629562801E+03 -0.27643307067E+03  0.41495139886E+03  0.00000000000E+00 0. -1.
         -3    1    6    6    0  503 -0.68290389651E+02 -0.33770983599E+02 -0.33596304990E+02  0.83263247360E+02  0.00000000000E+00 0.  1.
<mgrwt>
<rscale>  0 0.14570642E+04</rscale>
<asrwt>0</asrwt>
<pdfrwt beam="1">  1        2 0.19406522E+00 0.14570642E+04</pdfrwt>
<pdfrwt beam="2">  1       -1 0.64732588E-01 0.14570642E+04</pdfrwt>
<totfact> 0.46567193E+01</totfact>
</mgrwt>
</event>
<event>
12    6  0.1647231E-007  0.2294818E+04  0.7818608E-02  0.8479967E-01
         -1   -1    0    0    0  501 -0.00000000000E+00  0.00000000000E+00  0.92217006599E+03  0.92217006599E+03  0.00000000000E+00 0.  1.
          2   -1    0    0  501    0  0.00000000000E+00 -0.00000000000E+00 -0.14276623630E+04  0.14276623630E+04  0.00000000000E+00 0. -1.
         24    2    1    2    0    0  0.82281414611E+03  0.12955220815E+03 -0.71089093857E+03  0.10982215899E+04  0.83173555034E+02 0.  0.
        254    2    1    2    0    0 -0.82281414611E+03 -0.12955220815E+03  0.20539864159E+03  0.12516108391E+04  0.91133648935E+03 0.  0.
         23    2    4    4    0    0 -0.49135892606E+03 -0.80689267915E+02 -0.33621530591E+03  0.60779783137E+03  0.91832018996E+02 0.  0.
         23    2    4    4    0    0 -0.33145522006E+03 -0.48862940235E+02  0.54161394750E+03  0.64381300770E+03  0.94336477197E+02 0.  0.
          2    1    3    3  502    0  0.42416754991E+03  0.56925405963E+02 -0.31204404668E+03  0.52965092213E+03  0.00000000000E+00 0. -1.
         -1    1    3    3    0  502  0.39864659621E+03  0.72626802187E+02 -0.39884689189E+03  0.56857066775E+03  0.00000000000E+00 0.  1.
         11    1    5    5    0    0 -0.15463037569E+03  0.15185074267E+02 -0.11982616408E+03  0.19621276504E+03  0.00000000000E+00 0. -1.
        -11    1    5    5    0    0 -0.33672855037E+03 -0.95874342181E+02 -0.21638914183E+03  0.41158506633E+03  0.00000000000E+00 0.  1.
          2    1    6    6  503    0 -0.31817183210E+03 -0.52841094574E+02  0.54110594740E+03  0.62993741144E+03  0.00000000000E+00 0.  1.
         -2    1    6    6    0  503 -0.13283387960E+02  0.39781543388E+01  0.50800009920E+00  0.13875596266E+02  0.00000000000E+00 0. -1.
<mgrwt>
<rscale>  0 0.22948181E+04</rscale>
<asrwt>0</asrwt>
<pdfrwt beam="1">  1        2 0.21964036E+00 0.22948181E+04</pdfrwt>
<pdfrwt beam="2">  1       -1 0.14187232E+00 0.22948181E+04</pdfrwt>
<totfact> 0.58367404E+00</totfact>
</mgrwt>
</event>
<event>
12    6  0.1647231E-007  0.1441833E+04  0.7818608E-02  0.8924082E-01
         -1   -1    0    0    0  501 -0.00000000000E+00  0.00000000000E+00  0.98569855800E+03  0.98569855800E+03  0.00000000000E+00 0.  1.
          2   -1    0    0  501    0  0.00000000000E+00 -0.00000000000E+00 -0.52726092329E+03  0.52726092329E+03  0.00000000000E+00 0. -1.
         24    2    1    2    0    0  0.93613603000E+02  0.23403251545E+03 -0.23724580267E+03  0.35567620252E+03  0.81763471050E+02 0.  0.
        254    2    1    2    0    0 -0.93613603000E+02 -0.23403251545E+03  0.69568343738E+03  0.11572832788E+04  0.88982830778E+03 0.  0.
         23    2    4    4    0    0 -0.12232541310E+02  0.33253246721E+03  0.29034505731E+03  0.45038489649E+03  0.88424124910E+02 0.  0.
         23    2    4    4    0    0 -0.81381061690E+02 -0.56656498265E+03  0.40533838008E+03  0.70689838229E+03  0.88246040956E+02 0.  0.
          4    1    3    3  502    0  0.93294293068E+02  0.22864071909E+03 -0.24391443387E+03  0.34709459027E+03  0.00000000000E+00 0. -1.
         -3    1    3    3    0  502  0.31930993193E+00  0.53917963538E+01  0.66686311939E+01  0.85816122467E+01  0.00000000000E+00 0.  1.
         11    1    5    5    0    0  0.19656462331E+01  0.13125444186E+03  0.60510541649E+02  0.14454451883E+03  0.00000000000E+00 0.  1.
        -11    1    5    5    0    0 -0.14198187543E+02  0.20127802535E+03  0.22983451566E+03  0.30584037766E+03  0.00000000000E+00 0. -1.
          2    1    6    6  503    0 -0.88758957221E+02 -0.53344111848E+03  0.39979525336E+03  0.67251306603E+03  0.00000000000E+00 0. -1.
         -2    1    6    6    0  503  0.73778955316E+01 -0.33123864177E+02  0.55431267199E+01  0.34385316260E+02  0.00000000000E+00 0.  1.
<mgrwt>
<rscale>  0 0.14418326E+04</rscale>
<asrwt>0</asrwt>
<pdfrwt beam="1">  1        2 0.81117065E-01 0.14418326E+04</pdfrwt>
<pdfrwt beam="2">  1       -1 0.15164593E+00 0.14418326E+04</pdfrwt>
<totfact> 0.21746654E+01</totfact>
</mgrwt>
</event>
<event>
12    6  0.1647231E-007  0.1917826E+04  0.7818608E-02  0.8646034E-01
          2   -1    0    0  501    0  0.00000000000E+00  0.00000000000E+00  0.29674467690E+04  0.29674467690E+04  0.00000000000E+00 0. -1.
         -1   -1    0    0    0  501 -0.00000000000E+00 -0.00000000000E+00 -0.30986704685E+03  0.30986704685E+03  0.00000000000E+00 0.  1.
         24    2    1    2    0    0 -0.41264837662E+03 -0.21455432103E+03  0.20365864079E+04  0.20905169657E+04  0.79150156949E+02 0.  0.
        254    2    1    2    0    0  0.41264837662E+03  0.21455432103E+03  0.62099331423E+03  0.11867968502E+04  0.89807673833E+03 0.  0.
         23    2    4    4    0    0 -0.13492299314E+03  0.38606974787E+03  0.35020504698E+03  0.54585713744E+03  0.89790730397E+02 0.  0.
         23    2    4    4    0    0  0.54757136976E+03 -0.17151542683E+03  0.27078826725E+03  0.64093971276E+03  0.90694449078E+02 0.  0.
          2    1    3    3  502    0 -0.33095460388E+03 -0.16727414993E+03  0.14658259112E+04  0.15120043627E+04  0.00000000000E+00 0. -1.
         -1    1    3    3    0  502 -0.81693772738E+02 -0.47280171103E+02  0.57076049676E+03  0.57851260292E+03  0.00000000000E+00 0.  1.
         11    1    5    5    0    0 -0.13733578207E+02  0.10321807440E+03  0.48362075258E+02  0.11481059349E+03  0.00000000000E+00 0. -1.
        -11    1    5    5    0    0 -0.12118941493E+03  0.28285167347E+03  0.30184297172E+03  0.43104654395E+03  0.00000000000E+00 0.  1.
          1    1    6    6  503    0  0.12208448406E+02  0.98406463115E+01  0.71189791387E+01  0.17221045157E+02  0.00000000000E+00 0. -1.
         -1    1    6    6    0  503  0.53536292135E+03 -0.18135607315E+03  0.26366928811E+03  0.62371866761E+03  0.00000000000E+00 0.  1.
<mgrwt>
<rscale>  0 0.19178258E+04</rscale>
<asrwt>0</asrwt>
<pdfrwt beam="1">  1        2 0.45653025E+00 0.19178258E+04</pdfrwt>
<pdfrwt beam="2">  1       -1 0.47671855E-01 0.19178258E+04</pdfrwt>
<totfact> 0.85596941E+00</totfact>
</mgrwt>
</event>
<event>
12    6  0.1647231E-007  0.3353740E+04  0.7818608E-02  0.8149354E-01
         -1   -1    0    0    0  501 -0.00000000000E+00  0.00000000000E+00  0.13943540691E+04  0.13943540691E+04  0.00000000000E+00 0.  1.
          2   -1    0    0  501    0  0.00000000000E+00 -0.00000000000E+00 -0.20166272376E+04  0.20166272376E+04  0.00000000000E+00 0. -1.
         24    2    1    2    0    0 -0.89034503857E+03  0.24112089720E+03  0.98035685488E+03  0.13486233264E+04  0.82654333775E+02 0.  0.
        254    2    1    2    0    0  0.89034503857E+03 -0.24112089720E+03 -0.16026300234E+04  0.20623579803E+04  0.91326002454E+03 0.  0.
         23    2    4    4    0    0  0.75106456025E+03  0.18784022009E+02 -0.15820951132E+04  0.17536344597E+04  0.88079837520E+02 0.  0.
         23    2    4    4    0    0  0.13928047832E+03 -0.25990491921E+03 -0.20534910175E+02  0.30872352066E+03  0.89100566781E+02 0.  0.
          4    1    3    3  502    0 -0.65539205791E+03  0.20830550145E+03  0.75803735238E+03  0.10234991740E+04  0.00000000000E+00 0. -1.
         -3    1    3    3    0  502 -0.23495298066E+03  0.32815395748E+02  0.22231950250E+03  0.32512415246E+03  0.00000000000E+00 0.  1.
         11    1    5    5    0    0  0.56907639111E+03  0.44078443460E+02 -0.11410347239E+04  0.12758334880E+04  0.00000000000E+00 0. -1.
        -11    1    5    5    0    0  0.18198816914E+03 -0.25294421451E+02 -0.44106038937E+03  0.47780097168E+03  0.00000000000E+00 0.  1.
          3    1    6    6  503    0  0.84229172814E+02 -0.15845192404E+03  0.31359838202E+02  0.18216751971E+03  0.00000000000E+00 0. -1.
         -3    1    6    6    0  503  0.55051305503E+02 -0.10145299517E+03 -0.51894748377E+02  0.12655600095E+03  0.00000000000E+00 0.  1.
<mgrwt>
<rscale>  0 0.33537396E+04</rscale>
<asrwt>0</asrwt>
<pdfrwt beam="1">  1        2 0.31025034E+00 0.33537396E+04</pdfrwt>
<pdfrwt beam="2">  1       -1 0.21451601E+00 0.33537396E+04</pdfrwt>
<totfact> 0.74117641E-01</totfact>
</mgrwt>
</event>
<event>
12    6  0.1647231E-007  0.9451175E+03  0.7818608E-02  0.9370876E-01
          2   -1    0    0  501    0  0.00000000000E+00  0.00000000000E+00  0.99432546062E+03  0.99432546062E+03  0.00000000000E+00 0. -1.
         -1   -1    0    0    0  501 -0.00000000000E+00 -0.00000000000E+00 -0.22458621234E+03  0.22458621234E+03  0.00000000000E+00 0.  1.
         24    2    1    2    0    0  0.28676130972E+02 -0.25110918596E+01 -0.11371059039E+02  0.85666357875E+02  0.79879896207E+02 0.  0.
        254    2    1    2    0    0 -0.28676130972E+02  0.25110918596E+01  0.78111030732E+03  0.11332453151E+04  0.82053824158E+03 0.  0.
         23    2    4    4    0    0 -0.36478344067E+03  0.15197834363E+03  0.57044636944E+03  0.69994675038E+03  0.91389372713E+02 0.  0.
         23    2    4    4    0    0  0.33610730970E+03 -0.14946725177E+03  0.21066393788E+03  0.43329856470E+03  0.89776213240E+02 0.  0.
          2    1    3    3  502    0 -0.25426078019E+02 -0.35055173680E+01 -0.17711992676E+02  0.31184752363E+02  0.00000000000E+00 0. -1.
         -1    1    3    3    0  502  0.54102208991E+02  0.99442550843E+00  0.63409336367E+01  0.54481605512E+02  0.00000000000E+00 0.  1.
         11    1    5    5    0    0 -0.26088292260E+03  0.87250933542E+02  0.32593786401E+03  0.42650687674E+03  0.00000000000E+00 0. -1.
        -11    1    5    5    0    0 -0.10390051807E+03  0.64727410092E+02  0.24450850543E+03  0.27343987364E+03  0.00000000000E+00 0.  1.
          3    1    6    6  503    0  0.21188578087E+03 -0.46975192126E+02  0.13257599298E+03  0.25431996918E+03  0.00000000000E+00 0. -1.
         -3    1    6    6    0  503  0.12422152883E+03 -0.10249205965E+03  0.78087944897E+02  0.17897859552E+03  0.00000000000E+00 0.  1.
<mgrwt>
<rscale>  0 0.94511754E+03</rscale>
<asrwt>0</asrwt>
<pdfrwt beam="1">  1        2 0.15297314E+00 0.94511754E+03</pdfrwt>
<pdfrwt beam="2">  1       -1 0.34551726E-01 0.94511754E+03</pdfrwt>
<totfact> 0.22988545E+02</totfact>
</mgrwt>
</event>
<event>
12    6  0.1647231E-007  0.1450878E+04  0.7818608E-02  0.8917792E-01
          2   -1    0    0  501    0  0.00000000000E+00  0.00000000000E+00  0.32235828392E+04  0.32235828392E+04  0.00000000000E+00 0. -1.
         -1   -1    0    0    0  501 -0.00000000000E+00 -0.00000000000E+00 -0.16325358806E+03  0.16325358806E+03  0.00000000000E+00 0.  1.
         24    2    1    2    0    0 -0.13851840599E+03 -0.33161156122E+03  0.15447450579E+04  0.15879683480E+04  0.79073407321E+02 0.  0.
        254    2    1    2    0    0  0.13851840599E+03  0.33161156122E+03  0.15155841932E+04  0.17988680793E+04  0.89987629359E+03 0.  0.
         23    2    4    4    0    0 -0.23768706789E+03  0.46152113320E+03  0.10833605755E+04  0.12048926429E+04  0.92732118304E+02 0.  0.
         23    2    4    4    0    0  0.37620547388E+03 -0.12990957198E+03  0.43222361775E+03  0.59397543645E+03  0.87077596975E+02 0.  0.
          2    1    3    3  502    0 -0.13201457215E+03 -0.32797261324E+03  0.14327550688E+04  0.14757306562E+04  0.00000000000E+00 0. -1.
         -1    1    3    3    0  502 -0.65038338370E+01 -0.36389479812E+01  0.11198998910E+03  0.11223769178E+03  0.00000000000E+00 0.  1.
         11    1    5    5    0    0 -0.22247242138E+03  0.44015311247E+03  0.96572342692E+03  0.10843663947E+04  0.00000000000E+00 0. -1.
        -11    1    5    5    0    0 -0.15214646509E+02  0.21368020730E+02  0.11763714855E+03  0.12052624817E+03  0.00000000000E+00 0.  1.
          1    1    6    6  503    0  0.23738203336E+03 -0.40545977390E+02  0.28113817622E+03  0.37017952425E+03  0.00000000000E+00 0. -1.
         -1    1    6    6    0  503  0.13882344052E+03 -0.89363594586E+02  0.15108544153E+03  0.22379591220E+03  0.00000000000E+00 0.  1.
<mgrwt>
<rscale>  0 0.14508776E+04</rscale>
<asrwt>0</asrwt>
<pdfrwt beam="1">  1        2 0.49593577E+00 0.14508776E+04</pdfrwt>
<pdfrwt beam="2">  1       -1 0.25115939E-01 0.14508776E+04</pdfrwt>
<totfact> 0.19420535E+01</totfact>
</mgrwt>
</event>
<event>
12    6  0.1647231E-007  0.1758816E+04  0.7818608E-02  0.8728513E-01
         -1   -1    0    0    0  501 -0.00000000000E+00  0.00000000000E+00  0.10045459356E+04  0.10045459356E+04  0.00000000000E+00 0.  1.
          2   -1    0    0  501    0  0.00000000000E+00 -0.00000000000E+00 -0.76985853564E+03  0.76985853564E+03  0.00000000000E+00 0. -1.
         24    2    1    2    0    0 -0.70206476811E+02 -0.52442153633E+03 -0.30132213236E+03  0.61412557069E+03  0.80051808037E+02 0.  0.
        254    2    1    2    0    0  0.70206476811E+02  0.52442153633E+03  0.53600953228E+03  0.11602789005E+04  0.88260637382E+03 0.  0.
         23    2    4    4    0    0 -0.25967927471E+03 -0.12360912514E+02 -0.66677088860E+02  0.28372074111E+03  0.92008189228E+02 0.  0.
         23    2    4    4    0    0  0.32988575152E+03  0.53678244885E+03  0.60268662114E+03  0.87655815940E+03  0.90349527204E+02 0.  0.
          4    1    3    3  502    0 -0.80285117395E+02 -0.49743597150E+03 -0.29729105051E+03  0.58503864362E+03  0.00000000000E+00 0. -1.
         -3    1    3    3    0  502  0.10078640585E+02 -0.26985564838E+02 -0.40310818491E+01  0.29086927072E+02  0.00000000000E+00 0.  1.
         11    1    5    5    0    0 -0.14506020937E+03  0.38586372906E+02 -0.42189592382E+02  0.15592092297E+03  0.00000000000E+00 0.  1.
        -11    1    5    5    0    0 -0.11461906534E+03 -0.50947285420E+02 -0.24487496478E+02  0.12779981813E+03  0.00000000000E+00 0. -1.
          1    1    6    6  503    0  0.88380703588E+02  0.16036397661E+03  0.12217885437E+03  0.22012593263E+03  0.00000000000E+00 0. -1.
         -1    1    6    6    0  503  0.24150504793E+03  0.37641847224E+03  0.48050776677E+03  0.65643222678E+03  0.00000000000E+00 0.  1.
<mgrwt>
<rscale>  0 0.17588158E+04</rscale>
<asrwt>0</asrwt>
<pdfrwt beam="1">  1        2 0.11843977E+00 0.17588158E+04</pdfrwt>
<pdfrwt beam="2">  1       -1 0.15454553E+00 0.17588158E+04</pdfrwt>
<totfact> 0.12607660E+01</totfact>
</mgrwt>
</event>
<event>
12    6  0.1647231E-007  0.1519644E+04  0.7818608E-02  0.8871494E-01
         -1   -1    0    0    0  501 -0.00000000000E+00  0.00000000000E+00  0.12698605041E+04  0.12698605041E+04  0.00000000000E+00 0.  1.
          2   -1    0    0  501    0  0.00000000000E+00 -0.00000000000E+00 -0.45464004664E+03  0.45464004664E+03  0.00000000000E+00 0. -1.
         24    2    1    2    0    0  0.36726338629E+03 -0.89818180780E+01 -0.98295107355E+02  0.38842133306E+03  0.79032498859E+02 0.  0.
        254    2    1    2    0    0 -0.36726338629E+03  0.89818180780E+01  0.91351556486E+03  0.13360792177E+04  0.90312453230E+03 0.  0.
         23    2    4    4    0    0  0.15828775835E+03 -0.23246765141E+03  0.60592420546E+03  0.67432828230E+03  0.92077500758E+02 0.  0.
         23    2    4    4    0    0 -0.52555114465E+03  0.24144946949E+03  0.30759135940E+03  0.66175093544E+03  0.93808337673E+02 0.  0.
          2    1    3    3  502    0  0.26663742974E+03 -0.30613202699E+02 -0.97329530313E+02  0.28549207448E+03  0.00000000000E+00 0. -1.
         -1    1    3    3    0  502  0.10062595655E+03  0.21631384621E+02 -0.96557704143E+00  0.10292925858E+03  0.00000000000E+00 0.  1.
         11    1    5    5    0    0  0.26166425896E+02 -0.20409192452E+01  0.94022815799E+02  0.97617299114E+02  0.00000000000E+00 0. -1.
        -11    1    5    5    0    0  0.13212133246E+03 -0.23042673216E+03  0.51190138966E+03  0.57671098318E+03  0.00000000000E+00 0.  1.
          2    1    6    6  503    0 -0.34403792126E+03  0.18207482978E+03  0.24863838419E+03  0.46188134948E+03  0.00000000000E+00 0. -1.
         -2    1    6    6    0  503 -0.18151322339E+03  0.59374639704E+02  0.58952975218E+02  0.19986958596E+03  0.00000000000E+00 0.  1.
<mgrwt>
<rscale>  0 0.15196440E+04</rscale>
<asrwt>0</asrwt>
<pdfrwt beam="1">  1        2 0.69944623E-01 0.15196440E+04</pdfrwt>
<pdfrwt beam="2">  1       -1 0.19536315E+00 0.15196440E+04</pdfrwt>
<totfact> 0.12288344E+01</totfact>
</mgrwt>
</event>
<event>
12    6  0.1647231E-007  0.2275937E+04  0.7818608E-02  0.8487470E-01
         -1   -1    0    0    0  501 -0.00000000000E+00  0.00000000000E+00  0.11266499010E+04  0.11266499010E+04  0.00000000000E+00 0.  1.
          2   -1    0    0  501    0  0.00000000000E+00 -0.00000000000E+00 -0.11494008176E+04  0.11494008176E+04  0.00000000000E+00 0. -1.
         24    2    1    2    0    0  0.29328775867E+03 -0.90615885895E+03 -0.17366414744E+03  0.97143963556E+03  0.79963381594E+02 0.  0.
        254    2    1    2    0    0 -0.29328775867E+03  0.90615885895E+03  0.15091323079E+03  0.13046110830E+04  0.87868861817E+03 0.  0.
         23    2    4    4    0    0 -0.27973614433E+03  0.14427985405E+03  0.38205569047E+03  0.50317329198E+03  0.90265300170E+02 0.  0.
         23    2    4    4    0    0 -0.13551614334E+02  0.76187900490E+03 -0.23114245968E+03  0.80143779105E+03  0.90732749812E+02 0.  0.
          4    1    3    3  502    0  0.92124639023E+02 -0.40030648923E+03 -0.92257813168E+02  0.42100325239E+03  0.00000000000E+00 0. -1.
         -3    1    3    3    0  502  0.20116311964E+03 -0.50585236972E+03 -0.81406334276E+02  0.55043638317E+03  0.00000000000E+00 0.  1.
         11    1    5    5    0    0 -0.13459320083E+03  0.46707445292E+02  0.11105006351E+03  0.18063507899E+03  0.00000000000E+00 0. -1.
        -11    1    5    5    0    0 -0.14514294350E+03  0.97572408756E+02  0.27100562696E+03  0.32253821300E+03  0.00000000000E+00 0.  1.
          2    1    6    6  503    0  0.17616760231E+02  0.28771829211E+03 -0.48224741807E+02  0.29226322311E+03  0.00000000000E+00 0. -1.
         -2    1    6    6    0  503 -0.31168374565E+02  0.47416071279E+03 -0.18291771788E+03  0.50917456794E+03  0.00000000000E+00 0.  1.
<mgrwt>
<rscale>  0 0.22759370E+04</rscale>
<asrwt>0</asrwt>
<pdfrwt beam="1">  1        2 0.17683089E+00 0.22759370E+04</pdfrwt>
<pdfrwt beam="2">  1       -1 0.17333075E+00 0.22759370E+04</pdfrwt>
<totfact> 0.48951049E+00</totfact>
</mgrwt>
</event>
<event>
12    6  0.1647231E-007  0.1719204E+04  0.7818608E-02  0.8750487E-01
          2   -1    0    0  501    0  0.00000000000E+00  0.00000000000E+00  0.15107227664E+04  0.15107227664E+04  0.00000000000E+00 0. -1.
         -1   -1    0    0    0  501 -0.00000000000E+00 -0.00000000000E+00 -0.48911376283E+03  0.48911376283E+03  0.00000000000E+00 0.  1.
         24    2    1    2    0    0  0.20081572637E+03 -0.24277100574E+03  0.90151409021E+03  0.95859160488E+03  0.83099295582E+02 0.  0.
        254    2    1    2    0    0 -0.20081572637E+03  0.24277100574E+03  0.12009491340E+03  0.10412449244E+04  0.98514135390E+03 0.  0.
         23    2    4    4    0    0 -0.27158182889E+03 -0.20404979295E+03  0.37535559831E+03  0.51489230805E+03  0.93964120391E+02 0.  0.
         23    2    4    4    0    0  0.70766102518E+02  0.44682079868E+03 -0.25526068491E+03  0.52635261635E+03  0.85043471681E+02 0.  0.
          4    1    3    3  502    0  0.78481286086E+02 -0.15954553372E+03  0.50220927738E+03  0.53275533586E+03  0.00000000000E+00 0. -1.
         -3    1    3    3    0  502  0.12233444029E+03 -0.83225472012E+02  0.39930481282E+03  0.42583626902E+03  0.00000000000E+00 0.  1.
         11    1    5    5    0    0 -0.20230628855E+03 -0.12729446669E+03  0.20154498944E+03  0.31265331984E+03  0.00000000000E+00 0. -1.
        -11    1    5    5    0    0 -0.69275540343E+02 -0.76755326256E+02  0.17381060887E+03  0.20223898821E+03  0.00000000000E+00 0.  1.
          3    1    6    6  503    0  0.70108479439E+02  0.45022258504E+03 -0.24912464796E+03  0.51930594565E+03  0.00000000000E+00 0. -1.
         -3    1    6    6    0  503  0.65762307862E+00 -0.34017863537E+01 -0.61360369459E+01  0.70466706970E+01  0.00000000000E+00 0.  1.
<mgrwt>
<rscale>  0 0.17192036E+04</rscale>
<asrwt>0</asrwt>
<pdfrwt beam="1">  1        2 0.23241888E+00 0.17192036E+04</pdfrwt>
<pdfrwt beam="2">  1       -1 0.75248272E-01 0.17192036E+04</pdfrwt>
<totfact> 0.24062952E+01</totfact>
</mgrwt>
</event>
<event>
12    6  0.1647231E-007  0.1983429E+04  0.7818608E-02  0.8614408E-01
         -1   -1    0    0    0  501 -0.00000000000E+00  0.00000000000E+00  0.10576078799E+04  0.10576078799E+04  0.00000000000E+00 0.  1.
          2   -1    0    0  501    0  0.00000000000E+00 -0.00000000000E+00 -0.92992655967E+03  0.92992655967E+03  0.00000000000E+00 0. -1.
         24    2    1    2    0    0 -0.20236814332E+03 -0.25846098430E+03  0.76589804189E+03  0.83723174135E+03  0.81254121844E+02 0.  0.
        254    2    1    2    0    0  0.20236814332E+03  0.25846098430E+03 -0.63821672167E+03  0.11503026982E+04  0.89895537590E+03 0.  0.
         23    2    4    4    0    0  0.10827812302E+03  0.19457159864E+03  0.19156054128E+03  0.30783529198E+03  0.92113338293E+02 0.  0.
         23    2    4    4    0    0  0.94090020293E+02  0.63889385665E+02 -0.82977726295E+03  0.84246740623E+03  0.91028780836E+02 0.  0.
          4    1    3    3  502    0 -0.10211190037E+03 -0.71722960528E+02  0.24744521118E+03  0.27712841031E+03  0.00000000000E+00 0. -1.
         -3    1    3    3    0  502 -0.10025624295E+03 -0.18673802377E+03  0.51845283071E+03  0.56010333104E+03  0.00000000000E+00 0.  1.
         11    1    5    5    0    0  0.10265147521E+03  0.12427772974E+03  0.16959231951E+03  0.23397400349E+03  0.00000000000E+00 0. -1.
        -11    1    5    5    0    0  0.56266478170E+01  0.70293868897E+02  0.21968221772E+02  0.73861288494E+02  0.00000000000E+00 0.  1.
          4    1    6    6  503    0  0.54845012620E+02  0.84841173677E+02 -0.55742634885E+03  0.56650695896E+03  0.00000000000E+00 0. -1.
         -4    1    6    6    0  503  0.39245007673E+02 -0.20951788011E+02 -0.27235091410E+03  0.27596044727E+03  0.00000000000E+00 0.  1.
<mgrwt>
<rscale>  0 0.19834290E+04</rscale>
<asrwt>0</asrwt>
<pdfrwt beam="1">  1        2 0.14306562E+00 0.19834290E+04</pdfrwt>
<pdfrwt beam="2">  1       -1 0.16270891E+00 0.19834290E+04</pdfrwt>
<totfact> 0.82840446E+00</totfact>
</mgrwt>
</event>
<event>
12    6  0.1647231E-007  0.1528838E+04  0.7818608E-02  0.8865499E-01
         -1   -1    0    0    0  501 -0.00000000000E+00  0.00000000000E+00  0.10059508632E+04  0.10059508632E+04  0.00000000000E+00 0.  1.
          2   -1    0    0  501    0  0.00000000000E+00 -0.00000000000E+00 -0.58087992304E+03  0.58087992304E+03  0.00000000000E+00 0. -1.
         24    2    1    2    0    0 -0.42867223196E+03  0.10761194092E+03 -0.13064674298E+03  0.46868452878E+03  0.85184527862E+02 0.  0.
        254    2    1    2    0    0  0.42867223196E+03 -0.10761194092E+03  0.55571768310E+03  0.11181462574E+04  0.86376426029E+03 0.  0.
         23    2    4    4    0    0  0.11754410728E+03 -0.28393489597E+03  0.66062550018E+03  0.73438826018E+03  0.92002298321E+02 0.  0.
         23    2    4    4    0    0  0.31112812468E+03  0.17632295505E+03 -0.10490781707E+03  0.38375799723E+03  0.91509867846E+02 0.  0.
          2    1    3    3  502    0 -0.28262605487E+03  0.77946328541E+02 -0.12728943617E+03  0.31961808082E+03  0.00000000000E+00 0. -1.
         -1    1    3    3    0  502 -0.14604617709E+03  0.29665612384E+02 -0.33573068119E+01  0.14906644797E+03  0.00000000000E+00 0.  1.
         11    1    5    5    0    0  0.98613126596E+02 -0.20924637253E+03  0.39433532016E+03  0.45717495325E+03  0.00000000000E+00 0.  1.
        -11    1    5    5    0    0  0.18930980685E+02 -0.74688523438E+02  0.26629018002E+03  0.27721330693E+03  0.00000000000E+00 0. -1.
          1    1    6    6  503    0  0.19233635088E+03  0.99866183827E+02 -0.17029309026E+02  0.21738565709E+03  0.00000000000E+00 0. -1.
         -1    1    6    6    0  503  0.11879177380E+03  0.76456771219E+02 -0.87878508048E+02  0.16637234014E+03  0.00000000000E+00 0.  1.
<mgrwt>
<rscale>  0 0.15288383E+04</rscale>
<asrwt>0</asrwt>
<pdfrwt beam="1">  1        2 0.89366142E-01 0.15288383E+04</pdfrwt>
<pdfrwt beam="2">  1       -1 0.15476167E+00 0.15288383E+04</pdfrwt>
<totfact> 0.18209892E+01</totfact>
</mgrwt>
</event>
<event>
12    6  0.1647231E-007  0.1599767E+04  0.7818608E-02  0.8820691E-01
         -1   -1    0    0    0  501 -0.00000000000E+00  0.00000000000E+00  0.65100579855E+03  0.65100579855E+03  0.00000000000E+00 0.  1.
          2   -1    0    0  501    0  0.00000000000E+00 -0.00000000000E+00 -0.98280844630E+03  0.98280844630E+03  0.00000000000E+00 0. -1.
         24    2    1    2    0    0  0.39664072429E+03  0.81862033453E+02 -0.52162732160E+03  0.66512201478E+03  0.79164229402E+02 0.  0.
        254    2    1    2    0    0 -0.39664072429E+03 -0.81862033453E+02  0.18982467385E+03  0.96869223008E+03  0.85924732942E+03 0.  0.
         23    2    4    4    0    0 -0.42995731586E+03 -0.14639111768E+03 -0.24112693137E+03  0.52235411988E+03  0.91749532581E+02 0.  0.
         23    2    4    4    0    0  0.33316591572E+02  0.64529084226E+02  0.43095160522E+03  0.44633811019E+03  0.90688613305E+02 0.  0.
          2    1    3    3  502    0  0.36538077441E+03  0.52136902983E+02 -0.45711162018E+03  0.58751374474E+03  0.00000000000E+00 0. -1.
         -1    1    3    3    0  502  0.31259949884E+02  0.29725130469E+02 -0.64515701420E+02  0.77608270035E+02  0.00000000000E+00 0.  1.
         11    1    5    5    0    0  0.18939030352E+01  0.36098658408E+01 -0.84634015304E+01  0.93939962508E+01  0.00000000000E+00 0.  1.
        -11    1    5    5    0    0 -0.43185121890E+03 -0.15000098352E+03 -0.23266352984E+03  0.51296012363E+03  0.00000000000E+00 0. -1.
          3    1    6    6  503    0  0.64146076775E+02  0.53190841288E+02  0.30747185007E+03  0.31856384501E+03  0.00000000000E+00 0. -1.
         -3    1    6    6    0  503 -0.30829485203E+02  0.11338242938E+02  0.12347975515E+03  0.12777426518E+03  0.00000000000E+00 0.  1.
<mgrwt>
<rscale>  0 0.15997675E+04</rscale>
<asrwt>0</asrwt>
<pdfrwt beam="1">  1        2 0.15120130E+00 0.15997675E+04</pdfrwt>
<pdfrwt beam="2">  1       -1 0.10015474E+00 0.15997675E+04</pdfrwt>
<totfact> 0.26859455E+01</totfact>
</mgrwt>
</event>
<event>
12    6  0.1647231E-007  0.1352127E+04  0.7818608E-02  0.8989219E-01
         -1   -1    0    0    0  501 -0.00000000000E+00  0.00000000000E+00  0.44446484585E+03  0.44446484585E+03  0.00000000000E+00 0.  1.
          2   -1    0    0  501    0  0.00000000000E+00 -0.00000000000E+00 -0.10283425316E+04  0.10283425316E+04  0.00000000000E+00 0. -1.
         24    2    1    2    0    0  0.31322508267E+03 -0.10122602944E+03  0.32776100833E+02  0.34078874755E+03  0.81890391515E+02 0.  0.
        254    2    1    2    0    0 -0.31322508267E+03  0.10122602944E+03 -0.61665378662E+03  0.11320186299E+04  0.89041991471E+03 0.  0.
         23    2    4    4    0    0 -0.72091962055E+02  0.32569228558E+03  0.81020382942E+02  0.35509317567E+03  0.90852325658E+02 0.  0.
         23    2    4    4    0    0 -0.24113312061E+03 -0.22446625614E+03 -0.69767416956E+03  0.77692545426E+03  0.91288732065E+02 0.  0.
          2    1    3    3  502    0  0.57805348676E+01 -0.31786901554E+01 -0.13270604811E+02  0.14819838276E+02  0.00000000000E+00 0. -1.
         -1    1    3    3    0  502  0.30744454780E+03 -0.98047339285E+02  0.46046705644E+02  0.32596890928E+03  0.00000000000E+00 0.  1.
         11    1    5    5    0    0 -0.13542048434E+02  0.14454071283E+03  0.77757974936E+02  0.16468669469E+03  0.00000000000E+00 0.  1.
        -11    1    5    5    0    0 -0.58549913621E+02  0.18115157275E+03  0.32624080068E+01  0.19040648098E+03  0.00000000000E+00 0. -1.
          3    1    6    6  503    0 -0.13843881777E+03 -0.18508435834E+03 -0.44836527297E+03  0.50443328991E+03  0.00000000000E+00 0. -1.
         -3    1    6    6    0  503 -0.10269430284E+03 -0.39381897802E+02 -0.24930889660E+03  0.27249216435E+03  0.00000000000E+00 0.  1.
<mgrwt>
<rscale>  0 0.13521274E+04</rscale>
<asrwt>0</asrwt>
<pdfrwt beam="1">  1        2 0.15820654E+00 0.13521274E+04</pdfrwt>
<pdfrwt beam="2">  1       -1 0.68379207E-01 0.13521274E+04</pdfrwt>
<totfact> 0.58274068E+01</totfact>
</mgrwt>
</event>
<event>
12    6  0.1647231E-007  0.2471505E+04  0.7818608E-02  0.8413208E-01
          2   -1    0    0  501    0  0.00000000000E+00  0.00000000000E+00  0.77533268886E+03  0.77533268886E+03  0.00000000000E+00 0. -1.
         -1   -1    0    0    0  501 -0.00000000000E+00 -0.00000000000E+00 -0.19695853551E+04  0.19695853551E+04  0.00000000000E+00 0.  1.
         24    2    1    2    0    0 -0.10224306657E+04 -0.31498981055E+03 -0.59197888694E+03  0.12252848497E+04  0.79378292577E+02 0.  0.
        254    2    1    2    0    0  0.10224306657E+04  0.31498981055E+03 -0.60227377934E+03  0.15196331943E+04  0.89552682426E+03 0.  0.
         23    2    4    4    0    0  0.24436319132E+03  0.50786290339E+03 -0.13247281919E+03  0.58593595192E+03  0.90187549122E+02 0.  0.
         23    2    4    4    0    0  0.77806747441E+03 -0.19287309284E+03 -0.46980096015E+03  0.93369724238E+03  0.92133455367E+02 0.  0.
          4    1    3    3  502    0 -0.52225967438E+03 -0.17589940863E+03 -0.26253136852E+03  0.61042484296E+03  0.00000000000E+00 0. -1.
         -3    1    3    3    0  502 -0.50017099135E+03 -0.13909040192E+03 -0.32944751842E+03  0.61486000674E+03  0.00000000000E+00 0.  1.
         11    1    5    5    0    0  0.16861842035E+03  0.38604512357E+03 -0.60957875844E+02  0.42565111505E+03  0.00000000000E+00 0. -1.
        -11    1    5    5    0    0  0.75744770976E+02  0.12181777982E+03 -0.71514943345E+02  0.16028483688E+03  0.00000000000E+00 0.  1.
          1    1    6    6  503    0  0.61348180067E+03 -0.15256495028E+03 -0.41239150104E+03  0.75478654859E+03  0.00000000000E+00 0. -1.
         -1    1    6    6    0  503  0.16458567374E+03 -0.40308142558E+02 -0.57409459115E+02  0.17891069379E+03  0.00000000000E+00 0.  1.
<mgrwt>
<rscale>  0 0.24715047E+04</rscale>
<asrwt>0</asrwt>
<pdfrwt beam="1">  1        2 0.11928195E+00 0.24715047E+04</pdfrwt>
<pdfrwt beam="2">  1       -1 0.30301313E+00 0.24715047E+04</pdfrwt>
<totfact> 0.11560837E+00</totfact>
</mgrwt>
</event>
<event>
12    6  0.1647231E-007  0.2263258E+04  0.7818608E-02  0.8492550E-01
         -1   -1    0    0    0  501 -0.00000000000E+00  0.00000000000E+00  0.67661240611E+03  0.67661240611E+03  0.00000000000E+00 0.  1.
          2   -1    0    0  501    0  0.00000000000E+00 -0.00000000000E+00 -0.18926413700E+04  0.18926413700E+04  0.00000000000E+00 0. -1.
         24    2    1    2    0    0 -0.38463529638E+03 -0.27637183708E+03 -0.13171700057E+04  0.14020994162E+04  0.81364889729E+02 0.  0.
        254    2    1    2    0    0  0.38463529638E+03  0.27637183708E+03  0.10114104190E+03  0.11671543599E+04  0.10619294166E+04 0.  0.
         23    2    4    4    0    0 -0.33266482452E+03  0.26756987875E+03  0.81928147441E+02  0.44319028367E+03  0.86289516775E+02 0.  0.
         23    2    4    4    0    0  0.71730012090E+03  0.88019583261E+01  0.19212894454E+02  0.72396407622E+03  0.95696971894E+02 0.  0.
          4    1    3    3  502    0 -0.36573189757E+03 -0.23410679263E+03 -0.11945798463E+04  0.12710573632E+04  0.00000000000E+00 0. -1.
         -3    1    3    3    0  502 -0.18903398817E+02 -0.42265044444E+02 -0.12259015942E+03  0.13104205300E+03  0.00000000000E+00 0.  1.
         11    1    5    5    0    0 -0.68517265498E+02  0.15825143540E+02  0.19675576224E+02  0.73021771679E+02  0.00000000000E+00 0. -1.
        -11    1    5    5    0    0 -0.26414755902E+03  0.25174473521E+03  0.62252571217E+02  0.37016851199E+03  0.00000000000E+00 0.  1.
          2    1    6    6  503    0  0.41002522847E+03  0.49322055701E+02  0.27740897499E+02  0.41391171832E+03  0.00000000000E+00 0. -1.
         -2    1    6    6    0  503  0.30727489243E+03 -0.40520097375E+02 -0.85280030454E+01  0.31005235790E+03  0.00000000000E+00 0.  1.
<mgrwt>
<rscale>  0 0.22632584E+04</rscale>
<asrwt>0</asrwt>
<pdfrwt beam="1">  1        2 0.29117559E+00 0.22632584E+04</pdfrwt>
<pdfrwt beam="2">  1       -1 0.10409422E+00 0.22632584E+04</pdfrwt>
<totfact> 0.68923831E+00</totfact>
</mgrwt>
</event>
<event>
12    6  0.1647231E-007  0.1433593E+04  0.7818608E-02  0.8929855E-01
         -1   -1    0    0    0  501 -0.00000000000E+00  0.00000000000E+00  0.78533159305E+03  0.78533159305E+03  0.00000000000E+00 0.  1.
          2   -1    0    0  501    0  0.00000000000E+00 -0.00000000000E+00 -0.65424207608E+03  0.65424207608E+03  0.00000000000E+00 0. -1.
         24    2    1    2    0    0  0.62557753305E+02  0.30197379243E+03  0.35828526643E+03  0.47960259792E+03  0.80923890054E+02 0.  0.
        254    2    1    2    0    0 -0.62557753305E+02 -0.30197379243E+03 -0.22719574945E+03  0.95997107121E+03  0.88024139029E+03 0.  0.
         23    2    4    4    0    0 -0.36698313686E+03 -0.37966268682E+03  0.36964320686E+02  0.53892600503E+03  0.10126450211E+03 0.  0.
         23    2    4    4    0    0  0.30442538355E+03  0.77688894395E+02 -0.26416007014E+03  0.42104506619E+03  0.93744475252E+02 0.  0.
          4    1    3    3  502    0  0.28599494540E+02  0.36700387806E+02  0.26832993683E+02  0.53710884400E+02  0.00000000000E+00 0. -1.
         -3    1    3    3    0  502  0.33958258765E+02  0.26527340462E+03  0.33145227274E+03  0.42589171352E+03  0.00000000000E+00 0.  1.
         11    1    5    5    0    0 -0.14047440365E+03 -0.80961672352E+02  0.23345457634E+02  0.16380738953E+03  0.00000000000E+00 0. -1.
        -11    1    5    5    0    0 -0.22650873321E+03 -0.29870101447E+03  0.13618863052E+02  0.37511861550E+03  0.00000000000E+00 0.  1.
          1    1    6    6  503    0  0.87024107079E+02 -0.15908061439E+02 -0.48767554804E+02  0.10101750360E+03  0.00000000000E+00 0. -1.
         -1    1    6    6    0  503  0.21740127648E+03  0.93596955834E+02 -0.21539251533E+03  0.32002756259E+03  0.00000000000E+00 0.  1.
<mgrwt>
<rscale>  0 0.14335927E+04</rscale>
<asrwt>0</asrwt>
<pdfrwt beam="1">  1        2 0.10065263E+00 0.14335927E+04</pdfrwt>
<pdfrwt beam="2">  1       -1 0.12082025E+00 0.14335927E+04</pdfrwt>
<totfact> 0.30129684E+01</totfact>
</mgrwt>
</event>
<event>
12    6  0.1647231E-007  0.2319864E+04  0.7818608E-02  0.8470130E-01
         -1   -1    0    0    0  501 -0.00000000000E+00  0.00000000000E+00  0.93100458142E+03  0.93100458142E+03  0.00000000000E+00 0.  1.
          2   -1    0    0  501    0  0.00000000000E+00 -0.00000000000E+00 -0.14451516315E+04  0.14451516315E+04  0.00000000000E+00 0. -1.
         24    2    1    2    0    0 -0.19835031699E+03 -0.79642515731E+03  0.33510856969E+03  0.89012884977E+03  0.79973347214E+02 0.  0.
        254    2    1    2    0    0  0.19835031699E+03  0.79642515731E+03 -0.84925561977E+03  0.14860273632E+04  0.90189042398E+03 0.  0.
         23    2    4    4    0    0 -0.25393365053E+03 -0.27103645482E+02 -0.23361488978E+03  0.35914561272E+03  0.95878819030E+02 0.  0.
         23    2    4    4    0    0  0.45228396752E+03  0.82352880280E+03 -0.61564072999E+03  0.11268817504E+04  0.89936059137E+02 0.  0.
          4    1    3    3  502    0 -0.14045403508E+03 -0.61473784534E+03  0.29057840800E+03  0.69430956040E+03  0.00000000000E+00 0. -1.
         -3    1    3    3    0  502 -0.57896281913E+02 -0.18168731197E+03  0.44530161694E+02  0.19581928938E+03  0.00000000000E+00 0.  1.
         11    1    5    5    0    0 -0.76168884228E+02 -0.51241981982E+02 -0.61215147283E+02  0.11033917663E+03  0.00000000000E+00 0. -1.
        -11    1    5    5    0    0 -0.17776476630E+03  0.24138336501E+02 -0.17239974250E+03  0.24880643609E+03  0.00000000000E+00 0.  1.
          3    1    6    6  503    0 -0.23201944477E+00 -0.14060860185E+01 -0.50016232300E+01  0.52006870555E+01  0.00000000000E+00 0. -1.
         -3    1    6    6    0  503  0.45251598697E+03  0.82493488881E+03 -0.61063910676E+03  0.11216810634E+04  0.00000000000E+00 0.  1.
<mgrwt>
<rscale>  0 0.23198645E+04</rscale>
<asrwt>0</asrwt>
<pdfrwt beam="1">  1        2 0.22233102E+00 0.23198645E+04</pdfrwt>
<pdfrwt beam="2">  1       -1 0.14323147E+00 0.23198645E+04</pdfrwt>
<totfact> 0.55508369E+00</totfact>
</mgrwt>
</event>
<event>
12    6  0.1647231E-007  0.1292559E+04  0.7818608E-02  0.9035487E-01
          2   -1    0    0  501    0  0.00000000000E+00  0.00000000000E+00  0.71031355782E+03  0.71031355782E+03  0.00000000000E+00 0. -1.
         -1   -1    0    0    0  501 -0.00000000000E+00 -0.00000000000E+00 -0.58801840237E+03  0.58801840237E+03  0.00000000000E+00 0.  1.
         24    2    1    2    0    0 -0.13956262774E+03 -0.23813807966E+03 -0.10016736390E+03  0.30324867531E+03  0.75754777007E+02 0.  0.
        254    2    1    2    0    0  0.13956262774E+03  0.23813807966E+03  0.22246251935E+03  0.99508328487E+03  0.92979228824E+03 0.  0.
         23    2    4    4    0    0  0.22370495308E+03  0.92196696730E+02 -0.32434793795E+03  0.41572086818E+03  0.95279160737E+02 0.  0.
         23    2    4    4    0    0 -0.84142325337E+02  0.14594138293E+03  0.54681045730E+03  0.57936241669E+03  0.90996238907E+02 0.  0.
          2    1    3    3  502    0 -0.37159077521E+01  0.18094673667E+01  0.64160807317E+01  0.76320531005E+01  0.00000000000E+00 0. -1.
         -1    1    3    3    0  502 -0.13584671999E+03 -0.23994754703E+03 -0.10658344463E+03  0.29561662221E+03  0.00000000000E+00 0.  1.
         11    1    5    5    0    0  0.14264617617E+03  0.89649045772E+02 -0.15949219487E+03  0.23199707586E+03  0.00000000000E+00 0. -1.
        -11    1    5    5    0    0  0.81058776914E+02  0.25476509579E+01 -0.16485574307E+03  0.18372379232E+03  0.00000000000E+00 0.  1.
          3    1    6    6  503    0 -0.32023239961E+02 -0.40026462941E+01  0.78339358596E+02  0.84726407809E+02  0.00000000000E+00 0. -1.
         -3    1    6    6    0  503 -0.52119085375E+02  0.14994402923E+03  0.46847109870E+03  0.49463600888E+03  0.00000000000E+00 0.  1.
<mgrwt>
<rscale>  0 0.12925594E+04</rscale>
<asrwt>0</asrwt>
<pdfrwt beam="1">  1        2 0.10927901E+00 0.12925594E+04</pdfrwt>
<pdfrwt beam="2">  1       -1 0.90464370E-01 0.12925594E+04</pdfrwt>
<totfact> 0.53825951E+01</totfact>
</mgrwt>
</event>
<event>
12    6  0.1647231E-007  0.1520570E+04  0.7818608E-02  0.8870888E-01
          2   -1    0    0  501    0  0.00000000000E+00  0.00000000000E+00  0.16487798581E+04  0.16487798581E+04  0.00000000000E+00 0. -1.
         -1   -1    0    0    0  501 -0.00000000000E+00 -0.00000000000E+00 -0.35058223373E+03  0.35058223373E+03  0.00000000000E+00 0.  1.
         24    2    1    2    0    0  0.12604067864E+02 -0.89664861491E+02  0.10664770148E+04  0.10730750619E+04  0.76929939607E+02 0.  0.
        254    2    1    2    0    0 -0.12604067864E+02  0.89664861491E+02  0.23172060965E+03  0.92628702995E+03  0.89225252648E+03 0.  0.
         23    2    4    4    0    0 -0.36649847518E+03  0.21139717539E+03 -0.68314869544E+02  0.43713619419E+03  0.86088517218E+02 0.  0.
         23    2    4    4    0    0  0.35389440731E+03 -0.12173231390E+03  0.30003547919E+03  0.48915083576E+03  0.95850109939E+02 0.  0.
          2    1    3    3  502    0  0.31640764739E+02 -0.54753748385E+01  0.25218950251E+03  0.25422561417E+03  0.00000000000E+00 0. -1.
         -1    1    3    3    0  502 -0.19036696875E+02 -0.84189486653E+02  0.81428751226E+03  0.81884944777E+03  0.00000000000E+00 0.  1.
         11    1    5    5    0    0 -0.34399539713E+02  0.23569539851E+02  0.18864102827E+02  0.45767957314E+02  0.00000000000E+00 0. -1.
        -11    1    5    5    0    0 -0.33209893547E+03  0.18782763554E+03 -0.87178972371E+02  0.39136823687E+03  0.00000000000E+00 0.  1.
          1    1    6    6  503    0  0.50314912960E+02 -0.49251163139E+02  0.83796713391E+02  0.10944933399E+03  0.00000000000E+00 0. -1.
         -1    1    6    6    0  503  0.30357949435E+03 -0.72481150761E+02  0.21623876580E+03  0.37970150177E+03  0.00000000000E+00 0.  1.
<mgrwt>
<rscale>  0 0.15205695E+04</rscale>
<asrwt>0</asrwt>
<pdfrwt beam="1">  1        2 0.25365844E+00 0.15205695E+04</pdfrwt>
<pdfrwt beam="2">  1       -1 0.53935729E-01 0.15205695E+04</pdfrwt>
<totfact> 0.39942067E+01</totfact>
</mgrwt>
</event>
<event>
12    6  0.1647231E-007  0.1536083E+04  0.7818608E-02  0.8860806E-01
         -1   -1    0    0    0  501 -0.00000000000E+00  0.00000000000E+00  0.35123959124E+03  0.35123959124E+03  0.00000000000E+00 0.  1.
          2   -1    0    0  501    0  0.00000000000E+00 -0.00000000000E+00 -0.16794458699E+04  0.16794458699E+04  0.00000000000E+00 0. -1.
         24    2    1    2    0    0 -0.10819623512E+03 -0.24705284975E+03 -0.95557056798E+03  0.99610080491E+03  0.79750657015E+02 0.  0.
        254    2    1    2    0    0  0.10819623512E+03  0.24705284975E+03 -0.37263571069E+03  0.10345846562E+04  0.92669655345E+03 0.  0.
         23    2    4    4    0    0 -0.32392326168E+03  0.10532252729E+03 -0.44204252228E+03  0.56559084715E+03  0.92045101231E+02 0.  0.
         23    2    4    4    0    0  0.43211949680E+03  0.14173032246E+03  0.69406811600E+02  0.46899380908E+03  0.91231264581E+02 0.  0.
          2    1    3    3  502    0 -0.72862682697E+02 -0.23131851022E+03 -0.83042403418E+03  0.86511346091E+03  0.00000000000E+00 0. -1.
         -1    1    3    3    0  502 -0.35333552421E+02 -0.15734339528E+02 -0.12514653380E+03  0.13098734401E+03  0.00000000000E+00 0.  1.
         11    1    5    5    0    0 -0.95801453974E+02 -0.60550246305E+01 -0.90157047455E+02  0.13169235024E+03  0.00000000000E+00 0. -1.
        -11    1    5    5    0    0 -0.22812180771E+03  0.11137755192E+03 -0.35188547483E+03  0.43389849691E+03  0.00000000000E+00 0.  1.
          3    1    6    6  503    0  0.32209942799E+03  0.14601419059E+03  0.56543152528E+02  0.35814147130E+03  0.00000000000E+00 0. -1.
         -3    1    6    6    0  503  0.11002006881E+03 -0.42838681231E+01  0.12863659072E+02  0.11085233779E+03  0.00000000000E+00 0.  1.
<mgrwt>
<rscale>  0 0.15360832E+04</rscale>
<asrwt>0</asrwt>
<pdfrwt beam="1">  1        2 0.25837629E+00 0.15360832E+04</pdfrwt>
<pdfrwt beam="2">  1       -1 0.54036860E-01 0.15360832E+04</pdfrwt>
<totfact> 0.38215476E+01</totfact>
</mgrwt>
</event>
<event>
12    6  0.1647231E-007  0.1577198E+04  0.7818608E-02  0.8834680E-01
          2   -1    0    0  501    0  0.00000000000E+00  0.00000000000E+00  0.87747792448E+03  0.87747792448E+03  0.00000000000E+00 0. -1.
         -1   -1    0    0    0  501 -0.00000000000E+00 -0.00000000000E+00 -0.70872241514E+03  0.70872241514E+03  0.00000000000E+00 0.  1.
         24    2    1    2    0    0  0.19086734849E+03 -0.76598149864E+02 -0.42722099059E+03  0.48076548082E+03  0.79498751347E+02 0.  0.
        254    2    1    2    0    0 -0.19086734849E+03  0.76598149864E+02  0.59597649992E+03  0.11054348588E+04  0.90802016350E+03 0.  0.
         23    2    4    4    0    0 -0.18774169159E+03  0.10766297214E+03 -0.19740868616E+03  0.30617930246E+03  0.89091624489E+02 0.  0.
         23    2    4    4    0    0 -0.31256569087E+01 -0.31064822276E+02  0.79338518608E+03  0.79925555635E+03  0.91512829439E+02 0.  0.
          4    1    3    3  502    0  0.10137171365E+03 -0.78862073897E+01 -0.14754207292E+03  0.17918448560E+03  0.00000000000E+00 0. -1.
         -3    1    3    3    0  502  0.89495634841E+02 -0.68711942474E+02 -0.27967891766E+03  0.30158099522E+03  0.00000000000E+00 0.  1.
         11    1    5    5    0    0 -0.20430910194E+02 -0.15984671275E+02 -0.24074510780E+02  0.35390872784E+02  0.00000000000E+00 0.  1.
        -11    1    5    5    0    0 -0.16731078139E+03  0.12364764341E+03 -0.17333417538E+03  0.27078842967E+03  0.00000000000E+00 0. -1.
          3    1    6    6  503    0  0.42258195366E+02 -0.24177598308E+02  0.49071738662E+03  0.49312662153E+03  0.00000000000E+00 0. -1.
         -3    1    6    6    0  503 -0.45383852275E+02 -0.68872239675E+01  0.30266779946E+03  0.30612893482E+03  0.00000000000E+00 0.  1.
<mgrwt>
<rscale>  0 0.15771979E+04</rscale>
<asrwt>0</asrwt>
<pdfrwt beam="1">  1        2 0.13499660E+00 0.15771979E+04</pdfrwt>
<pdfrwt beam="2">  1       -1 0.10903422E+00 0.15771979E+04</pdfrwt>
<totfact> 0.25961264E+01</totfact>
</mgrwt>
</event>
<event>
12    6  0.1647231E-007  0.1421338E+04  0.7818608E-02  0.8938516E-01
          2   -1    0    0  501    0  0.00000000000E+00  0.00000000000E+00  0.16532822966E+04  0.16532822966E+04  0.00000000000E+00 0. -1.
         -1   -1    0    0    0  501 -0.00000000000E+00 -0.00000000000E+00 -0.30548359721E+03  0.30548359721E+03  0.00000000000E+00 0.  1.
         24    2    1    2    0    0  0.23925787003E+03 -0.25545012387E+03  0.89611154083E+02  0.36992566024E+03  0.79471636495E+02 0.  0.
        254    2    1    2    0    0 -0.23925787003E+03  0.25545012387E+03  0.12581875453E+04  0.15888402336E+04  0.90491894363E+03 0.  0.
         23    2    4    4    0    0  0.30366236273E+03  0.25508939005E+03  0.66364827882E+03  0.77856422325E+03  0.91933586310E+02 0.  0.
         23    2    4    4    0    0 -0.54292023276E+03  0.36073381655E+00  0.59453926650E+03  0.81027601035E+03  0.91146937770E+02 0.  0.
          2    1    3    3  502    0  0.70757627844E+02 -0.89544164777E+02 -0.73228884317E+01  0.11436093756E+03  0.00000000000E+00 0. -1.
         -1    1    3    3    0  502  0.16850024219E+03 -0.16590595909E+03  0.96934042515E+02  0.25556472268E+03  0.00000000000E+00 0.  1.
         11    1    5    5    0    0  0.25599068435E+02  0.34133567916E+02  0.29963418187E+02  0.52136543737E+02  0.00000000000E+00 0.  1.
        -11    1    5    5    0    0  0.27806329429E+03  0.22095582214E+03  0.63368486063E+03  0.72642767951E+03  0.00000000000E+00 0. -1.
          2    1    6    6  503    0 -0.52630185665E+03 -0.16796725506E+02  0.56619580795E+03  0.77320984684E+03  0.00000000000E+00 0. -1.
         -2    1    6    6    0  503 -0.16618376105E+02  0.17157459322E+02  0.28343458549E+02  0.37066163509E+02  0.00000000000E+00 0.  1.
<mgrwt>
<rscale>  0 0.14213383E+04</rscale>
<asrwt>0</asrwt>
<pdfrwt beam="1">  1        2 0.25435112E+00 0.14213383E+04</pdfrwt>
<pdfrwt beam="2">  1       -1 0.46997478E-01 0.14213383E+04</pdfrwt>
<totfact> 0.52036491E+01</totfact>
</mgrwt>
</event>
<event>
12    6  0.1647231E-007  0.2860020E+04  0.7818608E-02  0.8284873E-01
          2   -1    0    0  501    0  0.00000000000E+00  0.00000000000E+00  0.28545028490E+04  0.28545028490E+04  0.00000000000E+00 0. -1.
         -1   -1    0    0    0  501 -0.00000000000E+00 -0.00000000000E+00 -0.71638702907E+03  0.71638702907E+03  0.00000000000E+00 0.  1.
         24    2    1    2    0    0 -0.58145444556E+03  0.24835435301E+03  0.23612689900E+04  0.24457410820E+04  0.79303469105E+02 0.  0.
        254    2    1    2    0    0  0.58145444556E+03 -0.24835435301E+03 -0.22315317013E+03  0.11251487960E+04  0.90354486268E+03 0.  0.
         23    2    4    4    0    0  0.40286800356E+03 -0.21549121122E+03 -0.56235359855E+03  0.73016322272E+03  0.90319829480E+02 0.  0.
         23    2    4    4    0    0  0.17858644200E+03 -0.32863141789E+02  0.33920042843E+03  0.39498557328E+03  0.89350820371E+02 0.  0.
          4    1    3    3  502    0 -0.48004847160E+03  0.21463308745E+03  0.18419172729E+04  0.19155085846E+04  0.00000000000E+00 0. -1.
         -1    1    3    3    0  502 -0.10140597396E+03  0.33721265558E+02  0.51935171710E+03  0.53023249746E+03  0.00000000000E+00 0.  1.
         11    1    5    5    0    0  0.39234734739E+03 -0.18656351806E+03 -0.53302348956E+03  0.68764556837E+03  0.00000000000E+00 0. -1.
        -11    1    5    5    0    0  0.10520656173E+02 -0.28927693159E+02 -0.29330108991E+02  0.42517654348E+02  0.00000000000E+00 0.  1.
          4    1    6    6  503    0  0.17969062701E+03 -0.48291591359E+02  0.32166003937E+03  0.37159921981E+03  0.00000000000E+00 0. -1.
         -4    1    6    6    0  503 -0.11041850124E+01  0.15428449569E+02  0.17540389054E+02  0.23386353474E+02  0.00000000000E+00 0.  1.
<mgrwt>
<rscale>  0 0.28600202E+04</rscale>
<asrwt>0</asrwt>
<pdfrwt beam="1">  1        2 0.43915428E+00 0.28600202E+04</pdfrwt>
<pdfrwt beam="2">  1       -1 0.11021339E+00 0.28600202E+04</pdfrwt>
<totfact> 0.16009828E+00</totfact>
</mgrwt>
</event>
<event>
12    6  0.1647231E-007  0.2346057E+04  0.7818608E-02  0.8459980E-01
         -1   -1    0    0    0  501 -0.00000000000E+00  0.00000000000E+00  0.14243283904E+04  0.14243283904E+04  0.00000000000E+00 0.  1.
          2   -1    0    0  501    0  0.00000000000E+00 -0.00000000000E+00 -0.96606678072E+03  0.96606678072E+03  0.00000000000E+00 0. -1.
         24    2    1    2    0    0 -0.26570629797E+03  0.25803076866E+03 -0.68012228402E+03  0.77871351204E+03  0.81539550217E+02 0.  0.
        254    2    1    2    0    0  0.26570629797E+03 -0.25803076866E+03  0.11383838937E+04  0.16116816591E+04  0.10790830211E+04 0.  0.
         23    2    4    4    0    0  0.59306357620E+03 -0.39058242030E+03  0.48707452760E+03  0.86570588271E+03  0.89028352014E+02 0.  0.
         23    2    4    4    0    0 -0.32735727823E+03  0.13255165164E+03  0.65130936611E+03  0.74597577639E+03  0.86851831418E+02 0.  0.
          4    1    3    3  502    0 -0.23283642416E+03  0.20485819319E+03 -0.61303152772E+03  0.68701334318E+03  0.00000000000E+00 0. -1.
         -3    1    3    3    0  502 -0.32869873805E+02  0.53172575476E+02 -0.67090756302E+02  0.91700168854E+02  0.00000000000E+00 0.  1.
         11    1    5    5    0    0  0.52935428851E+03 -0.37732191421E+03  0.45216117832E+03  0.79185700785E+03  0.00000000000E+00 0. -1.
        -11    1    5    5    0    0  0.63709287687E+02 -0.13260506086E+02  0.34913349275E+02  0.73848874852E+02  0.00000000000E+00 0.  1.
          4    1    6    6  503    0 -0.30997056025E+03  0.12324337626E+03  0.55388259488E+03  0.64657297107E+03  0.00000000000E+00 0. -1.
         -4    1    6    6    0  503 -0.17386717979E+02  0.93082753719E+01  0.97426771233E+02  0.99402805319E+02  0.00000000000E+00 0.  1.
<mgrwt>
<rscale>  0 0.23460574E+04</rscale>
<asrwt>0</asrwt>
<pdfrwt beam="1">  1        2 0.14862566E+00 0.23460574E+04</pdfrwt>
<pdfrwt beam="2">  1       -1 0.21912745E+00 0.23460574E+04</pdfrwt>
<totfact> 0.30441840E+00</totfact>
</mgrwt>
</event>
<event>
12    6  0.1647231E-007  0.1418407E+04  0.7818608E-02  0.8940602E-01
          2   -1    0    0  501    0  0.00000000000E+00  0.00000000000E+00  0.21603574660E+04  0.21603574660E+04  0.00000000000E+00 0. -1.
         -1   -1    0    0    0  501 -0.00000000000E+00 -0.00000000000E+00 -0.23281763635E+03  0.23281763635E+03  0.00000000000E+00 0.  1.
         24    2    1    2    0    0  0.41499224447E+03 -0.40769088219E+02  0.51650587323E+03  0.66840256247E+03  0.78121616100E+02 0.  0.
        254    2    1    2    0    0 -0.41499224447E+03  0.40769088219E+02  0.14110339564E+04  0.17247725399E+04  0.89996822535E+03 0.  0.
         23    2    4    4    0    0 -0.29353699060E+02 -0.13875760034E+03  0.12498874761E+04  0.12610342542E+04  0.88732046704E+02 0.  0.
         23    2    4    4    0    0 -0.38563854541E+03  0.17952668856E+03  0.16114648033E+03  0.46373828567E+03  0.90211362136E+02 0.  0.
          2    1    3    3  502    0  0.34969774115E+03 -0.51177681843E+02  0.39469271853E+03  0.52980185669E+03  0.00000000000E+00 0. -1.
         -1    1    3    3    0  502  0.65294503321E+02  0.10408593623E+02  0.12181315470E+03  0.13860070578E+03  0.00000000000E+00 0.  1.
         11    1    5    5    0    0 -0.17138989864E+02  0.77652185405E+01  0.96919210192E+02  0.98728804798E+02  0.00000000000E+00 0.  1.
        -11    1    5    5    0    0 -0.12214709196E+02 -0.14652281888E+03  0.11529682659E+04  0.11623054494E+04  0.00000000000E+00 0. -1.
          4    1    6    6  503    0 -0.33085752604E+03  0.17250310853E+03  0.11138477577E+03  0.38939773145E+03  0.00000000000E+00 0. -1.
         -4    1    6    6    0  503 -0.54781019373E+02  0.70235800307E+01  0.49761704559E+02  0.74340554213E+02  0.00000000000E+00 0.  1.
<mgrwt>
<rscale>  0 0.14184066E+04</rscale>
<asrwt>0</asrwt>
<pdfrwt beam="1">  1        2 0.33236267E+00 0.14184066E+04</pdfrwt>
<pdfrwt beam="2">  1       -1 0.35818099E-01 0.14184066E+04</pdfrwt>
<totfact> 0.44854922E+01</totfact>
</mgrwt>
</event>
<event>
12    6  0.1647231E-007  0.1155090E+04  0.7818608E-02  0.9153100E-01
         -1   -1    0    0    0  501 -0.00000000000E+00  0.00000000000E+00  0.15590419976E+03  0.15590419976E+03  0.00000000000E+00 0.  1.
          2   -1    0    0  501    0  0.00000000000E+00 -0.00000000000E+00 -0.21395089755E+04  0.21395089755E+04  0.00000000000E+00 0. -1.
         24    2    1    2    0    0 -0.25369199962E+02  0.17962168151E+03 -0.16190909670E+03  0.25604552845E+03  0.80232239573E+02 0.  0.
        254    2    1    2    0    0  0.25369199962E+02 -0.17962168151E+03 -0.18216956790E+04  0.20393676468E+04  0.89863101830E+03 0.  0.
         23    2    4    4    0    0  0.40180360047E+03 -0.29779420047E+03 -0.93834394758E+03  0.10677202556E+04  0.97003407762E+02 0.  0.
         23    2    4    4    0    0 -0.37643440051E+03  0.11817251896E+03 -0.88335173144E+03  0.97164739117E+03  0.90115310636E+02 0.  0.
          4    1    3    3  502    0 -0.39963283248E+02  0.54932625545E+02 -0.85037874129E+02  0.10883977854E+03  0.00000000000E+00 0. -1.
         -1    1    3    3    0  502  0.14594083285E+02  0.12468905596E+03 -0.76871222575E+02  0.14720574990E+03  0.00000000000E+00 0.  1.
         11    1    5    5    0    0  0.40248054385E+03 -0.27693105075E+03 -0.89782175721E+03  0.10221376144E+04  0.00000000000E+00 0.  1.
        -11    1    5    5    0    0 -0.67694337835E+00 -0.20863149714E+02 -0.40522190373E+02  0.45582641224E+02  0.00000000000E+00 0. -1.
          2    1    6    6  503    0 -0.15422948751E+01  0.12907885308E+02 -0.14176406980E+02  0.19234414248E+02  0.00000000000E+00 0. -1.
         -2    1    6    6    0  503 -0.37489210564E+03  0.10526463365E+03 -0.86917532446E+03  0.95241297693E+03  0.00000000000E+00 0.  1.
<mgrwt>
<rscale>  0 0.11550904E+04</rscale>
<asrwt>0</asrwt>
<pdfrwt beam="1">  1        2 0.32915523E+00 0.11550904E+04</pdfrwt>
<pdfrwt beam="2">  1       -1 0.23985261E-01 0.11550904E+04</pdfrwt>
<totfact> 0.94934159E+01</totfact>
</mgrwt>
</event>
<event>
12    6  0.1647231E-007  0.1723341E+04  0.7818608E-02  0.8748163E-01
          2   -1    0    0  501    0  0.00000000000E+00  0.00000000000E+00  0.17661392090E+04  0.17661392090E+04  0.00000000000E+00 0. -1.
         -1   -1    0    0    0  501 -0.00000000000E+00 -0.00000000000E+00 -0.42039487411E+03  0.42039487411E+03  0.00000000000E+00 0.  1.
         24    2    1    2    0    0 -0.45972311776E+02  0.34983051257E+03  0.11491809239E+04  0.12047161481E+04  0.78926299101E+02 0.  0.
        254    2    1    2    0    0  0.45972311776E+02 -0.34983051257E+03  0.19656341100E+03  0.98181793501E+03  0.89489353668E+03 0.  0.
         23    2    4    4    0    0  0.32627079886E+03 -0.32649109093E+03  0.40451747498E+03  0.62036435980E+03  0.90379669722E+02 0.  0.
         23    2    4    4    0    0 -0.28029848709E+03 -0.23339421647E+02 -0.20795406398E+03  0.36145357521E+03  0.91059452227E+02 0.  0.
          2    1    3    3  502    0 -0.63879843869E+02  0.20065670744E+03  0.63246452297E+03  0.66659967110E+03  0.00000000000E+00 0. -1.
         -1    1    3    3    0  502  0.17907532093E+02  0.14917380514E+03  0.51671640092E+03  0.53811647701E+03  0.00000000000E+00 0.  1.
         11    1    5    5    0    0  0.76142670751E+02 -0.11473479460E+03  0.80507202043E+02  0.15950921284E+03  0.00000000000E+00 0. -1.
        -11    1    5    5    0    0  0.25012812811E+03 -0.21175629633E+03  0.32401027294E+03  0.46085514696E+03  0.00000000000E+00 0.  1.
          1    1    6    6  503    0 -0.52212383785E+02  0.26657826782E+02 -0.20798233083E+02  0.62204013123E+02  0.00000000000E+00 0. -1.
         -1    1    6    6    0  503 -0.22808610330E+03 -0.49997248429E+02 -0.18715583090E+03  0.29924956209E+03  0.00000000000E+00 0.  1.
<mgrwt>
<rscale>  0 0.17233408E+04</rscale>
<asrwt>0</asrwt>
<pdfrwt beam="1">  1        2 0.27171372E+00 0.17233408E+04</pdfrwt>
<pdfrwt beam="2">  1       -1 0.64676136E-01 0.17233408E+04</pdfrwt>
<totfact> 0.23629978E+01</totfact>
</mgrwt>
</event>
<event>
12    6  0.1647231E-007  0.2416076E+04  0.7818608E-02  0.8433510E-01
          2   -1    0    0  501    0  0.00000000000E+00  0.00000000000E+00  0.16190187871E+04  0.16190187871E+04  0.00000000000E+00 0. -1.
         -1   -1    0    0    0  501 -0.00000000000E+00 -0.00000000000E+00 -0.90138261994E+03  0.90138261994E+03  0.00000000000E+00 0.  1.
         24    2    1    2    0    0 -0.30147354464E+03  0.95068201793E+03  0.21624795540E+02  0.10006838613E+04  0.78854049741E+02 0.  0.
        254    2    1    2    0    0  0.30147354464E+03 -0.95068201793E+03  0.69601137164E+03  0.15197175458E+04  0.91127767015E+03 0.  0.
         23    2    4    4    0    0 -0.72766599095E+02 -0.94256175268E+03  0.59741061033E+03  0.11219471879E+04  0.90268596468E+02 0.  0.
         23    2    4    4    0    0  0.37424014374E+03 -0.81202652409E+01  0.98600761305E+02  0.39777035787E+03  0.91528812837E+02 0.  0.
          2    1    3    3  502    0 -0.10800739154E+03  0.34733235022E+03 -0.30014862184E+02  0.36497431428E+03  0.00000000000E+00 0. -1.
         -1    1    3    3    0  502 -0.19346615310E+03  0.60334966771E+03  0.51639657724E+02  0.63570954702E+03  0.00000000000E+00 0.  1.
         11    1    5    5    0    0 -0.49300071529E+02 -0.53710678828E+03  0.39240933128E+03  0.66700770786E+03  0.00000000000E+00 0.  1.
        -11    1    5    5    0    0 -0.23466527566E+02 -0.40545496441E+03  0.20500127905E+03  0.45493948003E+03  0.00000000000E+00 0. -1.
          4    1    6    6  503    0  0.93748135611E+02 -0.14450745780E+02  0.65474272740E+02  0.11525804690E+03  0.00000000000E+00 0. -1.
         -4    1    6    6    0  503  0.28049200813E+03  0.63304805387E+01  0.33126488565E+02  0.28251231097E+03  0.00000000000E+00 0.  1.
<mgrwt>
<rscale>  0 0.24160757E+04</rscale>
<asrwt>0</asrwt>
<pdfrwt beam="1">  1        2 0.24907981E+00 0.24160757E+04</pdfrwt>
<pdfrwt beam="2">  1       -1 0.13867425E+00 0.24160757E+04</pdfrwt>
<totfact> 0.47822872E+00</totfact>
</mgrwt>
</event>
<event>
12    6  0.1647231E-007  0.2098933E+04  0.7818608E-02  0.8561714E-01
          2   -1    0    0  501    0  0.00000000000E+00  0.00000000000E+00  0.33340594540E+04  0.33340594540E+04  0.00000000000E+00 0. -1.
         -1   -1    0    0    0  501 -0.00000000000E+00 -0.00000000000E+00 -0.33034189934E+03  0.33034189934E+03  0.00000000000E+00 0.  1.
         24    2    1    2    0    0  0.21039787467E+03  0.37438513460E+03 -0.67537588280E+02  0.44197268477E+03  0.79668272089E+02 0.  0.
        254    2    1    2    0    0 -0.21039787467E+03 -0.37438513460E+03  0.30712551430E+04  0.32224286686E+04  0.87578928767E+03 0.  0.
         23    2    4    4    0    0 -0.13652279844E+03  0.27179303942E+03  0.10535346522E+04  0.11003726299E+04  0.91513553460E+02 0.  0.
         23    2    4    4    0    0 -0.73875076225E+02 -0.64617817401E+03  0.20177204907E+04  0.21220560387E+04  0.94456832017E+02 0.  0.
          2    1    3    3  502    0  0.64802574437E+02  0.10925009899E+03  0.16359350256E+02  0.12807258146E+03  0.00000000000E+00 0. -1.
         -1    1    3    3    0  502  0.14559530023E+03  0.26513503561E+03 -0.83896938536E+02  0.31390010330E+03  0.00000000000E+00 0.  1.
         11    1    5    5    0    0 -0.79354108281E+02  0.23096317889E+03  0.74767827759E+03  0.78655188722E+03  0.00000000000E+00 0.  1.
        -11    1    5    5    0    0 -0.57168690160E+02  0.40829860526E+02  0.30585637465E+03  0.31382074272E+03  0.00000000000E+00 0. -1.
          1    1    6    6  503    0 -0.67303137209E+02 -0.48132820822E+03  0.13699350414E+04  0.14535916118E+04  0.00000000000E+00 0. -1.
         -1    1    6    6    0  503 -0.65719390160E+01 -0.16484996579E+03  0.64778544936E+03  0.66846442688E+03  0.00000000000E+00 0.  1.
<mgrwt>
<rscale>  0 0.20989326E+04</rscale>
<asrwt>0</asrwt>
<pdfrwt beam="1">  1        2 0.51293220E+00 0.20989326E+04</pdfrwt>
<pdfrwt beam="2">  1       -1 0.50821833E-01 0.20989326E+04</pdfrwt>
<totfact> 0.43277408E+00</totfact>
</mgrwt>
</event>
<event>
12    6  0.1647231E-007  0.3095481E+04  0.7818608E-02  0.8216979E-01
          2   -1    0    0  501    0  0.00000000000E+00  0.00000000000E+00  0.17393295655E+04  0.17393295655E+04  0.00000000000E+00 0. -1.
         -1   -1    0    0    0  501 -0.00000000000E+00 -0.00000000000E+00 -0.13772548365E+04  0.13772548365E+04  0.00000000000E+00 0.  1.
         24    2    1    2    0    0  0.71429055999E+03 -0.32737315558E+03  0.13068653631E+04  0.15271280305E+04  0.82696778877E+02 0.  0.
        254    2    1    2    0    0 -0.71429055999E+03  0.32737315558E+03 -0.94479063410E+03  0.15894563715E+04  0.10081458364E+04 0.  0.
         23    2    4    4    0    0 -0.93091450672E+03  0.41975445383E+03 -0.75464500476E+03  0.12727654723E+04  0.87448521172E+02 0.  0.
         23    2    4    4    0    0  0.21662394673E+03 -0.92381298256E+02 -0.19014562933E+03  0.31669089923E+03  0.93153243311E+02 0.  0.
          2    1    3    3  502    0  0.68838454867E+03 -0.31561907403E+03  0.12837596882E+04  0.14904789914E+04  0.00000000000E+00 0. -1.
         -1    1    3    3    0  502  0.25906011324E+02 -0.11754081549E+02  0.23105674874E+02  0.36649039103E+02  0.00000000000E+00 0.  1.
         11    1    5    5    0    0 -0.74513058011E+03  0.29694731539E+03 -0.58380829676E+03  0.99208337195E+03  0.00000000000E+00 0.  1.
        -11    1    5    5    0    0 -0.18578392661E+03  0.12280713844E+03 -0.17083670801E+03  0.28068210032E+03  0.00000000000E+00 0. -1.
          3    1    6    6  503    0  0.20641318657E+02 -0.30005951438E+02  0.25231196197E+00  0.36420939292E+02  0.00000000000E+00 0. -1.
         -3    1    6    6    0  503  0.19598262807E+03 -0.62375346818E+02 -0.19039794129E+03  0.28026995994E+03  0.00000000000E+00 0.  1.
<mgrwt>
<rscale>  0 0.30954806E+04</rscale>
<asrwt>0</asrwt>
<pdfrwt beam="1">  1        2 0.26758916E+00 0.30954806E+04</pdfrwt>
<pdfrwt beam="2">  1       -1 0.21188536E+00 0.30954806E+04</pdfrwt>
<totfact> 0.11251795E+00</totfact>
</mgrwt>
</event>
<event>
12    6  0.1647231E-007  0.2706003E+04  0.7818608E-02  0.8333060E-01
         -1   -1    0    0    0  501 -0.00000000000E+00  0.00000000000E+00  0.80777909308E+03  0.80777909308E+03  0.00000000000E+00 0.  1.
          2   -1    0    0  501    0  0.00000000000E+00 -0.00000000000E+00 -0.22662292801E+04  0.22662292801E+04  0.00000000000E+00 0. -1.
         24    2    1    2    0    0  0.73709781122E+03 -0.41676577131E+03 -0.15232122400E+04  0.17445019058E+04  0.78131170619E+02 0.  0.
        254    2    1    2    0    0 -0.73709781122E+03  0.41676577131E+03  0.64762052982E+02  0.13295064674E+04  0.10229303162E+04 0.  0.
         23    2    4    4    0    0 -0.49658694155E+03  0.75255953957E+02  0.50267712487E+03  0.71762306248E+03  0.10018242759E+03 0.  0.
         23    2    4    4    0    0 -0.24051086967E+03  0.34150981735E+03 -0.43791507189E+03  0.61188340490E+03  0.90317535526E+02 0.  0.
          2    1    3    3  502    0  0.62704063549E+03 -0.33243609805E+03 -0.13161093100E+04  0.14952716923E+04  0.00000000000E+00 0. -1.
         -1    1    3    3    0  502  0.11005717573E+03 -0.84329673257E+02 -0.20710293000E+03  0.24923021353E+03  0.00000000000E+00 0.  1.
         11    1    5    5    0    0 -0.37730250562E+03  0.56826913254E+02  0.31648309696E+03  0.49572979482E+03  0.00000000000E+00 0.  1.
        -11    1    5    5    0    0 -0.11928443593E+03  0.18429040703E+02  0.18619402792E+03  0.22189326765E+03  0.00000000000E+00 0. -1.
          2    1    6    6  503    0 -0.23960416320E+03  0.34587723682E+03 -0.42429375298E+03  0.59755033829E+03  0.00000000000E+00 0.  1.
         -2    1    6    6    0  503 -0.90670647356E+00 -0.43674194726E+01 -0.13621318912E+02  0.14333066607E+02  0.00000000000E+00 0. -1.
<mgrwt>
<rscale>  0 0.27060027E+04</rscale>
<asrwt>0</asrwt>
<pdfrwt beam="1">  1        2 0.34865065E+00 0.27060027E+04</pdfrwt>
<pdfrwt beam="2">  1       -1 0.12427371E+00 0.27060027E+04</pdfrwt>
<totfact> 0.26823313E+00</totfact>
</mgrwt>
</event>
<event>
12    6  0.1647231E-007  0.1136560E+04  0.7818608E-02  0.9170273E-01
          2   -1    0    0  501    0  0.00000000000E+00  0.00000000000E+00  0.18243984411E+04  0.18243984411E+04  0.00000000000E+00 0. -1.
         -1   -1    0    0    0  501 -0.00000000000E+00 -0.00000000000E+00 -0.17701292067E+03  0.17701292067E+03  0.00000000000E+00 0.  1.
         24    2    1    2    0    0 -0.19286845981E+03  0.66415210298E+02  0.21280548226E+03  0.30543958793E+03  0.79987159266E+02 0.  0.
        254    2    1    2    0    0  0.19286845981E+03 -0.66415210298E+02  0.14345800381E+04  0.16959717738E+04  0.88130082764E+03 0.  0.
         23    2    4    4    0    0 -0.30327399571E+02 -0.43123397290E+03  0.51932692198E+03  0.68168075053E+03  0.90031678852E+02 0.  0.
         23    2    4    4    0    0  0.22319585938E+03  0.36481876260E+03  0.91525311613E+03  0.10142910233E+04  0.90492497498E+02 0.  0.
          2    1    3    3  502    0 -0.88070120315E+02 -0.30876313504E+00  0.12661329573E+03  0.15423154049E+03  0.00000000000E+00 0. -1.
         -1    1    3    3    0  502 -0.10479833949E+03  0.66723973433E+02  0.86192186531E+02  0.15120804744E+03  0.00000000000E+00 0.  1.
         11    1    5    5    0    0 -0.12667497842E+02 -0.34712858243E+02  0.14959822508E+02  0.39865327272E+02  0.00000000000E+00 0. -1.
        -11    1    5    5    0    0 -0.17659901729E+02 -0.39652111465E+03  0.50436709948E+03  0.64181542326E+03  0.00000000000E+00 0.  1.
          1    1    6    6  503    0  0.12455067489E+03  0.14509483421E+03  0.48283024003E+03  0.51931726547E+03  0.00000000000E+00 0. -1.
         -1    1    6    6    0  503  0.98645184485E+02  0.21972392839E+03  0.43242287610E+03  0.49497375779E+03  0.00000000000E+00 0.  1.
<mgrwt>
<rscale>  0 0.11365599E+04</rscale>
<asrwt>0</asrwt>
<pdfrwt beam="1">  1        2 0.28067667E+00 0.11365599E+04</pdfrwt>
<pdfrwt beam="2">  1       -1 0.27232758E-01 0.11365599E+04</pdfrwt>
<totfact> 0.11412782E+02</totfact>
</mgrwt>
</event>
<event>
12    6  0.1647231E-007  0.3639916E+04  0.7818608E-02  0.8081409E-01
         -3   -1    0    0    0  501 -0.00000000000E+00  0.00000000000E+00  0.30718246350E+04  0.30718246350E+04  0.00000000000E+00 0.  1.
          2   -1    0    0  501    0  0.00000000000E+00 -0.00000000000E+00 -0.10782667305E+04  0.10782667305E+04  0.00000000000E+00 0. -1.
         24    2    1    2    0    0  0.10832503030E+04  0.96082636649E+03 -0.96802653666E+02  0.14532066915E+04  0.76291606122E+02 0.  0.
        254    2    1    2    0    0 -0.10832503030E+04 -0.96082636649E+03  0.20903605581E+04  0.26968846739E+04  0.89831016693E+03 0.  0.
         23    2    4    4    0    0  0.11328949794E+03 -0.22800183366E+03  0.54497972174E+03  0.60756516351E+03  0.85517157975E+02 0.  0.
         23    2    4    4    0    0 -0.11965398009E+04 -0.73282453283E+03  0.15453808364E+04  0.20893195104E+04  0.91185503295E+02 0.  0.
          4    1    3    3  502    0  0.41366788253E+03  0.41569499821E+03 -0.47555277265E+02  0.58837484053E+03  0.00000000000E+00 0. -1.
         -3    1    3    3    0  502  0.66958242045E+03  0.54513136828E+03 -0.49247376401E+02  0.86483185102E+03  0.00000000000E+00 0.  1.
         11    1    5    5    0    0  0.25682409940E+02 -0.49717511982E+02  0.53330352569E+02  0.77301640883E+02  0.00000000000E+00 0.  1.
        -11    1    5    5    0    0  0.87607087999E+02 -0.17828432168E+03  0.49164936917E+03  0.53026352263E+03  0.00000000000E+00 0. -1.
          2    1    6    6  503    0 -0.10744469509E+04 -0.62533002061E+03  0.13541167361E+04  0.18382344845E+04  0.00000000000E+00 0.  1.
         -2    1    6    6    0  503 -0.12209284999E+03 -0.10749451221E+03  0.19126410028E+03  0.25108502589E+03  0.00000000000E+00 0. -1.
<mgrwt>
<rscale>  0 0.36399156E+04</rscale>
<asrwt>0</asrwt>
<pdfrwt beam="1">  1        2 0.16588719E+00 0.36399156E+04</pdfrwt>
<pdfrwt beam="2">  1       -3 0.47258840E+00 0.36399156E+04</pdfrwt>
<totfact> 0.48279334E-02</totfact>
</mgrwt>
</event>
<event>
12    6  0.1647231E-007  0.1771280E+04  0.7818608E-02  0.8721723E-01
          2   -1    0    0  501    0  0.00000000000E+00  0.00000000000E+00  0.13836071008E+04  0.13836071008E+04  0.00000000000E+00 0. -1.
         -1   -1    0    0    0  501 -0.00000000000E+00 -0.00000000000E+00 -0.56689358490E+03  0.56689358490E+03  0.00000000000E+00 0.  1.
         24    2    1    2    0    0  0.41707136285E+03 -0.19069081477E+03 -0.19423602073E+03  0.50446294268E+03  0.80272786440E+02 0.  0.
        254    2    1    2    0    0 -0.41707136285E+03  0.19069081477E+03  0.10109495366E+04  0.14460377430E+04  0.92665780094E+03 0.  0.
         23    2    4    4    0    0 -0.46868115614E+03  0.15479983791E+03  0.79407977623E+02  0.50777944553E+03  0.88934371617E+02 0.  0.
         23    2    4    4    0    0  0.51609793287E+02  0.35890976860E+02  0.93154155896E+03  0.93825829745E+03  0.92775124216E+02 0.  0.
          2    1    3    3  502    0  0.43648275040E+02  0.33025182454E+01 -0.89904568238E+01  0.44686763752E+02  0.00000000000E+00 0. -1.
         -3    1    3    3    0  502  0.37342308781E+03 -0.19399333302E+03 -0.18524556391E+03  0.45977617893E+03  0.00000000000E+00 0.  1.
         11    1    5    5    0    0 -0.21415658528E+03  0.91286488072E+02 -0.29696516026E+01  0.23281985472E+03  0.00000000000E+00 0. -1.
        -11    1    5    5    0    0 -0.25452457086E+03  0.63513349839E+02  0.82377629226E+02  0.27495959080E+03  0.00000000000E+00 0.  1.
          2    1    6    6  503    0  0.52778984496E+02  0.63444443094E+02  0.76630422158E+03  0.77073534925E+03  0.00000000000E+00 0. -1.
         -2    1    6    6    0  503 -0.11691912084E+01 -0.27553466234E+02  0.16523733738E+03  0.16752294820E+03  0.00000000000E+00 0.  1.
<mgrwt>
<rscale>  0 0.17712798E+04</rscale>
<asrwt>0</asrwt>
<pdfrwt beam="1">  1        2 0.21286263E+00 0.17712798E+04</pdfrwt>
<pdfrwt beam="2">  1       -1 0.87214398E-01 0.17712798E+04</pdfrwt>
<totfact> 0.20644189E+01</totfact>
</mgrwt>
</event>
<event>
12    6  0.1647231E-007  0.1512588E+04  0.7818608E-02  0.8876125E-01
          2   -1    0    0  501    0  0.00000000000E+00  0.00000000000E+00  0.16422658027E+04  0.16422658027E+04  0.00000000000E+00 0. -1.
         -1   -1    0    0    0  501 -0.00000000000E+00 -0.00000000000E+00 -0.34828730496E+03  0.34828730496E+03  0.00000000000E+00 0.  1.
         24    2    1    2    0    0 -0.17997892257E+03  0.36522266944E+03  0.80142849047E+03  0.90286548244E+03  0.84252259324E+02 0.  0.
        254    2    1    2    0    0  0.17997892257E+03 -0.36522266944E+03  0.49255000723E+03  0.10876876252E+04  0.88015842295E+03 0.  0.
         23    2    4    4    0    0  0.20151399949E+03  0.24809450720E+03  0.77447941956E+02  0.34105825727E+03  0.90353608921E+02 0.  0.
         23    2    4    4    0    0 -0.21535076922E+02 -0.61331717663E+03  0.41510206527E+03  0.74662936790E+03  0.92325347175E+02 0.  0.
          4    1    3    3  502    0 -0.13363204949E+03  0.29746503917E+03  0.70111447598E+03  0.77324283548E+03  0.00000000000E+00 0. -1.
         -3    1    3    3    0  502 -0.46346873079E+02  0.67757630266E+02  0.10031401449E+03  0.12962264697E+03  0.00000000000E+00 0.  1.
         11    1    5    5    0    0  0.55675381982E+02  0.92135639688E+02 -0.14417032474E+02  0.10861203932E+03  0.00000000000E+00 0. -1.
        -11    1    5    5    0    0  0.14583861751E+03  0.15595886751E+03  0.91864974430E+02  0.23244621795E+03  0.00000000000E+00 0.  1.
          1    1    6    6  503    0 -0.76771191630E+01 -0.58328941591E+03  0.41036279620E+03  0.71322023624E+03  0.00000000000E+00 0. -1.
         -1    1    6    6    0  503 -0.13857957759E+02 -0.30027760720E+02  0.47392690671E+01  0.33409131662E+02  0.00000000000E+00 0.  1.
<mgrwt>
<rscale>  0 0.15125876E+04</rscale>
<asrwt>0</asrwt>
<pdfrwt beam="1">  1        2 0.25265627E+00 0.15125876E+04</pdfrwt>
<pdfrwt beam="2">  1       -1 0.53582663E-01 0.15125876E+04</pdfrwt>
<totfact> 0.40817627E+01</totfact>
</mgrwt>
</event>
<event>
12    6  0.1647231E-007  0.1342190E+04  0.7818608E-02  0.8996761E-01
         -3   -1    0    0    0  501 -0.00000000000E+00  0.00000000000E+00  0.15099313873E+04  0.15099313873E+04  0.00000000000E+00 0.  1.
          2   -1    0    0  501    0  0.00000000000E+00 -0.00000000000E+00 -0.29827101548E+03  0.29827101548E+03  0.00000000000E+00 0. -1.
         24    2    1    2    0    0  0.10258591746E+02  0.25447859813E+03 -0.14731812357E+02  0.26764867194E+03  0.80957950083E+02 0.  0.
        254    2    1    2    0    0 -0.10258591746E+02 -0.25447859813E+03  0.12263921842E+04  0.15405537308E+04  0.89688539544E+03 0.  0.
         23    2    4    4    0    0 -0.44252170421E+03 -0.13721266693E+03  0.56748218873E+03  0.73836180970E+03  0.92137684143E+02 0.  0.
         23    2    4    4    0    0  0.43226311246E+03 -0.11726593121E+03  0.65890999543E+03  0.80219192112E+03  0.93524324177E+02 0.  0.
          4    1    3    3  502    0 -0.26549541955E+02  0.13564894626E+03 -0.32484234482E+02  0.14198852168E+03  0.00000000000E+00 0. -1.
         -3    1    3    3    0  502  0.36808133700E+02  0.11882965187E+03  0.17752422124E+02  0.12566015025E+03  0.00000000000E+00 0.  1.
         11    1    5    5    0    0 -0.16975973393E+03 -0.25783559448E+02  0.15407522585E+03  0.23069966281E+03  0.00000000000E+00 0.  1.
        -11    1    5    5    0    0 -0.27276197027E+03 -0.11142910748E+03  0.41340696288E+03  0.50766214689E+03  0.00000000000E+00 0. -1.
          3    1    6    6  503    0  0.40585745373E+03 -0.83935896084E+02  0.60866634459E+03  0.73636962623E+03  0.00000000000E+00 0. -1.
         -3    1    6    6    0  503  0.26405658728E+02 -0.33330035123E+02  0.50243650839E+02  0.65822294884E+02  0.00000000000E+00 0.  1.
<mgrwt>
<rscale>  0 0.13421904E+04</rscale>
<asrwt>0</asrwt>
<pdfrwt beam="1">  1        2 0.45887849E-01 0.13421904E+04</pdfrwt>
<pdfrwt beam="2">  1       -3 0.23229713E+00 0.13421904E+04</pdfrwt>
<totfact> 0.62508203E+00</totfact>
</mgrwt>
</event>
<event>
12    6  0.1647231E-007  0.3047039E+04  0.7818608E-02  0.8230425E-01
         -1   -1    0    0    0  501 -0.00000000000E+00  0.00000000000E+00  0.13946201650E+04  0.13946201650E+04  0.00000000000E+00 0.  1.
          2   -1    0    0  501    0  0.00000000000E+00 -0.00000000000E+00 -0.16643321738E+04  0.16643321738E+04  0.00000000000E+00 0. -1.
         24    2    1    2    0    0  0.99851672209E+03 -0.18626599120E+03  0.82993721647E+03  0.13140880203E+04  0.79378070723E+02 0.  0.
        254    2    1    2    0    0 -0.99851672209E+03  0.18626599120E+03 -0.10996492252E+04  0.17448643185E+04  0.89643315854E+03 0.  0.
         23    2    4    4    0    0 -0.29449512011E+03 -0.33317285121E+03 -0.23964272627E+03  0.51434388946E+03  0.96899307621E+02 0.  0.
         23    2    4    4    0    0 -0.70402160197E+03  0.51943884241E+03 -0.86000649891E+03  0.12305204290E+04  0.95426521611E+02 0.  0.
          4    1    3    3  502    0  0.41705424793E+03 -0.11669456346E+03  0.36421752145E+03  0.56586771403E+03  0.00000000000E+00 0. -1.
         -3    1    3    3    0  502  0.58146247416E+03 -0.69571427737E+02  0.46571969502E+03  0.74822030629E+03  0.00000000000E+00 0.  1.
         11    1    5    5    0    0 -0.27345260608E+03 -0.25422389182E+03 -0.19437516764E+03  0.42093683700E+03  0.00000000000E+00 0.  1.
        -11    1    5    5    0    0 -0.21042514029E+02 -0.78948959394E+02 -0.45267558624E+02  0.93407052463E+02  0.00000000000E+00 0. -1.
          4    1    6    6  503    0 -0.68181173376E+02  0.86577489098E+02 -0.92030712218E+02  0.14357571526E+03  0.00000000000E+00 0. -1.
         -4    1    6    6    0  503 -0.63584042860E+03  0.43286135332E+03 -0.76797578669E+03  0.10869447138E+04  0.00000000000E+00 0.  1.
<mgrwt>
<rscale>  0 0.30470387E+04</rscale>
<asrwt>0</asrwt>
<pdfrwt beam="1">  1        2 0.25605110E+00 0.30470387E+04</pdfrwt>
<pdfrwt beam="2">  1       -1 0.21455695E+00 0.30470387E+04</pdfrwt>
<totfact> 0.11931353E+00</totfact>
</mgrwt>
</event>
<event>
12    6  0.1647231E-007  0.1436883E+04  0.7818608E-02  0.8927545E-01
         -1   -1    0    0    0  501 -0.00000000000E+00  0.00000000000E+00  0.57204352775E+03  0.57204352775E+03  0.00000000000E+00 0.  1.
          2   -1    0    0  501    0  0.00000000000E+00 -0.00000000000E+00 -0.90230537552E+03  0.90230537552E+03  0.00000000000E+00 0. -1.
         24    2    1    2    0    0  0.38702248621E+03 -0.12164065164E+03  0.73780038018E+02  0.42019314207E+03  0.80845096772E+02 0.  0.
        254    2    1    2    0    0 -0.38702248621E+03  0.12164065164E+03 -0.40404188579E+03  0.10541557612E+04  0.88510545724E+03 0.  0.
         23    2    4    4    0    0 -0.37483900792E+03  0.45216913154E+03 -0.11499850271E+03  0.60541821364E+03  0.91352900400E+02 0.  0.
         23    2    4    4    0    0 -0.12183478293E+02 -0.33052847990E+03 -0.28904338308E+03  0.44873754755E+03  0.91770344423E+02 0.  0.
          2    1    3    3  502    0  0.60572784056E+02 -0.73839142384E+01 -0.15560040966E+02  0.62973797985E+02  0.00000000000E+00 0. -1.
         -3    1    3    3    0  502  0.32644970216E+03 -0.11425673740E+03  0.89340078984E+02  0.35721934409E+03  0.00000000000E+00 0.  1.
         11    1    5    5    0    0 -0.22849992762E+03  0.27373989753E+03 -0.11497772662E+03  0.37465400844E+03  0.00000000000E+00 0.  1.
        -11    1    5    5    0    0 -0.14633908030E+03  0.17842923401E+03 -0.20776095919E-01  0.23076420521E+03  0.00000000000E+00 0. -1.
          4    1    6    6  503    0  0.26384879331E+02 -0.79100584156E+02 -0.10835276913E+03  0.13672376110E+03  0.00000000000E+00 0. -1.
         -4    1    6    6    0  503 -0.38568357624E+02 -0.25142789575E+03 -0.18069061394E+03  0.31201378645E+03  0.00000000000E+00 0.  1.
<mgrwt>
<rscale>  0 0.14368827E+04</rscale>
<asrwt>0</asrwt>
<pdfrwt beam="1">  1        2 0.13881621E+00 0.14368827E+04</pdfrwt>
<pdfrwt beam="2">  1       -1 0.88006697E-01 0.14368827E+04</pdfrwt>
<totfact> 0.41088765E+01</totfact>
</mgrwt>
</event>
<event>
12    6  0.1647231E-007  0.1682709E+04  0.7818608E-02  0.8771288E-01
         -1   -1    0    0    0  501 -0.00000000000E+00  0.00000000000E+00  0.10334954014E+04  0.10334954014E+04  0.00000000000E+00 0.  1.
          2   -1    0    0  501    0  0.00000000000E+00 -0.00000000000E+00 -0.68493544911E+03  0.68493544911E+03  0.00000000000E+00 0. -1.
         24    2    1    2    0    0 -0.49588571241E+03 -0.10519697696E+03 -0.20266932603E+03  0.55166533902E+03  0.79314228413E+02 0.  0.
        254    2    1    2    0    0  0.49588571241E+03  0.10519697696E+03  0.55122927827E+03  0.11667655114E+04  0.89471727251E+03 0.  0.
         23    2    4    4    0    0  0.24650472303E+02 -0.10095338957E+03  0.62404990008E+03  0.63922106413E+03  0.91466159765E+02 0.  0.
         23    2    4    4    0    0  0.47123524011E+03  0.20615036653E+03 -0.72820621812E+02  0.52754444731E+03  0.91867708094E+02 0.  0.
          2    1    3    3  502    0 -0.23883790741E+03 -0.73118713790E+02 -0.13501475836E+03  0.28393463560E+03  0.00000000000E+00 0. -1.
         -1    1    3    3    0  502 -0.25704780501E+03 -0.32078263166E+02 -0.67654567670E+02  0.26773070342E+03  0.00000000000E+00 0.  1.
         11    1    5    5    0    0 -0.20117379082E+02 -0.25655042861E+02  0.34989337015E+03  0.35140896494E+03  0.00000000000E+00 0. -1.
        -11    1    5    5    0    0  0.44767851385E+02 -0.75298346708E+02  0.27415652994E+03  0.28781209919E+03  0.00000000000E+00 0.  1.
          2    1    6    6  503    0  0.31355515065E+03  0.18261918739E+03 -0.43707448668E+02  0.36548179321E+03  0.00000000000E+00 0.  1.
         -2    1    6    6    0  503  0.15768008946E+03  0.23531179140E+02 -0.29113173144E+02  0.16206265411E+03  0.00000000000E+00 0. -1.
<mgrwt>
<rscale>  0 0.16827093E+04</rscale>
<asrwt>0</asrwt>
<pdfrwt beam="1">  1        2 0.10537469E+00 0.16827093E+04</pdfrwt>
<pdfrwt beam="2">  1       -1 0.15899929E+00 0.16827093E+04</pdfrwt>
<totfact> 0.13629907E+01</totfact>
</mgrwt>
</event>
<event>
12    6  0.1647231E-007  0.1511489E+04  0.7818608E-02  0.8876849E-01
         -1   -1    0    0    0  501 -0.00000000000E+00  0.00000000000E+00  0.46928410542E+03  0.46928410542E+03  0.00000000000E+00 0.  1.
          2   -1    0    0  501    0  0.00000000000E+00 -0.00000000000E+00 -0.12170654327E+04  0.12170654327E+04  0.00000000000E+00 0. -1.
         24    2    1    2    0    0 -0.23045898118E+03 -0.35029832907E+03  0.48380484203E+02  0.42978302860E+03  0.80947631644E+02 0.  0.
        254    2    1    2    0    0  0.23045898118E+03  0.35029832907E+03 -0.79616181149E+03  0.12565665095E+04  0.87707781949E+03 0.  0.
         23    2    4    4    0    0  0.47860117664E+03 -0.19125532989E+02 -0.56529297534E+03  0.74704821527E+03  0.95394002324E+02 0.  0.
         23    2    4    4    0    0 -0.24814219546E+03  0.36942386206E+03 -0.23086883615E+03  0.50951829426E+03  0.90884177123E+02 0.  0.
          2    1    3    3  502    0 -0.10408220019E+02 -0.38605729238E+02 -0.15588227269E+02  0.42915337623E+02  0.00000000000E+00 0. -1.
         -1    1    3    3    0  502 -0.22005076116E+03 -0.31169259983E+03  0.63968711472E+02  0.38686769098E+03  0.00000000000E+00 0.  1.
         11    1    5    5    0    0  0.31131114919E+03  0.28980556348E+02 -0.33304118501E+03  0.45680513917E+03  0.00000000000E+00 0. -1.
        -11    1    5    5    0    0  0.16729002745E+03 -0.48106089337E+02 -0.23225179033E+03  0.29024307610E+03  0.00000000000E+00 0.  1.
          1    1    6    6  503    0 -0.11901905453E+03  0.12668934608E+03 -0.12838208814E+03  0.21609647453E+03  0.00000000000E+00 0. -1.
         -1    1    6    6    0  503 -0.12912314093E+03  0.24273451598E+03 -0.10248674801E+03  0.29342181972E+03  0.00000000000E+00 0.  1.
<mgrwt>
<rscale>  0 0.15114886E+04</rscale>
<asrwt>0</asrwt>
<pdfrwt beam="1">  1        2 0.18724083E+00 0.15114886E+04</pdfrwt>
<pdfrwt beam="2">  1       -1 0.72197556E-01 0.15114886E+04</pdfrwt>
<totfact> 0.39421452E+01</totfact>
</mgrwt>
</event>
<event>
12    6  0.1889086E-007  0.2764442E+04  0.7818608E-02  0.8314394E-01
         -1   -1    0    0    0  501 -0.00000000000E+00  0.00000000000E+00  0.62249490135E+03  0.62249490135E+03  0.00000000000E+00 0.  1.
          2   -1    0    0  501    0  0.00000000000E+00 -0.00000000000E+00 -0.30691569377E+04  0.30691569377E+04  0.00000000000E+00 0. -1.
         24    2    1    2    0    0  0.59490211577E+03 -0.37532013343E+03  0.26002596599E+03  0.75380034928E+03  0.76339594413E+02 0.  0.
        254    2    1    2    0    0 -0.59490211577E+03  0.37532013343E+03 -0.27066880024E+04  0.29378514898E+04  0.90002094644E+03 0.  0.
         23    2    4    4    0    0 -0.56773764550E+03  0.22129986341E+03 -0.26861311678E+04  0.27558174702E+04  0.89048383761E+02 0.  0.
         23    2    4    4    0    0 -0.27164470277E+02  0.15402027002E+03 -0.20556834557E+02  0.18203401961E+03  0.90849594527E+02 0.  0.
          2    1    3    3  502    0  0.74393460776E+02 -0.37353196165E+02  0.56765215977E+02  0.10075682615E+03  0.00000000000E+00 0. -1.
         -3    1    3    3    0  502  0.52050865500E+03 -0.33796693727E+03  0.20326075002E+03  0.65304352314E+03  0.00000000000E+00 0.  1.
         11    1    5    5    0    0 -0.50822821981E+03  0.21989828849E+03 -0.23421206899E+04  0.24066949343E+04  0.00000000000E+00 0. -1.
        -11    1    5    5    0    0 -0.59509425688E+02  0.14015749222E+01 -0.34401047792E+03  0.34912253591E+03  0.00000000000E+00 0.  1.
          1    1    6    6  503    0 -0.36540796479E+02  0.14822240408E+03  0.65197182126E+01  0.15279927226E+03  0.00000000000E+00 0. -1.
         -1    1    6    6    0  503  0.93763262017E+01  0.57978659385E+01 -0.27076552769E+02  0.29234747345E+02  0.00000000000E+00 0.  1.
<mgrwt>
<rscale>  0 0.27644417E+04</rscale>
<asrwt>0</asrwt>
<pdfrwt beam="1">  1        2 0.47217799E+00 0.27644417E+04</pdfrwt>
<pdfrwt beam="2">  1       -1 0.95768447E-01 0.27644417E+04</pdfrwt>
<totfact> 0.16417027E+00</totfact>
</mgrwt>
</event>
<event>
12    6  0.1647231E-007  0.1316610E+04  0.7818608E-02  0.9016496E-01
         -1   -1    0    0    0  501 -0.00000000000E+00  0.00000000000E+00  0.66966238607E+03  0.66966238607E+03  0.00000000000E+00 0.  1.
          2   -1    0    0  501    0  0.00000000000E+00 -0.00000000000E+00 -0.64714056007E+03  0.64714056007E+03  0.00000000000E+00 0. -1.
         24    2    1    2    0    0 -0.15297267289E+03  0.14033895922E+03  0.29844104233E+03  0.37226899125E+03  0.80134162355E+02 0.  0.
        254    2    1    2    0    0  0.15297267289E+03 -0.14033895922E+03 -0.27591921632E+03  0.94453395489E+03  0.87915716221E+03 0.  0.
         23    2    4    4    0    0  0.18074670030E+03 -0.42659161857E+03  0.77005522113E+02  0.47993916173E+03  0.98802681248E+02 0.  0.
         23    2    4    4    0    0 -0.27774027410E+02  0.28625265935E+03 -0.35292473843E+03  0.46459479315E+03  0.92630822316E+02 0.  0.
          4    1    3    3  502    0 -0.90888279674E+02  0.31389281486E+02  0.14691762303E+03  0.17558688542E+03  0.00000000000E+00 0. -1.
         -3    1    3    3    0  502 -0.62084393219E+02  0.10894967774E+03  0.15152341930E+03  0.19668210583E+03  0.00000000000E+00 0.  1.
         11    1    5    5    0    0  0.19321385474E+03 -0.40242102428E+03  0.75114909537E+02  0.45267706379E+03  0.00000000000E+00 0.  1.
        -11    1    5    5    0    0 -0.12467154440E+02 -0.24170594292E+02  0.18906125758E+01  0.27262097941E+02  0.00000000000E+00 0. -1.
          3    1    6    6  503    0 -0.23287158750E+02  0.15428827472E+03 -0.11998305491E+03  0.19683266230E+03  0.00000000000E+00 0. -1.
         -3    1    6    6    0  503 -0.44868686598E+01  0.13196438463E+03 -0.23294168352E+03  0.26776213086E+03  0.00000000000E+00 0.  1.
<mgrwt>
<rscale>  0 0.13166103E+04</rscale>
<asrwt>0</asrwt>
<pdfrwt beam="1">  1        2 0.99560086E-01 0.13166103E+04</pdfrwt>
<pdfrwt beam="2">  1       -1 0.10302498E+00 0.13166103E+04</pdfrwt>
<totfact> 0.45019702E+01</totfact>
</mgrwt>
</event>
<event>
12    6  0.1647231E-007  0.1926263E+04  0.7818608E-02  0.8641893E-01
         -1   -1    0    0    0  501 -0.00000000000E+00  0.00000000000E+00  0.82268945869E+03  0.82268945869E+03  0.00000000000E+00 0.  1.
          2   -1    0    0  501    0  0.00000000000E+00 -0.00000000000E+00 -0.11275483024E+04  0.11275483024E+04  0.00000000000E+00 0. -1.
         24    2    1    2    0    0 -0.71235467192E+03  0.19244406818E+03 -0.13533410295E+03  0.75447185387E+03  0.80178306741E+02 0.  0.
        254    2    1    2    0    0  0.71235467192E+03 -0.19244406818E+03 -0.16952474075E+03  0.11957659072E+04  0.92554501192E+03 0.  0.
         23    2    4    4    0    0  0.77201285253E+03 -0.43024971351E+03 -0.10325242800E+02  0.88860184915E+03  0.91585889886E+02 0.  0.
         23    2    4    4    0    0 -0.59658180608E+02  0.23780564533E+03 -0.15919949795E+03  0.30716405805E+03  0.94311478333E+02 0.  0.
          4    1    3    3  502    0 -0.26540161726E+03  0.10743193542E+03 -0.33751678825E+02  0.28830333855E+03  0.00000000000E+00 0. -1.
         -3    1    3    3    0  502 -0.44695305466E+03  0.85012132759E+02 -0.10158242412E+03  0.46616851532E+03  0.00000000000E+00 0.  1.
         11    1    5    5    0    0  0.13664763394E+03 -0.65813123099E+02 -0.35255205186E+02  0.15571407298E+03  0.00000000000E+00 0.  1.
        -11    1    5    5    0    0  0.63536521859E+03 -0.36443659041E+03  0.24929962385E+02  0.73288777617E+03  0.00000000000E+00 0. -1.
          3    1    6    6  503    0  0.12754767031E+02  0.14150973232E+03 -0.81504532967E+02  0.16380072441E+03  0.00000000000E+00 0. -1.
         -3    1    6    6    0  503 -0.72412947638E+02  0.96295913008E+02 -0.77694964980E+02  0.14336333363E+03  0.00000000000E+00 0.  1.
<mgrwt>
<rscale>  0 0.19262628E+04</rscale>
<asrwt>0</asrwt>
<pdfrwt beam="1">  1        2 0.17346897E+00 0.19262628E+04</pdfrwt>
<pdfrwt beam="2">  1       -1 0.12656761E+00 0.19262628E+04</pdfrwt>
<totfact> 0.12115566E+01</totfact>
</mgrwt>
</event>
<event>
12    6  0.1647231E-007  0.1956304E+04  0.7818608E-02  0.8627327E-01
          2   -1    0    0  501    0  0.00000000000E+00  0.00000000000E+00  0.41411614187E+03  0.41411614187E+03  0.00000000000E+00 0. -1.
         -1   -1    0    0    0  501 -0.00000000000E+00 -0.00000000000E+00 -0.23104182131E+04  0.23104182131E+04  0.00000000000E+00 0.  1.
         24    2    1    2    0    0 -0.65088856969E+03  0.25589588556E+03 -0.31476921767E+03  0.77111325882E+03  0.79983517890E+02 0.  0.
        254    2    1    2    0    0  0.65088856969E+03 -0.25589588556E+03 -0.15815328535E+04  0.19534210961E+04  0.90855334328E+03 0.  0.
         23    2    4    4    0    0  0.25476034207E+03 -0.49898647580E+03 -0.44192648965E+03  0.71930468448E+03  0.90608343691E+02 0.  0.
         23    2    4    4    0    0  0.39612822762E+03  0.24309059023E+03 -0.11396063639E+04  0.12341164116E+04  0.91269080748E+02 0.  0.
          4    1    3    3  502    0 -0.64219729292E+03  0.24772265530E+03 -0.31874236842E+03  0.75853844623E+03  0.00000000000E+00 0. -1.
         -3    1    3    3    0  502 -0.86912767642E+01  0.81732302608E+01  0.39731507481E+01  0.12574812585E+02  0.00000000000E+00 0.  1.
         11    1    5    5    0    0  0.23459737430E+03 -0.41659260938E+03 -0.33986398437E+03  0.58659428747E+03  0.00000000000E+00 0. -1.
        -11    1    5    5    0    0  0.20162967772E+02 -0.82393866417E+02 -0.10206250527E+03  0.13271039701E+03  0.00000000000E+00 0.  1.
          4    1    6    6  503    0  0.36459068871E+02  0.55713208656E+02 -0.12891105486E+03  0.14509061096E+03  0.00000000000E+00 0.  1.
         -4    1    6    6    0  503  0.35966915875E+03  0.18737738158E+03 -0.10106953090E+04  0.10890258007E+04  0.00000000000E+00 0. -1.
<mgrwt>
<rscale>  0 0.19563041E+04</rscale>
<asrwt>0</asrwt>
<pdfrwt beam="1">  1        2 0.63710178E-01 0.19563041E+04</pdfrwt>
<pdfrwt beam="2">  1       -1 0.35544895E+00 0.19563041E+04</pdfrwt>
<totfact> 0.11668052E+00</totfact>
</mgrwt>
</event>
<event>
12    6  0.1647231E-007  0.2441521E+04  0.7818608E-02  0.8424120E-01
          2   -1    0    0  501    0  0.00000000000E+00  0.00000000000E+00  0.40082177931E+04  0.40082177931E+04  0.00000000000E+00 0. -1.
         -1   -1    0    0    0  501 -0.00000000000E+00 -0.00000000000E+00 -0.37180032471E+03  0.37180032471E+03  0.00000000000E+00 0.  1.
         24    2    1    2    0    0  0.22670931252E+03 -0.93936857654E+03  0.22766508956E+04  0.24744978079E+04  0.78674431418E+02 0.  0.
        254    2    1    2    0    0 -0.22670931252E+03  0.93936857654E+03  0.13597665728E+04  0.19055203099E+04  0.92099515951E+03 0.  0.
         23    2    4    4    0    0 -0.33801027301E+02 -0.17477970743E+03  0.18991320686E+03  0.27599392822E+03  0.91734217694E+02 0.  0.
         23    2    4    4    0    0 -0.19290828522E+03  0.11141482840E+04  0.11698533660E+04  0.16295263817E+04  0.90880831386E+02 0.  0.
          4    1    3    3  502    0  0.49433816998E+02 -0.30247481846E+03  0.79567101271E+03  0.85265882891E+03  0.00000000000E+00 0. -1.
         -3    1    3    3    0  502  0.17727549552E+03 -0.63689375808E+03  0.14809798829E+04  0.16218389790E+04  0.00000000000E+00 0.  1.
         11    1    5    5    0    0 -0.27023636396E+02 -0.12536000041E+02  0.55298508861E+01  0.30298638120E+02  0.00000000000E+00 0.  1.
        -11    1    5    5    0    0 -0.67773909049E+01 -0.16224370739E+03  0.18438335598E+03  0.24569529010E+03  0.00000000000E+00 0. -1.
          4    1    6    6  503    0 -0.13673679608E+03  0.79578261813E+03  0.77476509652E+03  0.11190298841E+04  0.00000000000E+00 0. -1.
         -4    1    6    6    0  503 -0.56171489133E+02  0.31836566584E+03  0.39508826945E+03  0.51049649757E+03  0.00000000000E+00 0.  1.
<mgrwt>
<rscale>  0 0.24415214E+04</rscale>
<asrwt>0</asrwt>
<pdfrwt beam="1">  1        2 0.61664886E+00 0.24415214E+04</pdfrwt>
<pdfrwt beam="2">  1       -1 0.57200053E-01 0.24415214E+04</pdfrwt>
<totfact> 0.10672562E+00</totfact>
</mgrwt>
</event>
<event>
12    6  0.1647231E-007  0.1516633E+04  0.7818608E-02  0.8873467E-01
          2   -1    0    0  501    0  0.00000000000E+00  0.00000000000E+00  0.68088579931E+03  0.68088579931E+03  0.00000000000E+00 0. -1.
         -1   -1    0    0    0  501 -0.00000000000E+00 -0.00000000000E+00 -0.84455251723E+03  0.84455251723E+03  0.00000000000E+00 0.  1.
         24    2    1    2    0    0 -0.33765386267E+03 -0.31320331590E+03 -0.20508986321E+03  0.51008312862E+03  0.77566088279E+02 0.  0.
        254    2    1    2    0    0  0.33765386267E+03  0.31320331590E+03  0.41423145285E+02  0.10153551879E+04  0.90394902102E+03 0.  0.
         23    2    4    4    0    0  0.61976712316E+03  0.15763014370E+03  0.14975012576E+03  0.66317790959E+03  0.91767589319E+02 0.  0.
         23    2    4    4    0    0 -0.28211326049E+03  0.15557317220E+03 -0.10832698047E+03  0.35217727833E+03  0.92212781213E+02 0.  0.
          2    1    3    3  502    0 -0.31850991434E+03 -0.31255983361E+03 -0.20460296454E+03  0.49092218142E+03  0.00000000000E+00 0. -1.
         -1    1    3    3    0  502 -0.19143948335E+02 -0.64348229313E+00 -0.48689866158E+00  0.19160947200E+02  0.00000000000E+00 0.  1.
         11    1    5    5    0    0  0.23664323091E+03  0.70539193985E+02  0.13410633024E+02  0.24729666738E+03  0.00000000000E+00 0. -1.
        -11    1    5    5    0    0  0.38312389226E+03  0.87090949715E+02  0.13633949273E+03  0.41588124221E+03  0.00000000000E+00 0.  1.
          1    1    6    6  503    0 -0.18803937880E+03  0.53237894401E+02 -0.52314795552E+02  0.20231144113E+03  0.00000000000E+00 0.  1.
         -1    1    6    6    0  503 -0.94073881692E+02  0.10233527780E+03 -0.56012184920E+02  0.14986583719E+03  0.00000000000E+00 0. -1.
<mgrwt>
<rscale>  0 0.15166329E+04</rscale>
<asrwt>0</asrwt>
<pdfrwt beam="1">  1        2 0.10475166E+00 0.15166329E+04</pdfrwt>
<pdfrwt beam="2">  1       -1 0.12993116E+00 0.15166329E+04</pdfrwt>
<totfact> 0.23756339E+01</totfact>
</mgrwt>
</event>
<event>
12    6  0.1647231E-007  0.1511227E+04  0.7818608E-02  0.8877021E-01
          2   -1    0    0  501    0  0.00000000000E+00  0.00000000000E+00  0.34758895848E+04  0.34758895848E+04  0.00000000000E+00 0. -1.
         -1   -1    0    0    0  501 -0.00000000000E+00 -0.00000000000E+00 -0.16426054640E+03  0.16426054640E+03  0.00000000000E+00 0.  1.
         24    2    1    2    0    0 -0.12597670803E+03 -0.29757689506E+03  0.19396857731E+04  0.19680631621E+04  0.80433651529E+02 0.  0.
        254    2    1    2    0    0  0.12597670803E+03  0.29757689506E+03  0.13719432653E+04  0.16720869691E+04  0.89956899098E+03 0.  0.
         23    2    4    4    0    0  0.52830193886E+02  0.14983683753E+03 -0.85887146944E+02  0.20221327988E+03  0.90947794254E+02 0.  0.
         23    2    4    4    0    0  0.73146514140E+02  0.14774005752E+03  0.14578304122E+04  0.14698736892E+04  0.89897798891E+02 0.  0.
          4    1    3    3  502    0 -0.99567966013E+02 -0.28680364154E+03  0.18092907446E+04  0.18345852685E+04  0.00000000000E+00 0. -1.
         -3    1    3    3    0  502 -0.26408742013E+02 -0.10773253520E+02  0.13039502846E+03  0.13347789365E+03  0.00000000000E+00 0.  1.
         11    1    5    5    0    0  0.13731063627E+02  0.13439834332E+03 -0.42080469813E+02  0.14149990366E+03  0.00000000000E+00 0. -1.
        -11    1    5    5    0    0  0.39099130259E+02  0.15438494215E+02 -0.43806677130E+02  0.60713376219E+02  0.00000000000E+00 0.  1.
          1    1    6    6  503    0  0.52355021113E+02  0.25094203235E+02  0.64120200178E+03  0.64382511163E+03  0.00000000000E+00 0. -1.
         -1    1    6    6    0  503  0.20791493027E+02  0.12264585429E+03  0.81662841044E+03  0.82604857756E+03  0.00000000000E+00 0.  1.
<mgrwt>
<rscale>  0 0.15112267E+04</rscale>
<asrwt>0</asrwt>
<pdfrwt beam="1">  1        2 0.53475219E+00 0.15112267E+04</pdfrwt>
<pdfrwt beam="2">  1       -1 0.25270856E-01 0.15112267E+04</pdfrwt>
<totfact> 0.12948350E+01</totfact>
</mgrwt>
</event>
<event>
12    6  0.1647231E-007  0.2057721E+04  0.7818608E-02  0.8580100E-01
          2   -1    0    0  501    0  0.00000000000E+00  0.00000000000E+00  0.32775818075E+04  0.32775818075E+04  0.00000000000E+00 0. -1.
         -1   -1    0    0    0  501 -0.00000000000E+00 -0.00000000000E+00 -0.32296798734E+03  0.32296798734E+03  0.00000000000E+00 0.  1.
         24    2    1    2    0    0 -0.49920945922E+03 -0.64102167368E+03  0.92720815132E+03  0.12366295268E+04  0.97050297662E+02 0.  0.
        254    2    1    2    0    0  0.49920945922E+03  0.64102167368E+03  0.20274056688E+04  0.23639202681E+04  0.90422697233E+03 0.  0.
         23    2    4    4    0    0 -0.16786914605E+03  0.27509149547E+03  0.22007267950E+03  0.40090210374E+03  0.91842971680E+02 0.  0.
         23    2    4    4    0    0  0.66707860527E+03  0.36593017821E+03  0.18073329893E+04  0.19630181643E+04  0.89938969385E+02 0.  0.
          4    1    3    3  502    0 -0.51652162227E+02 -0.11249781043E+03  0.11182418740E+03  0.16681832064E+03  0.00000000000E+00 0. -1.
         -3    1    3    3    0  502 -0.44755729699E+03 -0.52852386326E+03  0.81538396392E+03  0.10698112061E+04  0.00000000000E+00 0.  1.
         11    1    5    5    0    0 -0.14025284008E+03  0.23428048569E+03  0.13992510768E+03  0.30681792791E+03  0.00000000000E+00 0. -1.
        -11    1    5    5    0    0 -0.27616305972E+02  0.40811009782E+02  0.80147571812E+02  0.94084175834E+02  0.00000000000E+00 0.  1.
          4    1    6    6  503    0  0.49410673310E+03  0.30374066373E+03  0.14351404844E+04  0.15479108709E+04  0.00000000000E+00 0. -1.
         -4    1    6    6    0  503  0.17297187217E+03  0.62189514478E+02  0.37219250499E+03  0.41510729341E+03  0.00000000000E+00 0.  1.
<mgrwt>
<rscale>  0 0.20577211E+04</rscale>
<asrwt>0</asrwt>
<pdfrwt beam="1">  1        2 0.50424333E+00 0.20577211E+04</pdfrwt>
<pdfrwt beam="2">  1       -1 0.49687385E-01 0.20577211E+04</pdfrwt>
<totfact> 0.49457189E+00</totfact>
</mgrwt>
</event>
<event>
12    6  0.1647231E-007  0.1327388E+04  0.7818608E-02  0.9008123E-01
          4   -1    0    0  501    0  0.00000000000E+00  0.00000000000E+00  0.28192292119E+03  0.28192292119E+03  0.00000000000E+00 0. -1.
         -3   -1    0    0    0  501 -0.00000000000E+00 -0.00000000000E+00 -0.15624484830E+04  0.15624484830E+04  0.00000000000E+00 0.  1.
         24    2    1    2    0    0 -0.11556969672E+03  0.32971767257E+03 -0.49550736286E+03  0.61152748828E+03  0.79801152017E+02 0.  0.
        254    2    1    2    0    0  0.11556969672E+03 -0.32971767257E+03 -0.78501819894E+03  0.12328439159E+04  0.88407038742E+03 0.  0.
         23    2    4    4    0    0 -0.19815752654E+03  0.21248903899E+03 -0.35488144354E+03  0.46741543440E+03  0.90101899714E+02 0.  0.
         23    2    4    4    0    0  0.31372722326E+03 -0.54220671156E+03 -0.43013675541E+03  0.76542848151E+03  0.91925204796E+02 0.  0.
          4    1    3    3  502    0  0.70312596094E+01  0.51267858929E+00 -0.11068414534E+02  0.13122928458E+02  0.00000000000E+00 0. -1.
         -3    1    3    3    0  502 -0.12260095633E+03  0.32920499398E+03 -0.48443894833E+03  0.59840455982E+03  0.00000000000E+00 0.  1.
         11    1    5    5    0    0 -0.93403615879E+02  0.40384433890E+02 -0.13698280778E+03  0.17064415486E+03  0.00000000000E+00 0. -1.
        -11    1    5    5    0    0 -0.10475391066E+03  0.17210460510E+03 -0.21789863576E+03  0.29677127954E+03  0.00000000000E+00 0.  1.
          3    1    6    6  503    0  0.29992621650E+01  0.30776832765E+01 -0.79484419779E+01  0.90357865048E+01  0.00000000000E+00 0. -1.
         -3    1    6    6    0  503  0.31072796109E+03 -0.54528439484E+03 -0.42218831343E+03  0.75639269500E+03  0.00000000000E+00 0.  1.
<mgrwt>
<rscale>  0 0.13273885E+04</rscale>
<asrwt>0</asrwt>
<pdfrwt beam="1">  1        4 0.43372757E-01 0.13273885E+04</pdfrwt>
<pdfrwt beam="2">  1       -3 0.24037669E+00 0.13273885E+04</pdfrwt>
<totfact> 0.96761412E-01</totfact>
</mgrwt>
</event>
<event>
12    6  0.1647231E-007  0.1441683E+04  0.7818608E-02  0.8924187E-01
         -1   -1    0    0    0  501 -0.00000000000E+00  0.00000000000E+00  0.26171901730E+03  0.26171901730E+03  0.00000000000E+00 0.  1.
          2   -1    0    0  501    0  0.00000000000E+00 -0.00000000000E+00 -0.19853820093E+04  0.19853820093E+04  0.00000000000E+00 0. -1.
         24    2    1    2    0    0  0.12222391404E+03 -0.36393995690E+03 -0.83507097815E+03  0.92263682335E+03  0.80772469693E+02 0.  0.
        254    2    1    2    0    0 -0.12222391404E+03  0.36393995690E+03 -0.88859201388E+03  0.13244642033E+04  0.90400148300E+03 0.  0.
         23    2    4    4    0    0 -0.16407304466E+03 -0.27202562160E+03 -0.22186380747E+03  0.39777435866E+03  0.89905442273E+02 0.  0.
         23    2    4    4    0    0  0.41849130621E+02  0.63596557850E+03 -0.66672820641E+03  0.92668984463E+03  0.89576783574E+02 0.  0.
          2    1    3    3  502    0  0.40291684991E+02 -0.17162051003E+03 -0.29690866875E+03  0.34529954666E+03  0.00000000000E+00 0. -1.
         -1    1    3    3    0  502  0.81932229045E+02 -0.19231944687E+03 -0.53816230939E+03  0.57733727669E+03  0.00000000000E+00 0.  1.
         11    1    5    5    0    0 -0.12026507387E+03 -0.24781441317E+03 -0.16131265767E+03  0.31921379183E+03  0.00000000000E+00 0. -1.
        -11    1    5    5    0    0 -0.43807970790E+02 -0.24211208424E+02 -0.60551149802E+02  0.78560566829E+02  0.00000000000E+00 0.  1.
          4    1    6    6  503    0  0.49404697798E+02  0.57549573106E+03 -0.63343186695E+03  0.85724680851E+03  0.00000000000E+00 0. -1.
         -4    1    6    6    0  503 -0.75555671771E+01  0.60469847439E+02 -0.33296339461E+02  0.69443036125E+02  0.00000000000E+00 0.  1.
<mgrwt>
<rscale>  0 0.14416827E+04</rscale>
<asrwt>0</asrwt>
<pdfrwt beam="1">  1        2 0.30544337E+00 0.14416827E+04</pdfrwt>
<pdfrwt beam="2">  1       -1 0.40264466E-01 0.14416827E+04</pdfrwt>
<totfact> 0.45303252E+01</totfact>
</mgrwt>
</event>
<event>
12    6  0.1647231E-007  0.2752989E+04  0.7818608E-02  0.8318014E-01
         -1   -1    0    0    0  501 -0.00000000000E+00  0.00000000000E+00  0.14389180260E+04  0.14389180260E+04  0.00000000000E+00 0.  1.
          2   -1    0    0  501    0  0.00000000000E+00 -0.00000000000E+00 -0.13167788626E+04  0.13167788626E+04  0.00000000000E+00 0. -1.
         24    2    1    2    0    0 -0.89699827849E+03  0.79830451944E+03  0.29747834649E+03  0.12399403860E+04  0.84040329339E+02 0.  0.
        254    2    1    2    0    0  0.89699827849E+03 -0.79830451944E+03 -0.17533918305E+03  0.15157565026E+04  0.90822790563E+03 0.  0.
         23    2    4    4    0    0 -0.25759503747E+02 -0.54549255717E+02  0.23177354300E+03  0.25872783531E+03  0.97887405714E+02 0.  0.
         23    2    4    4    0    0  0.92275778224E+03 -0.74375526372E+03 -0.40711272605E+03  0.12570286673E+04  0.98622926319E+02 0.  0.
          2    1    3    3  502    0 -0.89350735593E+03  0.78420165707E+03  0.29044913492E+03  0.12238007738E+04  0.00000000000E+00 0. -1.
         -1    1    3    3    0  502 -0.34909225604E+01  0.14102862367E+02  0.70292115678E+01  0.16139612217E+02  0.00000000000E+00 0.  1.
         11    1    5    5    0    0 -0.37016899669E+02  0.18282122310E+02  0.83840199941E+02  0.93454084895E+02  0.00000000000E+00 0.  1.
        -11    1    5    5    0    0  0.11257395922E+02 -0.72831378027E+02  0.14793334305E+03  0.16527375041E+03  0.00000000000E+00 0. -1.
          1    1    6    6  503    0  0.36267524852E+03 -0.31148283904E+03 -0.21306002947E+03  0.52340182562E+03  0.00000000000E+00 0. -1.
         -1    1    6    6    0  503  0.56008253372E+03 -0.43227242468E+03 -0.19405269658E+03  0.73362684163E+03  0.00000000000E+00 0.  1.
<mgrwt>
<rscale>  0 0.27529888E+04</rscale>
<asrwt>0</asrwt>
<pdfrwt beam="1">  1        2 0.20258136E+00 0.27529888E+04</pdfrwt>
<pdfrwt beam="2">  1       -1 0.22137200E+00 0.27529888E+04</pdfrwt>
<totfact> 0.17330115E+00</totfact>
</mgrwt>
</event>
<event>
12    6  0.1647231E-007  0.1560219E+04  0.7818608E-02  0.8845367E-01
         -1   -1    0    0    0  501 -0.00000000000E+00  0.00000000000E+00  0.74636749242E+03  0.74636749242E+03  0.00000000000E+00 0.  1.
          2   -1    0    0  501    0  0.00000000000E+00 -0.00000000000E+00 -0.81537698499E+03  0.81537698499E+03  0.00000000000E+00 0. -1.
         24    2    1    2    0    0 -0.15347799813E+03 -0.21548960201E+03  0.42175747815E+03  0.50448413910E+03  0.81446987355E+02 0.  0.
        254    2    1    2    0    0  0.15347799813E+03  0.21548960201E+03 -0.49076697072E+03  0.10572603383E+04  0.89830726310E+03 0.  0.
         23    2    4    4    0    0  0.23755591846E+03  0.52521398159E+03 -0.41275252318E+03  0.71461988525E+03  0.89634782010E+02 0.  0.
         23    2    4    4    0    0 -0.84077920335E+02 -0.30972437958E+03 -0.78014447541E+02  0.34264045307E+03  0.91202730534E+02 0.  0.
          4    1    3    3  502    0 -0.67468478972E+02 -0.10793831823E+03  0.13043877509E+03  0.18225517892E+03  0.00000000000E+00 0. -1.
         -3    1    3    3    0  502 -0.86009519155E+02 -0.10755128378E+03  0.29131870306E+03  0.32222896018E+03  0.00000000000E+00 0.  1.
         11    1    5    5    0    0  0.73390017131E+02  0.21336123449E+03 -0.11496787836E+03  0.25323254935E+03  0.00000000000E+00 0. -1.
        -11    1    5    5    0    0  0.16416590133E+03  0.31185274710E+03 -0.29778464482E+03  0.46138733590E+03  0.00000000000E+00 0.  1.
          3    1    6    6  503    0 -0.85579257088E+02 -0.26091577560E+03 -0.33615749313E+02  0.27664213310E+03  0.00000000000E+00 0. -1.
         -3    1    6    6    0  503  0.15013367533E+01 -0.48808603980E+02 -0.44398698229E+02  0.65998319970E+02  0.00000000000E+00 0.  1.
<mgrwt>
<rscale>  0 0.15602191E+04</rscale>
<asrwt>0</asrwt>
<pdfrwt beam="1">  1        2 0.12544261E+00 0.15602191E+04</pdfrwt>
<pdfrwt beam="2">  1       -1 0.11482577E+00 0.15602191E+04</pdfrwt>
<totfact> 0.25408633E+01</totfact>
</mgrwt>
</event>
<event>
12    6  0.1647231E-007  0.1508350E+04  0.7818608E-02  0.8878919E-01
          2   -1    0    0  501    0  0.00000000000E+00  0.00000000000E+00  0.18845954976E+04  0.18845954976E+04  0.00000000000E+00 0. -1.
         -1   -1    0    0    0  501 -0.00000000000E+00 -0.00000000000E+00 -0.30180488194E+03  0.30180488194E+03  0.00000000000E+00 0.  1.
         24    2    1    2    0    0  0.12495122092E+03  0.35230472444E+03  0.82905000142E+02  0.39146180974E+03  0.81471976583E+02 0.  0.
        254    2    1    2    0    0 -0.12495122092E+03 -0.35230472444E+03  0.14998856155E+04  0.17949385698E+04  0.91236844710E+03 0.  0.
         23    2    4    4    0    0  0.27429840969E+03 -0.46074925269E+03  0.66720378981E+03  0.86075767647E+03  0.90627749886E+02 0.  0.
         23    2    4    4    0    0 -0.39924963061E+03  0.10844452826E+03  0.83268182568E+03  0.93418089331E+03  0.90412584091E+02 0.  0.
          4    1    3    3  502    0 -0.78539984307E+01  0.10855490175E+02 -0.56548399666E+01  0.14543183054E+02  0.00000000000E+00 0. -1.
         -1    1    3    3    0  502  0.13280521935E+03  0.34144923426E+03  0.88559840109E+02  0.37691862669E+03  0.00000000000E+00 0.  1.
         11    1    5    5    0    0  0.28875398212E+02 -0.10833397024E+02  0.29990164718E+02  0.43018148411E+02  0.00000000000E+00 0. -1.
        -11    1    5    5    0    0  0.24542301147E+03 -0.44991585567E+03  0.63721362510E+03  0.81773952806E+03  0.00000000000E+00 0.  1.
          2    1    6    6  503    0 -0.14311709014E+02 -0.45430433473E+01  0.78085139699E+01  0.16924454147E+02  0.00000000000E+00 0. -1.
         -2    1    6    6    0  503 -0.38493792159E+03  0.11298757160E+03  0.82487331171E+03  0.91725643917E+03  0.00000000000E+00 0.  1.
<mgrwt>
<rscale>  0 0.15083503E+04</rscale>
<asrwt>0</asrwt>
<pdfrwt beam="1">  1        2 0.28993776E+00 0.15083503E+04</pdfrwt>
<pdfrwt beam="2">  1       -1 0.46431521E-01 0.15083503E+04</pdfrwt>
<totfact> 0.39343642E+01</totfact>
</mgrwt>
</event>
<event>
12    6  0.1647231E-007  0.2969347E+04  0.7818608E-02  0.8252539E-01
          2   -1    0    0  501    0  0.00000000000E+00  0.00000000000E+00  0.25209878491E+04  0.25209878491E+04  0.00000000000E+00 0. -1.
         -1   -1    0    0    0  501 -0.00000000000E+00 -0.00000000000E+00 -0.87436163900E+03  0.87436163900E+03  0.00000000000E+00 0.  1.
         24    2    1    2    0    0  0.12305782752E+04 -0.13866066324E+03  0.13522028947E+04  0.18354857780E+04  0.83700070610E+02 0.  0.
        254    2    1    2    0    0 -0.12305782752E+04  0.13866066324E+03  0.29442331537E+03  0.15598637101E+04  0.90163187307E+03 0.  0.
         23    2    4    4    0    0 -0.13497122395E+04  0.81938006090E+02  0.32714354789E+03  0.13941715655E+04  0.90854206328E+02 0.  0.
         23    2    4    4    0    0  0.11913396435E+03  0.56722657152E+02 -0.32720232526E+02  0.16569214456E+03  0.94725455154E+02 0.  0.
          4    1    3    3  502    0  0.10433422350E+04 -0.12588940865E+03  0.11025909244E+04  0.15231933262E+04  0.00000000000E+00 0. -1.
         -3    1    3    3    0  502  0.18723604019E+03 -0.12771254588E+02  0.24961197036E+03  0.31229245177E+03  0.00000000000E+00 0.  1.
         11    1    5    5    0    0 -0.44903812017E+03  0.43215817760E+01  0.71565144365E+02  0.45472571879E+03  0.00000000000E+00 0.  1.
        -11    1    5    5    0    0 -0.90067411938E+03  0.77616424314E+02  0.25557840353E+03  0.93944584676E+03  0.00000000000E+00 0. -1.
          3    1    6    6  503    0  0.10176927082E+03  0.21813385049E+02 -0.58071719108E+02  0.11918528773E+03  0.00000000000E+00 0. -1.
         -3    1    6    6    0  503  0.17364693534E+02  0.34909272102E+02  0.25351486582E+02  0.46506856830E+02  0.00000000000E+00 0.  1.
<mgrwt>
<rscale>  0 0.29693468E+04</rscale>
<asrwt>0</asrwt>
<pdfrwt beam="1">  1        2 0.38784428E+00 0.29693468E+04</pdfrwt>
<pdfrwt beam="2">  1       -1 0.13451718E+00 0.29693468E+04</pdfrwt>
<totfact> 0.15345087E+00</totfact>
</mgrwt>
</event>
<event>
12    6  0.1647231E-007  0.2893240E+04  0.7818608E-02  0.8274892E-01
          2   -1    0    0  501    0  0.00000000000E+00  0.00000000000E+00  0.14600331584E+04  0.14600331584E+04  0.00000000000E+00 0. -1.
         -1   -1    0    0    0  501 -0.00000000000E+00 -0.00000000000E+00 -0.14333301893E+04  0.14333301893E+04  0.00000000000E+00 0.  1.
         24    2    1    2    0    0 -0.73923842747E+03 -0.30601665740E+03  0.10448418374E+04  0.13184416195E+04  0.80462361232E+02 0.  0.
        254    2    1    2    0    0  0.73923842747E+03  0.30601665740E+03 -0.10181388683E+04  0.15749217282E+04  0.89646642309E+03 0.  0.
         23    2    4    4    0    0  0.77211608448E+03  0.21444341751E+03 -0.32611041296E+03  0.87017009367E+03  0.93267160599E+02 0.  0.
         23    2    4    4    0    0 -0.32877657013E+02  0.91573239883E+02 -0.69202845530E+03  0.70475163456E+03  0.91131141039E+02 0.  0.
          2    1    3    3  502    0 -0.58011817842E+03 -0.20474647084E+03  0.81491919460E+03  0.10210541180E+04  0.00000000000E+00 0. -1.
         -1    1    3    3    0  502 -0.15912024905E+03 -0.10127018656E+03  0.22992264281E+03  0.29738750145E+03  0.00000000000E+00 0.  1.
         11    1    5    5    0    0  0.41583831931E+03  0.16320375722E+03 -0.18705134224E+03  0.48429864630E+03  0.00000000000E+00 0. -1.
        -11    1    5    5    0    0  0.35627776518E+03  0.51239660291E+02 -0.13905907072E+03  0.38587144737E+03  0.00000000000E+00 0.  1.
          1    1    6    6  503    0 -0.11157647786E+02  0.55230855475E+02 -0.13733504024E+03  0.14844478360E+03  0.00000000000E+00 0. -1.
         -1    1    6    6    0  503 -0.21720009227E+02  0.36342384408E+02 -0.55469341506E+03  0.55630685096E+03  0.00000000000E+00 0.  1.
<mgrwt>
<rscale>  0 0.28932401E+04</rscale>
<asrwt>0</asrwt>
<pdfrwt beam="1">  1        2 0.22462049E+00 0.28932401E+04</pdfrwt>
<pdfrwt beam="2">  1       -1 0.22051234E+00 0.28932401E+04</pdfrwt>
<totfact> 0.14359313E+00</totfact>
</mgrwt>
</event>
<event>
12    6  0.1647231E-007  0.2349394E+04  0.7818608E-02  0.8458697E-01
         -1   -1    0    0    0  501 -0.00000000000E+00  0.00000000000E+00  0.51759435704E+03  0.51759435704E+03  0.00000000000E+00 0.  1.
          2   -1    0    0  501    0  0.00000000000E+00 -0.00000000000E+00 -0.26660118017E+04  0.26660118017E+04  0.00000000000E+00 0. -1.
         24    2    1    2    0    0 -0.38791327420E+03 -0.84856214031E+03 -0.14288625102E+04  0.17083043240E+04  0.78237945859E+02 0.  0.
        254    2    1    2    0    0  0.38791327420E+03  0.84856214031E+03 -0.71955493444E+03  0.14753018347E+04  0.88781855437E+03 0.  0.
         23    2    4    4    0    0  0.25850243776E+03  0.86043752348E+02  0.13578901475E+03  0.31858746232E+03  0.93980194580E+02 0.  0.
         23    2    4    4    0    0  0.12941083644E+03  0.76251838796E+03 -0.85534394920E+03  0.11567143724E+04  0.90517463836E+02 0.  0.
          2    1    3    3  502    0 -0.18011047027E+03 -0.47032158116E+03 -0.81072353474E+03  0.95441857745E+03  0.00000000000E+00 0. -1.
         -1    1    3    3    0  502 -0.20780280393E+03 -0.37824055915E+03 -0.61813897544E+03  0.75388574656E+03  0.00000000000E+00 0.  1.
         11    1    5    5    0    0  0.34325086685E+02  0.47303732793E+02  0.12273917443E+02  0.59720212336E+02  0.00000000000E+00 0. -1.
        -11    1    5    5    0    0  0.22417735107E+03  0.38740019554E+02  0.12351509731E+03  0.25886724998E+03  0.00000000000E+00 0.  1.
          2    1    6    6  503    0  0.75059161094E+02  0.64119349074E+03 -0.71866068857E+03  0.96604148748E+03  0.00000000000E+00 0.  1.
         -2    1    6    6    0  503  0.54351675348E+02  0.12132489722E+03 -0.13668326062E+03  0.19067288489E+03  0.00000000000E+00 0. -1.
<mgrwt>
<rscale>  0 0.23493937E+04</rscale>
<asrwt>0</asrwt>
<pdfrwt beam="1">  1        2 0.41015567E+00 0.23493937E+04</pdfrwt>
<pdfrwt beam="2">  1       -1 0.79629900E-01 0.23493937E+04</pdfrwt>
<totfact> 0.45024343E+00</totfact>
</mgrwt>
</event>
<event>
12    6  0.1647231E-007  0.2460131E+04  0.7818608E-02  0.8417328E-01
         -3   -1    0    0    0  501 -0.00000000000E+00  0.00000000000E+00  0.59627865716E+03  0.59627865716E+03  0.00000000000E+00 0.  1.
          2   -1    0    0  501    0  0.00000000000E+00 -0.00000000000E+00 -0.25375076964E+04  0.25375076964E+04  0.00000000000E+00 0. -1.
         24    2    1    2    0    0  0.15983900211E+03 -0.17289795441E+03 -0.21693531748E+04  0.21835220223E+04  0.78949450826E+02 0.  0.
        254    2    1    2    0    0 -0.15983900211E+03  0.17289795441E+03  0.22812413554E+03  0.95026433124E+03  0.89191898107E+03 0.  0.
         23    2    4    4    0    0 -0.12658626779E+03  0.50747283600E+03  0.27647164450E+03  0.59858685597E+03  0.91196992601E+02 0.  0.
         23    2    4    4    0    0 -0.33252734323E+02 -0.33457488159E+03 -0.48347508959E+02  0.35167747527E+03  0.91068486639E+02 0.  0.
          2    1    3    3  502    0  0.13847688136E+03 -0.17327213776E+03 -0.20727562593E+04  0.20845905092E+04  0.00000000000E+00 0. -1.
         -1    1    3    3    0  502  0.21362120753E+02  0.37418335225E+00 -0.96596915454E+02  0.98931513137E+02  0.00000000000E+00 0.  1.
         11    1    5    5    0    0 -0.10911375942E+03  0.49520394568E+03  0.25244854294E+03  0.56644772675E+03  0.00000000000E+00 0.  1.
        -11    1    5    5    0    0 -0.17472508372E+02  0.12268890323E+02  0.24023101559E+02  0.32139129221E+02  0.00000000000E+00 0. -1.
          4    1    6    6  503    0  0.19822795324E+02 -0.85345391181E+02 -0.41044734458E+02  0.96754582511E+02  0.00000000000E+00 0. -1.
         -4    1    6    6    0  503 -0.53075529646E+02 -0.24922949041E+03 -0.73027745012E+01  0.25492289276E+03  0.00000000000E+00 0.  1.
<mgrwt>
<rscale>  0 0.24601314E+04</rscale>
<asrwt>0</asrwt>
<pdfrwt beam="1">  1        2 0.39038580E+00 0.24601314E+04</pdfrwt>
<pdfrwt beam="2">  1       -3 0.91735177E-01 0.24601314E+04</pdfrwt>
<totfact> 0.20221257E+00</totfact>
</mgrwt>
</event>
<event>
12    6  0.1647231E-007  0.2729147E+04  0.7818608E-02  0.8325609E-01
         -3   -1    0    0    0  501 -0.00000000000E+00  0.00000000000E+00  0.12667035509E+04  0.12667035509E+04  0.00000000000E+00 0.  1.
          2   -1    0    0  501    0  0.00000000000E+00 -0.00000000000E+00 -0.14700048125E+04  0.14700048125E+04  0.00000000000E+00 0. -1.
         24    2    1    2    0    0 -0.85654674359E+02 -0.11862339584E+04 -0.34717528623E+03  0.12415649811E+04  0.80406440982E+02 0.  0.
        254    2    1    2    0    0  0.85654674359E+02  0.11862339584E+04  0.14387402459E+03  0.14951433823E+04  0.89457602891E+03 0.  0.
         23    2    4    4    0    0 -0.64166199177E+02  0.83785003458E+02  0.33423281967E+03  0.36270604401E+03  0.93310603337E+02 0.  0.
         23    2    4    4    0    0  0.14982087354E+03  0.11024489549E+04 -0.19035879508E+03  0.11324373383E+04  0.91311894051E+02 0.  0.
          4    1    3    3  502    0 -0.62264960803E+02 -0.10299365479E+04 -0.32613750923E+03  0.10821330292E+04  0.00000000000E+00 0. -1.
         -3    1    3    3    0  502 -0.23389713555E+02 -0.15629741048E+03 -0.21037776995E+02  0.15943195190E+03  0.00000000000E+00 0.  1.
         11    1    5    5    0    0 -0.54927926317E+02  0.10429437186E+03  0.29110767713E+03  0.31406698772E+03  0.00000000000E+00 0.  1.
        -11    1    5    5    0    0 -0.92382728596E+01 -0.20509368402E+02  0.43125142534E+02  0.48639056285E+02  0.00000000000E+00 0. -1.
          2    1    6    6  503    0  0.85871982010E+02  0.33400028281E+03 -0.45636104641E+02  0.34786899870E+03  0.00000000000E+00 0. -1.
         -2    1    6    6    0  503  0.63948891526E+02  0.76844867211E+03 -0.14472269044E+03  0.78456833962E+03  0.00000000000E+00 0.  1.
<mgrwt>
<rscale>  0 0.27291466E+04</rscale>
<asrwt>0</asrwt>
<pdfrwt beam="1">  1        2 0.22615459E+00 0.27291466E+04</pdfrwt>
<pdfrwt beam="2">  1       -3 0.19487747E+00 0.27291466E+04</pdfrwt>
<totfact> 0.11518482E+00</totfact>
</mgrwt>
</event>
<event>
12    6  0.1647231E-007  0.2229283E+04  0.7818608E-02  0.8506338E-01
          2   -1    0    0  501    0  0.00000000000E+00  0.00000000000E+00  0.19887143046E+04  0.19887143046E+04  0.00000000000E+00 0. -1.
         -1   -1    0    0    0  501 -0.00000000000E+00 -0.00000000000E+00 -0.62473821960E+03  0.62473821960E+03  0.00000000000E+00 0.  1.
         24    2    1    2    0    0 -0.80339659696E+03 -0.36866298870E+03  0.23663452386E+03  0.91869260352E+03  0.81496690956E+02 0.  0.
        254    2    1    2    0    0  0.80339659696E+03  0.36866298870E+03  0.11273415611E+04  0.16947599207E+04  0.90551294967E+03 0.  0.
         23    2    4    4    0    0 -0.13366175049E+03  0.25988472275E+03  0.38133069072E+03  0.48880634105E+03  0.90072252674E+02 0.  0.
         23    2    4    4    0    0  0.93705834746E+03  0.10877826595E+03  0.74601087041E+03  0.12059535796E+04  0.88773643352E+02 0.  0.
          2    1    3    3  502    0 -0.22585853978E+03 -0.92139787368E+02  0.10183357215E+03  0.26433292800E+03  0.00000000000E+00 0. -1.
         -1    1    3    3    0  502 -0.57753805719E+03 -0.27652320133E+03  0.13480095171E+03  0.65435967553E+03  0.00000000000E+00 0.  1.
         11    1    5    5    0    0 -0.10220226263E+03  0.13466579241E+03  0.26877630411E+03  0.31752303820E+03  0.00000000000E+00 0. -1.
        -11    1    5    5    0    0 -0.31459487862E+02  0.12521893034E+03  0.11255438660E+03  0.17128330285E+03  0.00000000000E+00 0.  1.
          1    1    6    6  503    0  0.57042628406E+03  0.10923657662E+03  0.46561755739E+03  0.74439135202E+03  0.00000000000E+00 0. -1.
         -1    1    6    6    0  503  0.36663206340E+03 -0.45831067324E+00  0.28039331302E+03  0.46156222760E+03  0.00000000000E+00 0.  1.
<mgrwt>
<rscale>  0 0.22292831E+04</rscale>
<asrwt>0</asrwt>
<pdfrwt beam="1">  1        2 0.30595604E+00 0.22292831E+04</pdfrwt>
<pdfrwt beam="2">  1       -1 0.96113573E-01 0.22292831E+04</pdfrwt>
<totfact> 0.73373637E+00</totfact>
</mgrwt>
</event>
<event>
12    6  0.1647231E-007  0.1945117E+04  0.7818608E-02  0.8632719E-01
         -1   -1    0    0    0  501 -0.00000000000E+00  0.00000000000E+00  0.93121634838E+03  0.93121634838E+03  0.00000000000E+00 0.  1.
          2   -1    0    0  501    0  0.00000000000E+00 -0.00000000000E+00 -0.10157365218E+04  0.10157365218E+04  0.00000000000E+00 0. -1.
         24    2    1    2    0    0  0.20690365065E+03 -0.13938746084E+03  0.68647920211E+03  0.73448871759E+03  0.77343367217E+02 0.  0.
        254    2    1    2    0    0 -0.20690365065E+03  0.13938746084E+03 -0.77099937550E+03  0.12124641526E+04  0.90188208726E+03 0.  0.
         23    2    4    4    0    0  0.52183857935E+02 -0.22234904755E+02  0.18054633008E+03  0.20939678186E+03  0.89624153730E+02 0.  0.
         23    2    4    4    0    0 -0.25908750859E+03  0.16162236560E+03 -0.95154570558E+03  0.10030673707E+04  0.86352731181E+02 0.  0.
          2    1    3    3  502    0  0.63421890820E+02 -0.31437146784E+02  0.11101232936E+03  0.13166004596E+03  0.00000000000E+00 0. -1.
         -1    1    3    3    0  502  0.14348175983E+03 -0.10795031406E+03  0.57546687275E+03  0.60282867163E+03  0.00000000000E+00 0.  1.
         11    1    5    5    0    0  0.57450329705E+02 -0.46686996901E+02  0.16245573693E+03  0.17852753996E+03  0.00000000000E+00 0. -1.
        -11    1    5    5    0    0 -0.52664717697E+01  0.24452092147E+02  0.18090593148E+02  0.30869241903E+02  0.00000000000E+00 0.  1.
          4    1    6    6  503    0 -0.23384097539E+03  0.15833025053E+03 -0.92088955383E+03  0.96321733807E+03  0.00000000000E+00 0. -1.
         -4    1    6    6    0  503 -0.25246533203E+02  0.32921150681E+01 -0.30656151746E+02  0.39850032625E+02  0.00000000000E+00 0.  1.
<mgrwt>
<rscale>  0 0.19451174E+04</rscale>
<asrwt>0</asrwt>
<pdfrwt beam="1">  1        2 0.15626716E+00 0.19451174E+04</pdfrwt>
<pdfrwt beam="2">  1       -1 0.14326405E+00 0.19451174E+04</pdfrwt>
<totfact> 0.10335059E+01</totfact>
</mgrwt>
</event>
<event>
12    6  0.1647231E-007  0.1403128E+04  0.7818608E-02  0.8951557E-01
         -1   -1    0    0    0  501 -0.00000000000E+00  0.00000000000E+00  0.68180802171E+03  0.68180802171E+03  0.00000000000E+00 0.  1.
          2   -1    0    0  501    0  0.00000000000E+00 -0.00000000000E+00 -0.72189264728E+03  0.72189264728E+03  0.00000000000E+00 0. -1.
         24    2    1    2    0    0  0.36729206127E+02  0.37667551859E+03 -0.14993719129E+03  0.41696964764E+03  0.90272060117E+02 0.  0.
        254    2    1    2    0    0 -0.36729206127E+02 -0.37667551859E+03  0.10985256572E+03  0.98673102135E+03  0.90461983254E+03 0.  0.
         23    2    4    4    0    0 -0.13149240420E+03  0.22839245160E+03  0.22179205553E+03  0.35629100006E+03  0.91094437354E+02 0.  0.
         23    2    4    4    0    0  0.94763198071E+02 -0.60506797019E+03 -0.11193948981E+03  0.63044002129E+03  0.99180939760E+02 0.  0.
          2    1    3    3  502    0  0.23597528482E+02  0.37358204348E+03 -0.15054407852E+03  0.40346487596E+03  0.00000000000E+00 0. -1.
         -1    1    3    3    0  502  0.13131677645E+02  0.30934751079E+01  0.60688722399E+00  0.13504771679E+02  0.00000000000E+00 0.  1.
         11    1    5    5    0    0 -0.40116418485E+02  0.15875350065E+03  0.13709139419E+03  0.21355573362E+03  0.00000000000E+00 0. -1.
        -11    1    5    5    0    0 -0.91375985713E+02  0.69638950955E+02  0.84700661340E+02  0.14273526644E+03  0.00000000000E+00 0.  1.
          4    1    6    6  503    0  0.37426760129E+01 -0.25261549946E+03 -0.11878876362E+02  0.25292233175E+03  0.00000000000E+00 0. -1.
         -4    1    6    6    0  503  0.91020522058E+02 -0.35245247072E+03 -0.10006061345E+03  0.37751768954E+03  0.00000000000E+00 0.  1.
<mgrwt>
<rscale>  0 0.14031282E+04</rscale>
<asrwt>0</asrwt>
<pdfrwt beam="1">  1        2 0.11106041E+00 0.14031282E+04</pdfrwt>
<pdfrwt beam="2">  1       -1 0.10489354E+00 0.14031282E+04</pdfrwt>
<totfact> 0.37378867E+01</totfact>
</mgrwt>
</event>
<event>
12    6  0.1647231E-007  0.1298068E+04  0.7818608E-02  0.9031099E-01
         -1   -1    0    0    0  501 -0.00000000000E+00  0.00000000000E+00  0.33530848533E+03  0.33530848533E+03  0.00000000000E+00 0.  1.
          2   -1    0    0  501    0  0.00000000000E+00 -0.00000000000E+00 -0.12562912534E+04  0.12562912534E+04  0.00000000000E+00 0. -1.
         24    2    1    2    0    0 -0.53944458194E+02  0.24159599191E+03  0.20370093791E+02  0.25982385619E+03  0.76255279448E+02 0.  0.
        254    2    1    2    0    0  0.53944458194E+02 -0.24159599191E+03 -0.94135286186E+03  0.13317758825E+04  0.90895718430E+03 0.  0.
         23    2    4    4    0    0  0.36144371711E+03 -0.28979804815E+03 -0.88382945869E+03  0.10020875406E+04  0.91654010087E+02 0.  0.
         23    2    4    4    0    0 -0.30749925891E+03  0.48202056232E+02 -0.57523403167E+02  0.32968834197E+03  0.92229216950E+02 0.  0.
          4    1    3    3  502    0 -0.25626247244E+02  0.11311659074E+03 -0.28574831061E+02  0.11945119764E+03  0.00000000000E+00 0. -1.
         -3    1    3    3    0  502 -0.28318210950E+02  0.12847940117E+03  0.48944924852E+02  0.14037265854E+03  0.00000000000E+00 0.  1.
         11    1    5    5    0    0  0.34368552254E+03 -0.26224018994E+03 -0.85645564147E+03  0.95937788250E+03  0.00000000000E+00 0. -1.
        -11    1    5    5    0    0  0.17758194572E+02 -0.27557858203E+02 -0.27373817224E+02  0.42709658072E+02  0.00000000000E+00 0.  1.
          3    1    6    6  503    0 -0.23613851159E+03  0.56508362172E+02 -0.89582996128E+01  0.24297086818E+03  0.00000000000E+00 0. -1.
         -3    1    6    6    0  503 -0.71360747323E+02 -0.83063059396E+01 -0.48565103555E+02  0.86717473788E+02  0.00000000000E+00 0.  1.
<mgrwt>
<rscale>  0 0.12980680E+04</rscale>
<asrwt>0</asrwt>
<pdfrwt beam="1">  1        2 0.19327558E+00 0.12980680E+04</pdfrwt>
<pdfrwt beam="2">  1       -1 0.51585921E-01 0.12980680E+04</pdfrwt>
<totfact> 0.74087419E+01</totfact>
</mgrwt>
</event>
<event>
12    6  0.1647231E-007  0.2420549E+04  0.7818608E-02  0.8431850E-01
         -1   -1    0    0    0  501 -0.00000000000E+00  0.00000000000E+00  0.80583794731E+03  0.80583794731E+03  0.00000000000E+00 0.  1.
          2   -1    0    0  501    0  0.00000000000E+00 -0.00000000000E+00 -0.18176907698E+04  0.18176907698E+04  0.00000000000E+00 0. -1.
         24    2    1    2    0    0 -0.17673502470E+03 -0.78993886451E+03  0.28165858599E+03  0.86113789916E+03  0.83595715732E+02 0.  0.
        254    2    1    2    0    0  0.17673502470E+03  0.78993886451E+03 -0.12935114085E+04  0.17623908180E+04  0.88182251770E+03 0.  0.
         23    2    4    4    0    0  0.43273130627E+03  0.78479832099E+03 -0.83006859751E+03  0.12250047994E+04  0.91967896357E+02 0.  0.
         23    2    4    4    0    0 -0.25599628157E+03  0.51405435196E+01 -0.46344281099E+03  0.53738601855E+03  0.91891090497E+02 0.  0.
          2    1    3    3  502    0 -0.34655657307E+02 -0.86097817290E+02  0.56361349108E+02  0.10858384041E+03  0.00000000000E+00 0. -1.
         -1    1    3    3    0  502 -0.14207936739E+03 -0.70384104722E+03  0.22529723689E+03  0.75255405875E+03  0.00000000000E+00 0.  1.
         11    1    5    5    0    0  0.56999794832E+02  0.50968232753E+02 -0.68879980133E+02  0.10291350263E+03  0.00000000000E+00 0.  1.
        -11    1    5    5    0    0  0.37573151144E+03  0.73383008824E+03 -0.76118861738E+03  0.11220912968E+04  0.00000000000E+00 0. -1.
          4    1    6    6  503    0 -0.18262304184E+03 -0.32740911808E+02 -0.36026668055E+03  0.40523477619E+03  0.00000000000E+00 0. -1.
         -4    1    6    6    0  503 -0.73373239728E+02  0.37881455327E+02 -0.10317613043E+03  0.13215124236E+03  0.00000000000E+00 0.  1.
<mgrwt>
<rscale>  0 0.24205489E+04</rscale>
<asrwt>0</asrwt>
<pdfrwt beam="1">  1        2 0.27964473E+00 0.24205489E+04</pdfrwt>
<pdfrwt beam="2">  1       -1 0.12397507E+00 0.24205489E+04</pdfrwt>
<totfact> 0.49240576E+00</totfact>
</mgrwt>
</event>
<event>
12    6  0.1647231E-007  0.1364016E+04  0.7818608E-02  0.8980285E-01
          2   -1    0    0  501    0  0.00000000000E+00  0.00000000000E+00  0.93701119121E+03  0.93701119121E+03  0.00000000000E+00 0. -1.
         -1   -1    0    0    0  501 -0.00000000000E+00 -0.00000000000E+00 -0.49640276388E+03  0.49640276388E+03  0.00000000000E+00 0.  1.
         24    2    1    2    0    0  0.64567048982E+02 -0.24249245724E+03  0.41543007052E+03  0.49187783838E+03  0.79938531150E+02 0.  0.
        254    2    1    2    0    0 -0.64567048982E+02  0.24249245724E+03  0.25178356807E+02  0.94153611672E+03  0.90712998727E+03 0.  0.
         23    2    4    4    0    0 -0.31072654595E+03 -0.92423822884E+02 -0.26338153599E+03  0.42726719321E+03  0.89968169361E+02 0.  0.
         23    2    4    4    0    0  0.24615949697E+03  0.33491628012E+03  0.28855989280E+03  0.51426892350E+03  0.91881996658E+02 0.  0.
          2    1    3    3  502    0  0.24138116253E+02 -0.16108534554E+03  0.19917164696E+03  0.25729454358E+03  0.00000000000E+00 0. -1.
         -1    1    3    3    0  502  0.40428932729E+02 -0.81407111702E+02  0.21625842357E+03  0.23458329480E+03  0.00000000000E+00 0.  1.
         11    1    5    5    0    0 -0.86826231480E+02 -0.33126433006E+02 -0.28048371420E+02  0.97071448820E+02  0.00000000000E+00 0.  1.
        -11    1    5    5    0    0 -0.22390031447E+03 -0.59297389878E+02 -0.23533316457E+03  0.33019574439E+03  0.00000000000E+00 0. -1.
          2    1    6    6  503    0  0.46997155873E+01  0.21772158502E+02 -0.36747983621E+01  0.22574728247E+02  0.00000000000E+00 0.  1.
         -2    1    6    6    0  503  0.24145978138E+03  0.31314412162E+03  0.29223469116E+03  0.49169419526E+03  0.00000000000E+00 0. -1.
<mgrwt>
<rscale>  0 0.13640160E+04</rscale>
<asrwt>0</asrwt>
<pdfrwt beam="1">  1        2 0.14415557E+00 0.13640160E+04</pdfrwt>
<pdfrwt beam="2">  1       -1 0.76369656E-01 0.13640160E+04</pdfrwt>
<totfact> 0.53090224E+01</totfact>
</mgrwt>
</event>
<event>
12    6  0.1647231E-007  0.1460886E+04  0.7818608E-02  0.8910888E-01
         -1   -1    0    0    0  501 -0.00000000000E+00  0.00000000000E+00  0.95315456926E+03  0.95315456926E+03  0.00000000000E+00 0.  1.
          2   -1    0    0  501    0  0.00000000000E+00 -0.00000000000E+00 -0.55976968563E+03  0.55976968563E+03  0.00000000000E+00 0. -1.
         24    2    1    2    0    0  0.69497740950E+02 -0.22582707682E+03 -0.27472151935E+03  0.37125650198E+03  0.80818762976E+02 0.  0.
        254    2    1    2    0    0 -0.69497740950E+02  0.22582707682E+03  0.66810640298E+03  0.11416677529E+04  0.89510406529E+03 0.  0.
         23    2    4    4    0    0  0.36101477672E+03 -0.51612648641E+02  0.14397506083E+03  0.40347594021E+03  0.95228575959E+02 0.  0.
         23    2    4    4    0    0 -0.43051251767E+03  0.27743972546E+03  0.52413134216E+03  0.73819181269E+03  0.88880027917E+02 0.  0.
          4    1    3    3  502    0  0.46353932481E+02 -0.21061042659E+03 -0.26553772962E+03  0.34207561255E+03  0.00000000000E+00 0. -1.
         -3    1    3    3    0  502  0.23143808469E+02 -0.15216650222E+02 -0.91837897281E+01  0.29180889435E+02  0.00000000000E+00 0.  1.
         11    1    5    5    0    0  0.13467359394E+03 -0.63411460197E+02  0.74241616864E+02  0.16634244156E+03  0.00000000000E+00 0. -1.
        -11    1    5    5    0    0  0.22634118278E+03  0.11798811556E+02  0.69733443963E+02  0.23713349865E+03  0.00000000000E+00 0.  1.
          4    1    6    6  503    0 -0.36690142837E+03  0.19588542611E+03  0.43205651804E+03  0.59971709421E+03  0.00000000000E+00 0. -1.
         -4    1    6    6    0  503 -0.63611089298E+02  0.81554299343E+02  0.92074824119E+02  0.13847471849E+03  0.00000000000E+00 0.  1.
<mgrwt>
<rscale>  0 0.14608861E+04</rscale>
<asrwt>0</asrwt>
<pdfrwt beam="1">  1        2 0.86118413E-01 0.14608861E+04</pdfrwt>
<pdfrwt beam="2">  1       -1 0.14663916E+00 0.14608861E+04</pdfrwt>
<totfact> 0.22141759E+01</totfact>
</mgrwt>
</event>
<event>
12    6  0.1647231E-007  0.1676578E+04  0.7818608E-02  0.8774837E-01
         -1   -1    0    0    0  501 -0.00000000000E+00  0.00000000000E+00  0.61685588370E+03  0.61685588370E+03  0.00000000000E+00 0.  1.
          2   -1    0    0  501    0  0.00000000000E+00 -0.00000000000E+00 -0.11392101630E+04  0.11392101630E+04  0.00000000000E+00 0. -1.
         24    2    1    2    0    0 -0.58241354806E+03 -0.13871515178E+03 -0.18639985968E+03  0.63234520286E+03  0.81658518181E+02 0.  0.
        254    2    1    2    0    0  0.58241354806E+03  0.13871515178E+03 -0.33595441961E+03  0.11237208438E+04  0.88962673550E+03 0.  0.
         23    2    4    4    0    0 -0.49321051022E+02 -0.20189931927E+03 -0.33085455386E+03  0.40013856020E+03  0.86314716924E+02 0.  0.
         23    2    4    4    0    0  0.63173459908E+03  0.34061447105E+03 -0.50998657571E+01  0.72358228364E+03  0.91861259498E+02 0.  0.
          2    1    3    3  502    0 -0.53507399945E+03 -0.10825055988E+03 -0.15325720905E+03  0.56701864231E+03  0.00000000000E+00 0. -1.
         -1    1    3    3    0  502 -0.47339548611E+02 -0.30464591897E+02 -0.33142650633E+02  0.65326560549E+02  0.00000000000E+00 0.  1.
         11    1    5    5    0    0  0.16687667934E+01 -0.15699063842E+03 -0.23635666875E+03  0.28374869197E+03  0.00000000000E+00 0. -1.
        -11    1    5    5    0    0 -0.50989817816E+02 -0.44908680846E+02 -0.94497885109E+02  0.11638986823E+03  0.00000000000E+00 0.  1.
          2    1    6    6  503    0  0.26002088147E+03  0.17982111137E+03  0.27106035569E+02  0.31730305397E+03  0.00000000000E+00 0. -1.
         -2    1    6    6    0  503  0.37171371761E+03  0.16079335968E+03 -0.32205901327E+02  0.40627922967E+03  0.00000000000E+00 0.  1.
<mgrwt>
<rscale>  0 0.16765781E+04</rscale>
<asrwt>0</asrwt>
<pdfrwt beam="1">  1        2 0.17526310E+00 0.16765781E+04</pdfrwt>
<pdfrwt beam="2">  1       -1 0.94900906E-01 0.16765781E+04</pdfrwt>
<totfact> 0.24054488E+01</totfact>
</mgrwt>
</event>
<event>
12    6  0.1647231E-007  0.2089441E+04  0.7818608E-02  0.8565909E-01
         -1   -1    0    0    0  501 -0.00000000000E+00  0.00000000000E+00  0.50342623794E+03  0.50342623794E+03  0.00000000000E+00 0.  1.
          2   -1    0    0  501    0  0.00000000000E+00 -0.00000000000E+00 -0.21680254462E+04  0.21680254462E+04  0.00000000000E+00 0. -1.
         24    2    1    2    0    0  0.55618720380E+03 -0.88023642268E+02  0.13213948006E+03  0.58395100416E+03  0.80284281201E+02 0.  0.
        254    2    1    2    0    0 -0.55618720380E+03  0.88023642268E+02 -0.17967386883E+04  0.20875006800E+04  0.90127510095E+03 0.  0.
         23    2    4    4    0    0 -0.64493270700E+03 -0.18497377442E+02 -0.62126393338E+03  0.90026144853E+03  0.90672218789E+02 0.  0.
         23    2    4    4    0    0  0.88745503200E+02  0.10652101971E+03 -0.11754747549E+04  0.11872392315E+04  0.92593743026E+02 0.  0.
          4    1    3    3  502    0  0.75142485250E+02  0.14992781454E+02  0.12189683153E+02  0.77587144300E+02  0.00000000000E+00 0. -1.
         -3    1    3    3    0  502  0.48104471855E+03 -0.10301642372E+03  0.11994979690E+03  0.50636385986E+03  0.00000000000E+00 0.  1.
         11    1    5    5    0    0 -0.32507658101E+03 -0.15470691710E+02 -0.25120137480E+03  0.41111586752E+03  0.00000000000E+00 0.  1.
        -11    1    5    5    0    0 -0.31985612598E+03 -0.30266857315E+01 -0.37006255859E+03  0.48914558101E+03  0.00000000000E+00 0. -1.
          1    1    6    6  503    0  0.63252678938E+02  0.11385297828E+03 -0.10897137928E+04  0.10974696134E+04  0.00000000000E+00 0. -1.
         -1    1    6    6    0  503  0.25492824261E+02 -0.73319585710E+01 -0.85760962158E+02  0.89769618110E+02  0.00000000000E+00 0.  1.
<mgrwt>
<rscale>  0 0.20894410E+04</rscale>
<asrwt>0</asrwt>
<pdfrwt beam="1">  1        2 0.33354238E+00 0.20894410E+04</pdfrwt>
<pdfrwt beam="2">  1       -1 0.77450190E-01 0.20894410E+04</pdfrwt>
<totfact> 0.94416742E+00</totfact>
</mgrwt>
</event>
<event>
12    6  0.1647231E-007  0.2017366E+04  0.7818608E-02  0.8598544E-01
         -1   -1    0    0    0  501 -0.00000000000E+00  0.00000000000E+00  0.46656011660E+03  0.46656011660E+03  0.00000000000E+00 0.  1.
          2   -1    0    0  501    0  0.00000000000E+00 -0.00000000000E+00 -0.21807302457E+04  0.21807302457E+04  0.00000000000E+00 0. -1.
         24    2    1    2    0    0  0.43541318971E+03  0.67529234286E+03 -0.67681214763E+03  0.10527630491E+04  0.68051158874E+02 0.  0.
        254    2    1    2    0    0 -0.43541318971E+03 -0.67529234286E+03 -0.10373579815E+04  0.15945273133E+04  0.90598089209E+03 0.  0.
         23    2    4    4    0    0 -0.14809204277E+03 -0.78734801026E+03 -0.97154492469E+03  0.12626065693E+04  0.91802318988E+02 0.  0.
         23    2    4    4    0    0 -0.28732114694E+03  0.11205566740E+03 -0.65813056808E+02  0.33192074394E+03  0.10358623333E+03 0.  0.
          4    1    3    3  502    0  0.51496700079E+02  0.57836384889E+02 -0.45274674578E+02  0.89703699445E+02  0.00000000000E+00 0. -1.
         -3    1    3    3    0  502  0.38391648963E+03  0.61745595797E+03 -0.63153747305E+03  0.96305934963E+03  0.00000000000E+00 0.  1.
         11    1    5    5    0    0 -0.94734528591E+02 -0.27279697272E+03 -0.33141266098E+03  0.43957612662E+03  0.00000000000E+00 0. -1.
        -11    1    5    5    0    0 -0.53357514180E+02 -0.51455103754E+03 -0.64013226371E+03  0.82303044269E+03  0.00000000000E+00 0.  1.
          3    1    6    6  503    0 -0.18043307113E+03  0.11970988810E+03 -0.28259201155E+02  0.21836925818E+03  0.00000000000E+00 0. -1.
         -3    1    6    6    0  503 -0.10688807581E+03 -0.76542206992E+01 -0.37553855653E+02  0.11355148577E+03  0.00000000000E+00 0.  1.
<mgrwt>
<rscale>  0 0.20173664E+04</rscale>
<asrwt>0</asrwt>
<pdfrwt beam="1">  1        2 0.33549696E+00 0.20173664E+04</pdfrwt>
<pdfrwt beam="2">  1       -1 0.71778480E-01 0.20173664E+04</pdfrwt>
<totfact> 0.10955010E+01</totfact>
</mgrwt>
</event>
<event>
12    6  0.1647231E-007  0.2612366E+04  0.7818608E-02  0.8364013E-01
         -1   -1    0    0    0  501 -0.00000000000E+00  0.00000000000E+00  0.49511443360E+03  0.49511443360E+03  0.00000000000E+00 0.  1.
          2   -1    0    0  501    0  0.00000000000E+00 -0.00000000000E+00 -0.34458979685E+04  0.34458979685E+04  0.00000000000E+00 0. -1.
         24    2    1    2    0    0  0.10856767810E+03  0.51266795734E+03 -0.28286458207E+04  0.28779104842E+04  0.80722991016E+02 0.  0.
        254    2    1    2    0    0 -0.10856767810E+03 -0.51266795734E+03 -0.12213771424E+03  0.10631019179E+04  0.91687114215E+03 0.  0.
         23    2    4    4    0    0 -0.31708699007E+02 -0.46865126933E+03  0.33790228380E+03  0.58619502944E+03  0.93846711782E+02 0.  0.
         23    2    4    4    0    0 -0.76858979097E+02 -0.44016688017E+02 -0.46003999804E+03  0.47690688842E+03  0.89211035941E+02 0.  0.
          4    1    3    3  502    0  0.89041203088E+02  0.34037330200E+03 -0.17002558170E+04  0.17362753710E+04  0.00000000000E+00 0. -1.
         -1    1    3    3    0  502  0.19526475016E+02  0.17229465534E+03 -0.11283900036E+04  0.11416351133E+04  0.00000000000E+00 0.  1.
         11    1    5    5    0    0 -0.32882693737E+02 -0.10063281202E+03  0.11323379131E+03  0.15501653427E+03  0.00000000000E+00 0. -1.
        -11    1    5    5    0    0  0.11739947306E+01 -0.36801845731E+03  0.22466849249E+03  0.43117849518E+03  0.00000000000E+00 0.  1.
          2    1    6    6  503    0 -0.29911435352E+02 -0.53105952375E+02 -0.13190843502E+03  0.14530922673E+03  0.00000000000E+00 0. -1.
         -2    1    6    6    0  503 -0.46947543745E+02  0.90892643584E+01 -0.32813156302E+03  0.33159766169E+03  0.00000000000E+00 0.  1.
<mgrwt>
<rscale>  0 0.26123658E+04</rscale>
<asrwt>0</asrwt>
<pdfrwt beam="1">  1        2 0.53013817E+00 0.26123658E+04</pdfrwt>
<pdfrwt beam="2">  1       -1 0.76171448E-01 0.26123658E+04</pdfrwt>
<totfact> 0.15424097E+00</totfact>
</mgrwt>
</event>
<event>
12    6  0.1647231E-007  0.1436795E+04  0.7818608E-02  0.8927607E-01
          2   -1    0    0  501    0  0.00000000000E+00  0.00000000000E+00  0.25332382943E+04  0.25332382943E+04  0.00000000000E+00 0. -1.
         -1   -1    0    0    0  501 -0.00000000000E+00 -0.00000000000E+00 -0.20372940824E+03  0.20372940824E+03  0.00000000000E+00 0.  1.
         24    2    1    2    0    0 -0.17778680780E+03  0.17600018269E+03  0.40039143588E+02  0.26381074073E+03  0.73544276268E+02 0.  0.
        254    2    1    2    0    0  0.17778680780E+03 -0.17600018269E+03  0.22894697425E+04  0.24731569618E+04  0.90124882397E+03 0.  0.
         23    2    4    4    0    0  0.40077656151E+03 -0.31762893473E+03  0.77400007665E+03  0.93213553387E+03  0.91052415734E+02 0.  0.
         23    2    4    4    0    0 -0.22298975371E+03  0.14162875205E+03  0.15154696658E+04  0.15410214279E+04  0.91189909966E+02 0.  0.
          4    1    3    3  502    0 -0.35894398808E+02  0.58630105698E+02  0.40259092086E+02  0.79666126149E+02  0.00000000000E+00 0. -1.
         -3    1    3    3    0  502 -0.14189240900E+03  0.11737007699E+03 -0.21994849770E+00  0.18414461458E+03  0.00000000000E+00 0.  1.
         11    1    5    5    0    0  0.77131399196E+02 -0.37738181037E+02  0.83272036866E+02  0.11961461104E+03  0.00000000000E+00 0. -1.
        -11    1    5    5    0    0  0.32364516231E+03 -0.27989075370E+03  0.69072803979E+03  0.81252092283E+03  0.00000000000E+00 0.  1.
          3    1    6    6  503    0 -0.12745590484E+03  0.43581450707E+02  0.93347850550E+03  0.94314710982E+03  0.00000000000E+00 0. -1.
         -3    1    6    6    0  503 -0.95533848862E+02  0.98047301339E+02  0.58199116032E+03  0.59787431812E+03  0.00000000000E+00 0.  1.
<mgrwt>
<rscale>  0 0.14367952E+04</rscale>
<asrwt>0</asrwt>
<pdfrwt beam="1">  1        2 0.38972895E+00 0.14367952E+04</pdfrwt>
<pdfrwt beam="2">  1       -1 0.31342988E-01 0.14367952E+04</pdfrwt>
<totfact> 0.34895124E+01</totfact>
</mgrwt>
</event>
<event>
12    6  0.1647231E-007  0.2286842E+04  0.7818608E-02  0.8483127E-01
          2   -1    0    0  501    0  0.00000000000E+00  0.00000000000E+00  0.22784561386E+04  0.22784561386E+04  0.00000000000E+00 0. -1.
         -1   -1    0    0    0  501 -0.00000000000E+00 -0.00000000000E+00 -0.57381458449E+03  0.57381458449E+03  0.00000000000E+00 0.  1.
         24    2    1    2    0    0  0.92126290223E+03  0.20059233492E+03  0.94596426565E+03  0.13380298634E+04  0.80702562622E+02 0.  0.
        254    2    1    2    0    0 -0.92126290223E+03 -0.20059233492E+03  0.75867728844E+03  0.15142408597E+04  0.91014918187E+03 0.  0.
         23    2    4    4    0    0  0.28915720021E+02  0.25153690515E+02 -0.14977643294E+03  0.17715537743E+03  0.86499831663E+02 0.  0.
         23    2    4    4    0    0 -0.95017862225E+03 -0.22574602543E+03  0.90845372138E+03  0.13370854822E+04  0.93320634084E+02 0.  0.
          4    1    3    3  502    0  0.26855979128E+03  0.45907650423E+02  0.32328186654E+03  0.42278013091E+03  0.00000000000E+00 0. -1.
         -3    1    3    3    0  502  0.65270311095E+03  0.15468468449E+03  0.62268239911E+03  0.91524973249E+03  0.00000000000E+00 0.  1.
         11    1    5    5    0    0  0.38632937056E+02  0.11198233084E+02 -0.17626497949E+02  0.43915802164E+02  0.00000000000E+00 0.  1.
        -11    1    5    5    0    0 -0.97172170352E+01  0.13955457430E+02 -0.13214993500E+03  0.13323957527E+03  0.00000000000E+00 0. -1.
          1    1    6    6  503    0 -0.41784869686E+03 -0.84259456378E+02  0.45664910345E+03  0.62468039279E+03  0.00000000000E+00 0. -1.
         -1    1    6    6    0  503 -0.53232992539E+03 -0.14148656905E+03  0.45180461794E+03  0.71240508945E+03  0.00000000000E+00 0.  1.
<mgrwt>
<rscale>  0 0.22868418E+04</rscale>
<asrwt>0</asrwt>
<pdfrwt beam="1">  1        2 0.35053171E+00 0.22868418E+04</pdfrwt>
<pdfrwt beam="2">  1       -1 0.88279168E-01 0.22868418E+04</pdfrwt>
<totfact> 0.60690903E+00</totfact>
</mgrwt>
</event>
<event>
12    6  0.1647231E-007  0.2391564E+04  0.7818608E-02  0.8442668E-01
         -1   -1    0    0    0  501 -0.00000000000E+00  0.00000000000E+00  0.54247929078E+03  0.54247929078E+03  0.00000000000E+00 0.  1.
          2   -1    0    0  501    0  0.00000000000E+00 -0.00000000000E+00 -0.26358520779E+04  0.26358520779E+04  0.00000000000E+00 0. -1.
         24    2    1    2    0    0 -0.52579292134E+03 -0.19366791212E+03 -0.20366044982E+04  0.21137813672E+04  0.79676407155E+02 0.  0.
        254    2    1    2    0    0  0.52579292134E+03  0.19366791212E+03 -0.56768288888E+02  0.10645500015E+04  0.90337069394E+03 0.  0.
         23    2    4    4    0    0  0.14954958466E+03 -0.50163470896E+02 -0.43522932392E+03  0.47183686514E+03  0.91236017126E+02 0.  0.
         23    2    4    4    0    0  0.37624333668E+03  0.24383138301E+03  0.37846103503E+03  0.59271313632E+03  0.84043531510E+02 0.  0.
          4    1    3    3  502    0 -0.41492092477E+03 -0.16906222387E+03 -0.17209909461E+04  0.17783563326E+04  0.00000000000E+00 0. -1.
         -3    1    3    3    0  502 -0.11087199658E+03 -0.24605688244E+02 -0.31561355212E+03  0.33542503454E+03  0.00000000000E+00 0.  1.
         11    1    5    5    0    0  0.37545403506E+02  0.22609363443E+02 -0.16022637864E+03  0.16611241089E+03  0.00000000000E+00 0.  1.
        -11    1    5    5    0    0  0.11200418115E+03 -0.72772834339E+02 -0.27500294528E+03  0.30572445425E+03  0.00000000000E+00 0. -1.
          3    1    6    6  503    0  0.59511407986E+02  0.72134760104E+01  0.62601519324E+02  0.86675210633E+02  0.00000000000E+00 0. -1.
         -3    1    6    6    0  503  0.31673192870E+03  0.23661790700E+03  0.31585951571E+03  0.50603792569E+03  0.00000000000E+00 0.  1.
<mgrwt>
<rscale>  0 0.23915645E+04</rscale>
<asrwt>0</asrwt>
<pdfrwt beam="1">  1        2 0.40551571E+00 0.23915645E+04</pdfrwt>
<pdfrwt beam="2">  1       -1 0.83458351E-01 0.23915645E+04</pdfrwt>
<totfact> 0.42266016E+00</totfact>
</mgrwt>
</event>
<event>
12    6  0.1647231E-007  0.2301048E+04  0.7818608E-02  0.8477508E-01
          2   -1    0    0  501    0  0.00000000000E+00  0.00000000000E+00  0.17801194617E+04  0.17801194617E+04  0.00000000000E+00 0. -1.
         -1   -1    0    0    0  501 -0.00000000000E+00 -0.00000000000E+00 -0.74360453726E+03  0.74360453726E+03  0.00000000000E+00 0.  1.
         24    2    1    2    0    0  0.51690317526E+03  0.35802044316E+03 -0.36978112338E+03  0.73382604039E+03  0.79969044198E+02 0.  0.
        254    2    1    2    0    0 -0.51690317526E+03 -0.35802044316E+03  0.14062960479E+04  0.17898979586E+04  0.91142668257E+03 0.  0.
         23    2    4    4    0    0 -0.47570855175E+03 -0.60159964311E+03  0.72544817745E+03  0.10595869947E+04  0.90712646951E+02 0.  0.
         23    2    4    4    0    0 -0.41194623509E+02  0.24357919995E+03  0.68084787041E+03  0.73031096394E+03  0.93661399475E+02 0.  0.
          2    1    3    3  502    0  0.28993460282E+03  0.21428578536E+03 -0.16752155829E+03  0.39754741127E+03  0.00000000000E+00 0. -1.
         -1    1    3    3    0  502  0.22696857244E+03  0.14373465780E+03 -0.20225956509E+03  0.33627862911E+03  0.00000000000E+00 0.  1.
         11    1    5    5    0    0 -0.17961346998E+03 -0.24129630853E+03  0.34506307334E+03  0.45777006421E+03  0.00000000000E+00 0.  1.
        -11    1    5    5    0    0 -0.29609508177E+03 -0.36030333458E+03  0.38038510411E+03  0.60181693046E+03  0.00000000000E+00 0. -1.
          4    1    6    6  503    0 -0.50797519291E+02  0.19369803681E+03  0.42958493705E+03  0.47396469865E+03  0.00000000000E+00 0.  1.
         -4    1    6    6    0  503  0.96028957819E+01  0.49881163137E+02  0.25126293336E+03  0.25634626529E+03  0.00000000000E+00 0. -1.
<mgrwt>
<rscale>  0 0.23010475E+04</rscale>
<asrwt>0</asrwt>
<pdfrwt beam="1">  1        2 0.27386453E+00 0.23010475E+04</pdfrwt>
<pdfrwt beam="2">  1       -1 0.11440070E+00 0.23010475E+04</pdfrwt>
<totfact> 0.63492905E+00</totfact>
</mgrwt>
</event>
<event>
12    6  0.1647231E-007  0.2171204E+04  0.7818608E-02  0.8530510E-01
          2   -1    0    0  501    0  0.00000000000E+00  0.00000000000E+00  0.99818608081E+03  0.99818608081E+03  0.00000000000E+00 0. -1.
         -1   -1    0    0    0  501 -0.00000000000E+00 -0.00000000000E+00 -0.11806737250E+04  0.11806737250E+04  0.00000000000E+00 0.  1.
         24    2    1    2    0    0 -0.79530378476E+03  0.41321012702E+03 -0.11542872644E+03  0.90713647410E+03  0.79511462261E+02 0.  0.
        254    2    1    2    0    0  0.79530378476E+03 -0.41321012702E+03 -0.67058917761E+02  0.12717233317E+04  0.89974030413E+03 0.  0.
         23    2    4    4    0    0  0.23461536454E+03 -0.54548225265E+03  0.19564266333E+03  0.63201541080E+03  0.92586017022E+02 0.  0.
         23    2    4    4    0    0  0.56068842022E+03  0.13227212563E+03 -0.26270158109E+03  0.63970792092E+03  0.91360186059E+02 0.  0.
          2    1    3    3  502    0 -0.72145488813E+03  0.36979336018E+03 -0.12734115871E+03  0.82064612077E+03  0.00000000000E+00 0. -1.
         -1    1    3    3    0  502 -0.73848896633E+02  0.43416766834E+02  0.11912432265E+02  0.86490353327E+02  0.00000000000E+00 0.  1.
         11    1    5    5    0    0  0.12592151214E+03 -0.19182013047E+03  0.96882443737E+02  0.24907307678E+03  0.00000000000E+00 0. -1.
        -11    1    5    5    0    0  0.10869385240E+03 -0.35366212217E+03  0.98760219590E+02  0.38294233402E+03  0.00000000000E+00 0.  1.
          3    1    6    6  503    0  0.82686415579E+02  0.21139571913E+02 -0.52036618099E+01  0.85504402917E+02  0.00000000000E+00 0. -1.
         -3    1    6    6    0  503  0.47800200464E+03  0.11113255372E+03 -0.25749791928E+03  0.55420351800E+03  0.00000000000E+00 0.  1.
<mgrwt>
<rscale>  0 0.21712043E+04</rscale>
<asrwt>0</asrwt>
<pdfrwt beam="1">  1        2 0.15356709E+00 0.21712043E+04</pdfrwt>
<pdfrwt beam="2">  1       -1 0.18164211E+00 0.21712043E+04</pdfrwt>
<totfact> 0.53452092E+00</totfact>
</mgrwt>
</event>
<event>
12    6  0.1647231E-007  0.1425322E+04  0.7818608E-02  0.8935691E-01
         -1   -1    0    0    0  501 -0.00000000000E+00  0.00000000000E+00  0.17206203910E+03  0.17206203910E+03  0.00000000000E+00 0.  1.
          2   -1    0    0  501    0  0.00000000000E+00 -0.00000000000E+00 -0.29517586413E+04  0.29517586413E+04  0.00000000000E+00 0. -1.
         24    2    1    2    0    0  0.33267323366E+03  0.12285328677E+02 -0.14895484556E+04  0.15283964559E+04  0.80116884293E+02 0.  0.
        254    2    1    2    0    0 -0.33267323366E+03 -0.12285328677E+02 -0.12901481466E+04  0.15954242245E+04  0.87753849273E+03 0.  0.
         23    2    4    4    0    0  0.11322407523E+03 -0.11990519776E+03  0.33345046698E+02  0.19161579507E+03  0.91693909921E+02 0.  0.
         23    2    4    4    0    0 -0.44589730889E+03  0.10761986909E+03 -0.13234931933E+04  0.14038084294E+04  0.92937761574E+02 0.  0.
          4    1    3    3  502    0  0.32180397297E+03 -0.51659478380E+01 -0.13998264330E+04  0.14363490267E+04  0.00000000000E+00 0. -1.
         -3    1    3    3    0  502  0.10869260686E+02  0.17451276515E+02 -0.89722022690E+02  0.92047429271E+02  0.00000000000E+00 0.  1.
         11    1    5    5    0    0 -0.44903300925E+01  0.10742338187E+02  0.75523550313E+01  0.13878002759E+02  0.00000000000E+00 0. -1.
        -11    1    5    5    0    0  0.11771440533E+03 -0.13064753595E+03  0.25792691666E+02  0.17773779231E+03  0.00000000000E+00 0.  1.
          3    1    6    6  503    0 -0.12267059005E+03  0.26151606852E+01 -0.45305472587E+03  0.46937564632E+03  0.00000000000E+00 0. -1.
         -3    1    6    6    0  503 -0.32322671885E+03  0.10500470840E+03 -0.87043846741E+03  0.93443278308E+03  0.00000000000E+00 0.  1.
<mgrwt>
<rscale>  0 0.14253219E+04</rscale>
<asrwt>0</asrwt>
<pdfrwt beam="1">  1        2 0.45411673E+00 0.14253219E+04</pdfrwt>
<pdfrwt beam="2">  1       -1 0.26471082E-01 0.14253219E+04</pdfrwt>
<totfact> 0.26418909E+01</totfact>
</mgrwt>
</event>
<event>
12    6  0.1647231E-007  0.1422172E+04  0.7818608E-02  0.8937924E-01
          2   -1    0    0  501    0  0.00000000000E+00  0.00000000000E+00  0.12708326586E+04  0.12708326586E+04  0.00000000000E+00 0. -1.
         -1   -1    0    0    0  501 -0.00000000000E+00 -0.00000000000E+00 -0.39788350145E+03  0.39788350145E+03  0.00000000000E+00 0.  1.
         24    2    1    2    0    0  0.19879574517E+03 -0.14354317657E+03  0.66664320128E+03  0.71476484316E+03  0.79694613138E+02 0.  0.
        254    2    1    2    0    0 -0.19879574517E+03  0.14354317657E+03  0.20630595585E+03  0.95395131687E+03  0.89851910147E+03 0.  0.
         23    2    4    4    0    0  0.26292059800E+02 -0.11658904494E+03  0.48242807564E+03  0.50524744028E+03  0.90850701343E+02 0.  0.
         23    2    4    4    0    0 -0.22508780497E+03  0.26013222151E+03 -0.27612211979E+03  0.44870387658E+03  0.82209799945E+02 0.  0.
          4    1    3    3  502    0  0.16339780247E+03 -0.11869355665E+03  0.44141418241E+03  0.48542093350E+03  0.00000000000E+00 0. -1.
         -3    1    3    3    0  502  0.35397942693E+02 -0.24849619919E+02  0.22522901887E+03  0.22934390966E+03  0.00000000000E+00 0.  1.
         11    1    5    5    0    0  0.31455491670E+02 -0.89959342777E+02  0.46080924512E+03  0.47056061426E+03  0.00000000000E+00 0. -1.
        -11    1    5    5    0    0 -0.51634318706E+01 -0.26629702167E+02  0.21618830529E+02  0.34686826024E+02  0.00000000000E+00 0.  1.
          4    1    6    6  503    0 -0.21790078448E+03  0.20925541940E+03 -0.23063425973E+03  0.38007991816E+03  0.00000000000E+00 0. -1.
         -4    1    6    6    0  503 -0.71870204863E+01  0.50876802113E+02 -0.45487860069E+02  0.68623958428E+02  0.00000000000E+00 0.  1.
<mgrwt>
<rscale>  0 0.14221721E+04</rscale>
<asrwt>0</asrwt>
<pdfrwt beam="1">  1        2 0.19551271E+00 0.14221721E+04</pdfrwt>
<pdfrwt beam="2">  1       -1 0.61212847E-01 0.14221721E+04</pdfrwt>
<totfact> 0.51557686E+01</totfact>
</mgrwt>
</event>
<event>
12    6  0.1647231E-007  0.1260985E+04  0.7818608E-02  0.9061089E-01
         -1   -1    0    0    0  501 -0.00000000000E+00  0.00000000000E+00  0.35974153916E+03  0.35974153916E+03  0.00000000000E+00 0.  1.
          2   -1    0    0  501    0  0.00000000000E+00 -0.00000000000E+00 -0.11050185606E+04  0.11050185606E+04  0.00000000000E+00 0. -1.
         24    2    1    2    0    0 -0.38836419395E+02  0.30481607777E+03 -0.18385208689E+03  0.36641266295E+03  0.77688744223E+02 0.  0.
        254    2    1    2    0    0  0.38836419395E+02 -0.30481607777E+03 -0.56142493454E+03  0.10983474368E+04  0.89260743109E+03 0.  0.
         23    2    4    4    0    0 -0.27221508592E+03  0.16869356766E+03 -0.65671337698E+02  0.33952251420E+03  0.91674643606E+02 0.  0.
         23    2    4    4    0    0  0.31105150532E+03 -0.47350964543E+03 -0.49575359684E+03  0.75882492259E+03  0.95284894302E+02 0.  0.
          2    1    3    3  502    0 -0.53728271345E+02  0.29045300261E+03 -0.17817584539E+03  0.34495841162E+03  0.00000000000E+00 0. -1.
         -1    1    3    3    0  502  0.14891851949E+02  0.14363075156E+02 -0.56762414928E+01  0.21454251324E+02  0.00000000000E+00 0.  1.
         11    1    5    5    0    0 -0.12631407680E+03  0.75935743055E+02 -0.76956326337E+02  0.16626412492E+03  0.00000000000E+00 0.  1.
        -11    1    5    5    0    0 -0.14590100913E+03  0.92757824606E+02  0.11284988639E+02  0.17325838929E+03  0.00000000000E+00 0. -1.
          1    1    6    6  503    0  0.28801916699E+03 -0.37300734948E+03 -0.41271246886E+03  0.62643523629E+03  0.00000000000E+00 0. -1.
         -1    1    6    6    0  503  0.23032338331E+02 -0.10050229595E+03 -0.83041127982E+02  0.13238968630E+03  0.00000000000E+00 0.  1.
<mgrwt>
<rscale>  0 0.12609855E+04</rscale>
<asrwt>0</asrwt>
<pdfrwt beam="1">  1        2 0.17000285E+00 0.12609855E+04</pdfrwt>
<pdfrwt beam="2">  1       -1 0.55344853E-01 0.12609855E+04</pdfrwt>
<totfact> 0.80008897E+01</totfact>
</mgrwt>
</event>
<event>
12    6  0.1647231E-007  0.2223134E+04  0.7818608E-02  0.8508860E-01
         -1   -1    0    0    0  501 -0.00000000000E+00  0.00000000000E+00  0.14181724938E+04  0.14181724938E+04  0.00000000000E+00 0.  1.
          2   -1    0    0  501    0  0.00000000000E+00 -0.00000000000E+00 -0.87124926459E+03  0.87124926459E+03  0.00000000000E+00 0. -1.
         24    2    1    2    0    0 -0.73439287401E+03  0.26484752671E+03  0.73795429771E+03  0.10772352787E+04  0.79888637146E+02 0.  0.
        254    2    1    2    0    0  0.73439287401E+03 -0.26484752671E+03 -0.19103106853E+03  0.12121864797E+04  0.90742828176E+03 0.  0.
         23    2    4    4    0    0  0.26508984581E+03 -0.24987620428E+03  0.33371678228E+03  0.50221589444E+03  0.90239514824E+02 0.  0.
         23    2    4    4    0    0  0.46930302820E+03 -0.14971322425E+02 -0.52474785081E+03  0.70997058523E+03  0.90710816229E+02 0.  0.
          4    1    3    3  502    0 -0.48123567385E+03  0.19513332200E+03  0.53290075785E+03  0.74407526828E+03  0.00000000000E+00 0. -1.
         -3    1    3    3    0  502 -0.25315720016E+03  0.69714204713E+02  0.20505353986E+03  0.33316001042E+03  0.00000000000E+00 0.  1.
         11    1    5    5    0    0  0.73989959055E+02 -0.52541376241E+02  0.13705690874E+03  0.16437672126E+03  0.00000000000E+00 0.  1.
        -11    1    5    5    0    0  0.19109988676E+03 -0.19733482804E+03  0.19665987354E+03  0.33783917318E+03  0.00000000000E+00 0. -1.
          4    1    6    6  503    0  0.35618242009E+02  0.23681841609E+02 -0.44130938682E+02  0.61457534402E+02  0.00000000000E+00 0. -1.
         -4    1    6    6    0  503  0.43368478619E+03 -0.38653164034E+02 -0.48061691213E+03  0.64851305082E+03  0.00000000000E+00 0.  1.
<mgrwt>
<rscale>  0 0.22231345E+04</rscale>
<asrwt>0</asrwt>
<pdfrwt beam="1">  1        2 0.13403835E+00 0.22231345E+04</pdfrwt>
<pdfrwt beam="2">  1       -1 0.21818038E+00 0.22231345E+04</pdfrwt>
<totfact> 0.36135998E+00</totfact>
</mgrwt>
</event>
<event>
12    6  0.1647231E-007  0.2001817E+04  0.7818608E-02  0.8605772E-01
          2   -1    0    0  501    0  0.00000000000E+00  0.00000000000E+00  0.15228842115E+04  0.15228842115E+04  0.00000000000E+00 0. -1.
         -1   -1    0    0    0  501 -0.00000000000E+00 -0.00000000000E+00 -0.65784238709E+03  0.65784238709E+03  0.00000000000E+00 0.  1.
         24    2    1    2    0    0  0.37307728507E+03  0.14896195672E+03  0.10922544224E+04  0.11665213032E+04  0.79849247233E+02 0.  0.
        254    2    1    2    0    0 -0.37307728507E+03 -0.14896195672E+03 -0.22721259802E+03  0.10142052954E+04  0.90311156085E+03 0.  0.
         23    2    4    4    0    0  0.10392079336E+03 -0.79015929860E+02  0.27149227637E+03  0.31470789109E+03  0.91049174187E+02 0.  0.
         23    2    4    4    0    0 -0.47699807843E+03 -0.69946026858E+02 -0.49870487439E+03  0.69949740432E+03  0.90390560418E+02 0.  0.
          2    1    3    3  502    0  0.30188351419E+03  0.12516024587E+03  0.96431000583E+03  0.10181809911E+04  0.00000000000E+00 0. -1.
         -1    1    3    3    0  502  0.71193770879E+02  0.23801710846E+02  0.12794441658E+03  0.14834031207E+03  0.00000000000E+00 0.  1.
         11    1    5    5    0    0  0.72970178408E+02 -0.56642865988E+02  0.25827139170E+03  0.27429395359E+03  0.00000000000E+00 0.  1.
        -11    1    5    5    0    0  0.30950614949E+02 -0.22373063872E+02  0.13220884671E+02  0.40413937500E+02  0.00000000000E+00 0. -1.
          3    1    6    6  503    0 -0.47822534111E+02  0.74224479113E+01 -0.88115093111E+02  0.10053037917E+03  0.00000000000E+00 0. -1.
         -3    1    6    6    0  503 -0.42917554432E+03 -0.77368474769E+02 -0.41058978128E+03  0.59896702515E+03  0.00000000000E+00 0.  1.
<mgrwt>
<rscale>  0 0.20018170E+04</rscale>
<asrwt>0</asrwt>
<pdfrwt beam="1">  1        2 0.23428988E+00 0.20018170E+04</pdfrwt>
<pdfrwt beam="2">  1       -1 0.10120652E+00 0.20018170E+04</pdfrwt>
<totfact> 0.12091353E+01</totfact>
</mgrwt>
</event>
<event>
12    6  0.1647231E-007  0.1313272E+04  0.7818608E-02  0.9019106E-01
          2   -1    0    0  501    0  0.00000000000E+00  0.00000000000E+00  0.87598961937E+03  0.87598961937E+03  0.00000000000E+00 0. -1.
         -1   -1    0    0    0  501 -0.00000000000E+00 -0.00000000000E+00 -0.49221026506E+03  0.49221026506E+03  0.00000000000E+00 0.  1.
         24    2    1    2    0    0  0.14371956550E+03 -0.80304952574E+02 -0.17529306453E+03  0.25353117609E+03  0.80288229913E+02 0.  0.
        254    2    1    2    0    0 -0.14371956550E+03  0.80304952574E+02  0.55907241884E+03  0.11146687083E+04  0.95016849081E+03 0.  0.
         23    2    4    4    0    0  0.27092827696E+03  0.82379472601E+02  0.61977401561E+03  0.68746272456E+03  0.91085994873E+02 0.  0.
         23    2    4    4    0    0 -0.41464784246E+03 -0.20745200268E+01 -0.60701596772E+02  0.42720598378E+03  0.82964642114E+02 0.  0.
          4    1    3    3  502    0  0.77957750986E+02 -0.57099934208E+02 -0.15179435392E+03  0.17994260003E+03  0.00000000000E+00 0. -1.
         -3    1    3    3    0  502  0.65761814515E+02 -0.23205018366E+02 -0.23498710608E+02  0.73588576056E+02  0.00000000000E+00 0.  1.
         11    1    5    5    0    0  0.13164312410E+03  0.63841516000E+02  0.40681840286E+03  0.43232726515E+03  0.00000000000E+00 0.  1.
        -11    1    5    5    0    0  0.13928515286E+03  0.18537956601E+02  0.21295561275E+03  0.25513545940E+03  0.00000000000E+00 0. -1.
          3    1    6    6  503    0 -0.41199143254E+03  0.63122242414E+01 -0.65455297646E+02  0.41720640054E+03  0.00000000000E+00 0. -1.
         -3    1    6    6    0  503 -0.26564099199E+01 -0.83867442682E+01  0.47537008740E+01  0.99995832455E+01  0.00000000000E+00 0.  1.
<mgrwt>
<rscale>  0 0.13132724E+04</rscale>
<asrwt>0</asrwt>
<pdfrwt beam="1">  1        2 0.13476763E+00 0.13132724E+04</pdfrwt>
<pdfrwt beam="2">  1       -1 0.75724656E-01 0.13132724E+04</pdfrwt>
<totfact> 0.59651607E+01</totfact>
</mgrwt>
</event>
<event>
12    6  0.1647231E-007  0.1791351E+04  0.7818608E-02  0.8710912E-01
         -1   -1    0    0    0  501 -0.00000000000E+00  0.00000000000E+00  0.38153772180E+03  0.38153772180E+03  0.00000000000E+00 0.  1.
          2   -1    0    0  501    0  0.00000000000E+00 -0.00000000000E+00 -0.21026351670E+04  0.21026351670E+04  0.00000000000E+00 0. -1.
         24    2    1    2    0    0 -0.24411608141E+03  0.40224765894E+03 -0.12598332446E+04  0.13470334473E+04  0.76964039793E+02 0.  0.
        254    2    1    2    0    0  0.24411608141E+03 -0.40224765894E+03 -0.46126420060E+03  0.11371394416E+04  0.92678239437E+03 0.  0.
         23    2    4    4    0    0 -0.13636670292E+03 -0.51523099785E+03 -0.48961049022E+03  0.72905380423E+03  0.87989536375E+02 0.  0.
         23    2    4    4    0    0  0.38048278433E+03  0.11298333891E+03  0.28346289623E+02  0.40808563735E+03  0.90542759127E+02 0.  0.
          4    1    3    3  502    0 -0.21933515377E+03  0.30353885529E+03 -0.10155581172E+04  0.10824056706E+04  0.00000000000E+00 0. -1.
         -3    1    3    3    0  502 -0.24780927639E+02  0.98708803652E+02 -0.24427512745E+03  0.26462777667E+03  0.00000000000E+00 0.  1.
         11    1    5    5    0    0 -0.28163338092E+02 -0.29181742166E+02 -0.22870080151E+02  0.46559513039E+02  0.00000000000E+00 0. -1.
        -11    1    5    5    0    0 -0.10820336483E+03 -0.48604925569E+03 -0.46674041007E+03  0.68249429119E+03  0.00000000000E+00 0.  1.
          1    1    6    6  503    0  0.61080256182E+01 -0.10289680964E+02  0.57885666837E+01  0.13292592507E+02  0.00000000000E+00 0. -1.
         -1    1    6    6    0  503  0.37437475871E+03  0.12327301988E+03  0.22557722939E+02  0.39479304484E+03  0.00000000000E+00 0.  1.
<mgrwt>
<rscale>  0 0.17913510E+04</rscale>
<asrwt>0</asrwt>
<pdfrwt beam="1">  1        2 0.32348234E+00 0.17913510E+04</pdfrwt>
<pdfrwt beam="2">  1       -1 0.58698111E-01 0.17913510E+04</pdfrwt>
<totfact> 0.18533675E+01</totfact>
</mgrwt>
</event>
<event>
12    6  0.1647231E-007  0.1296561E+04  0.7818608E-02  0.9032297E-01
          2   -1    0    0  501    0  0.00000000000E+00  0.00000000000E+00  0.29147762935E+04  0.29147762935E+04  0.00000000000E+00 0. -1.
         -1   -1    0    0    0  501 -0.00000000000E+00 -0.00000000000E+00 -0.14418527114E+03  0.14418527114E+03  0.00000000000E+00 0.  1.
         24    2    1    2    0    0  0.19622657727E+03 -0.12806206895E+03  0.17593194802E+03  0.30398971416E+03  0.80950187481E+02 0.  0.
        254    2    1    2    0    0 -0.19622657727E+03  0.12806206895E+03  0.25946590743E+04  0.27549718505E+04  0.89594052355E+03 0.  0.
         23    2    4    4    0    0 -0.53198953765E+03  0.17558575184E+03  0.14379741771E+04  0.15462341397E+04  0.96057567258E+02 0.  0.
         23    2    4    4    0    0  0.33576296037E+03 -0.47523682892E+02  0.11566848972E+04  0.12087377108E+04  0.90175584634E+02 0.  0.
          4    1    3    3  502    0  0.81576680660E+02 -0.20278354056E+02  0.95638704739E+02  0.12732921234E+03  0.00000000000E+00 0. -1.
         -3    1    3    3    0  502  0.11464989661E+03 -0.10778371489E+03  0.80293243277E+02  0.17666050182E+03  0.00000000000E+00 0.  1.
         11    1    5    5    0    0 -0.35441481617E+01  0.13556069125E+02  0.58310916314E+02  0.59970750852E+02  0.00000000000E+00 0.  1.
        -11    1    5    5    0    0 -0.52844538948E+03  0.16202968271E+03  0.13796632608E+04  0.14862633888E+04  0.00000000000E+00 0. -1.
          3    1    6    6  503    0  0.20250524674E+03 -0.70348442136E+02  0.75936751955E+03  0.78904772227E+03  0.00000000000E+00 0. -1.
         -3    1    6    6    0  503  0.13325771363E+03  0.22824759244E+02  0.39731737762E+03  0.41968998849E+03  0.00000000000E+00 0.  1.
<mgrwt>
<rscale>  0 0.12965613E+04</rscale>
<asrwt>0</asrwt>
<pdfrwt beam="1">  1        2 0.44842708E+00 0.12965613E+04</pdfrwt>
<pdfrwt beam="2">  1       -1 0.22182352E-01 0.12965613E+04</pdfrwt>
<totfact> 0.38121285E+01</totfact>
</mgrwt>
</event>
<event>
12    6  0.1647231E-007  0.1373054E+04  0.7818608E-02  0.8973558E-01
          2   -1    0    0  501    0  0.00000000000E+00  0.00000000000E+00  0.45290266011E+03  0.45290266011E+03  0.00000000000E+00 0. -1.
         -1   -1    0    0    0  501 -0.00000000000E+00 -0.00000000000E+00 -0.10406635492E+04  0.10406635492E+04  0.00000000000E+00 0.  1.
         24    2    1    2    0    0  0.17474424602E+03  0.30560209474E+03 -0.11998343526E+03  0.38034526727E+03  0.79613477321E+02 0.  0.
        254    2    1    2    0    0 -0.17474424602E+03 -0.30560209474E+03 -0.46777745387E+03  0.11132209421E+04  0.94684577820E+03 0.  0.
         23    2    4    4    0    0 -0.45786889346E+03  0.12459690343E+03 -0.27113512999E+03  0.55425907998E+03  0.92306863667E+02 0.  0.
         23    2    4    4    0    0  0.28312464744E+03 -0.43019899817E+03 -0.19664232388E+03  0.55896186210E+03  0.92408959135E+02 0.  0.
          2    1    3    3  502    0  0.15420470002E+03  0.27302192127E+03 -0.77486520690E+02  0.32299260036E+03  0.00000000000E+00 0. -1.
         -1    1    3    3    0  502  0.20539546002E+02  0.32580173475E+02 -0.42496914570E+02  0.57352666909E+02  0.00000000000E+00 0.  1.
         11    1    5    5    0    0 -0.62691482520E+02  0.22390146597E+02 -0.78439680249E+02  0.10288014426E+03  0.00000000000E+00 0. -1.
        -11    1    5    5    0    0 -0.39517741094E+03  0.10220675683E+03 -0.19269544974E+03  0.45137893572E+03  0.00000000000E+00 0.  1.
          2    1    6    6  503    0  0.25478557265E+03 -0.40445426948E+03 -0.15529111110E+03  0.50260747439E+03  0.00000000000E+00 0.  1.
         -2    1    6    6    0  503  0.28339074792E+02 -0.25744728690E+02 -0.41351212782E+02  0.56354387708E+02  0.00000000000E+00 0. -1.
<mgrwt>
<rscale>  0 0.13730540E+04</rscale>
<asrwt>0</asrwt>
<pdfrwt beam="1">  1        2 0.69677334E-01 0.13730540E+04</pdfrwt>
<pdfrwt beam="2">  1       -1 0.16010208E+00 0.13730540E+04</pdfrwt>
<totfact> 0.22464296E+01</totfact>
</mgrwt>
</event>
<event>
12    6  0.1647231E-007  0.2078170E+04  0.7818608E-02  0.8570921E-01
         -1   -1    0    0    0  501 -0.00000000000E+00  0.00000000000E+00  0.24506911298E+03  0.24506911298E+03  0.00000000000E+00 0.  1.
          2   -1    0    0  501    0  0.00000000000E+00 -0.00000000000E+00 -0.44056874717E+04  0.44056874717E+04  0.00000000000E+00 0. -1.
         24    2    1    2    0    0 -0.14656456145E+03 -0.37484635007E+03 -0.33575901227E+04  0.33825078020E+04  0.77179282420E+02 0.  0.
        254    2    1    2    0    0  0.14656456145E+03  0.37484635007E+03 -0.80302823600E+03  0.12682487827E+04  0.89532657177E+03 0.  0.
         23    2    4    4    0    0 -0.33332670144E+02 -0.27788151103E+03 -0.28150189594E+03  0.40808724220E+03  0.94671425237E+02 0.  0.
         23    2    4    4    0    0  0.17989723159E+03  0.65272786110E+03 -0.52152634006E+03  0.86016154047E+03  0.97321517351E+02 0.  0.
          4    1    3    3  502    0 -0.10774739230E+03 -0.20723365965E+03 -0.16896170171E+04  0.17056848931E+04  0.00000000000E+00 0. -1.
         -3    1    3    3    0  502 -0.38817169149E+02 -0.16761269041E+03 -0.16679731056E+04  0.16768229089E+04  0.00000000000E+00 0.  1.
         11    1    5    5    0    0  0.84516124016E+01 -0.47676840272E+01 -0.39892280649E+02  0.41055506555E+02  0.00000000000E+00 0.  1.
        -11    1    5    5    0    0 -0.41784282546E+02 -0.27311382701E+03 -0.24160961529E+03  0.36703173565E+03  0.00000000000E+00 0. -1.
          4    1    6    6  503    0  0.64481641728E+02  0.29481458226E+03 -0.17537300195E+03  0.34904041291E+03  0.00000000000E+00 0.  1.
         -4    1    6    6    0  503  0.11541558987E+03  0.35791327885E+03 -0.34615333811E+03  0.51112112756E+03  0.00000000000E+00 0. -1.
<mgrwt>
<rscale>  0 0.20781703E+04</rscale>
<asrwt>0</asrwt>
<pdfrwt beam="1">  1        2 0.67779809E+00 0.20781703E+04</pdfrwt>
<pdfrwt beam="2">  1       -1 0.37702940E-01 0.20781703E+04</pdfrwt>
<totfact> 0.10953223E+00</totfact>
</mgrwt>
</event>
<event>
12    6  0.1647231E-007  0.2330486E+04  0.7818608E-02  0.8465997E-01
         -1   -1    0    0    0  501 -0.00000000000E+00  0.00000000000E+00  0.10362559095E+04  0.10362559095E+04  0.00000000000E+00 0.  1.
          2   -1    0    0  501    0  0.00000000000E+00 -0.00000000000E+00 -0.13102855945E+04  0.13102855945E+04  0.00000000000E+00 0. -1.
         24    2    1    2    0    0  0.32325819544E+03 -0.26903540916E+02 -0.10568307800E+04  0.11085943153E+04  0.82887857653E+02 0.  0.
        254    2    1    2    0    0 -0.32325819544E+03  0.26903540916E+02  0.78280109507E+03  0.12379471887E+04  0.90250541605E+03 0.  0.
         23    2    4    4    0    0  0.35686523232E+02  0.29888193467E+03  0.70386671833E+03  0.77201892619E+03  0.99904586554E+02 0.  0.
         23    2    4    4    0    0 -0.35894471867E+03 -0.27197839376E+03  0.78934376745E+02  0.46592826246E+03  0.89693657477E+02 0.  0.
          4    1    3    3  502    0  0.27554810919E+03 -0.25671251908E+02 -0.97838679935E+03  0.10167725915E+04  0.00000000000E+00 0. -1.
         -3    1    3    3    0  502  0.47710086246E+02 -0.12322890071E+01 -0.78443980666E+02  0.91821723838E+02  0.00000000000E+00 0.  1.
         11    1    5    5    0    0 -0.74120994350E+01  0.61408287614E+01  0.90492084811E+02  0.91002562653E+02  0.00000000000E+00 0.  1.
        -11    1    5    5    0    0  0.43098622667E+02  0.29274110591E+03  0.61337463352E+03  0.68101636354E+03  0.00000000000E+00 0. -1.
          1    1    6    6  503    0 -0.31192884327E+03 -0.26413245070E+03  0.54467946738E+02  0.41234974475E+03  0.00000000000E+00 0. -1.
         -1    1    6    6    0  503 -0.47015875403E+02 -0.78459430609E+01  0.24466430007E+02  0.53578517707E+02  0.00000000000E+00 0.  1.
<mgrwt>
<rscale>  0 0.23304859E+04</rscale>
<asrwt>0</asrwt>
<pdfrwt beam="1">  1        2 0.20158240E+00 0.23304859E+04</pdfrwt>
<pdfrwt beam="2">  1       -1 0.15942399E+00 0.23304859E+04</pdfrwt>
<totfact> 0.49606377E+00</totfact>
</mgrwt>
</event>
<event>
12    6  0.1647231E-007  0.2274841E+04  0.7818608E-02  0.8487907E-01
          2   -1    0    0  501    0  0.00000000000E+00  0.00000000000E+00  0.10448677052E+04  0.10448677052E+04  0.00000000000E+00 0. -1.
         -1   -1    0    0    0  501 -0.00000000000E+00 -0.00000000000E+00 -0.12381715952E+04  0.12381715952E+04  0.00000000000E+00 0.  1.
         24    2    1    2    0    0 -0.20408391930E+03  0.61011296378E+03 -0.79960052926E+03  0.10293609379E+04  0.79591829800E+02 0.  0.
        254    2    1    2    0    0  0.20408391930E+03 -0.61011296378E+03  0.60629663924E+03  0.12536783625E+04  0.88894642534E+03 0.  0.
         23    2    4    4    0    0  0.37465778722E+03 -0.32259101295E+03 -0.55748486316E+02  0.50617350133E+03  0.93114448682E+02 0.  0.
         23    2    4    4    0    0 -0.17057386792E+03 -0.28752195083E+03  0.66204512556E+03  0.74750486116E+03  0.93249410531E+02 0.  0.
          2    1    3    3  502    0 -0.15281392304E+02  0.14427354226E+03 -0.16226483103E+03  0.21766545738E+03  0.00000000000E+00 0. -1.
         -1    1    3    3    0  502 -0.18880252700E+03  0.46583942152E+03 -0.63733569824E+03  0.81169548052E+03  0.00000000000E+00 0.  1.
         11    1    5    5    0    0  0.18636938350E+03 -0.21875378383E+03 -0.45013989233E+02  0.29088317977E+03  0.00000000000E+00 0. -1.
        -11    1    5    5    0    0  0.18828840373E+03 -0.10383722913E+03 -0.10734497084E+02  0.21529032156E+03  0.00000000000E+00 0.  1.
          1    1    6    6  503    0 -0.17825988948E+03 -0.26260657215E+03  0.63519135112E+03  0.71007524423E+03  0.00000000000E+00 0. -1.
         -1    1    6    6    0  503  0.76860215635E+01 -0.24915378675E+02  0.26853774439E+02  0.37429616931E+02  0.00000000000E+00 0.  1.
<mgrwt>
<rscale>  0 0.22748411E+04</rscale>
<asrwt>0</asrwt>
<pdfrwt beam="1">  1        2 0.16074888E+00 0.22748411E+04</pdfrwt>
<pdfrwt beam="2">  1       -1 0.19048794E+00 0.22748411E+04</pdfrwt>
<totfact> 0.42828298E+00</totfact>
</mgrwt>
</event>
<event>
12    6  0.1647231E-007  0.3612965E+04  0.7818608E-02  0.8087528E-01
          2   -1    0    0  501    0  0.00000000000E+00  0.00000000000E+00  0.28613912679E+04  0.28613912679E+04  0.00000000000E+00 0. -1.
         -1   -1    0    0    0  501 -0.00000000000E+00 -0.00000000000E+00 -0.11404865937E+04  0.11404865937E+04  0.00000000000E+00 0.  1.
         24    2    1    2    0    0 -0.39762659876E+03 -0.27367822591E+03 -0.98014764288E+03  0.10953777438E+04  0.78462196762E+02 0.  0.
        254    2    1    2    0    0  0.39762659876E+03  0.27367822591E+03  0.27010523171E+04  0.29065001179E+04  0.95867232789E+03 0.  0.
         23    2    4    4    0    0  0.56632133158E+03  0.39915283187E+03  0.25182794017E+04  0.26134699763E+04  0.91931162195E+02 0.  0.
         23    2    4    4    0    0 -0.16869473282E+03 -0.12547460596E+03  0.18277291539E+03  0.29303014152E+03  0.90878686254E+02 0.  0.
          4    1    3    3  502    0 -0.16994623157E+03 -0.99238688424E+02 -0.32093286667E+03  0.37646771949E+03  0.00000000000E+00 0. -1.
         -3    1    3    3    0  502 -0.22768036719E+03 -0.17443953749E+03 -0.65921477620E+03  0.71891002428E+03  0.00000000000E+00 0.  1.
         11    1    5    5    0    0  0.27799881268E+03  0.20728360473E+03  0.10915850034E+04  0.11453417185E+04  0.00000000000E+00 0. -1.
        -11    1    5    5    0    0  0.28832251890E+03  0.19186922714E+03  0.14266943983E+04  0.14681282578E+04  0.00000000000E+00 0.  1.
          1    1    6    6  503    0  0.41548087317E+01 -0.10093915277E+02 -0.58403297830E+01  0.12379782437E+02  0.00000000000E+00 0. -1.
         -1    1    6    6    0  503 -0.17284954155E+03 -0.11538069069E+03  0.18861324517E+03  0.28065035908E+03  0.00000000000E+00 0.  1.
<mgrwt>
<rscale>  0 0.36129646E+04</rscale>
<asrwt>0</asrwt>
<pdfrwt beam="1">  1        2 0.44021404E+00 0.36129646E+04</pdfrwt>
<pdfrwt beam="2">  1       -1 0.17545948E+00 0.36129646E+04</pdfrwt>
<totfact> 0.44018027E-01</totfact>
</mgrwt>
</event>
<event>
12    6  0.1647231E-007  0.4130293E+04  0.7818608E-02  0.7978766E-01
         -1   -1    0    0    0  501 -0.00000000000E+00  0.00000000000E+00  0.20736724836E+04  0.20736724836E+04  0.00000000000E+00 0.  1.
          2   -1    0    0  501    0  0.00000000000E+00 -0.00000000000E+00 -0.20566554855E+04  0.20566554855E+04  0.00000000000E+00 0. -1.
         24    2    1    2    0    0 -0.17847597070E+04 -0.68350785425E+03  0.45384982146E+03  0.19663357044E+04  0.89141703436E+02 0.  0.
        254    2    1    2    0    0  0.17847597070E+04  0.68350785425E+03 -0.43683282335E+03  0.21639922648E+04  0.91623654589E+03 0.  0.
         23    2    4    4    0    0  0.82642017158E+03  0.45374534098E+03 -0.65381061246E+03  0.11510059313E+04  0.92147721217E+02 0.  0.
         23    2    4    4    0    0  0.95833953543E+03  0.22976251327E+03  0.21697778910E+03  0.10129863335E+04  0.88636748587E+02 0.  0.
          4    1    3    3  502    0 -0.84009310542E+03 -0.32473688568E+03  0.16827151555E+03  0.91625639077E+03  0.00000000000E+00 0. -1.
         -3    1    3    3    0  502 -0.94466660159E+03 -0.35877096857E+03  0.28557830591E+03  0.10500793136E+04  0.00000000000E+00 0.  1.
         11    1    5    5    0    0  0.19021498575E+03  0.12563835187E+03 -0.20148576204E+03  0.30424208875E+03  0.00000000000E+00 0. -1.
        -11    1    5    5    0    0  0.63620518583E+03  0.32810698911E+03 -0.45232485042E+03  0.84676384257E+03  0.00000000000E+00 0.  1.
          3    1    6    6  503    0  0.45845580184E+03  0.12956324591E+03  0.63927584121E+02  0.48068190412E+03  0.00000000000E+00 0. -1.
         -3    1    6    6    0  503  0.49988373359E+03  0.10019926736E+03  0.15305020498E+03  0.53230442937E+03  0.00000000000E+00 0.  1.
<mgrwt>
<rscale>  0 0.41302929E+04</rscale>
<asrwt>0</asrwt>
<pdfrwt beam="1">  1        2 0.31640853E+00 0.41302929E+04</pdfrwt>
<pdfrwt beam="2">  1       -1 0.31902654E+00 0.41302929E+04</pdfrwt>
<totfact> 0.13703204E-01</totfact>
</mgrwt>
</event>
<event>
12    6  0.1647231E-007  0.1485347E+04  0.7818608E-02  0.8894256E-01
         -1   -1    0    0    0  501 -0.00000000000E+00  0.00000000000E+00  0.80102653351E+03  0.80102653351E+03  0.00000000000E+00 0.  1.
          2   -1    0    0  501    0  0.00000000000E+00 -0.00000000000E+00 -0.68857116779E+03  0.68857116779E+03  0.00000000000E+00 0. -1.
         24    2    1    2    0    0 -0.40905998478E+03  0.28454834585E+02 -0.17807359740E+03  0.45398732605E+03  0.79085633092E+02 0.  0.
        254    2    1    2    0    0  0.40905998478E+03 -0.28454834585E+02  0.29052896311E+03  0.10356103752E+04  0.90550650033E+03 0.  0.
         23    2    4    4    0    0  0.20316553092E+03  0.40225902675E+03  0.30313672572E+03  0.55085056139E+03  0.91956016338E+02 0.  0.
         23    2    4    4    0    0  0.20589445386E+03 -0.43071386133E+03 -0.12607762612E+02  0.48475981386E+03  0.83223584274E+02 0.  0.
          2    1    3    3  502    0 -0.33324493225E+03  0.13977633693E+02 -0.17519119086E+03  0.37674860646E+03  0.00000000000E+00 0. -1.
         -1    1    3    3    0  502 -0.75815052530E+02  0.14477200892E+02 -0.28824065326E+01  0.77238719585E+02  0.00000000000E+00 0.  1.
         11    1    5    5    0    0  0.11424113952E+03  0.31526854864E+03  0.21360033890E+03  0.39758068426E+03  0.00000000000E+00 0. -1.
        -11    1    5    5    0    0  0.88924391401E+02  0.86990478106E+02  0.89536386829E+02  0.15326987712E+03  0.00000000000E+00 0.  1.
          2    1    6    6  503    0  0.20369842257E+03 -0.43070541456E+03 -0.20183000029E+02  0.47687268214E+03  0.00000000000E+00 0. -1.
         -2    1    6    6    0  503  0.21960312894E+01 -0.84467787895E-02  0.75752374171E+01  0.78871317155E+01  0.00000000000E+00 0.  1.
<mgrwt>
<rscale>  0 0.14853468E+04</rscale>
<asrwt>0</asrwt>
<pdfrwt beam="1">  1        2 0.10593403E+00 0.14853468E+04</pdfrwt>
<pdfrwt beam="2">  1       -1 0.12323485E+00 0.14853468E+04</pdfrwt>
<totfact> 0.26804958E+01</totfact>
</mgrwt>
</event>
<event>
12    6  0.1647231E-007  0.1512794E+04  0.7818608E-02  0.8875989E-01
          2   -1    0    0  501    0  0.00000000000E+00  0.00000000000E+00  0.87932678847E+03  0.87932678847E+03  0.00000000000E+00 0. -1.
         -1   -1    0    0    0  501 -0.00000000000E+00 -0.00000000000E+00 -0.65065276792E+03  0.65065276792E+03  0.00000000000E+00 0.  1.
         24    2    1    2    0    0  0.76426991009E+02  0.24601811411E+03  0.48919310260E+03  0.55927201499E+03  0.84316651333E+02 0.  0.
        254    2    1    2    0    0 -0.76426991009E+02 -0.24601811411E+03 -0.26051908205E+03  0.97070754139E+03  0.89890875031E+03 0.  0.
         23    2    4    4    0    0 -0.24724429778E+03 -0.24898510782E+03  0.23915680693E+03  0.43487769350E+03  0.93804601689E+02 0.  0.
         23    2    4    4    0    0  0.17081730677E+03  0.29669937071E+01 -0.49967588898E+03  0.53582984790E+03  0.90831032819E+02 0.  0.
          4    1    3    3  502    0  0.78626493129E+02  0.24422110825E+03  0.49224948852E+03  0.55509966140E+03  0.00000000000E+00 0. -1.
         -3    1    3    3    0  502 -0.21995021198E+01  0.17970058617E+01 -0.30563859159E+01  0.41723535935E+01  0.00000000000E+00 0.  1.
         11    1    5    5    0    0 -0.12419509080E+03 -0.18847399664E+03  0.15828791065E+03  0.27568447661E+03  0.00000000000E+00 0. -1.
        -11    1    5    5    0    0 -0.12304920699E+03 -0.60511111177E+02  0.80868896287E+02  0.15919321689E+03  0.00000000000E+00 0.  1.
          2    1    6    6  503    0  0.95639322351E+02  0.27337126844E+02 -0.37700187861E+03  0.38990334053E+03  0.00000000000E+00 0. -1.
         -2    1    6    6    0  503  0.75177984420E+02 -0.24370133137E+02 -0.12267401037E+03  0.14592650737E+03  0.00000000000E+00 0.  1.
<mgrwt>
<rscale>  0 0.15127940E+04</rscale>
<asrwt>0</asrwt>
<pdfrwt beam="1">  1        2 0.13528104E+00 0.15127940E+04</pdfrwt>
<pdfrwt beam="2">  1       -1 0.10010043E+00 0.15127940E+04</pdfrwt>
<totfact> 0.31743084E+01</totfact>
</mgrwt>
</event>
<event>
12    6  0.1647231E-007  0.1713177E+04  0.7818608E-02  0.8753885E-01
          2   -1    0    0  501    0  0.00000000000E+00  0.00000000000E+00  0.28632819547E+04  0.28632819547E+04  0.00000000000E+00 0. -1.
         -1   -1    0    0    0  501 -0.00000000000E+00 -0.00000000000E+00 -0.25625972527E+03  0.25625972527E+03  0.00000000000E+00 0.  1.
         24    2    1    2    0    0  0.40885868506E+03  0.44878889067E+03  0.11625223794E+04  0.13139384607E+04  0.79994393964E+02 0.  0.
        254    2    1    2    0    0 -0.40885868506E+03 -0.44878889067E+03  0.14444998500E+04  0.18056032193E+04  0.89724371053E+03 0.  0.
         23    2    4    4    0    0 -0.24482972876E+03  0.11302769065E+03  0.10649701313E+04  0.11022839245E+04  0.90286292861E+02 0.  0.
         23    2    4    4    0    0 -0.16402895630E+03 -0.56181658132E+03  0.37952971868E+03  0.70331929478E+03  0.89843494420E+02 0.  0.
          2    1    3    3  502    0  0.19099843036E+03  0.26782075598E+03  0.60858896528E+03  0.69180118994E+03  0.00000000000E+00 0. -1.
         -1    1    3    3    0  502  0.21786025470E+03  0.18096813469E+03  0.55393341415E+03  0.62213727075E+03  0.00000000000E+00 0.  1.
         11    1    5    5    0    0 -0.21871860251E+03  0.12218171658E+03  0.86979239554E+03  0.90515468860E+03  0.00000000000E+00 0.  1.
        -11    1    5    5    0    0 -0.26111126244E+02 -0.91540259335E+01  0.19517773576E+03  0.19712923589E+03  0.00000000000E+00 0. -1.
          4    1    6    6  503    0 -0.19111738099E+02 -0.20185676733E+03  0.15291189202E+03  0.25395562560E+03  0.00000000000E+00 0. -1.
         -4    1    6    6    0  503 -0.14491721820E+03 -0.35995981399E+03  0.22661782666E+03  0.44936366918E+03  0.00000000000E+00 0.  1.
<mgrwt>
<rscale>  0 0.17131770E+04</rscale>
<asrwt>0</asrwt>
<pdfrwt beam="1">  1        2 0.44050489E+00 0.17131770E+04</pdfrwt>
<pdfrwt beam="2">  1       -1 0.39424575E-01 0.17131770E+04</pdfrwt>
<totfact> 0.14378115E+01</totfact>
</mgrwt>
</event>
<event>
12    6  0.1647231E-007  0.1749431E+04  0.7818608E-02  0.8733663E-01
          2   -1    0    0  501    0  0.00000000000E+00  0.00000000000E+00  0.24424235828E+04  0.24424235828E+04  0.00000000000E+00 0. -1.
         -1   -1    0    0    0  501 -0.00000000000E+00 -0.00000000000E+00 -0.31326570364E+03  0.31326570364E+03  0.00000000000E+00 0.  1.
         24    2    1    2    0    0 -0.46250367229E+03 -0.21277289898E+03  0.17500242002E+03  0.54413689313E+03  0.79228517799E+02 0.  0.
        254    2    1    2    0    0  0.46250367229E+03  0.21277289898E+03  0.19541554592E+04  0.22115523934E+04  0.90169755268E+03 0.  0.
         23    2    4    4    0    0  0.19890783057E+03 -0.34134280359E+03  0.63414314682E+03  0.75310208540E+03  0.94583221322E+02 0.  0.
         23    2    4    4    0    0  0.26359584171E+03  0.55411570256E+03  0.13200123124E+04  0.14584503080E+04  0.90098925557E+02 0.  0.
          4    1    3    3  502    0 -0.34572645907E+02 -0.17792764460E+02  0.37907235815E+02  0.54302935826E+02  0.00000000000E+00 0. -1.
         -3    1    3    3    0  502 -0.42793102638E+03 -0.19498013452E+03  0.13709518420E+03  0.48983395730E+03  0.00000000000E+00 0.  1.
         11    1    5    5    0    0  0.20996945627E+02 -0.60049819677E+02  0.17352114195E+03  0.18481460785E+03  0.00000000000E+00 0.  1.
        -11    1    5    5    0    0  0.17791088494E+03 -0.28129298391E+03  0.46062200486E+03  0.56828747755E+03  0.00000000000E+00 0. -1.
          2    1    6    6  503    0  0.67761009608E+02  0.22229229365E+03  0.56137976254E+03  0.60757934134E+03  0.00000000000E+00 0. -1.
         -2    1    6    6    0  503  0.19583483211E+03  0.33182340892E+03  0.75863254983E+03  0.85087096662E+03  0.00000000000E+00 0.  1.
<mgrwt>
<rscale>  0 0.17494314E+04</rscale>
<asrwt>0</asrwt>
<pdfrwt beam="1">  1        2 0.37575746E+00 0.17494314E+04</pdfrwt>
<pdfrwt beam="2">  1       -1 0.48194725E-01 0.17494314E+04</pdfrwt>
<totfact> 0.17481162E+01</totfact>
</mgrwt>
</event>
<event>
12    6  0.1647231E-007  0.2137787E+04  0.7818608E-02  0.8544778E-01
          2   -1    0    0  501    0  0.00000000000E+00  0.00000000000E+00  0.90927388103E+03  0.90927388103E+03  0.00000000000E+00 0. -1.
         -1   -1    0    0    0  501 -0.00000000000E+00 -0.00000000000E+00 -0.12565339009E+04  0.12565339009E+04  0.00000000000E+00 0.  1.
         24    2    1    2    0    0  0.41727078478E+03  0.12958842666E+03 -0.91433554735E+03  0.10165851847E+04  0.80795274547E+02 0.  0.
        254    2    1    2    0    0 -0.41727078478E+03 -0.12958842666E+03  0.56707552745E+03  0.11492225973E+04  0.89901604888E+03 0.  0.
         23    2    4    4    0    0 -0.27797054641E+03 -0.38621470278E+03  0.66934664075E+03  0.82654552772E+03  0.93397872539E+02 0.  0.
         23    2    4    4    0    0 -0.13930023837E+03  0.25662627612E+03 -0.10227111330E+03  0.32267706958E+03  0.91648833102E+02 0.  0.
          2    1    3    3  502    0  0.10600969743E+01  0.44949111967E+01 -0.47069106188E+00  0.46421527697E+01  0.00000000000E+00 0. -1.
         -1    1    3    3    0  502  0.41621068780E+03  0.12509351546E+03 -0.91386485628E+03  0.10119430319E+04  0.00000000000E+00 0.  1.
         11    1    5    5    0    0 -0.15199389791E+03 -0.26834197904E+03  0.37679735122E+03  0.48691457835E+03  0.00000000000E+00 0. -1.
        -11    1    5    5    0    0 -0.12597664849E+03 -0.11787272374E+03  0.29254928953E+03  0.33963094937E+03  0.00000000000E+00 0.  1.
          4    1    6    6  503    0 -0.13209874681E+03  0.25801528406E+03 -0.82180931106E+02  0.30129001171E+03  0.00000000000E+00 0. -1.
         -4    1    6    6    0  503 -0.72014915576E+01 -0.13890079399E+01 -0.20090182190E+02  0.21387057866E+02  0.00000000000E+00 0.  1.
<mgrwt>
<rscale>  0 0.21377871E+04</rscale>
<asrwt>0</asrwt>
<pdfrwt beam="1">  1        2 0.13988829E+00 0.21377871E+04</pdfrwt>
<pdfrwt beam="2">  1       -1 0.19331291E+00 0.21377871E+04</pdfrwt>
<totfact> 0.50732632E+00</totfact>
</mgrwt>
</event>
<event>
12    6  0.1647231E-007  0.1311630E+04  0.7818608E-02  0.9020393E-01
          2   -1    0    0  501    0  0.00000000000E+00  0.00000000000E+00  0.16610759362E+04  0.16610759362E+04  0.00000000000E+00 0. -1.
         -1   -1    0    0    0  501 -0.00000000000E+00 -0.00000000000E+00 -0.25892447167E+03  0.25892447167E+03  0.00000000000E+00 0.  1.
         24    2    1    2    0    0 -0.24775647877E+03 -0.22949042772E+03  0.38949946040E+03  0.52169253077E+03  0.80025857207E+02 0.  0.
        254    2    1    2    0    0  0.24775647877E+03  0.22949042772E+03  0.10126520041E+04  0.13983078771E+04  0.90318974112E+03 0.  0.
         23    2    4    4    0    0 -0.29698513782E+03  0.26934916047E+03  0.44047794913E+03  0.60246785721E+03  0.90540338903E+02 0.  0.
         23    2    4    4    0    0  0.54474161659E+03 -0.39858732754E+02  0.57217405497E+03  0.79584001985E+03  0.87441641071E+02 0.  0.
          4    1    3    3  502    0 -0.23092821526E+03 -0.17447165876E+03  0.32953024647E+03  0.43858680287E+03  0.00000000000E+00 0. -1.
         -3    1    3    3    0  502 -0.16828263512E+02 -0.55018768956E+02  0.59969213929E+02  0.83105727898E+02  0.00000000000E+00 0.  1.
         11    1    5    5    0    0 -0.22069565824E+03  0.15067198416E+03  0.25442443914E+03  0.36897210682E+03  0.00000000000E+00 0.  1.
        -11    1    5    5    0    0 -0.76289479580E+02  0.11867717632E+03  0.18605350999E+03  0.23349575040E+03  0.00000000000E+00 0. -1.
          2    1    6    6  503    0  0.62825134629E+02 -0.24063615220E+02  0.42544661141E+02  0.79599643907E+02  0.00000000000E+00 0. -1.
         -2    1    6    6    0  503  0.48191648196E+03 -0.15795117535E+02  0.52962939383E+03  0.71624037595E+03  0.00000000000E+00 0.  1.
<mgrwt>
<rscale>  0 0.13116298E+04</rscale>
<asrwt>0</asrwt>
<pdfrwt beam="1">  1        2 0.25555014E+00 0.13116298E+04</pdfrwt>
<pdfrwt beam="2">  1       -1 0.39834535E-01 0.13116298E+04</pdfrwt>
<totfact> 0.70588675E+01</totfact>
</mgrwt>
</event>
<event>
12    6  0.1647231E-007  0.2622233E+04  0.7818608E-02  0.8360688E-01
         -1   -1    0    0    0  501 -0.00000000000E+00  0.00000000000E+00  0.19441004250E+04  0.19441004250E+04  0.00000000000E+00 0.  1.
          2   -1    0    0  501    0  0.00000000000E+00 -0.00000000000E+00 -0.88422714526E+03  0.88422714526E+03  0.00000000000E+00 0. -1.
         24    2    1    2    0    0 -0.17548179207E+02  0.94877592414E+03 -0.24433642733E+03  0.98234993482E+03  0.69479579068E+02 0.  0.
        254    2    1    2    0    0  0.17548179207E+02 -0.94877592414E+03  0.13042097071E+04  0.18459776354E+04  0.89787904403E+03 0.  0.
         23    2    4    4    0    0 -0.36107941343E+03 -0.49713630934E+03  0.32889889354E+03  0.70279456100E+03  0.90679986416E+02 0.  0.
         23    2    4    4    0    0  0.37862759264E+03 -0.45163961480E+03  0.97531081354E+03  0.11431830744E+04  0.91099742698E+02 0.  0.
          2    1    3    3  502    0 -0.85430268185E+01  0.86873886781E+03 -0.20464082958E+03  0.89255704181E+03  0.00000000000E+00 0. -1.
         -1    1    3    3    0  502 -0.90051523889E+01  0.80037056324E+02 -0.39695597743E+02  0.89792893008E+02  0.00000000000E+00 0.  1.
         11    1    5    5    0    0 -0.79306933574E+02 -0.12156810497E+03  0.36486735942E+02  0.14966521225E+03  0.00000000000E+00 0. -1.
        -11    1    5    5    0    0 -0.28177247986E+03 -0.37556820437E+03  0.29241215760E+03  0.55312934875E+03  0.00000000000E+00 0.  1.
          2    1    6    6  503    0  0.18815122544E+03 -0.29418396147E+03  0.56705199205E+03  0.66595273744E+03  0.00000000000E+00 0. -1.
         -2    1    6    6    0  503  0.19047636720E+03 -0.15745565333E+03  0.40825882149E+03  0.47723033700E+03  0.00000000000E+00 0.  1.
<mgrwt>
<rscale>  0 0.26222329E+04</rscale>
<asrwt>0</asrwt>
<pdfrwt beam="1">  1        2 0.13603495E+00 0.26222329E+04</pdfrwt>
<pdfrwt beam="2">  1       -1 0.29909237E+00 0.26222329E+04</pdfrwt>
<totfact> 0.10129289E+00</totfact>
</mgrwt>
</event>
<event>
12    6  0.1647231E-007  0.1618671E+04  0.7818608E-02  0.8809159E-01
          2   -1    0    0  501    0  0.00000000000E+00  0.00000000000E+00  0.43746969608E+04  0.43746969608E+04  0.00000000000E+00 0. -1.
         -1   -1    0    0    0  501 -0.00000000000E+00 -0.00000000000E+00 -0.14973004205E+03  0.14973004205E+03  0.00000000000E+00 0.  1.
         24    2    1    2    0    0 -0.41000860679E+03  0.30603407477E+03  0.20391642935E+04  0.21036164644E+04  0.72438256572E+02 0.  0.
        254    2    1    2    0    0  0.41000860679E+03 -0.30603407477E+03  0.21858026253E+04  0.24208105384E+04  0.90599483099E+03 0.  0.
         23    2    4    4    0    0 -0.11563261642E+03 -0.11713589828E+03  0.15838282091E+04  0.15948274204E+04  0.88718569132E+02 0.  0.
         23    2    4    4    0    0  0.52564122322E+03 -0.18889817649E+03  0.60197441622E+03  0.82598311800E+03  0.88846478951E+02 0.  0.
          2    1    3    3  502    0 -0.25692738678E+03  0.21858514295E+03  0.14447791422E+04  0.14836367199E+04  0.00000000000E+00 0. -1.
         -1    1    3    3    0  502 -0.15308122001E+03  0.87448931815E+02  0.59438515125E+03  0.61997974453E+03  0.00000000000E+00 0.  1.
         11    1    5    5    0    0 -0.12466952593E+03 -0.89428150760E+02  0.14345149400E+04  0.14426964330E+04  0.00000000000E+00 0. -1.
        -11    1    5    5    0    0  0.90369095109E+01 -0.27707747518E+02  0.14931326909E+03  0.15213098742E+03  0.00000000000E+00 0.  1.
          4    1    6    6  503    0  0.27913388024E+03 -0.14271125596E+03  0.30670461022E+03  0.43857718090E+03  0.00000000000E+00 0. -1.
         -4    1    6    6    0  503  0.24650734297E+03 -0.46186920524E+02  0.29526980600E+03  0.38740593710E+03  0.00000000000E+00 0.  1.
<mgrwt>
<rscale>  0 0.16186705E+04</rscale>
<asrwt>0</asrwt>
<pdfrwt beam="1">  1        2 0.67303021E+00 0.16186705E+04</pdfrwt>
<pdfrwt beam="2">  1       -1 0.23035394E-01 0.16186705E+04</pdfrwt>
<totfact> 0.29247825E+00</totfact>
</mgrwt>
</event>
<event>
12    6  0.1647231E-007  0.1591745E+04  0.7818608E-02  0.8825635E-01
          2   -1    0    0  501    0  0.00000000000E+00  0.00000000000E+00  0.66791383096E+03  0.66791383096E+03  0.00000000000E+00 0. -1.
         -1   -1    0    0    0  501 -0.00000000000E+00 -0.00000000000E+00 -0.94834542723E+03  0.94834542723E+03  0.00000000000E+00 0.  1.
         24    2    1    2    0    0  0.47631071228E+03  0.22795087451E+03  0.15421420245E+02  0.53440744469E+03  0.80746522603E+02 0.  0.
        254    2    1    2    0    0 -0.47631071228E+03 -0.22795087451E+03 -0.29585301652E+03  0.10818518135E+04  0.89668324572E+03 0.  0.
         23    2    4    4    0    0 -0.56339744443E+03  0.14293893987E+03 -0.35185162503E+03  0.68593174857E+03  0.94098760545E+02 0.  0.
         23    2    4    4    0    0  0.87086732148E+02 -0.37088981437E+03  0.55998608511E+02  0.39592006493E+03  0.92051617775E+02 0.  0.
          2    1    3    3  502    0  0.22266187235E+03  0.74718391283E+02  0.34825168378E+02  0.23743196867E+03  0.00000000000E+00 0. -1.
         -1    1    3    3    0  502  0.25364883993E+03  0.15323248323E+03 -0.19403748133E+02  0.29697547602E+03  0.00000000000E+00 0.  1.
         11    1    5    5    0    0 -0.17779828400E+03  0.70877626796E+02 -0.73949159710E+02  0.20519343556E+03  0.00000000000E+00 0.  1.
        -11    1    5    5    0    0 -0.38559916043E+03  0.72061313069E+02 -0.27790246532E+03  0.48073831302E+03  0.00000000000E+00 0. -1.
          3    1    6    6  503    0  0.40844622617E+02 -0.51441584879E+02  0.29655144939E+02  0.72069046566E+02  0.00000000000E+00 0. -1.
         -3    1    6    6    0  503  0.46242109531E+02 -0.31944822949E+03  0.26343463572E+02  0.32385101836E+03  0.00000000000E+00 0.  1.
<mgrwt>
<rscale>  0 0.15917450E+04</rscale>
<asrwt>0</asrwt>
<pdfrwt beam="1">  1        2 0.10275597E+00 0.15917450E+04</pdfrwt>
<pdfrwt beam="2">  1       -1 0.14589930E+00 0.15917450E+04</pdfrwt>
<totfact> 0.17906852E+01</totfact>
</mgrwt>
</event>
<event>
12    6  0.1647231E-007  0.2151102E+04  0.7818608E-02  0.8539061E-01
          2   -1    0    0  501    0  0.00000000000E+00  0.00000000000E+00  0.18642095137E+04  0.18642095137E+04  0.00000000000E+00 0. -1.
         -1   -1    0    0    0  501 -0.00000000000E+00 -0.00000000000E+00 -0.62053634468E+03  0.62053634468E+03  0.00000000000E+00 0.  1.
         24    2    1    2    0    0 -0.73849657154E+03  0.12609686705E+02 -0.48061095940E+02  0.74447698404E+03  0.79999502753E+02 0.  0.
        254    2    1    2    0    0  0.73849657154E+03 -0.12609686705E+02  0.12917342650E+04  0.17402688744E+04  0.90245340785E+03 0.  0.
         23    2    4    4    0    0  0.91872850247E+02  0.14728963411E+03  0.97946002433E+03  0.99901320999E+03  0.92469441060E+02 0.  0.
         23    2    4    4    0    0  0.64662372130E+03 -0.15989932082E+03  0.31227424065E+03  0.74125566437E+03  0.90855538342E+02 0.  0.
          4    1    3    3  502    0 -0.62763013970E+03  0.65312545035E+01 -0.12151965009E+02  0.62778174535E+03  0.00000000000E+00 0. -1.
         -3    1    3    3    0  502 -0.11086643185E+03  0.60784322012E+01 -0.35909130931E+02  0.11669523869E+03  0.00000000000E+00 0.  1.
         11    1    5    5    0    0  0.51071180573E+02  0.12861835478E+02  0.19062475657E+03  0.19776625120E+03  0.00000000000E+00 0. -1.
        -11    1    5    5    0    0  0.40801669674E+02  0.13442779864E+03  0.78883526776E+03  0.80124695878E+03  0.00000000000E+00 0.  1.
          3    1    6    6  503    0  0.45097855632E+03 -0.90195733530E+02  0.25472277097E+03  0.52573816549E+03  0.00000000000E+00 0. -1.
         -3    1    6    6    0  503  0.19564516498E+03 -0.69703587289E+02  0.57551469680E+02  0.21551749888E+03  0.00000000000E+00 0.  1.
<mgrwt>
<rscale>  0 0.21511018E+04</rscale>
<asrwt>0</asrwt>
<pdfrwt beam="1">  1        2 0.28680146E+00 0.21511018E+04</pdfrwt>
<pdfrwt beam="2">  1       -1 0.95467131E-01 0.21511018E+04</pdfrwt>
<totfact> 0.87947588E+00</totfact>
</mgrwt>
</event>
<event>
12    6  0.1647231E-007  0.1495182E+04  0.7818608E-02  0.8887663E-01
         -1   -1    0    0    0  501 -0.00000000000E+00  0.00000000000E+00  0.31501001267E+03  0.31501001267E+03  0.00000000000E+00 0.  1.
          2   -1    0    0  501    0  0.00000000000E+00 -0.00000000000E+00 -0.17742056848E+04  0.17742056848E+04  0.00000000000E+00 0. -1.
         24    2    1    2    0    0  0.64792655284E+02 -0.43349009996E+03 -0.66537975262E+03  0.80060778870E+03  0.78299816020E+02 0.  0.
        254    2    1    2    0    0 -0.64792655284E+02  0.43349009996E+03 -0.79381591948E+03  0.12886079087E+04  0.91556259945E+03 0.  0.
         23    2    4    4    0    0 -0.70186507828E+02 -0.21981327595E+03 -0.51711292523E+03  0.57339476672E+03  0.90176265710E+02 0.  0.
         23    2    4    4    0    0  0.53938525435E+01  0.65330337591E+03 -0.27670299425E+03  0.71521314202E+03  0.90171485908E+02 0.  0.
          4    1    3    3  502    0  0.51702225831E+02 -0.23784709174E+03 -0.30376043028E+03  0.38924896687E+03  0.00000000000E+00 0. -1.
         -3    1    3    3    0  502  0.13090429454E+02 -0.19564300822E+03 -0.36161932234E+03  0.41135882183E+03  0.00000000000E+00 0.  1.
         11    1    5    5    0    0 -0.70327217882E+01 -0.64779572600E+01 -0.10174463974E+03  0.10219292941E+03  0.00000000000E+00 0. -1.
        -11    1    5    5    0    0 -0.63153786040E+02 -0.21333531869E+03 -0.41536828549E+03  0.47120183731E+03  0.00000000000E+00 0.  1.
          2    1    6    6  503    0 -0.41276327526E+02  0.24018419455E+03 -0.10718102468E+03  0.26623289537E+03  0.00000000000E+00 0. -1.
         -2    1    6    6    0  503  0.46670180069E+02  0.41311918136E+03 -0.16952196957E+03  0.44898024665E+03  0.00000000000E+00 0.  1.
<mgrwt>
<rscale>  0 0.14951823E+04</rscale>
<asrwt>0</asrwt>
<pdfrwt beam="1">  1        2 0.27295472E+00 0.14951823E+04</pdfrwt>
<pdfrwt beam="2">  1       -1 0.48463078E-01 0.14951823E+04</pdfrwt>
<totfact> 0.41825319E+01</totfact>
</mgrwt>
</event>
<event>
12    6  0.1647231E-007  0.2361857E+04  0.7818608E-02  0.8453923E-01
         -1   -1    0    0    0  501 -0.00000000000E+00  0.00000000000E+00  0.50294553925E+03  0.50294553925E+03  0.00000000000E+00 0.  1.
          2   -1    0    0  501    0  0.00000000000E+00 -0.00000000000E+00 -0.27728490288E+04  0.27728490288E+04  0.00000000000E+00 0. -1.
         24    2    1    2    0    0  0.18053344014E+03  0.82365672593E+03 -0.22061395203E+03  0.87526970249E+03  0.80148681070E+02 0.  0.
        254    2    1    2    0    0 -0.18053344014E+03 -0.82365672593E+03 -0.20492895375E+04  0.24005248656E+04  0.92300016060E+03 0.  0.
         23    2    4    4    0    0  0.21454605501E+03 -0.21692055991E+03 -0.13598122501E+04  0.13965528242E+04  0.90475942692E+02 0.  0.
         23    2    4    4    0    0 -0.39507949515E+03 -0.60673616602E+03 -0.68947728741E+03  0.10039720414E+04  0.91456805930E+02 0.  0.
          4    1    3    3  502    0  0.90525532914E+02  0.54815822880E+03 -0.17036808117E+03  0.58111754318E+03  0.00000000000E+00 0. -1.
         -3    1    3    3    0  502  0.90007907230E+02  0.27549849713E+03 -0.50245870861E+02  0.29415215931E+03  0.00000000000E+00 0.  1.
         11    1    5    5    0    0  0.20110681784E+03 -0.21327220534E+03 -0.11675357308E+04  0.12037726814E+04  0.00000000000E+00 0. -1.
        -11    1    5    5    0    0  0.13439237164E+02 -0.36483545665E+01 -0.19227651929E+03  0.19278014280E+03  0.00000000000E+00 0.  1.
          3    1    6    6  503    0 -0.29702933225E+03 -0.46325426915E+03 -0.46758708412E+03  0.72212784418E+03  0.00000000000E+00 0. -1.
         -3    1    6    6    0  503 -0.98050162901E+02 -0.14348189688E+03 -0.22189020329E+03  0.28184419719E+03  0.00000000000E+00 0.  1.
<mgrwt>
<rscale>  0 0.23618569E+04</rscale>
<asrwt>0</asrwt>
<pdfrwt beam="1">  1        2 0.42659216E+00 0.23618569E+04</pdfrwt>
<pdfrwt beam="2">  1       -1 0.77376237E-01 0.23618569E+04</pdfrwt>
<totfact> 0.41266666E+00</totfact>
</mgrwt>
</event>
<event>
12    6  0.1647231E-007  0.2017451E+04  0.7818608E-02  0.8598505E-01
         -1   -1    0    0    0  501 -0.00000000000E+00  0.00000000000E+00  0.10943068486E+04  0.10943068486E+04  0.00000000000E+00 0.  1.
          2   -1    0    0  501    0  0.00000000000E+00 -0.00000000000E+00 -0.92983677148E+03  0.92983677148E+03  0.00000000000E+00 0. -1.
         24    2    1    2    0    0 -0.29311211183E+03 -0.74578973393E+03  0.15403522135E+03  0.81996489783E+03  0.80613565362E+02 0.  0.
        254    2    1    2    0    0  0.29311211183E+03  0.74578973393E+03  0.10434855737E+02  0.12041787222E+04  0.89878833521E+03 0.  0.
         23    2    4    4    0    0  0.20826993306E+03  0.91485451495E+03  0.14434284255E+03  0.95367190977E+03  0.91214619135E+02 0.  0.
         23    2    4    4    0    0  0.84842178771E+02 -0.16906478103E+03 -0.13390798682E+03  0.25050681245E+03  0.95085323105E+02 0.  0.
          2    1    3    3  502    0 -0.15667712911E+03 -0.47189159031E+03  0.12431787898E+03  0.51252739520E+03  0.00000000000E+00 0. -1.
         -1    1    3    3    0  502 -0.13643498272E+03 -0.27389814362E+03  0.29717342362E+02  0.30743750263E+03  0.00000000000E+00 0.  1.
         11    1    5    5    0    0  0.19288904062E+03  0.77238804937E+03  0.93297500560E+02  0.80155717476E+03  0.00000000000E+00 0. -1.
        -11    1    5    5    0    0  0.15380892441E+02  0.14246646559E+03  0.51045341993E+02  0.15211473501E+03  0.00000000000E+00 0.  1.
          1    1    6    6  503    0  0.10374467672E+03 -0.15618957677E+03 -0.12752665822E+03  0.22676240957E+03  0.00000000000E+00 0. -1.
         -1    1    6    6    0  503 -0.18902497950E+02 -0.12875204260E+02 -0.63813285974E+01  0.23744402880E+02  0.00000000000E+00 0.  1.
<mgrwt>
<rscale>  0 0.20174506E+04</rscale>
<asrwt>0</asrwt>
<pdfrwt beam="1">  1        2 0.14305181E+00 0.20174506E+04</pdfrwt>
<pdfrwt beam="2">  1       -1 0.16835490E+00 0.20174506E+04</pdfrwt>
<totfact> 0.74987280E+00</totfact>
</mgrwt>
</event>
<event>
12    6  0.2205862E-007  0.1291984E+04  0.7818608E-02  0.9035946E-01
         -1   -1    0    0    0  501 -0.00000000000E+00  0.00000000000E+00  0.44120695467E+03  0.44120695467E+03  0.00000000000E+00 0.  1.
          2   -1    0    0  501    0  0.00000000000E+00 -0.00000000000E+00 -0.94582753507E+03  0.94582753507E+03  0.00000000000E+00 0. -1.
         24    2    1    2    0    0  0.40196112321E+02  0.94804100166E+02  0.20954821116E+03  0.24716938861E+03  0.81109241203E+02 0.  0.
        254    2    1    2    0    0 -0.40196112321E+02 -0.94804100166E+02 -0.71416879156E+03  0.11398651011E+04  0.88241251185E+03 0.  0.
         23    2    4    4    0    0 -0.42524409109E+03 -0.18429827288E+03 -0.29635692503E+03  0.55760530643E+03  0.91092592194E+02 0.  0.
         23    2    4    4    0    0  0.38504797877E+03  0.89494172715E+02 -0.41781186653E+03  0.58225979469E+03  0.90490661372E+02 0.  0.
          4    1    3    3  502    0  0.13259623857E+01  0.95287479928E+01 -0.65407152838E+01  0.11633407540E+02  0.00000000000E+00 0. -1.
         -3    1    3    3    0  502  0.38870149935E+02  0.85275352173E+02  0.21608892645E+03  0.23553598107E+03  0.00000000000E+00 0.  1.
         11    1    5    5    0    0 -0.64782385143E+02 -0.24160144418E+02 -0.86766531394E+02  0.11094548649E+03  0.00000000000E+00 0. -1.
        -11    1    5    5    0    0 -0.36046170595E+03 -0.16013812846E+03 -0.20959039364E+03  0.44665981994E+03  0.00000000000E+00 0.  1.
          3    1    6    6  503    0  0.21520204809E+02  0.85705478502E+01 -0.83444668594E+00  0.23179081232E+02  0.00000000000E+00 0. -1.
         -3    1    6    6    0  503  0.36352777396E+03  0.80923624865E+02 -0.41697741985E+03  0.55908071346E+03  0.00000000000E+00 0.  1.
<mgrwt>
<rscale>  0 0.12919840E+04</rscale>
<asrwt>0</asrwt>
<pdfrwt beam="1">  1        2 0.14551193E+00 0.12919840E+04</pdfrwt>
<pdfrwt beam="2">  1       -1 0.67877993E-01 0.12919840E+04</pdfrwt>
<totfact> 0.67202749E+01</totfact>
</mgrwt>
</event>
<event>
12    6  0.1647231E-007  0.2136774E+04  0.7818608E-02  0.8545215E-01
         -1   -1    0    0    0  501 -0.00000000000E+00  0.00000000000E+00  0.13981493071E+04  0.13981493071E+04  0.00000000000E+00 0.  1.
          2   -1    0    0  501    0  0.00000000000E+00 -0.00000000000E+00 -0.81640143223E+03  0.81640143223E+03  0.00000000000E+00 0. -1.
         24    2    1    2    0    0  0.61447578445E+03 -0.50102675644E+03 -0.14793897235E+03  0.81043658042E+03  0.79455717239E+02 0.  0.
        254    2    1    2    0    0 -0.61447578445E+03  0.50102675644E+03  0.72968684723E+03  0.14041141589E+04  0.90026961290E+03 0.  0.
         23    2    4    4    0    0 -0.35907879096E+03 -0.14098422204E+03  0.56038299723E+03  0.68665600783E+03  0.93022795699E+02 0.  0.
         23    2    4    4    0    0 -0.25539699348E+03  0.64201097848E+03  0.16930385000E+03  0.71745815109E+03  0.93148720685E+02 0.  0.
          4    1    3    3  502    0  0.33478642252E+03 -0.28396329839E+03 -0.12105037165E+03  0.45537928808E+03  0.00000000000E+00 0. -1.
         -3    1    3    3    0  502  0.27968936192E+03 -0.21706345806E+03 -0.26888600699E+02  0.35505729234E+03  0.00000000000E+00 0.  1.
         11    1    5    5    0    0 -0.73029005260E+02  0.48787593681E+01  0.76003253549E+02  0.10551555550E+03  0.00000000000E+00 0.  1.
        -11    1    5    5    0    0 -0.28604978570E+03 -0.14586298141E+03  0.48437974368E+03  0.58114045233E+03  0.00000000000E+00 0. -1.
          1    1    6    6  503    0 -0.16761684178E+03  0.30279178167E+03  0.67905526006E+02  0.35268885602E+03  0.00000000000E+00 0. -1.
         -1    1    6    6    0  503 -0.87780151705E+02  0.33921919681E+03  0.10139832399E+03  0.36476929507E+03  0.00000000000E+00 0.  1.
<mgrwt>
<rscale>  0 0.21367743E+04</rscale>
<asrwt>0</asrwt>
<pdfrwt beam="1">  1        2 0.12560022E+00 0.21367743E+04</pdfrwt>
<pdfrwt beam="2">  1       -1 0.21509989E+00 0.21367743E+04</pdfrwt>
<totfact> 0.41721740E+00</totfact>
</mgrwt>
</event>
<event>
12    6  0.1647231E-007  0.2777608E+04  0.7818608E-02  0.8310254E-01
          2   -1    0    0  501    0  0.00000000000E+00  0.00000000000E+00  0.20051955049E+04  0.20051955049E+04  0.00000000000E+00 0. -1.
         -1   -1    0    0    0  501 -0.00000000000E+00 -0.00000000000E+00 -0.96188965610E+03  0.96188965610E+03  0.00000000000E+00 0.  1.
         24    2    1    2    0    0  0.10119830412E+04  0.31398048557E+03 -0.21215304558E+03  0.10836746034E+04  0.81537171783E+02 0.  0.
        254    2    1    2    0    0 -0.10119830412E+04 -0.31398048557E+03  0.12554588944E+04  0.18834105576E+04  0.92106724611E+03 0.  0.
         23    2    4    4    0    0 -0.20286600185E+02 -0.38110447606E+03  0.47186589659E+03  0.61424379330E+03  0.94793699275E+02 0.  0.
         23    2    4    4    0    0 -0.99169644101E+03  0.67123990492E+02  0.78359299778E+03  0.12691667643E+04  0.93802068741E+02 0.  0.
          2    1    3    3  502    0  0.13474922932E+02 -0.39670135076E+00 -0.11648999964E+02  0.17816568697E+02  0.00000000000E+00 0. -1.
         -3    1    3    3    0  502  0.99850811827E+03  0.31437718692E+03 -0.20050404562E+03  0.10658580347E+04  0.00000000000E+00 0.  1.
         11    1    5    5    0    0 -0.43829502570E+02 -0.95801160099E+02  0.10313450172E+03  0.14743002753E+03  0.00000000000E+00 0.  1.
        -11    1    5    5    0    0  0.23542902385E+02 -0.28530331596E+03  0.36873139487E+03  0.46681376577E+03  0.00000000000E+00 0. -1.
          3    1    6    6  503    0 -0.78920523305E+03  0.36457111703E+02  0.57742859794E+03  0.97856926509E+03  0.00000000000E+00 0. -1.
         -3    1    6    6    0  503 -0.20249120797E+03  0.30666878789E+02  0.20616439984E+03  0.29059749917E+03  0.00000000000E+00 0.  1.
<mgrwt>
<rscale>  0 0.27776082E+04</rscale>
<asrwt>0</asrwt>
<pdfrwt beam="1">  1        2 0.30849162E+00 0.27776082E+04</pdfrwt>
<pdfrwt beam="2">  1       -1 0.14798302E+00 0.27776082E+04</pdfrwt>
<totfact> 0.23816501E+00</totfact>
</mgrwt>
</event>
<event>
12    6  0.1647231E-007  0.3150477E+04  0.7818608E-02  0.8202020E-01
          2   -1    0    0  501    0  0.00000000000E+00  0.00000000000E+00  0.12657532200E+04  0.12657532200E+04  0.00000000000E+00 0. -1.
         -1   -1    0    0    0  501 -0.00000000000E+00 -0.00000000000E+00 -0.19603949240E+04  0.19603949240E+04  0.00000000000E+00 0.  1.
         24    2    1    2    0    0 -0.68150280701E+03  0.10821511748E+04 -0.10087145243E+04  0.16307307851E+04  0.79250621770E+02 0.  0.
        254    2    1    2    0    0  0.68150280701E+03 -0.10821511748E+04  0.31407282028E+03  0.15954173588E+04  0.90067617442E+03 0.  0.
         23    2    4    4    0    0  0.88906521370E+03 -0.79944158815E+03  0.19213019689E+03  0.12144735365E+04  0.92131163170E+02 0.  0.
         23    2    4    4    0    0 -0.20756240669E+03 -0.28270958666E+03  0.12194262339E+03  0.38094382229E+03  0.85096000372E+02 0.  0.
          2    1    3    3  502    0 -0.45181548890E+03  0.77168028463E+03 -0.67609807897E+03  0.11210425104E+04  0.00000000000E+00 0. -1.
         -1    1    3    3    0  502 -0.22968731811E+03  0.31047089018E+03 -0.33261644530E+03  0.50968827477E+03  0.00000000000E+00 0.  1.
         11    1    5    5    0    0  0.26261374512E+03 -0.19409576300E+03  0.79391899079E+02  0.33606876972E+03  0.00000000000E+00 0.  1.
        -11    1    5    5    0    0  0.62645146858E+03 -0.60534582514E+03  0.11273829781E+03  0.87840476678E+03  0.00000000000E+00 0. -1.
          1    1    6    6  503    0 -0.21125943108E+03 -0.25927203985E+03  0.12495880403E+03  0.35702554611E+03  0.00000000000E+00 0. -1.
         -1    1    6    6    0  503  0.36970243918E+01 -0.23437546809E+02 -0.30161806377E+01  0.23918276180E+02  0.00000000000E+00 0.  1.
<mgrwt>
<rscale>  0 0.31504769E+04</rscale>
<asrwt>0</asrwt>
<pdfrwt beam="1">  1        2 0.19473126E+00 0.31504769E+04</pdfrwt>
<pdfrwt beam="2">  1       -1 0.30159922E+00 0.31504769E+04</pdfrwt>
<totfact> 0.53759329E-01</totfact>
</mgrwt>
</event>
<event>
12    6  0.1647231E-007  0.1432172E+04  0.7818608E-02  0.8930854E-01
         -1   -1    0    0    0  501 -0.00000000000E+00  0.00000000000E+00  0.32091787147E+03  0.32091787147E+03  0.00000000000E+00 0.  1.
          2   -1    0    0  501    0  0.00000000000E+00 -0.00000000000E+00 -0.15978518193E+04  0.15978518193E+04  0.00000000000E+00 0. -1.
         24    2    1    2    0    0 -0.66348150211E+02 -0.20407537085E+03 -0.88659247681E+03  0.91604401977E+03  0.83914195439E+02 0.  0.
        254    2    1    2    0    0  0.66348150211E+02  0.20407537085E+03 -0.39034147106E+03  0.10027256710E+04  0.89835598362E+03 0.  0.
         23    2    4    4    0    0 -0.26339612176E+02  0.98597613747E+02  0.28069007336E+03  0.31111182913E+03  0.87111355969E+02 0.  0.
         23    2    4    4    0    0  0.92687762386E+02  0.10547775711E+03 -0.67103154441E+03  0.69161384191E+03  0.91267706142E+02 0.  0.
          2    1    3    3  502    0 -0.81494006575E+02 -0.14089887156E+03 -0.56622953803E+03  0.58916012667E+03  0.00000000000E+00 0. -1.
         -1    1    3    3    0  502  0.15145856364E+02 -0.63176499289E+02 -0.32036293877E+03  0.32688389310E+03  0.00000000000E+00 0.  1.
         11    1    5    5    0    0 -0.36607296666E+02  0.10742051571E+03  0.20588129938E+03  0.23508800649E+03  0.00000000000E+00 0. -1.
        -11    1    5    5    0    0  0.10267684490E+02 -0.88229019653E+01  0.74808773981E+02  0.76023822637E+02  0.00000000000E+00 0.  1.
          4    1    6    6  503    0  0.12645169410E+02 -0.16952480399E+02 -0.79422928983E+02  0.82190562410E+02  0.00000000000E+00 0. -1.
         -4    1    6    6    0  503  0.80042592977E+02  0.12243023750E+03 -0.59160861543E+03  0.60942327950E+03  0.00000000000E+00 0.  1.
<mgrwt>
<rscale>  0 0.14321721E+04</rscale>
<asrwt>0</asrwt>
<pdfrwt beam="1">  1        2 0.24582335E+00 0.14321721E+04</pdfrwt>
<pdfrwt beam="2">  1       -1 0.49371981E-01 0.14321721E+04</pdfrwt>
<totfact> 0.50866221E+01</totfact>
</mgrwt>
</event>
<event>
12    6  0.1647231E-007  0.1335885E+04  0.7818608E-02  0.9001582E-01
         -1   -1    0    0    0  501 -0.00000000000E+00  0.00000000000E+00  0.19795449821E+03  0.19795449821E+03  0.00000000000E+00 0.  1.
          2   -1    0    0  501    0  0.00000000000E+00 -0.00000000000E+00 -0.22537856851E+04  0.22537856851E+04  0.00000000000E+00 0. -1.
         24    2    1    2    0    0  0.32705744339E+03 -0.76727768660E+02 -0.34076893593E+03  0.48517473022E+03  0.80108235497E+02 0.  0.
        254    2    1    2    0    0 -0.32705744339E+03  0.76727768660E+02 -0.17150622509E+04  0.19665654530E+04  0.90171361021E+03 0.  0.
         23    2    4    4    0    0 -0.53073670261E+03  0.32045162031E+03 -0.12099076159E+04  0.13625724468E+04  0.91414141332E+02 0.  0.
         23    2    4    4    0    0  0.20367925922E+03 -0.24372385165E+03 -0.50515463498E+03  0.60399300624E+03  0.93486843179E+02 0.  0.
          4    1    3    3  502    0  0.22001675077E+03 -0.82634394112E+02 -0.26314545213E+03  0.35281913594E+03  0.00000000000E+00 0. -1.
         -3    1    3    3    0  502  0.10704069263E+03  0.59066254527E+01 -0.77623483798E+02  0.13235559429E+03  0.00000000000E+00 0.  1.
         11    1    5    5    0    0 -0.45410967987E+03  0.24984087823E+03 -0.10609872952E+04  0.11808175584E+04  0.00000000000E+00 0. -1.
        -11    1    5    5    0    0 -0.76627022741E+02  0.70610742078E+02 -0.14892032077E+03  0.18175488838E+03  0.00000000000E+00 0.  1.
          3    1    6    6  503    0  0.18661004813E+03 -0.19946416554E+03 -0.47453109693E+03  0.54752993101E+03  0.00000000000E+00 0. -1.
         -3    1    6    6    0  503  0.17069211092E+02 -0.44259686112E+02 -0.30623538047E+02  0.56463075231E+02  0.00000000000E+00 0.  1.
<mgrwt>
<rscale>  0 0.13358847E+04</rscale>
<asrwt>0</asrwt>
<pdfrwt beam="1">  1        2 0.34673626E+00 0.13358847E+04</pdfrwt>
<pdfrwt beam="2">  1       -1 0.30454538E-01 0.13358847E+04</pdfrwt>
<totfact> 0.53411598E+01</totfact>
</mgrwt>
</event>
<event>
12    6  0.1647231E-007  0.1302967E+04  0.7818608E-02  0.9027216E-01
          2   -1    0    0  501    0  0.00000000000E+00  0.00000000000E+00  0.59335039874E+03  0.59335039874E+03  0.00000000000E+00 0. -1.
         -1   -1    0    0    0  501 -0.00000000000E+00 -0.00000000000E+00 -0.71531194128E+03  0.71531194128E+03  0.00000000000E+00 0.  1.
         24    2    1    2    0    0  0.12953968872E+02 -0.90983369556E+02 -0.35181028267E+03  0.37255236167E+03  0.81111086468E+02 0.  0.
        254    2    1    2    0    0 -0.12953968872E+02  0.90983369556E+02  0.22984874013E+03  0.93610997835E+03  0.90278772111E+03 0.  0.
         23    2    4    4    0    0  0.35850847430E+02  0.33917238550E+03 -0.21716547243E+03  0.41457597885E+03  0.91592627845E+02 0.  0.
         23    2    4    4    0    0 -0.48804816302E+02 -0.24818901595E+03  0.44701421256E+03  0.52153399950E+03  0.90533467161E+02 0.  0.
          4    1    3    3  502    0 -0.29828902256E+02 -0.33616317966E+02 -0.83084843166E+02  0.94461163487E+02  0.00000000000E+00 0. -1.
         -3    1    3    3    0  502  0.42782871128E+02 -0.57367051590E+02 -0.26872543950E+03  0.27809119818E+03  0.00000000000E+00 0.  1.
         11    1    5    5    0    0 -0.29450123803E+02  0.92658752897E+02 -0.46929938041E+02  0.10796005449E+03  0.00000000000E+00 0.  1.
        -11    1    5    5    0    0  0.65300971234E+02  0.24651363261E+03 -0.17023553439E+03  0.30661592436E+03  0.00000000000E+00 0. -1.
          4    1    6    6  503    0 -0.66139784065E+02 -0.10454660057E+03  0.21751167588E+03  0.25023147658E+03  0.00000000000E+00 0. -1.
         -4    1    6    6    0  503  0.17334967763E+02 -0.14364241537E+03  0.22950253668E+03  0.27130252293E+03  0.00000000000E+00 0.  1.
<mgrwt>
<rscale>  0 0.13029668E+04</rscale>
<asrwt>0</asrwt>
<pdfrwt beam="1">  1        2 0.91284677E-01 0.13029668E+04</pdfrwt>
<pdfrwt beam="2">  1       -1 0.11004799E+00 0.13029668E+04</pdfrwt>
<totfact> 0.42944032E+01</totfact>
</mgrwt>
</event>
<event>
12    6  0.1647231E-007  0.1984631E+04  0.7818608E-02  0.8613840E-01
          2   -1    0    0  501    0  0.00000000000E+00  0.00000000000E+00  0.12193180674E+04  0.12193180674E+04  0.00000000000E+00 0. -1.
         -1   -1    0    0    0  501 -0.00000000000E+00 -0.00000000000E+00 -0.80757405190E+03  0.80757405190E+03  0.00000000000E+00 0.  1.
         24    2    1    2    0    0  0.28735024860E+02 -0.76548593057E+03  0.35355211195E+03  0.84796659017E+03  0.85169423033E+02 0.  0.
        254    2    1    2    0    0 -0.28735024860E+02  0.76548593057E+03  0.58191903558E+02  0.11789255291E+04  0.89425091226E+03 0.  0.
         23    2    4    4    0    0 -0.41470911713E+03  0.38392903433E+03 -0.14786333385E+03  0.59133160423E+03  0.91784233020E+02 0.  0.
         23    2    4    4    0    0  0.38597409227E+03  0.38155689624E+03  0.20605523740E+03  0.58759392491E+03  0.90808561066E+02 0.  0.
          2    1    3    3  502    0  0.46682504728E+02 -0.70238651260E+03  0.30966111394E+03  0.76903580854E+03  0.00000000000E+00 0. -1.
         -1    1    3    3    0  502 -0.17947479868E+02 -0.63099417969E+02  0.43890998013E+02  0.78930781627E+02  0.00000000000E+00 0.  1.
         11    1    5    5    0    0 -0.24185047428E+03  0.17697123374E+03 -0.10901734565E+03  0.31889692870E+03  0.00000000000E+00 0. -1.
        -11    1    5    5    0    0 -0.17285864285E+03  0.20695780059E+03 -0.38845988200E+02  0.27243467553E+03  0.00000000000E+00 0.  1.
          2    1    6    6  503    0  0.21724013331E+02  0.44602015347E+02  0.41917488914E+02  0.64948813731E+02  0.00000000000E+00 0. -1.
         -2    1    6    6    0  503  0.36425007894E+03  0.33695488089E+03  0.16413774849E+03  0.52264511118E+03  0.00000000000E+00 0.  1.
<mgrwt>
<rscale>  0 0.19846306E+04</rscale>
<asrwt>0</asrwt>
<pdfrwt beam="1">  1        2 0.18758740E+00 0.19846306E+04</pdfrwt>
<pdfrwt beam="2">  1       -1 0.12424216E+00 0.19846306E+04</pdfrwt>
<totfact> 0.11115050E+01</totfact>
</mgrwt>
</event>
<event>
12    6  0.1647231E-007  0.1828594E+04  0.7818608E-02  0.8691240E-01
         -1   -1    0    0    0  501 -0.00000000000E+00  0.00000000000E+00  0.88954459458E+03  0.88954459458E+03  0.00000000000E+00 0.  1.
          2   -1    0    0  501    0  0.00000000000E+00 -0.00000000000E+00 -0.93973815720E+03  0.93973815720E+03  0.00000000000E+00 0. -1.
         24    2    1    2    0    0  0.63813878556E+03 -0.53323628084E+02  0.20261122502E+03  0.67635568995E+03  0.79631600955E+02 0.  0.
        254    2    1    2    0    0 -0.63813878556E+03  0.53323628084E+02 -0.25280478764E+03  0.11529270618E+04  0.92480594197E+03 0.  0.
         23    2    4    4    0    0 -0.28222445201E+03  0.18126814338E+02 -0.58459669669E+03  0.65606164628E+03  0.93189930897E+02 0.  0.
         23    2    4    4    0    0 -0.35591433355E+03  0.35196813746E+02  0.33179190905E+03  0.49686541556E+03  0.94210093621E+02 0.  0.
          4    1    3    3  502    0  0.13252407419E+02  0.58021751350E+01  0.15900956082E+02  0.21497254314E+02  0.00000000000E+00 0. -1.
         -3    1    3    3    0  502  0.62488637814E+03 -0.59125803219E+02  0.18671026893E+03  0.65485843564E+03  0.00000000000E+00 0.  1.
         11    1    5    5    0    0 -0.23584507534E+03 -0.18801612148E+02 -0.43563826293E+03  0.49573893967E+03  0.00000000000E+00 0. -1.
        -11    1    5    5    0    0 -0.46379376671E+02  0.36928426486E+02 -0.14895843376E+03  0.16032270660E+03  0.00000000000E+00 0.  1.
          4    1    6    6  503    0 -0.27412457090E+03 -0.65314810139E+01  0.27787397175E+03  0.39038555914E+03  0.00000000000E+00 0.  1.
         -4    1    6    6    0  503 -0.81789762656E+02  0.41728294760E+02  0.53917937302E+02  0.10647985641E+03  0.00000000000E+00 0. -1.
<mgrwt>
<rscale>  0 0.18285940E+04</rscale>
<asrwt>0</asrwt>
<pdfrwt beam="1">  1        2 0.14457510E+00 0.18285940E+04</pdfrwt>
<pdfrwt beam="2">  1       -1 0.13685301E+00 0.18285940E+04</pdfrwt>
<totfact> 0.13183165E+01</totfact>
</mgrwt>
</event>
<event>
12    6  0.1647231E-007  0.3786616E+04  0.7818608E-02  0.8049033E-01
         -1   -1    0    0    0  501 -0.00000000000E+00  0.00000000000E+00  0.13693215961E+04  0.13693215961E+04  0.00000000000E+00 0.  1.
          2   -1    0    0  501    0  0.00000000000E+00 -0.00000000000E+00 -0.26178034807E+04  0.26178034807E+04  0.00000000000E+00 0. -1.
         24    2    1    2    0    0 -0.43828149688E+03 -0.12967368487E+04 -0.17976397212E+04  0.22608366680E+04  0.79099601914E+02 0.  0.
        254    2    1    2    0    0  0.43828149688E+03  0.12967368487E+04  0.54915783657E+03  0.17262884087E+04  0.89715116643E+03 0.  0.
         23    2    4    4    0    0 -0.19215368250E+03  0.35258868810E+03  0.40626096928E+03  0.57845910024E+03  0.91242176762E+02 0.  0.
         23    2    4    4    0    0  0.63043517938E+03  0.94414816059E+03  0.14289686729E+03  0.11478293085E+04  0.90710210122E+02 0.  0.
          2    1    3    3  502    0 -0.41365778720E+03 -0.12646865555E+04 -0.17413342222E+04  0.21915268015E+04  0.00000000000E+00 0. -1.
         -1    1    3    3    0  502 -0.24623709682E+02 -0.32050293199E+02 -0.56305499036E+02  0.69309866501E+02  0.00000000000E+00 0.  1.
         11    1    5    5    0    0 -0.59768467086E+01  0.64417951436E+01 -0.45644013618E+01  0.99021806206E+01  0.00000000000E+00 0. -1.
        -11    1    5    5    0    0 -0.18617683579E+03  0.34614689296E+03  0.41082537064E+03  0.56855691962E+03  0.00000000000E+00 0.  1.
          4    1    6    6  503    0  0.53073584138E+02  0.48083473479E+02 -0.43297861984E+01  0.71746587400E+02  0.00000000000E+00 0. -1.
         -4    1    6    6    0  503  0.57736159524E+03  0.89606468711E+03  0.14722665349E+03  0.10760827211E+04  0.00000000000E+00 0.  1.
<mgrwt>
<rscale>  0 0.37866158E+04</rscale>
<asrwt>0</asrwt>
<pdfrwt beam="1">  1        2 0.40273900E+00 0.37866158E+04</pdfrwt>
<pdfrwt beam="2">  1       -1 0.21066486E+00 0.37866158E+04</pdfrwt>
<totfact> 0.34467922E-01</totfact>
</mgrwt>
</event>
<event>
12    6  0.1647231E-007  0.1255979E+04  0.7818608E-02  0.9065222E-01
          2   -1    0    0  501    0  0.00000000000E+00  0.00000000000E+00  0.68634419021E+03  0.68634419021E+03  0.00000000000E+00 0. -1.
         -1   -1    0    0    0  501 -0.00000000000E+00 -0.00000000000E+00 -0.57459620704E+03  0.57459620704E+03  0.00000000000E+00 0.  1.
         24    2    1    2    0    0 -0.23668406749E+03 -0.57132610391E+02  0.20064504906E+03  0.32414677657E+03  0.74358685238E+02 0.  0.
        254    2    1    2    0    0  0.23668406749E+03  0.57132610391E+02 -0.88897065898E+02  0.93679362068E+03  0.90022003780E+03 0.  0.
         23    2    4    4    0    0 -0.11140267339E+03  0.30225995418E+01  0.34314771209E+03  0.37207698637E+03  0.90946356329E+02 0.  0.
         23    2    4    4    0    0  0.34808674088E+03  0.54110010849E+02 -0.43204477799E+03  0.56471663431E+03  0.90276876467E+02 0.  0.
          4    1    3    3  502    0 -0.21611117195E+03 -0.63433893600E+02  0.20206214174E+03  0.30258388361E+03  0.00000000000E+00 0. -1.
         -3    1    3    3    0  502 -0.20572895537E+02  0.63012832083E+01 -0.14170926703E+01  0.21562892953E+02  0.00000000000E+00 0.  1.
         11    1    5    5    0    0 -0.80439008028E+02  0.42267475918E+02  0.25547848477E+03  0.27115720480E+03  0.00000000000E+00 0.  1.
        -11    1    5    5    0    0 -0.30963665366E+02 -0.39244876376E+02  0.87669227319E+02  0.10091978158E+03  0.00000000000E+00 0. -1.
          4    1    6    6  503    0 -0.49652181978E+01  0.12853344360E+01 -0.14452959863E+02  0.15336020513E+02  0.00000000000E+00 0. -1.
         -4    1    6    6    0  503  0.35305195908E+03  0.52824676413E+02 -0.41759181812E+03  0.54938061379E+03  0.00000000000E+00 0.  1.
<mgrwt>
<rscale>  0 0.12559789E+04</rscale>
<asrwt>0</asrwt>
<pdfrwt beam="1">  1        2 0.10559141E+00 0.12559789E+04</pdfrwt>
<pdfrwt beam="2">  1       -1 0.88399417E-01 0.12559789E+04</pdfrwt>
<totfact> 0.59312205E+01</totfact>
</mgrwt>
</event>
<event>
12    6  0.1647231E-007  0.1345910E+04  0.7818608E-02  0.8993930E-01
         -1   -1    0    0    0  501 -0.00000000000E+00  0.00000000000E+00  0.24940371036E+03  0.24940371036E+03  0.00000000000E+00 0.  1.
          2   -1    0    0  501    0  0.00000000000E+00 -0.00000000000E+00 -0.18158055068E+04  0.18158055068E+04  0.00000000000E+00 0. -1.
         24    2    1    2    0    0 -0.86672449457E+02  0.34681509388E+02  0.10580406754E+03  0.16273672620E+03  0.81079101870E+02 0.  0.
        254    2    1    2    0    0  0.86672449457E+02 -0.34681509388E+02 -0.16722058640E+04  0.19024724910E+04  0.90244900509E+03 0.  0.
         23    2    4    4    0    0  0.76663879647E+02  0.41040768643E+03 -0.10329280735E+04  0.11179487190E+04  0.92504669379E+02 0.  0.
         23    2    4    4    0    0  0.10008569810E+02 -0.44508919582E+03 -0.63927779053E+03  0.78452377197E+03  0.92719424181E+02 0.  0.
          4    1    3    3  502    0 -0.88049003308E+02  0.22680463494E+02  0.46326676062E+02  0.10204504556E+03  0.00000000000E+00 0. -1.
         -3    1    3    3    0  502  0.13765538514E+01  0.12001045893E+02  0.59477391475E+02  0.60691680647E+02  0.00000000000E+00 0.  1.
         11    1    5    5    0    0  0.88905231250E+02  0.38977871393E+03 -0.10019744116E+04  0.10787883516E+04  0.00000000000E+00 0. -1.
        -11    1    5    5    0    0 -0.12241351604E+02  0.20628972504E+02 -0.30953661893E+02  0.39160367468E+02  0.00000000000E+00 0.  1.
          3    1    6    6  503    0 -0.19926870592E+02 -0.39830903155E+03 -0.57160524699E+03  0.69697899766E+03  0.00000000000E+00 0. -1.
         -3    1    6    6    0  503  0.29935440401E+02 -0.46780164268E+02 -0.67672543536E+02  0.87544774314E+02  0.00000000000E+00 0.  1.
<mgrwt>
<rscale>  0 0.13459103E+04</rscale>
<asrwt>0</asrwt>
<pdfrwt beam="1">  1        2 0.27935469E+00 0.13459103E+04</pdfrwt>
<pdfrwt beam="2">  1       -1 0.38369802E-01 0.13459103E+04</pdfrwt>
<totfact> 0.61865911E+01</totfact>
</mgrwt>
</event>
<event>
12    6  0.1647231E-007  0.1870063E+04  0.7818608E-02  0.8669903E-01
         -1   -1    0    0    0  501 -0.00000000000E+00  0.00000000000E+00  0.22946488743E+04  0.22946488743E+04  0.00000000000E+00 0.  1.
          2   -1    0    0  501    0  0.00000000000E+00 -0.00000000000E+00 -0.38100998237E+03  0.38100998237E+03  0.00000000000E+00 0. -1.
         24    2    1    2    0    0  0.39917316671E+02  0.71101836135E+03  0.78346820312E+03  0.10614964160E+04  0.76234595609E+02 0.  0.
        254    2    1    2    0    0 -0.39917316671E+02 -0.71101836135E+03  0.11301706888E+04  0.16141624407E+04  0.90614242624E+03 0.  0.
         23    2    4    4    0    0 -0.15553009431E+03 -0.39429522500E+03  0.26300554283E+01  0.43358785403E+03  0.91286227215E+02 0.  0.
         23    2    4    4    0    0  0.11561277764E+03 -0.31672313635E+03  0.11275406334E+04  0.11805745866E+04  0.93427058120E+02 0.  0.
          2    1    3    3  502    0 -0.65725454162E+01  0.11419628005E+03  0.16492933573E+03  0.20071291567E+03  0.00000000000E+00 0. -1.
         -1    1    3    3    0  502  0.46489862087E+02  0.59682208130E+03  0.61853886738E+03  0.86078350035E+03  0.00000000000E+00 0.  1.
         11    1    5    5    0    0 -0.23734884786E+02 -0.15719098796E+03  0.26899573727E+02  0.16123256036E+03  0.00000000000E+00 0.  1.
        -11    1    5    5    0    0 -0.13179520953E+03 -0.23710423704E+03 -0.24269518299E+02  0.27235529368E+03  0.00000000000E+00 0. -1.
          1    1    6    6  503    0  0.11454537343E+03 -0.28227831070E+03  0.89335485369E+03  0.94386682422E+03  0.00000000000E+00 0. -1.
         -1    1    6    6    0  503  0.10674042088E+01 -0.34444825651E+02  0.23418577971E+03  0.23670776241E+03  0.00000000000E+00 0.  1.
<mgrwt>
<rscale>  0 0.18700632E+04</rscale>
<asrwt>0</asrwt>
<pdfrwt beam="1">  1        2 0.58616922E-01 0.18700632E+04</pdfrwt>
<pdfrwt beam="2">  1       -1 0.35302290E+00 0.18700632E+04</pdfrwt>
<totfact> 0.13406453E+00</totfact>
</mgrwt>
</event>
<event>
12    6  0.1647231E-007  0.2491842E+04  0.7818608E-02  0.8405897E-01
          2   -1    0    0  501    0  0.00000000000E+00  0.00000000000E+00  0.99714695707E+03  0.99714695707E+03  0.00000000000E+00 0. -1.
         -1   -1    0    0    0  501 -0.00000000000E+00 -0.00000000000E+00 -0.15567610881E+04  0.15567610881E+04  0.00000000000E+00 0.  1.
         24    2    1    2    0    0 -0.14616289070E+02 -0.16845645582E+03  0.85223356255E+03  0.87283510466E+03  0.83353832423E+02 0.  0.
        254    2    1    2    0    0  0.14616289070E+02  0.16845645582E+03 -0.14118476936E+04  0.16810729405E+04  0.89671684940E+03 0.  0.
         23    2    4    4    0    0  0.12078430982E+03  0.29939980723E+03 -0.92540521782E+02  0.34789714057E+03  0.90772122251E+02 0.  0.
         23    2    4    4    0    0 -0.10616802075E+03 -0.13094335141E+03 -0.13193071718E+04  0.13331757999E+04  0.91479451519E+02 0.  0.
          2    1    3    3  502    0  0.28593144633E+02 -0.10298112829E+03  0.56835852249E+03  0.57832005913E+03  0.00000000000E+00 0. -1.
         -1    1    3    3    0  502 -0.43209433704E+02 -0.65475327531E+02  0.28387504006E+03  0.29451504554E+03  0.00000000000E+00 0.  1.
         11    1    5    5    0    0  0.36467614747E+02  0.18529344365E+03 -0.24119262634E+02  0.19038194772E+03  0.00000000000E+00 0. -1.
        -11    1    5    5    0    0  0.84316695075E+02  0.11410636358E+03 -0.68421259148E+02  0.15751519286E+03  0.00000000000E+00 0.  1.
          1    1    6    6  503    0 -0.57661193162E+02 -0.99422827457E+02 -0.11127847613E+04  0.11187044457E+04  0.00000000000E+00 0. -1.
         -1    1    6    6    0  503 -0.48506827590E+02 -0.31520523948E+02 -0.20652241050E+03  0.21447135425E+03  0.00000000000E+00 0.  1.
<mgrwt>
<rscale>  0 0.24918424E+04</rscale>
<asrwt>0</asrwt>
<pdfrwt beam="1">  1        2 0.15340722E+00 0.24918424E+04</pdfrwt>
<pdfrwt beam="2">  1       -1 0.23950171E+00 0.24918424E+04</pdfrwt>
<totfact> 0.21024516E+00</totfact>
</mgrwt>
</event>
<event>
12    6  0.1647231E-007  0.1820717E+04  0.7818608E-02  0.8695359E-01
         -1   -1    0    0    0  501 -0.00000000000E+00  0.00000000000E+00  0.84458531066E+03  0.84458531066E+03  0.00000000000E+00 0.  1.
          2   -1    0    0  501    0  0.00000000000E+00 -0.00000000000E+00 -0.98125416008E+03  0.98125416008E+03  0.00000000000E+00 0. -1.
         24    2    1    2    0    0 -0.11620039932E+03 -0.66148137180E+03  0.10053967576E+03  0.68390254702E+03  0.80958812846E+02 0.  0.
        254    2    1    2    0    0  0.11620039932E+03  0.66148137180E+03 -0.23720852518E+03  0.11419369237E+04  0.89257599973E+03 0.  0.
         23    2    4    4    0    0 -0.11274673740E+03 -0.17557697023E+03  0.29585084797E+02  0.22938423706E+03  0.90569043822E+02 0.  0.
         23    2    4    4    0    0  0.22894713672E+03  0.83705834203E+03 -0.26679360998E+03  0.91255268666E+03  0.92141826730E+02 0.  0.
          2    1    3    3  502    0 -0.11843961177E+03 -0.59640594058E+03  0.70279283510E+02  0.61210061696E+03  0.00000000000E+00 0. -1.
         -1    1    3    3    0  502  0.22392124510E+01 -0.65075431222E+02  0.30260392247E+02  0.71801930058E+02  0.00000000000E+00 0.  1.
         11    1    5    5    0    0 -0.10068115188E+03 -0.11210241846E+03 -0.14184376026E+02  0.15134346068E+03  0.00000000000E+00 0. -1.
        -11    1    5    5    0    0 -0.12065585519E+02 -0.63474551772E+02  0.43769460823E+02  0.78040776375E+02  0.00000000000E+00 0.  1.
          2    1    6    6  503    0  0.16134793124E+03  0.42322447080E+03 -0.15277732425E+03  0.47800943339E+03  0.00000000000E+00 0. -1.
         -2    1    6    6    0  503  0.67599205487E+02  0.41383387122E+03 -0.11401628573E+03  0.43454325327E+03  0.00000000000E+00 0.  1.
<mgrwt>
<rscale>  0 0.18207173E+04</rscale>
<asrwt>0</asrwt>
<pdfrwt beam="1">  1        2 0.15096218E+00 0.18207173E+04</pdfrwt>
<pdfrwt beam="2">  1       -1 0.12993620E+00 0.18207173E+04</pdfrwt>
<totfact> 0.14144133E+01</totfact>
</mgrwt>
</event>
<event>
12    6  0.1647231E-007  0.1290660E+04  0.7818608E-02  0.9037005E-01
         -1   -1    0    0    0  501 -0.00000000000E+00  0.00000000000E+00  0.19602198754E+03  0.19602198754E+03  0.00000000000E+00 0.  1.
          2   -1    0    0  501    0  0.00000000000E+00 -0.00000000000E+00 -0.21245103669E+04  0.21245103669E+04  0.00000000000E+00 0. -1.
         24    2    1    2    0    0  0.25694879598E+00  0.17273099792E+03 -0.99134901584E+03  0.10094925331E+04  0.80412931288E+02 0.  0.
        254    2    1    2    0    0 -0.25694879598E+00 -0.17273099792E+03 -0.93713936354E+03  0.13110398214E+04  0.90042165833E+03 0.  0.
         23    2    4    4    0    0 -0.15689896021E+03 -0.38323680548E+03 -0.94163244880E+03  0.10333670989E+04  0.98428449009E+02 0.  0.
         23    2    4    4    0    0  0.15664201142E+03  0.21050580756E+03  0.44930852534E+01  0.27767272250E+03  0.90733335926E+02 0.  0.
          4    1    3    3  502    0  0.15790096298E+02  0.17218708384E+03 -0.94252775302E+03  0.95825689885E+03  0.00000000000E+00 0. -1.
         -1    1    3    3    0  502 -0.15533147502E+02  0.54391407991E+00 -0.48821262818E+02  0.51235634250E+02  0.00000000000E+00 0.  1.
         11    1    5    5    0    0 -0.14136097887E+03 -0.22452582133E+03 -0.61941785889E+03  0.67384957869E+03  0.00000000000E+00 0.  1.
        -11    1    5    5    0    0 -0.15537981344E+02 -0.15871098415E+03 -0.32221458991E+03  0.35951752017E+03  0.00000000000E+00 0. -1.
          4    1    6    6  503    0  0.54790914756E+02  0.12113566894E+03 -0.33186072809E+02  0.13702996043E+03  0.00000000000E+00 0. -1.
         -4    1    6    6    0  503  0.10185109666E+03  0.89370138620E+02  0.37679158063E+02  0.14064276206E+03  0.00000000000E+00 0.  1.
<mgrwt>
<rscale>  0 0.12906599E+04</rscale>
<asrwt>0</asrwt>
<pdfrwt beam="1">  1        2 0.32684776E+00 0.12906599E+04</pdfrwt>
<pdfrwt beam="2">  1       -1 0.30157228E-01 0.12906599E+04</pdfrwt>
<totfact> 0.64413652E+01</totfact>
</mgrwt>
</event>
<event>
12    6  0.1647231E-007  0.1982996E+04  0.7818608E-02  0.8614612E-01
         -1   -1    0    0    0  501 -0.00000000000E+00  0.00000000000E+00  0.94480809433E+03  0.94480809433E+03  0.00000000000E+00 0.  1.
          2   -1    0    0  501    0  0.00000000000E+00 -0.00000000000E+00 -0.10404956928E+04  0.10404956928E+04  0.00000000000E+00 0. -1.
         24    2    1    2    0    0  0.64249859498E+03  0.92874342710E+02  0.41371398595E+03  0.77393685585E+03  0.79930636119E+02 0.  0.
        254    2    1    2    0    0 -0.64249859498E+03 -0.92874342710E+02 -0.50940158444E+03  0.12113669313E+04  0.88684259030E+03 0.  0.
         23    2    4    4    0    0 -0.11089557023E+03 -0.39708081670E+03 -0.20919305781E+02  0.42293516740E+03  0.92008347338E+02 0.  0.
         23    2    4    4    0    0 -0.53160302475E+03  0.30420647399E+03 -0.48848227866E+03  0.78843176392E+03  0.88692474578E+02 0.  0.
          4    1    3    3  502    0  0.12611182237E+03  0.38813902560E+02  0.11436601170E+03  0.17461470558E+03  0.00000000000E+00 0. -1.
         -3    1    3    3    0  502  0.51638677261E+03  0.54060440151E+02  0.29934797424E+03  0.59932215026E+03  0.00000000000E+00 0.  1.
         11    1    5    5    0    0  0.14133929801E+02 -0.18805865551E+02 -0.58821217136E+01  0.24249286723E+02  0.00000000000E+00 0.  1.
        -11    1    5    5    0    0 -0.12502950003E+03 -0.37827495115E+03 -0.15037184067E+02  0.39868588067E+03  0.00000000000E+00 0. -1.
          2    1    6    6  503    0 -0.37348717694E+03  0.25470983481E+03 -0.33601754750E+03  0.56327396844E+03  0.00000000000E+00 0. -1.
         -2    1    6    6    0  503 -0.15811584781E+03  0.49496639179E+02 -0.15246473116E+03  0.22515779548E+03  0.00000000000E+00 0.  1.
<mgrwt>
<rscale>  0 0.19829965E+04</rscale>
<asrwt>0</asrwt>
<pdfrwt beam="1">  1        2 0.16007626E+00 0.19829965E+04</pdfrwt>
<pdfrwt beam="2">  1       -1 0.14535509E+00 0.19829965E+04</pdfrwt>
<totfact> 0.95610415E+00</totfact>
</mgrwt>
</event>
<event>
12    6  0.1647231E-007  0.1946491E+04  0.7818608E-02  0.8632055E-01
         -1   -1    0    0    0  501 -0.00000000000E+00  0.00000000000E+00  0.49202175486E+03  0.49202175486E+03  0.00000000000E+00 0.  1.
          2   -1    0    0  501    0  0.00000000000E+00 -0.00000000000E+00 -0.19251312339E+04  0.19251312339E+04  0.00000000000E+00 0. -1.
         24    2    1    2    0    0  0.24042888420E+03  0.16790362940E+03  0.30914629357E+03  0.43350204700E+03  0.79717732007E+02 0.  0.
        254    2    1    2    0    0 -0.24042888420E+03 -0.16790362940E+03 -0.17422557727E+04  0.19836509418E+04  0.90189700325E+03 0.  0.
         23    2    4    4    0    0 -0.72518169452E+02 -0.11517249583E+03  0.57398610747E+02  0.17330272209E+03  0.90640191261E+02 0.  0.
         23    2    4    4    0    0 -0.16791071474E+03 -0.52731133569E+02 -0.17996543834E+04  0.18103482197E+04  0.87350995139E+02 0.  0.
          4    1    3    3  502    0  0.99819967245E+02  0.24372590011E+02  0.96950482077E+02  0.14127082140E+03  0.00000000000E+00 0. -1.
         -3    1    3    3    0  502  0.14060891695E+03  0.14353103939E+03  0.21219581150E+03  0.29223122559E+03  0.00000000000E+00 0.  1.
         11    1    5    5    0    0 -0.33546305563E+02 -0.11949743038E+03  0.47183978609E+02  0.13278297452E+03  0.00000000000E+00 0. -1.
        -11    1    5    5    0    0 -0.38971863889E+02  0.43249345463E+01  0.10214632138E+02  0.40519747575E+02  0.00000000000E+00 0.  1.
          1    1    6    6  503    0 -0.16654926187E+03 -0.28028092074E+02 -0.16547920637E+04  0.16633884106E+04  0.00000000000E+00 0. -1.
         -1    1    6    6    0  503 -0.13614528733E+01 -0.24703041495E+02 -0.14486231970E+03  0.14695980907E+03  0.00000000000E+00 0.  1.
<mgrwt>
<rscale>  0 0.19464906E+04</rscale>
<asrwt>0</asrwt>
<pdfrwt beam="1">  1        2 0.29617404E+00 0.19464906E+04</pdfrwt>
<pdfrwt beam="2">  1       -1 0.75695655E-01 0.19464906E+04</pdfrwt>
<totfact> 0.13699953E+01</totfact>
</mgrwt>
</event>
<event>
12    6  0.1647231E-007  0.2455324E+04  0.7818608E-02  0.8419077E-01
         -1   -1    0    0    0  501 -0.00000000000E+00  0.00000000000E+00  0.89109718587E+03  0.89109718587E+03  0.00000000000E+00 0.  1.
          2   -1    0    0  501    0  0.00000000000E+00 -0.00000000000E+00 -0.16913469423E+04  0.16913469423E+04  0.00000000000E+00 0. -1.
         24    2    1    2    0    0 -0.24817512854E+03  0.10311146682E+04 -0.41225782891E+03  0.11407587493E+04  0.81152037556E+02 0.  0.
        254    2    1    2    0    0  0.24817512854E+03 -0.10311146682E+04 -0.38799192756E+03  0.14416853789E+04  0.89617556461E+03 0.  0.
         23    2    4    4    0    0  0.54543478088E+03 -0.73522174151E+03 -0.42018257682E+03  0.10113650808E+04  0.90861539537E+02 0.  0.
         23    2    4    4    0    0 -0.29725965234E+03 -0.29589292667E+03  0.32190649260E+02  0.43032029815E+03  0.90682942930E+02 0.  0.
          4    1    3    3  502    0 -0.24940424486E+03  0.93963396430E+03 -0.37737371563E+03  0.10428448521E+04  0.00000000000E+00 0. -1.
         -3    1    3    3    0  502  0.12291163223E+01  0.91480703880E+02 -0.34884113271E+02  0.97913897216E+02  0.00000000000E+00 0.  1.
         11    1    5    5    0    0  0.48655681707E+03 -0.60036751850E+03 -0.35005124417E+03  0.84835992777E+03  0.00000000000E+00 0. -1.
        -11    1    5    5    0    0  0.58877963809E+02 -0.13485422301E+03 -0.70131332649E+02  0.16300515300E+03  0.00000000000E+00 0.  1.
          4    1    6    6  503    0 -0.28491770980E+03 -0.29143668904E+03  0.47303204652E+02  0.41030602999E+03  0.00000000000E+00 0. -1.
         -4    1    6    6    0  503 -0.12341942539E+02 -0.44562376279E+01 -0.15112555392E+02  0.20014268158E+02  0.00000000000E+00 0.  1.
<mgrwt>
<rscale>  0 0.24553244E+04</rscale>
<asrwt>0</asrwt>
<pdfrwt beam="1">  1        2 0.26020722E+00 0.24553244E+04</pdfrwt>
<pdfrwt beam="2">  1       -1 0.13709188E+00 0.24553244E+04</pdfrwt>
<totfact> 0.44747489E+00</totfact>
</mgrwt>
</event>
<event>
12    6  0.1647231E-007  0.3357311E+04  0.7818608E-02  0.8148464E-01
         -1   -1    0    0    0  501 -0.00000000000E+00  0.00000000000E+00  0.26892954060E+04  0.26892954060E+04  0.00000000000E+00 0.  1.
          2   -1    0    0  501    0  0.00000000000E+00 -0.00000000000E+00 -0.10478153229E+04  0.10478153229E+04  0.00000000000E+00 0. -1.
         24    2    1    2    0    0  0.72380285472E+03  0.99870254709E+03 -0.29406399662E+03  0.12703352169E+04  0.77334204576E+02 0.  0.
        254    2    1    2    0    0 -0.72380285472E+03 -0.99870254709E+03  0.19355440798E+04  0.24667755119E+04  0.90407587710E+03 0.  0.
         23    2    4    4    0    0 -0.14126648513E+03 -0.15454411685E+03 -0.48774091001E+02  0.23120888207E+03  0.85079558781E+02 0.  0.
         23    2    4    4    0    0 -0.58253636960E+03 -0.84415843024E+03  0.19843181708E+04  0.22355666299E+04  0.91035578403E+02 0.  0.
          2    1    3    3  502    0  0.49751214244E+03  0.68103940420E+03 -0.23769803556E+03  0.87626101023E+03  0.00000000000E+00 0. -1.
         -1    1    3    3    0  502  0.22629071228E+03  0.31766314289E+03 -0.56365961051E+02  0.39407420669E+03  0.00000000000E+00 0.  1.
         11    1    5    5    0    0 -0.94652478031E+01 -0.41978863282E+02  0.16373102135E+02  0.46042310454E+02  0.00000000000E+00 0.  1.
        -11    1    5    5    0    0 -0.13180123732E+03 -0.11256525357E+03 -0.65147193136E+02  0.18516657162E+03  0.00000000000E+00 0. -1.
          2    1    6    6  503    0 -0.51113531278E+03 -0.68037211132E+03  0.16338061068E+04  0.18421422074E+04  0.00000000000E+00 0. -1.
         -2    1    6    6    0  503 -0.71401056820E+02 -0.16378631892E+03  0.35051206401E+03  0.39342442247E+03  0.00000000000E+00 0.  1.
<mgrwt>
<rscale>  0 0.33573114E+04</rscale>
<asrwt>0</asrwt>
<pdfrwt beam="1">  1        2 0.16120236E+00 0.33573114E+04</pdfrwt>
<pdfrwt beam="2">  1       -1 0.41373775E+00 0.33573114E+04</pdfrwt>
<totfact> 0.12796596E-01</totfact>
</mgrwt>
</event>
<event>
12    6  0.1647231E-007  0.5065591E+04  0.7818608E-02  0.7818468E-01
          2   -1    0    0  501    0  0.00000000000E+00  0.00000000000E+00  0.34417546331E+04  0.34417546331E+04  0.00000000000E+00 0. -1.
         -1   -1    0    0    0  501 -0.00000000000E+00 -0.00000000000E+00 -0.18638904621E+04  0.18638904621E+04  0.00000000000E+00 0.  1.
         24    2    1    2    0    0 -0.21593747389E+04 -0.73158686035E+03 -0.18239347418E+03  0.22887158703E+04  0.82670178454E+02 0.  0.
        254    2    1    2    0    0  0.21593747389E+04  0.73158686035E+03  0.17602576453E+04  0.30169292248E+04  0.89734963790E+03 0.  0.
         23    2    4    4    0    0  0.54843957441E+03  0.60757204614E+03  0.71341514626E+03  0.10895718326E+04  0.90971696141E+02 0.  0.
         23    2    4    4    0    0  0.16109351645E+04  0.12401481421E+03  0.10468424990E+04  0.19273573922E+04  0.91299075595E+02 0.  0.
          2    1    3    3  502    0 -0.16913916739E+03 -0.48319749791E+02 -0.34601017963E+02  0.17927656458E+03  0.00000000000E+00 0. -1.
         -1    1    3    3    0  502 -0.19902355715E+04 -0.68326711056E+03 -0.14779245621E+03  0.21094393058E+04  0.00000000000E+00 0.  1.
         11    1    5    5    0    0  0.28400485437E+03  0.29773724198E+03  0.41677369482E+03  0.58566759793E+03  0.00000000000E+00 0. -1.
        -11    1    5    5    0    0  0.26443472004E+03  0.30983480415E+03  0.29664145145E+03  0.50390423469E+03  0.00000000000E+00 0.  1.
          2    1    6    6  503    0  0.25684127807E+03  0.24016802021E+02  0.20781151594E+03  0.33125500005E+03  0.00000000000E+00 0.  1.
         -2    1    6    6    0  503  0.13540938865E+04  0.99998012190E+02  0.83903098306E+03  0.15961023922E+04  0.00000000000E+00 0. -1.
<mgrwt>
<rscale>  0 0.50655912E+04</rscale>
<asrwt>0</asrwt>
<pdfrwt beam="1">  1        2 0.52950071E+00 0.50655912E+04</pdfrwt>
<pdfrwt beam="2">  1       -1 0.28675238E+00 0.50655912E+04</pdfrwt>
<totfact> 0.29495912E-02</totfact>
</mgrwt>
</event>
<event>
12    6  0.1647231E-007  0.1865395E+04  0.7818608E-02  0.8672276E-01
         -3   -1    0    0    0  501 -0.00000000000E+00  0.00000000000E+00  0.57181427208E+03  0.57181427208E+03  0.00000000000E+00 0.  1.
          2   -1    0    0  501    0  0.00000000000E+00 -0.00000000000E+00 -0.15213410173E+04  0.15213410173E+04  0.00000000000E+00 0. -1.
         24    2    1    2    0    0  0.75924070801E+02 -0.29748140386E+03  0.35821150872E+03  0.47844999118E+03  0.79619463166E+02 0.  0.
        254    2    1    2    0    0 -0.75924070801E+02  0.29748140386E+03 -0.13077382540E+04  0.16147052982E+04  0.89601016126E+03 0.  0.
         23    2    4    4    0    0 -0.36121108304E+03 -0.10642543527E+03 -0.30475104148E+03  0.49281994735E+03  0.90545477163E+02 0.  0.
         23    2    4    4    0    0  0.28528701224E+03  0.40390683912E+03 -0.10029872125E+04  0.11218853509E+04  0.90077622500E+02 0.  0.
          4    1    3    3  502    0  0.34780790206E+02 -0.12946194610E+03  0.98280471663E+02  0.16622018519E+03  0.00000000000E+00 0. -1.
         -3    1    3    3    0  502  0.41143280595E+02 -0.16801945776E+03  0.25993103706E+03  0.31222980599E+03  0.00000000000E+00 0.  1.
         11    1    5    5    0    0 -0.25296842075E+03 -0.38363000921E+02 -0.23378376041E+03  0.34658272948E+03  0.00000000000E+00 0. -1.
        -11    1    5    5    0    0 -0.10824266229E+03 -0.68062434347E+02 -0.70967281072E+02  0.14623721787E+03  0.00000000000E+00 0.  1.
          3    1    6    6  503    0  0.30873558343E+02  0.27903491316E+02 -0.42346991980E+02  0.59372124454E+02  0.00000000000E+00 0. -1.
         -3    1    6    6    0  503  0.25441345390E+03  0.37600334781E+03 -0.96064022052E+03  0.10625132264E+04  0.00000000000E+00 0.  1.
<mgrwt>
<rscale>  0 0.18653949E+04</rscale>
<asrwt>0</asrwt>
<pdfrwt beam="1">  1        2 0.23405246E+00 0.18653949E+04</pdfrwt>
<pdfrwt beam="2">  1       -3 0.87971426E-01 0.18653949E+04</pdfrwt>
<totfact> 0.86740779E+00</totfact>
</mgrwt>
</event>
<event>
12    6  0.1647231E-007  0.1481079E+04  0.7818608E-02  0.8897133E-01
          2   -1    0    0  501    0  0.00000000000E+00  0.00000000000E+00  0.64847027846E+03  0.64847027846E+03  0.00000000000E+00 0. -1.
         -1   -1    0    0    0  501 -0.00000000000E+00 -0.00000000000E+00 -0.84568101164E+03  0.84568101164E+03  0.00000000000E+00 0.  1.
         24    2    1    2    0    0 -0.15172499560E+03  0.21472795936E+03 -0.44169258036E+03  0.52026847650E+03  0.80364054609E+02 0.  0.
        254    2    1    2    0    0  0.15172499560E+03 -0.21472795936E+03  0.24448184718E+03  0.97388281361E+03  0.90528878831E+03 0.  0.
         23    2    4    4    0    0 -0.15908923775E+03  0.23663160469E+02 -0.26544282728E+03  0.32364785126E+03  0.91753508605E+02 0.  0.
         23    2    4    4    0    0  0.31081423335E+03 -0.23839111982E+03  0.50992467446E+03  0.65023496235E+03  0.96677396431E+02 0.  0.
          4    1    3    3  502    0  0.90905744505E+01  0.22736474294E+02 -0.39381020192E+02  0.46372950720E+02  0.00000000000E+00 0. -1.
         -3    1    3    3    0  502 -0.16081557005E+03  0.19199148506E+03 -0.40231156017E+03  0.47389552578E+03  0.00000000000E+00 0.  1.
         11    1    5    5    0    0 -0.11209235628E+03  0.12550334020E+02 -0.98130034524E+02  0.14950488586E+03  0.00000000000E+00 0. -1.
        -11    1    5    5    0    0 -0.46996881472E+02  0.11112826448E+02 -0.16731279275E+03  0.17414296540E+03  0.00000000000E+00 0.  1.
          1    1    6    6  503    0  0.17388705624E+03 -0.14549954305E+03  0.21717839658E+03  0.31396382164E+03  0.00000000000E+00 0. -1.
         -1    1    6    6    0  503  0.13692717710E+03 -0.92891576772E+02  0.29274627787E+03  0.33627114071E+03  0.00000000000E+00 0.  1.
<mgrwt>
<rscale>  0 0.14810793E+04</rscale>
<asrwt>0</asrwt>
<pdfrwt beam="1">  1        2 0.99764658E-01 0.14810793E+04</pdfrwt>
<pdfrwt beam="2">  1       -1 0.13010477E+00 0.14810793E+04</pdfrwt>
<totfact> 0.25233597E+01</totfact>
</mgrwt>
</event>
<event>
12    6  0.1647231E-007  0.2243706E+04  0.7818608E-02  0.8500454E-01
          2   -1    0    0  501    0  0.00000000000E+00  0.00000000000E+00  0.72026920444E+03  0.72026920444E+03  0.00000000000E+00 0. -1.
         -1   -1    0    0    0  501 -0.00000000000E+00 -0.00000000000E+00 -0.17473385112E+04  0.17473385112E+04  0.00000000000E+00 0.  1.
         24    2    1    2    0    0 -0.21662305484E+03  0.20453022880E+03  0.54724531198E+03  0.62825041207E+03  0.80392701126E+02 0.  0.
        254    2    1    2    0    0  0.21662305484E+03 -0.20453022880E+03 -0.15743146187E+04  0.18393573036E+04  0.90333305542E+03 0.  0.
         23    2    4    4    0    0  0.31335007850E+03 -0.45052891675E+03 -0.57332634962E+03  0.79892323378E+03  0.91709616595E+02 0.  0.
         23    2    4    4    0    0 -0.96727023661E+02  0.24599868794E+03 -0.10009882691E+04  0.10404340698E+04  0.10321854045E+03 0.  0.
          4    1    3    3  502    0 -0.22332726356E+03  0.19288399553E+03  0.52562122483E+03  0.60279098731E+03  0.00000000000E+00 0. -1.
         -3    1    3    3    0  502  0.67042087264E+01  0.11646233275E+02  0.21624087148E+02  0.25459424760E+02  0.00000000000E+00 0.  1.
         11    1    5    5    0    0  0.41240022986E+02 -0.11756541529E+03 -0.10300633755E+03  0.16165602972E+03  0.00000000000E+00 0.  1.
        -11    1    5    5    0    0  0.27211005551E+03 -0.33296350145E+03 -0.47032001207E+03  0.63726720406E+03  0.00000000000E+00 0. -1.
          1    1    6    6  503    0 -0.49928497813E+02  0.22654656577E+03 -0.78370539902E+03  0.81731900370E+03  0.00000000000E+00 0. -1.
         -1    1    6    6    0  503 -0.46798525849E+02  0.19452122171E+02 -0.21728287009E+03  0.22311506608E+03  0.00000000000E+00 0.  1.
<mgrwt>
<rscale>  0 0.22437060E+04</rscale>
<asrwt>0</asrwt>
<pdfrwt beam="1">  1        2 0.11081065E+00 0.22437060E+04</pdfrwt>
<pdfrwt beam="2">  1       -1 0.26882131E+00 0.22437060E+04</pdfrwt>
<totfact> 0.21594280E+00</totfact>
</mgrwt>
</event>
<event>
12    6  0.1647231E-007  0.1528413E+04  0.7818608E-02  0.8865775E-01
         -1   -1    0    0    0  501 -0.00000000000E+00  0.00000000000E+00  0.36897635531E+03  0.36897635531E+03  0.00000000000E+00 0.  1.
          2   -1    0    0  501    0  0.00000000000E+00 -0.00000000000E+00 -0.15827887851E+04  0.15827887851E+04  0.00000000000E+00 0. -1.
         24    2    1    2    0    0  0.45118686398E+03  0.20360855118E+03 -0.37339638307E+03  0.62494656774E+03  0.78149378072E+02 0.  0.
        254    2    1    2    0    0 -0.45118686398E+03 -0.20360855118E+03 -0.84041604670E+03  0.13268185727E+04  0.89951229279E+03 0.  0.
         23    2    4    4    0    0 -0.18262709105E+03 -0.51196732802E+03 -0.68774875004E+03  0.88141174085E+03  0.91788421777E+02 0.  0.
         23    2    4    4    0    0 -0.26855977292E+03  0.30835877684E+03 -0.15266729666E+03  0.44540683182E+03  0.88715587554E+02 0.  0.
          4    1    3    3  502    0  0.18252335930E+03  0.95551086497E+02 -0.20156012852E+03  0.28822087403E+03  0.00000000000E+00 0. -1.
         -3    1    3    3    0  502  0.26866350468E+03  0.10805746468E+03 -0.17183625456E+03  0.33672569370E+03  0.00000000000E+00 0.  1.
         11    1    5    5    0    0 -0.16844418360E+03 -0.40991337367E+03 -0.60095544868E+03  0.74669261962E+03  0.00000000000E+00 0. -1.
        -11    1    5    5    0    0 -0.14182907456E+02 -0.10205395435E+03 -0.86793301366E+02  0.13471912123E+03  0.00000000000E+00 0.  1.
          3    1    6    6  503    0 -0.25878849494E+03  0.31215913894E+03 -0.14001332359E+03  0.42897382661E+03  0.00000000000E+00 0. -1.
         -3    1    6    6    0  503 -0.97712779871E+01 -0.38003621036E+01 -0.12653973069E+02  0.16433005205E+02  0.00000000000E+00 0.  1.
<mgrwt>
<rscale>  0 0.15284131E+04</rscale>
<asrwt>0</asrwt>
<pdfrwt beam="1">  1        2 0.24350596E+00 0.15284131E+04</pdfrwt>
<pdfrwt beam="2">  1       -1 0.56765594E-01 0.15284131E+04</pdfrwt>
<totfact> 0.39345579E+01</totfact>
</mgrwt>
</event>
<event>
12    6  0.1647231E-007  0.1361096E+04  0.7818608E-02  0.8982471E-01
         -1   -1    0    0    0  501 -0.00000000000E+00  0.00000000000E+00  0.48118031432E+03  0.48118031432E+03  0.00000000000E+00 0.  1.
          2   -1    0    0  501    0  0.00000000000E+00 -0.00000000000E+00 -0.96251955866E+03  0.96251955866E+03  0.00000000000E+00 0. -1.
         24    2    1    2    0    0  0.22894423712E+03 -0.98371683844E+02 -0.44311636966E+03  0.51503420419E+03  0.82557025993E+02 0.  0.
        254    2    1    2    0    0 -0.22894423712E+03  0.98371683844E+02 -0.38222874679E+02  0.92866566879E+03  0.89379331187E+03 0.  0.
         23    2    4    4    0    0 -0.53634895115E+03 -0.96066980617E+02 -0.74344986255E+01  0.55239938000E+03  0.90502713172E+02 0.  0.
         23    2    4    4    0    0  0.30740471403E+03  0.19443866446E+03 -0.30788376053E+02  0.37626628879E+03  0.91237840466E+02 0.  0.
          4    1    3    3  502    0  0.13107252674E+02 -0.15740151085E+02 -0.95008079051E+02  0.97190984736E+02  0.00000000000E+00 0. -1.
         -3    1    3    3    0  502  0.21583698444E+03 -0.82631532759E+02 -0.34810829061E+03  0.41784321946E+03  0.00000000000E+00 0.  1.
         11    1    5    5    0    0 -0.51686323896E+03 -0.78433247429E+02  0.61485761924E+01  0.52281659029E+03  0.00000000000E+00 0. -1.
        -11    1    5    5    0    0 -0.19485712188E+02 -0.17633733189E+02 -0.13583074818E+02  0.29582789712E+02  0.00000000000E+00 0.  1.
          2    1    6    6  503    0  0.25381608893E+03  0.14961876128E+03  0.11041819663E+02  0.29483945209E+03  0.00000000000E+00 0. -1.
         -2    1    6    6    0  503  0.53588625102E+02  0.44819903177E+02 -0.41830195716E+02  0.81426836699E+02  0.00000000000E+00 0.  1.
<mgrwt>
<rscale>  0 0.13610958E+04</rscale>
<asrwt>0</asrwt>
<pdfrwt beam="1">  1        2 0.14807993E+00 0.13610958E+04</pdfrwt>
<pdfrwt beam="2">  1       -1 0.74027741E-01 0.13610958E+04</pdfrwt>
<totfact> 0.54523464E+01</totfact>
</mgrwt>
</event>
<event>
12    6  0.1647231E-007  0.1791313E+04  0.7818608E-02  0.8710933E-01
          2   -1    0    0  501    0  0.00000000000E+00  0.00000000000E+00  0.18022556298E+04  0.18022556298E+04  0.00000000000E+00 0. -1.
         -1   -1    0    0    0  501 -0.00000000000E+00 -0.00000000000E+00 -0.44510933025E+03  0.44510933025E+03  0.00000000000E+00 0.  1.
         24    2    1    2    0    0  0.50921526948E+03 -0.41857389884E+03  0.67078013247E+03  0.94515905279E+03  0.94209073335E+02 0.  0.
        254    2    1    2    0    0 -0.50921526948E+03  0.41857389884E+03  0.68636616713E+03  0.13022059073E+04  0.88889673763E+03 0.  0.
         23    2    4    4    0    0 -0.14600479286E+03  0.20376830233E+03  0.81051869106E+03  0.85331199317E+03  0.91443362636E+02 0.  0.
         23    2    4    4    0    0 -0.36321047662E+03  0.21480559650E+03 -0.12415252393E+03  0.44889391413E+03  0.89602468303E+02 0.  0.
          2    1    3    3  502    0  0.39131853468E+03 -0.27228538128E+03  0.50675248101E+03  0.69574966867E+03  0.00000000000E+00 0. -1.
         -1    1    3    3    0  502  0.11789673480E+03 -0.14628851755E+03  0.16402765146E+03  0.24940938412E+03  0.00000000000E+00 0.  1.
         11    1    5    5    0    0 -0.40175397771E+01  0.27378501737E+02  0.30919273577E+02  0.41493667730E+02  0.00000000000E+00 0.  1.
        -11    1    5    5    0    0 -0.14198725308E+03  0.17638980059E+03  0.77959941748E+03  0.81181832544E+03  0.00000000000E+00 0. -1.
          2    1    6    6  503    0 -0.12812081204E+03  0.11710806511E+03 -0.23604714467E+02  0.17517540905E+03  0.00000000000E+00 0. -1.
         -2    1    6    6    0  503 -0.23508966458E+03  0.97697531397E+02 -0.10054780946E+03  0.27371850508E+03  0.00000000000E+00 0.  1.
<mgrwt>
<rscale>  0 0.17913133E+04</rscale>
<asrwt>0</asrwt>
<pdfrwt beam="1">  1        2 0.27727009E+00 0.17913133E+04</pdfrwt>
<pdfrwt beam="2">  1       -1 0.68478359E-01 0.17913133E+04</pdfrwt>
<totfact> 0.19981545E+01</totfact>
</mgrwt>
</event>
<event>
12    6  0.1647231E-007  0.1849411E+04  0.7818608E-02  0.8680456E-01
          2   -1    0    0  501    0  0.00000000000E+00  0.00000000000E+00  0.80145696793E+03  0.80145696793E+03  0.00000000000E+00 0. -1.
         -3   -1    0    0    0  501 -0.00000000000E+00 -0.00000000000E+00 -0.10669073950E+04  0.10669073950E+04  0.00000000000E+00 0.  1.
         24    2    1    2    0    0 -0.34641283099E+03 -0.52205751627E+03 -0.40844665473E+03  0.75217366413E+03  0.79941550439E+02 0.  0.
        254    2    1    2    0    0  0.34641283099E+03  0.52205751627E+03  0.14299622761E+03  0.11161906988E+04  0.91262689820E+03 0.  0.
         23    2    4    4    0    0 -0.15648399805E+03  0.26541417198E+03  0.37923372334E+03  0.49697971016E+03  0.90767235649E+02 0.  0.
         23    2    4    4    0    0  0.50289682903E+03  0.25664334429E+03 -0.23623749572E+03  0.61921098868E+03  0.94037584493E+02 0.  0.
          2    1    3    3  502    0 -0.30330568011E+02 -0.70848648991E+02 -0.25238010361E+02  0.81095200762E+02  0.00000000000E+00 0. -1.
         -1    1    3    3    0  502 -0.31608226298E+03 -0.45120886728E+03 -0.38320864437E+03  0.67107846337E+03  0.00000000000E+00 0.  1.
         11    1    5    5    0    0 -0.12124143723E+03  0.25534004921E+03  0.31670680585E+03  0.42450115159E+03  0.00000000000E+00 0. -1.
        -11    1    5    5    0    0 -0.35242560816E+02  0.10074122772E+02  0.62526917484E+02  0.72478558571E+02  0.00000000000E+00 0.  1.
          4    1    6    6  503    0  0.44152407597E+03  0.20857945409E+03 -0.23335152541E+03  0.54120405832E+03  0.00000000000E+00 0. -1.
         -4    1    6    6    0  503  0.61372753064E+02  0.48063890208E+02 -0.28859703160E+01  0.78006930367E+02  0.00000000000E+00 0.  1.
<mgrwt>
<rscale>  0 0.18494111E+04</rscale>
<asrwt>0</asrwt>
<pdfrwt beam="1">  1        2 0.12330107E+00 0.18494111E+04</pdfrwt>
<pdfrwt beam="2">  1       -3 0.16413960E+00 0.18494111E+04</pdfrwt>
<totfact> 0.51728075E+00</totfact>
</mgrwt>
</event>
<event>
12    6  0.1647231E-007  0.1302168E+04  0.7818608E-02  0.9027848E-01
          2   -1    0    0  501    0  0.00000000000E+00  0.00000000000E+00  0.24061774141E+03  0.24061774141E+03  0.00000000000E+00 0. -1.
         -1   -1    0    0    0  501 -0.00000000000E+00 -0.00000000000E+00 -0.17617590632E+04  0.17617590632E+04  0.00000000000E+00 0.  1.
         24    2    1    2    0    0  0.59615564786E+02 -0.13033830292E+03  0.77429894261E+02  0.18158657846E+03  0.80225981938E+02 0.  0.
        254    2    1    2    0    0 -0.59615564786E+02  0.13033830292E+03 -0.15985712161E+04  0.18207902262E+04  0.85982848645E+03 0.  0.
         23    2    4    4    0    0 -0.30574803692E+02  0.46089698274E+03 -0.58822791193E+03  0.75338222373E+03  0.90619265843E+02 0.  0.
         23    2    4    4    0    0 -0.29040761094E+02 -0.33055867982E+03 -0.10103433042E+04  0.10674080025E+04  0.91944792344E+02 0.  0.
          4    1    3    3  502    0 -0.44508880373E+00 -0.58299004198E+02  0.64440032074E+02  0.86899307985E+02  0.00000000000E+00 0. -1.
         -3    1    3    3    0  502  0.60060653590E+02 -0.72039298720E+02  0.12989862186E+02  0.94687270471E+02  0.00000000000E+00 0.  1.
         11    1    5    5    0    0 -0.22306477344E+01  0.40410157339E+03 -0.53547427368E+03  0.67084704306E+03  0.00000000000E+00 0. -1.
        -11    1    5    5    0    0 -0.28344155958E+02  0.56795409350E+02 -0.52753638244E+02  0.82535180670E+02  0.00000000000E+00 0.  1.
          1    1    6    6  503    0 -0.22400893122E+01 -0.28925043266E+03 -0.78118617684E+03  0.83302021204E+03  0.00000000000E+00 0. -1.
         -1    1    6    6    0  503 -0.26800671782E+02 -0.41308247163E+02 -0.22915712733E+03  0.23438779042E+03  0.00000000000E+00 0.  1.
<mgrwt>
<rscale>  0 0.13021682E+04</rscale>
<asrwt>0</asrwt>
<pdfrwt beam="1">  1        2 0.37018115E-01 0.13021682E+04</pdfrwt>
<pdfrwt beam="2">  1       -1 0.27103985E+00 0.13021682E+04</pdfrwt>
<totfact> 0.80516632E+00</totfact>
</mgrwt>
</event>
<event>
12    6  0.1647231E-007  0.1573721E+04  0.7818608E-02  0.8836857E-01
          2   -1    0    0  501    0  0.00000000000E+00  0.00000000000E+00  0.10302330328E+04  0.10302330328E+04  0.00000000000E+00 0. -1.
         -1   -1    0    0    0  501 -0.00000000000E+00 -0.00000000000E+00 -0.60097999768E+03  0.60097999768E+03  0.00000000000E+00 0.  1.
         24    2    1    2    0    0 -0.30083400713E+03 -0.41150554973E+03  0.28026350631E+03  0.58749355964E+03  0.82238265666E+02 0.  0.
        254    2    1    2    0    0  0.30083400713E+03  0.41150554973E+03  0.14898952877E+03  0.10437194708E+04  0.89850683734E+03 0.  0.
         23    2    4    4    0    0  0.99159474159E+02  0.48250781729E+03  0.44220920034E+03  0.66973609950E+03  0.10174021349E+03 0.  0.
         23    2    4    4    0    0  0.20167453298E+03 -0.71002267568E+02 -0.29321967157E+03  0.37398337131E+03  0.90398268617E+02 0.  0.
          2    1    3    3  502    0 -0.11857991696E+03 -0.18310636323E+03  0.16438884644E+03  0.27315349127E+03  0.00000000000E+00 0. -1.
         -1    1    3    3    0  502 -0.18225409017E+03 -0.22839918650E+03  0.11587465987E+03  0.31434006836E+03  0.00000000000E+00 0.  1.
         11    1    5    5    0    0  0.10292341415E+03  0.45845384909E+03  0.44243975639E+03  0.64538833190E+03  0.00000000000E+00 0. -1.
        -11    1    5    5    0    0 -0.37639399891E+01  0.24053968206E+02 -0.23055605166E+00  0.24347767593E+02  0.00000000000E+00 0.  1.
          1    1    6    6  503    0  0.19144254445E+03 -0.80423080093E+02 -0.23266137529E+03  0.31184841701E+03  0.00000000000E+00 0. -1.
         -1    1    6    6    0  503  0.10231988522E+02  0.94208125251E+01 -0.60558296274E+02  0.62134954296E+02  0.00000000000E+00 0.  1.
<mgrwt>
<rscale>  0 0.15737210E+04</rscale>
<asrwt>0</asrwt>
<pdfrwt beam="1">  1        2 0.15849739E+00 0.15737210E+04</pdfrwt>
<pdfrwt beam="2">  1       -1 0.92458461E-01 0.15737210E+04</pdfrwt>
<totfact> 0.30054235E+01</totfact>
</mgrwt>
</event>
<event>
12    6  0.1647231E-007  0.2252671E+04  0.7818608E-02  0.8496819E-01
          2   -1    0    0  501    0  0.00000000000E+00  0.00000000000E+00  0.16991951326E+04  0.16991951326E+04  0.00000000000E+00 0. -1.
         -1   -1    0    0    0  501 -0.00000000000E+00 -0.00000000000E+00 -0.74660768843E+03  0.74660768843E+03  0.00000000000E+00 0.  1.
         24    2    1    2    0    0  0.37570314271E+03  0.63573692785E+03  0.10420158127E+04  0.12796049087E+04  0.79230521227E+02 0.  0.
        254    2    1    2    0    0 -0.37570314271E+03 -0.63573692785E+03 -0.89428368530E+02  0.11661979124E+04  0.89816804933E+03 0.  0.
         23    2    4    4    0    0  0.21931897331E+02  0.20467786853E+03 -0.51833646513E+02  0.23124788815E+03  0.91732332773E+02 0.  0.
         23    2    4    4    0    0 -0.39763504004E+03 -0.84041479638E+03 -0.37594722017E+02  0.93495002422E+03  0.91145650553E+02 0.  0.
          2    1    3    3  502    0  0.37671898686E+03  0.63655269466E+03  0.10331044387E+04  0.12705987995E+04  0.00000000000E+00 0. -1.
         -1    1    3    3    0  502 -0.10158441569E+01 -0.81576681464E+00  0.89113740169E+01  0.90061091331E+01  0.00000000000E+00 0.  1.
         11    1    5    5    0    0 -0.31227674728E+02  0.11823706636E+03 -0.41960891978E+02  0.12928993768E+03  0.00000000000E+00 0.  1.
        -11    1    5    5    0    0  0.53159572058E+02  0.86440802168E+02 -0.98727545346E+01  0.10195795046E+03  0.00000000000E+00 0. -1.
          2    1    6    6  503    0 -0.11761640630E+02 -0.48063008826E+02 -0.20244115029E+02  0.53462259595E+02  0.00000000000E+00 0. -1.
         -2    1    6    6    0  503 -0.38587339941E+03 -0.79235178756E+03 -0.17350606988E+02  0.88148776462E+03  0.00000000000E+00 0.  1.
<mgrwt>
<rscale>  0 0.22526714E+04</rscale>
<asrwt>0</asrwt>
<pdfrwt beam="1">  1        2 0.26141464E+00 0.22526714E+04</pdfrwt>
<pdfrwt beam="2">  1       -1 0.11486272E+00 0.22526714E+04</pdfrwt>
<totfact> 0.70034707E+00</totfact>
</mgrwt>
</event>
<event>
12    6  0.1647231E-007  0.2512077E+04  0.7818608E-02  0.8398695E-01
         -1   -1    0    0    0  501 -0.00000000000E+00  0.00000000000E+00  0.81136566292E+03  0.81136566292E+03  0.00000000000E+00 0.  1.
          2   -1    0    0  501    0  0.00000000000E+00 -0.00000000000E+00 -0.19444170892E+04  0.19444170892E+04  0.00000000000E+00 0. -1.
         24    2    1    2    0    0 -0.10192489124E+04 -0.39715973523E+03 -0.59110002964E+03  0.12458872325E+04  0.78940170601E+02 0.  0.
        254    2    1    2    0    0  0.10192489124E+04  0.39715973523E+03 -0.54195139664E+03  0.15098955196E+04  0.88852065990E+03 0.  0.
         23    2    4    4    0    0  0.41216480733E+03  0.49546224183E+03  0.48125387512E+02  0.65263419411E+03  0.90844245363E+02 0.  0.
         23    2    4    4    0    0  0.60708410503E+03 -0.98302506605E+02 -0.59007678415E+03  0.85726132546E+03  0.92151373042E+02 0.  0.
          2    1    3    3  502    0 -0.10157481703E+04 -0.39597089829E+03 -0.59369088511E+03  0.12413726938E+04  0.00000000000E+00 0. -1.
         -1    1    3    3    0  502 -0.35007420237E+01 -0.11888369352E+01  0.25908554752E+01  0.45145387437E+01  0.00000000000E+00 0.  1.
         11    1    5    5    0    0  0.38706337353E+03  0.49018661402E+03  0.51788805208E+02  0.62672406371E+03  0.00000000000E+00 0.  1.
        -11    1    5    5    0    0  0.25101433807E+02  0.52756278061E+01 -0.36634176961E+01  0.25910130396E+02  0.00000000000E+00 0. -1.
          1    1    6    6  503    0  0.29558567543E+03 -0.13431880885E+02 -0.32510561981E+03  0.43959637279E+03  0.00000000000E+00 0. -1.
         -1    1    6    6    0  503  0.31149842960E+03 -0.84870625720E+02 -0.26497116435E+03  0.41766495267E+03  0.00000000000E+00 0.  1.
<mgrwt>
<rscale>  0 0.25120774E+04</rscale>
<asrwt>0</asrwt>
<pdfrwt beam="1">  1        2 0.29914109E+00 0.25120774E+04</pdfrwt>
<pdfrwt beam="2">  1       -1 0.12482549E+00 0.25120774E+04</pdfrwt>
<totfact> 0.40847974E+00</totfact>
</mgrwt>
</event>
<event>
12    6  0.1647231E-007  0.1382634E+04  0.7818608E-02  0.8966486E-01
         -1   -1    0    0    0  501 -0.00000000000E+00  0.00000000000E+00  0.73826282589E+03  0.73826282589E+03  0.00000000000E+00 0.  1.
          2   -1    0    0  501    0  0.00000000000E+00 -0.00000000000E+00 -0.64735611585E+03  0.64735611585E+03  0.00000000000E+00 0. -1.
         24    2    1    2    0    0  0.22363265152E+02  0.12903806582E+02  0.37069204910E+03  0.38001480838E+03  0.79574087931E+02 0.  0.
        254    2    1    2    0    0 -0.22363265152E+02 -0.12903806582E+02 -0.27978533905E+03  0.10056041334E+04  0.96555331973E+03 0.  0.
         23    2    4    4    0    0  0.34246960522E+03  0.13543377667E+03  0.15826996280E+03  0.40952664197E+03  0.83874614751E+02 0.  0.
         23    2    4    4    0    0 -0.36483287037E+03 -0.14833758325E+03 -0.43805530185E+03  0.59607749139E+03  0.91152983262E+02 0.  0.
          2    1    3    3  502    0  0.12532750316E+02 -0.32354074609E+02  0.11345504414E+03  0.11864191087E+03  0.00000000000E+00 0. -1.
         -1    1    3    3    0  502  0.98305148355E+01  0.45257881191E+02  0.25723700496E+03  0.26137289751E+03  0.00000000000E+00 0.  1.
         11    1    5    5    0    0 -0.16007706503E+00  0.37422779358E+01  0.15050210614E+02  0.15509323272E+02  0.00000000000E+00 0.  1.
        -11    1    5    5    0    0  0.34262968228E+03  0.13169149874E+03  0.14321975218E+03  0.39401731870E+03  0.00000000000E+00 0. -1.
          2    1    6    6  503    0  0.25093719937E+01 -0.11857268915E+02 -0.97979715460E+01  0.15584993434E+02  0.00000000000E+00 0. -1.
         -2    1    6    6    0  503 -0.36734224236E+03 -0.13648031434E+03 -0.42825733030E+03  0.58049249796E+03  0.00000000000E+00 0.  1.
<mgrwt>
<rscale>  0 0.13826337E+04</rscale>
<asrwt>0</asrwt>
<pdfrwt beam="1">  1        2 0.99593248E-01 0.13826337E+04</pdfrwt>
<pdfrwt beam="2">  1       -1 0.11357890E+00 0.13826337E+04</pdfrwt>
<totfact> 0.35595759E+01</totfact>
</mgrwt>
</event>
<event>
12    6  0.1647231E-007  0.2848463E+04  0.7818608E-02  0.8288379E-01
          2   -1    0    0  501    0  0.00000000000E+00  0.00000000000E+00  0.83702551618E+03  0.83702551618E+03  0.00000000000E+00 0. -1.
         -1   -1    0    0    0  501 -0.00000000000E+00 -0.00000000000E+00 -0.24233845797E+04  0.24233845797E+04  0.00000000000E+00 0.  1.
         24    2    1    2    0    0  0.94526440375E+03 -0.57403430058E+03 -0.14457379019E+04  0.18220471482E+04  0.81593860060E+02 0.  0.
        254    2    1    2    0    0 -0.94526440375E+03  0.57403430058E+03 -0.14062116170E+03  0.14383629478E+04  0.90888584935E+03 0.  0.
         23    2    4    4    0    0 -0.14610035765E+02 -0.16158527315E+02 -0.30783126850E+03  0.31999030526E+03  0.84611786684E+02 0.  0.
         23    2    4    4    0    0 -0.93065436798E+03  0.59019282790E+03  0.16721010679E+03  0.11183726425E+04  0.91394862815E+02 0.  0.
          4    1    3    3  502    0  0.64071554129E+03 -0.35232081623E+03 -0.91677822743E+03  0.11726588083E+04  0.00000000000E+00 0. -1.
         -3    1    3    3    0  502  0.30454886246E+03 -0.22171348435E+03 -0.52895967442E+03  0.64938833985E+03  0.00000000000E+00 0.  1.
         11    1    5    5    0    0 -0.42175643764E+01 -0.33308824914E+02 -0.29332479635E+03  0.29524007489E+03  0.00000000000E+00 0.  1.
        -11    1    5    5    0    0 -0.10392471389E+02  0.17150297599E+02 -0.14506472147E+02  0.24750230372E+02  0.00000000000E+00 0. -1.
          2    1    6    6  503    0 -0.45531784483E+03  0.23523582844E+03  0.83462645358E+02  0.51924584540E+03  0.00000000000E+00 0. -1.
         -2    1    6    6    0  503 -0.47533652316E+03  0.35495699946E+03  0.83747461433E+02  0.59912679710E+03  0.00000000000E+00 0.  1.
<mgrwt>
<rscale>  0 0.28484626E+04</rscale>
<asrwt>0</asrwt>
<pdfrwt beam="1">  1        2 0.12877316E+00 0.28484626E+04</pdfrwt>
<pdfrwt beam="2">  1       -1 0.37282839E+00 0.28484626E+04</pdfrwt>
<totfact> 0.35015996E-01</totfact>
</mgrwt>
</event>
<event>
12    6  0.1647231E-007  0.1301745E+04  0.7818608E-02  0.9028183E-01
         -1   -1    0    0    0  501 -0.00000000000E+00  0.00000000000E+00  0.36258388074E+03  0.36258388074E+03  0.00000000000E+00 0.  1.
          2   -1    0    0  501    0  0.00000000000E+00 -0.00000000000E+00 -0.11683775518E+04  0.11683775518E+04  0.00000000000E+00 0. -1.
         24    2    1    2    0    0  0.20142041661E+02 -0.31135926928E+03 -0.46999850000E+03  0.56950542117E+03  0.78022678341E+02 0.  0.
        254    2    1    2    0    0 -0.20142041661E+02  0.31135926928E+03 -0.33579517102E+03  0.96145601133E+03  0.84515617991E+03 0.  0.
         23    2    4    4    0    0 -0.25775221113E+03  0.45814362874E+03 -0.26171385260E+02  0.53403200610E+03  0.90407163641E+02 0.  0.
         23    2    4    4    0    0  0.23761016947E+03 -0.14678435946E+03 -0.30962378576E+03  0.42742400523E+03  0.93915657482E+02 0.  0.
          4    1    3    3  502    0  0.45656337750E+01 -0.30051282112E+03 -0.45505777138E+03  0.54534977397E+03  0.00000000000E+00 0. -1.
         -3    1    3    3    0  502  0.15576407886E+02 -0.10846448152E+02 -0.14940728613E+02  0.24155647199E+02  0.00000000000E+00 0.  1.
         11    1    5    5    0    0 -0.22718460895E+03  0.44546884321E+03 -0.20635472031E+02  0.50048092823E+03  0.00000000000E+00 0.  1.
        -11    1    5    5    0    0 -0.30567602179E+02  0.12674785530E+02 -0.55359132282E+01  0.33551077873E+02  0.00000000000E+00 0. -1.
          4    1    6    6  503    0 -0.41910876578E+01 -0.22269463552E+02 -0.25217663367E+02  0.33903167527E+02  0.00000000000E+00 0. -1.
         -4    1    6    6    0  503  0.24180125713E+03 -0.12451489591E+03 -0.28440612239E+03  0.39352083770E+03  0.00000000000E+00 0.  1.
<mgrwt>
<rscale>  0 0.13017448E+04</rscale>
<asrwt>0</asrwt>
<pdfrwt beam="1">  1        2 0.17975039E+00 0.13017448E+04</pdfrwt>
<pdfrwt beam="2">  1       -1 0.55782137E-01 0.13017448E+04</pdfrwt>
<totfact> 0.71871285E+01</totfact>
</mgrwt>
</event>
<event>
12    6  0.1647231E-007  0.3436349E+04  0.7818608E-02  0.8129042E-01
          2   -1    0    0  501    0  0.00000000000E+00  0.00000000000E+00  0.16704881852E+04  0.16704881852E+04  0.00000000000E+00 0. -1.
         -1   -1    0    0    0  501 -0.00000000000E+00 -0.00000000000E+00 -0.17672223426E+04  0.17672223426E+04  0.00000000000E+00 0.  1.
         24    2    1    2    0    0 -0.50611662682E+03  0.15188876973E+04 -0.74539339181E+02  0.16047149376E+04  0.79875158896E+02 0.  0.
        254    2    1    2    0    0  0.50611662682E+03 -0.15188876973E+04 -0.22194818230E+02  0.18329955902E+04  0.89230395424E+03 0.  0.
         23    2    4    4    0    0  0.26854547458E+03 -0.40439238964E+02 -0.15713494748E+03  0.32680425650E+03  0.91420054602E+02 0.  0.
         23    2    4    4    0    0  0.23757115223E+03 -0.14784484583E+04  0.13494012925E+03  0.15061913337E+04  0.90297280561E+02 0.  0.
          2    1    3    3  502    0 -0.45217540335E+03  0.12642178024E+04 -0.64809270589E+02  0.13442133346E+04  0.00000000000E+00 0. -1.
         -1    1    3    3    0  502 -0.53941223464E+02  0.25466989486E+03 -0.97300685916E+01  0.26050160301E+03  0.00000000000E+00 0.  1.
         11    1    5    5    0    0  0.83784186501E+01 -0.17175580550E+02 -0.31764983068E+02  0.37070373827E+02  0.00000000000E+00 0. -1.
        -11    1    5    5    0    0  0.26016705593E+03 -0.23263658414E+02 -0.12536996441E+03  0.28973388268E+03  0.00000000000E+00 0.  1.
          2    1    6    6  503    0  0.22877359309E+03 -0.14624911529E+04  0.14102913291E+03  0.14869791342E+04  0.00000000000E+00 0.  1.
         -2    1    6    6    0  503  0.87975591463E+01 -0.15957305407E+02 -0.60890036613E+01  0.19212199467E+02  0.00000000000E+00 0. -1.
<mgrwt>
<rscale>  0 0.34363493E+04</rscale>
<asrwt>0</asrwt>
<pdfrwt beam="1">  1        2 0.25699818E+00 0.34363493E+04</pdfrwt>
<pdfrwt beam="2">  1       -1 0.27188036E+00 0.34363493E+04</pdfrwt>
<totfact> 0.48103079E-01</totfact>
</mgrwt>
</event>
<event>
12    6  0.1647231E-007  0.2235215E+04  0.7818608E-02  0.8503912E-01
          2   -1    0    0  501    0  0.00000000000E+00  0.00000000000E+00  0.24540913495E+04  0.24540913495E+04  0.00000000000E+00 0. -1.
         -1   -1    0    0    0  501 -0.00000000000E+00 -0.00000000000E+00 -0.50896486394E+03  0.50896486394E+03  0.00000000000E+00 0.  1.
         24    2    1    2    0    0 -0.94853073296E+02  0.16996621411E+03  0.20278343291E+04  0.20386750335E+04  0.78728688519E+02 0.  0.
        254    2    1    2    0    0  0.94853073296E+02 -0.16996621411E+03 -0.82707843486E+02  0.92438118001E+03  0.89986352250E+03 0.  0.
         23    2    4    4    0    0  0.12726778018E+03 -0.32257943612E+03  0.32194751461E+03  0.48173903830E+03  0.90375430198E+02 0.  0.
         23    2    4    4    0    0 -0.32414706882E+02  0.15261322201E+03 -0.40465535809E+03  0.44264214171E+03  0.88569735400E+02 0.  0.
          4    1    3    3  502    0 -0.81569218010E+02  0.81431688749E+02  0.13583846028E+04  0.13632657065E+04  0.00000000000E+00 0. -1.
         -3    1    3    3    0  502 -0.13283855287E+02  0.88534525361E+02  0.66944972626E+03  0.67540932699E+03  0.00000000000E+00 0.  1.
         11    1    5    5    0    0  0.72086960211E+02 -0.25191027508E+03  0.19637537724E+03  0.32744252214E+03  0.00000000000E+00 0.  1.
        -11    1    5    5    0    0  0.55180819968E+02 -0.70669161037E+02  0.12557213737E+03  0.15429651616E+03  0.00000000000E+00 0. -1.
          4    1    6    6  503    0  0.11423035222E+02  0.12101922088E+00 -0.85098215302E+02  0.85861555000E+02  0.00000000000E+00 0. -1.
         -4    1    6    6    0  503 -0.43837742105E+02  0.15249220279E+03 -0.31955714279E+03  0.35678058671E+03  0.00000000000E+00 0.  1.
<mgrwt>
<rscale>  0 0.22352148E+04</rscale>
<asrwt>0</asrwt>
<pdfrwt beam="1">  1        2 0.37755251E+00 0.22352148E+04</pdfrwt>
<pdfrwt beam="2">  1       -1 0.78302288E-01 0.22352148E+04</pdfrwt>
<totfact> 0.62662441E+00</totfact>
</mgrwt>
</event>
<event>
12    6  0.1647231E-007  0.2148224E+04  0.7818608E-02  0.8540293E-01
          2   -1    0    0  501    0  0.00000000000E+00  0.00000000000E+00  0.15352616775E+04  0.15352616775E+04  0.00000000000E+00 0. -1.
         -3   -1    0    0    0  501 -0.00000000000E+00 -0.00000000000E+00 -0.75147847450E+03  0.75147847450E+03  0.00000000000E+00 0.  1.
         24    2    1    2    0    0  0.16639440768E+03 -0.21532378289E+03 -0.56231482640E+03  0.63011862051E+03  0.82462606972E+02 0.  0.
        254    2    1    2    0    0 -0.16639440768E+03  0.21532378289E+03  0.13460980294E+04  0.16566215315E+04  0.92647912198E+03 0.  0.
         23    2    4    4    0    0 -0.18085036593E+02  0.53126653776E+03  0.10840860597E+04  0.12109076098E+04  0.92105656763E+02 0.  0.
         23    2    4    4    0    0 -0.14830937108E+03 -0.31594275487E+03  0.26201196974E+03  0.44571392170E+03  0.90526978320E+02 0.  0.
          4    1    3    3  502    0  0.87889693504E+02 -0.54088632363E+02 -0.24058211564E+03  0.26178222388E+03  0.00000000000E+00 0. -1.
         -3    1    3    3    0  502  0.78504714172E+02 -0.16123515052E+03 -0.32173271076E+03  0.36833639663E+03  0.00000000000E+00 0.  1.
         11    1    5    5    0    0 -0.39476448697E+02  0.24895789619E+03  0.43485624600E+03  0.50263145421E+03  0.00000000000E+00 0.  1.
        -11    1    5    5    0    0  0.21391412104E+02  0.28230864157E+03  0.64922981370E+03  0.70827615562E+03  0.00000000000E+00 0. -1.
          2    1    6    6  503    0 -0.47837401054E+02 -0.74708630420E+02  0.23168268753E+02  0.91687322329E+02  0.00000000000E+00 0. -1.
         -2    1    6    6    0  503 -0.10047197003E+03 -0.24123412445E+03  0.23884370099E+03  0.35402659937E+03  0.00000000000E+00 0.  1.
<mgrwt>
<rscale>  0 0.21482235E+04</rscale>
<asrwt>0</asrwt>
<pdfrwt beam="1">  1        2 0.23619410E+00 0.21482235E+04</pdfrwt>
<pdfrwt beam="2">  1       -3 0.11561207E+00 0.21482235E+04</pdfrwt>
<totfact> 0.43775255E+00</totfact>
</mgrwt>
</event>
<event>
12    6  0.1647231E-007  0.1161844E+04  0.7818608E-02  0.9146926E-01
         -1   -1    0    0    0  501 -0.00000000000E+00  0.00000000000E+00  0.71556960475E+03  0.71556960475E+03  0.00000000000E+00 0.  1.
          2   -1    0    0  501    0  0.00000000000E+00 -0.00000000000E+00 -0.47161097750E+03  0.47161097750E+03  0.00000000000E+00 0. -1.
         24    2    1    2    0    0 -0.15318772458E+01  0.12947900394E+03  0.27357505432E+03  0.31325497481E+03  0.80735430781E+02 0.  0.
        254    2    1    2    0    0  0.15318772458E+01 -0.12947900394E+03 -0.29616427068E+02  0.87392560745E+03  0.86377177280E+03 0.  0.
         23    2    4    4    0    0  0.87065837054E+02 -0.29394894994E+03 -0.36201745466E+03  0.48288578158E+03  0.90197535522E+02 0.  0.
         23    2    4    4    0    0 -0.85533959809E+02  0.16446994600E+03  0.33240102760E+03  0.39103982587E+03  0.89751216417E+02 0.  0.
          4    1    3    3  502    0 -0.21245845338E+02 -0.26099690410E+00  0.42558897653E+02  0.47567991685E+02  0.00000000000E+00 0. -1.
         -3    1    3    3    0  502  0.19713968092E+02  0.12974000085E+03  0.23101615667E+03  0.26568698312E+03  0.00000000000E+00 0.  1.
         11    1    5    5    0    0  0.56599000243E+01 -0.37268421258E+01  0.46563417656E+01  0.82222466002E+01  0.00000000000E+00 0. -1.
        -11    1    5    5    0    0  0.81405937030E+02 -0.29022210782E+03 -0.36667379643E+03  0.47466353498E+03  0.00000000000E+00 0.  1.
          1    1    6    6  503    0 -0.60689630946E+02  0.35205711224E+02  0.80229097188E+02  0.10658039896E+03  0.00000000000E+00 0. -1.
         -1    1    6    6    0  503 -0.24844328862E+02  0.12926423478E+03  0.25217193041E+03  0.28445942690E+03  0.00000000000E+00 0.  1.
<mgrwt>
<rscale>  0 0.11618442E+04</rscale>
<asrwt>0</asrwt>
<pdfrwt beam="1">  1        2 0.72555535E-01 0.11618442E+04</pdfrwt>
<pdfrwt beam="2">  1       -1 0.11008763E+00 0.11618442E+04</pdfrwt>
<totfact> 0.56823569E+01</totfact>
</mgrwt>
</event>
<event>
12    6  0.1647231E-007  0.2121236E+04  0.7818608E-02  0.8551946E-01
          2   -1    0    0  501    0  0.00000000000E+00  0.00000000000E+00  0.23333430564E+04  0.23333430564E+04  0.00000000000E+00 0. -1.
         -1   -1    0    0    0  501 -0.00000000000E+00 -0.00000000000E+00 -0.48210240001E+03  0.48210240001E+03  0.00000000000E+00 0.  1.
         24    2    1    2    0    0 -0.65414265772E+03  0.12804371770E+01  0.13941158978E+02  0.65913815838E+03  0.79777814930E+02 0.  0.
        254    2    1    2    0    0  0.65414265772E+03 -0.12804371770E+01  0.18372994974E+04  0.21563072980E+04  0.91983012788E+03 0.  0.
         23    2    4    4    0    0  0.84095159867E+03 -0.13564681862E+03  0.15928364438E+04  0.18085041889E+04  0.89217787849E+02 0.  0.
         23    2    4    4    0    0 -0.18680894095E+03  0.13436638145E+03  0.24446305356E+03  0.34780310914E+03  0.90845546326E+02 0.  0.
          4    1    3    3  502    0 -0.23630101744E+03 -0.19024439021E+01  0.43345168900E+02  0.24025110573E+03  0.00000000000E+00 0. -1.
         -3    1    3    3    0  502 -0.41784164028E+03  0.31828810790E+01 -0.29404009922E+02  0.41888705266E+03  0.00000000000E+00 0.  1.
         11    1    5    5    0    0  0.85571316769E+02  0.32888395615E+01  0.11981781948E+03  0.14727381500E+03  0.00000000000E+00 0. -1.
        -11    1    5    5    0    0  0.75538028190E+03 -0.13893565818E+03  0.14730186243E+04  0.16612303739E+04  0.00000000000E+00 0.  1.
          1    1    6    6  503    0 -0.12716275785E+03  0.47644755764E+02  0.17577367211E+03  0.22211882753E+03  0.00000000000E+00 0. -1.
         -1    1    6    6    0  503 -0.59646183096E+02  0.86721625682E+02  0.68689381455E+02  0.12568428161E+03  0.00000000000E+00 0.  1.
<mgrwt>
<rscale>  0 0.21212358E+04</rscale>
<asrwt>0</asrwt>
<pdfrwt beam="1">  1        2 0.35897585E+00 0.21212358E+04</pdfrwt>
<pdfrwt beam="2">  1       -1 0.74169601E-01 0.21212358E+04</pdfrwt>
<totfact> 0.83163964E+00</totfact>
</mgrwt>
</event>
<event>
12    6  0.1647231E-007  0.2172237E+04  0.7818608E-02  0.8530073E-01
          2   -1    0    0  501    0  0.00000000000E+00  0.00000000000E+00  0.76520885775E+03  0.76520885775E+03  0.00000000000E+00 0. -1.
         -1   -1    0    0    0  501 -0.00000000000E+00 -0.00000000000E+00 -0.15416092334E+04  0.15416092334E+04  0.00000000000E+00 0.  1.
         24    2    1    2    0    0 -0.56400915935E+03 -0.56451484658E+03 -0.74812472916E+03  0.10969442077E+04  0.82538721838E+02 0.  0.
        254    2    1    2    0    0  0.56400915935E+03  0.56451484658E+03 -0.28275646521E+02  0.12098738835E+04  0.90896202225E+03 0.  0.
         23    2    4    4    0    0  0.18216328777E+03 -0.23425474911E+03  0.57797788093E+02  0.31578483265E+03  0.91218009926E+02 0.  0.
         23    2    4    4    0    0  0.38184587158E+03  0.79876959568E+03 -0.86073434614E+02  0.89408905083E+03  0.90263270665E+02 0.  0.
          2    1    3    3  502    0 -0.50770281162E+03 -0.47632044381E+03 -0.62714750440E+03  0.93699375793E+03  0.00000000000E+00 0. -1.
         -1    1    3    3    0  502 -0.56306347730E+02 -0.88194402767E+02 -0.12097722476E+03  0.15995044978E+03  0.00000000000E+00 0.  1.
         11    1    5    5    0    0  0.11296782795E+03 -0.16008145119E+03 -0.58797002432E+01  0.19601625454E+03  0.00000000000E+00 0. -1.
        -11    1    5    5    0    0  0.69195459816E+02 -0.74173297913E+02  0.63677488336E+02  0.11976857811E+03  0.00000000000E+00 0.  1.
          1    1    6    6  503    0  0.21317707338E+03  0.36708861031E+03 -0.11413500450E+02  0.42465136339E+03  0.00000000000E+00 0. -1.
         -1    1    6    6    0  503  0.16866879820E+03  0.43168098537E+03 -0.74659934164E+02  0.46943768744E+03  0.00000000000E+00 0.  1.
<mgrwt>
<rscale>  0 0.21722367E+04</rscale>
<asrwt>0</asrwt>
<pdfrwt beam="1">  1        2 0.11772444E+00 0.21722367E+04</pdfrwt>
<pdfrwt beam="2">  1       -1 0.23717065E+00 0.21722367E+04</pdfrwt>
<totfact> 0.32315594E+00</totfact>
</mgrwt>
</event>
<event>
12    6  0.1647231E-007  0.2827467E+04  0.7818608E-02  0.8294791E-01
         -1   -1    0    0    0  501 -0.00000000000E+00  0.00000000000E+00  0.10610336093E+04  0.10610336093E+04  0.00000000000E+00 0.  1.
          2   -1    0    0  501    0  0.00000000000E+00 -0.00000000000E+00 -0.18836750137E+04  0.18836750137E+04  0.00000000000E+00 0. -1.
         24    2    1    2    0    0  0.11433355593E+03 -0.33445390293E+03 -0.16399092363E+04  0.16794557942E+04  0.79610841758E+02 0.  0.
        254    2    1    2    0    0 -0.11433355593E+03  0.33445390293E+03  0.81726783194E+03  0.12652528287E+04  0.89889178225E+03 0.  0.
         23    2    4    4    0    0 -0.14607665950E+03  0.58026959341E+03  0.28118953651E+03  0.66765710824E+03  0.92990683700E+02 0.  0.
         23    2    4    4    0    0  0.31743103571E+02 -0.24581569047E+03  0.53607829544E+03  0.59759572046E+03  0.91146738676E+02 0.  0.
          2    1    3    3  502    0  0.12513418006E+03 -0.31123579525E+03 -0.15549272854E+04  0.15906995776E+04  0.00000000000E+00 0. -1.
         -1    1    3    3    0  502 -0.10800624128E+02 -0.23218107682E+02 -0.84981950961E+02  0.88756216656E+02  0.00000000000E+00 0.  1.
         11    1    5    5    0    0 -0.70193144345E+02  0.24038688841E+03  0.16766014754E+03  0.30136831071E+03  0.00000000000E+00 0. -1.
        -11    1    5    5    0    0 -0.75883515159E+02  0.33988270500E+03  0.11352938897E+03  0.36628879752E+03  0.00000000000E+00 0.  1.
          3    1    6    6  503    0  0.94537412082E+01 -0.61005773082E+02  0.58613684168E+02  0.85127208012E+02  0.00000000000E+00 0. -1.
         -3    1    6    6    0  503  0.22289362363E+02 -0.18480991739E+03  0.47746461127E+03  0.51246851245E+03  0.00000000000E+00 0.  1.
<mgrwt>
<rscale>  0 0.28274671E+04</rscale>
<asrwt>0</asrwt>
<pdfrwt beam="1">  1        2 0.28979616E+00 0.28274671E+04</pdfrwt>
<pdfrwt beam="2">  1       -1 0.16323594E+00 0.28274671E+04</pdfrwt>
<totfact> 0.21161522E+00</totfact>
</mgrwt>
</event>
<event>
12    6  0.1647231E-007  0.1338068E+04  0.7818608E-02  0.8999910E-01
         -1   -1    0    0    0  501 -0.00000000000E+00  0.00000000000E+00  0.79896906903E+03  0.79896906903E+03  0.00000000000E+00 0.  1.
          2   -1    0    0  501    0  0.00000000000E+00 -0.00000000000E+00 -0.56022991951E+03  0.56022991951E+03  0.00000000000E+00 0. -1.
         24    2    1    2    0    0  0.24909978301E+03  0.24609433988E+03 -0.13273847663E+02  0.35977554257E+03  0.81542136228E+02 0.  0.
        254    2    1    2    0    0 -0.24909978301E+03 -0.24609433988E+03  0.25201299718E+03  0.99942344597E+03  0.90151181223E+03 0.  0.
         23    2    4    4    0    0  0.24518127071E+03 -0.90915958347E+02  0.36837656581E+03  0.46057134580E+03  0.89694500064E+02 0.  0.
         23    2    4    4    0    0 -0.49428105372E+03 -0.15517838153E+03 -0.11636356863E+03  0.53885210017E+03  0.91798777703E+02 0.  0.
          2    1    3    3  502    0  0.17746021379E+03  0.22039481605E+03 -0.17902865130E+02  0.28352515761E+03  0.00000000000E+00 0. -1.
         -3    1    3    3    0  502  0.71639569215E+02  0.25699523833E+02  0.46290174679E+01  0.76250384951E+02  0.00000000000E+00 0.  1.
         11    1    5    5    0    0  0.12865241035E+03 -0.78020575848E+02  0.26267996634E+03  0.30272003182E+03  0.00000000000E+00 0.  1.
        -11    1    5    5    0    0  0.11652886036E+03 -0.12895382499E+02  0.10569659947E+03  0.15785131398E+03  0.00000000000E+00 0. -1.
          1    1    6    6  503    0 -0.87458172719E+02 -0.98456791060E+00  0.36460722433E+01  0.87539677816E+02  0.00000000000E+00 0. -1.
         -1    1    6    6    0  503 -0.40682288100E+03 -0.15419381362E+03 -0.12000964087E+03  0.45131242235E+03  0.00000000000E+00 0.  1.
<mgrwt>
<rscale>  0 0.13380678E+04</rscale>
<asrwt>0</asrwt>
<pdfrwt beam="1">  1        2 0.86189218E-01 0.13380678E+04</pdfrwt>
<pdfrwt beam="2">  1       -1 0.12291832E+00 0.13380678E+04</pdfrwt>
<totfact> 0.35127946E+01</totfact>
</mgrwt>
</event>
<event>
12    6  0.1647231E-007  0.1550041E+04  0.7818608E-02  0.8851842E-01
         -1   -1    0    0    0  501 -0.00000000000E+00  0.00000000000E+00  0.17359702624E+04  0.17359702624E+04  0.00000000000E+00 0.  1.
          2   -1    0    0  501    0  0.00000000000E+00 -0.00000000000E+00 -0.34600618910E+03  0.34600618910E+03  0.00000000000E+00 0. -1.
         24    2    1    2    0    0 -0.29673577080E+03  0.18754651303E+03 -0.33040070368E+02  0.36171542007E+03  0.80750149479E+02 0.  0.
        254    2    1    2    0    0  0.29673577080E+03 -0.18754651303E+03  0.14230041436E+04  0.17202610314E+04  0.90062834240E+03 0.  0.
         23    2    4    4    0    0 -0.17467523278E+03 -0.44499443892E+02  0.11137484297E+04  0.11316679313E+04  0.88006276018E+02 0.  0.
         23    2    4    4    0    0  0.47141100358E+03 -0.14304706914E+03  0.30925571389E+03  0.58859310006E+03  0.90066323206E+02 0.  0.
          4    1    3    3  502    0 -0.26758857886E+03  0.15642583060E+03 -0.37372410177E+01  0.30997847504E+03  0.00000000000E+00 0. -1.
         -3    1    3    3    0  502 -0.29147191937E+02  0.31120682432E+02 -0.29302829351E+02  0.51736945028E+02  0.00000000000E+00 0.  1.
         11    1    5    5    0    0 -0.88470581293E+02 -0.66964910195E+02  0.65907542245E+03  0.66835002463E+03  0.00000000000E+00 0.  1.
        -11    1    5    5    0    0 -0.86204651489E+02  0.22465466303E+02  0.45467300729E+03  0.46331790671E+03  0.00000000000E+00 0. -1.
          1    1    6    6  503    0  0.20099483699E+03 -0.96652861864E+02  0.10478572424E+03  0.24641580349E+03  0.00000000000E+00 0. -1.
         -1    1    6    6    0  503  0.27041616659E+03 -0.46394207278E+02  0.20446998965E+03  0.34217729657E+03  0.00000000000E+00 0.  1.
<mgrwt>
<rscale>  0 0.15500406E+04</rscale>
<asrwt>0</asrwt>
<pdfrwt beam="1">  1        2 0.53231723E-01 0.15500406E+04</pdfrwt>
<pdfrwt beam="2">  1       -1 0.26707234E+00 0.15500406E+04</pdfrwt>
<totfact> 0.55717000E+00</totfact>
</mgrwt>
</event>
<event>
12    6  0.1647231E-007  0.1354983E+04  0.7818608E-02  0.8987064E-01
          2   -1    0    0  501    0  0.00000000000E+00  0.00000000000E+00  0.46166669542E+03  0.46166669542E+03  0.00000000000E+00 0. -1.
         -1   -1    0    0    0  501 -0.00000000000E+00 -0.00000000000E+00 -0.99421260524E+03  0.99421260524E+03  0.00000000000E+00 0.  1.
         24    2    1    2    0    0 -0.11834914188E+03 -0.32025938490E+03 -0.33205426138E+03  0.48278247193E+03  0.79033472025E+02 0.  0.
        254    2    1    2    0    0  0.11834914188E+03  0.32025938490E+03 -0.20049164844E+03  0.97309682873E+03  0.88890266283E+03 0.  0.
         23    2    4    4    0    0  0.68299703544E+02 -0.30043817332E+03 -0.37659432429E+02  0.32342200119E+03  0.90860401200E+02 0.  0.
         23    2    4    4    0    0  0.50049438333E+02  0.62069755823E+03 -0.16283221601E+03  0.64967482754E+03  0.88275964485E+02 0.  0.
          2    1    3    3  502    0 -0.98491517327E+02 -0.24527342011E+03 -0.29723906355E+03  0.39775707473E+03  0.00000000000E+00 0. -1.
         -1    1    3    3    0  502 -0.19857624551E+02 -0.74985964797E+02 -0.34815197829E+02  0.85025397201E+02  0.00000000000E+00 0.  1.
         11    1    5    5    0    0  0.22133728719E+02 -0.17744246162E+03 -0.63067009968E+02  0.18961322970E+03  0.00000000000E+00 0. -1.
        -11    1    5    5    0    0  0.46165974825E+02 -0.12299571171E+03  0.25407577539E+02  0.13380877148E+03  0.00000000000E+00 0.  1.
          1    1    6    6  503    0  0.40929110487E+02  0.38115476876E+03 -0.56707292033E+02  0.38751756967E+03  0.00000000000E+00 0. -1.
         -1    1    6    6    0  503  0.91203278460E+01  0.23954278947E+03 -0.10612492398E+03  0.26215725787E+03  0.00000000000E+00 0.  1.
<mgrwt>
<rscale>  0 0.13549832E+04</rscale>
<asrwt>0</asrwt>
<pdfrwt beam="1">  1        2 0.71025646E-01 0.13549832E+04</pdfrwt>
<pdfrwt beam="2">  1       -1 0.15295578E+00 0.13549832E+04</pdfrwt>
<totfact> 0.24960347E+01</totfact>
</mgrwt>
</event>
<event>
12    6  0.1647231E-007  0.1954635E+04  0.7818608E-02  0.8628129E-01
         -1   -1    0    0    0  501 -0.00000000000E+00  0.00000000000E+00  0.80243258376E+03  0.80243258376E+03  0.00000000000E+00 0.  1.
          2   -1    0    0  501    0  0.00000000000E+00 -0.00000000000E+00 -0.11903176114E+04  0.11903176114E+04  0.00000000000E+00 0. -1.
         24    2    1    2    0    0  0.62961521446E+03  0.45062556842E+03 -0.13421637944E+03  0.78988895557E+03  0.80198531269E+02 0.  0.
        254    2    1    2    0    0 -0.62961521446E+03 -0.45062556842E+03 -0.25366864817E+03  0.12028612396E+04  0.88490036580E+03 0.  0.
         23    2    4    4    0    0 -0.74515280771E+02  0.33846272308E+02 -0.42386618103E+03  0.44132066216E+03  0.91669461718E+02 0.  0.
         23    2    4    4    0    0 -0.55509993369E+03 -0.48447184073E+03  0.17019753286E+03  0.76154057741E+03  0.90155144071E+02 0.  0.
          4    1    3    3  502    0  0.28891918231E+03  0.23694555544E+03 -0.96815824374E+02  0.38599325642E+03  0.00000000000E+00 0. -1.
         -3    1    3    3    0  502  0.34069603215E+03  0.21368001298E+03 -0.37400555064E+02  0.40389569915E+03  0.00000000000E+00 0.  1.
         11    1    5    5    0    0 -0.40498499069E+02  0.32037107218E+02 -0.76553681367E+02  0.92341598408E+02  0.00000000000E+00 0. -1.
        -11    1    5    5    0    0 -0.34016781702E+02  0.18091650904E+01 -0.34731249966E+03  0.34897906375E+03  0.00000000000E+00 0.  1.
          3    1    6    6  503    0 -0.13678627278E+03 -0.14330205259E+03  0.95176869269E+01  0.19833443741E+03  0.00000000000E+00 0. -1.
         -3    1    6    6    0  503 -0.41831366091E+03 -0.34116978814E+03  0.16067984593E+03  0.56320614000E+03  0.00000000000E+00 0.  1.
<mgrwt>
<rscale>  0 0.19546351E+04</rscale>
<asrwt>0</asrwt>
<pdfrwt beam="1">  1        2 0.18312579E+00 0.19546351E+04</pdfrwt>
<pdfrwt beam="2">  1       -1 0.12345117E+00 0.19546351E+04</pdfrwt>
<totfact> 0.11782212E+01</totfact>
</mgrwt>
</event>
<event>
12    6  0.1647231E-007  0.1116422E+04  0.7818608E-02  0.9189332E-01
          2   -1    0    0  501    0  0.00000000000E+00  0.00000000000E+00  0.20138098641E+04  0.20138098641E+04  0.00000000000E+00 0. -1.
         -1   -1    0    0    0  501 -0.00000000000E+00 -0.00000000000E+00 -0.15473141167E+03  0.15473141167E+03  0.00000000000E+00 0.  1.
         24    2    1    2    0    0  0.15939776809E+03  0.45273906594E+02  0.21188922257E+03  0.28085188333E+03  0.80767336453E+02 0.  0.
        254    2    1    2    0    0 -0.15939776809E+03 -0.45273906594E+02  0.16471892299E+04  0.18876893925E+04  0.90701792061E+03 0.  0.
         23    2    4    4    0    0  0.14035519154E+02 -0.43209611023E+02  0.16839606684E+04  0.16874688589E+04  0.98810681103E+02 0.  0.
         23    2    4    4    0    0 -0.17343328724E+03 -0.20642955708E+01 -0.36771438499E+02  0.20022053360E+03  0.93020196446E+02 0.  0.
          2    1    3    3  502    0  0.92409020914E+02  0.72115918432E+01  0.16880018258E+03  0.19257449427E+03  0.00000000000E+00 0. -1.
         -1    1    3    3    0  502  0.66988747174E+02  0.38062314751E+02  0.43089039992E+02  0.88277389062E+02  0.00000000000E+00 0.  1.
         11    1    5    5    0    0  0.55227993459E+01 -0.56762917476E+02  0.47631153236E+03  0.47971367082E+03  0.00000000000E+00 0.  1.
        -11    1    5    5    0    0  0.85127198078E+01  0.13553306453E+02  0.12076491360E+04  0.12077551881E+04  0.00000000000E+00 0. -1.
          4    1    6    6  503    0 -0.12616587283E+03  0.35510723186E+02 -0.31447031810E+01  0.13110578968E+03  0.00000000000E+00 0. -1.
         -4    1    6    6    0  503 -0.47267414407E+02 -0.37575018757E+02 -0.33626735318E+02  0.69114743923E+02  0.00000000000E+00 0.  1.
<mgrwt>
<rscale>  0 0.11164222E+04</rscale>
<asrwt>0</asrwt>
<pdfrwt beam="1">  1        2 0.30981688E+00 0.11164222E+04</pdfrwt>
<pdfrwt beam="2">  1       -1 0.23804834E-01 0.11164222E+04</pdfrwt>
<totfact> 0.11322648E+02</totfact>
</mgrwt>
</event>
<event>
12    6  0.1647231E-007  0.2330715E+04  0.7818608E-02  0.8465908E-01
         -1   -1    0    0    0  501 -0.00000000000E+00  0.00000000000E+00  0.84926827492E+03  0.84926827492E+03  0.00000000000E+00 0.  1.
          2   -1    0    0  501    0  0.00000000000E+00 -0.00000000000E+00 -0.15990926585E+04  0.15990926585E+04  0.00000000000E+00 0. -1.
         24    2    1    2    0    0 -0.13362853705E+03 -0.24284943750E+03  0.67296702009E+03  0.73204148080E+03  0.78534605592E+02 0.  0.
        254    2    1    2    0    0  0.13362853705E+03  0.24284943750E+03 -0.14227914037E+04  0.17163194527E+04  0.91901286711E+03 0.  0.
         23    2    4    4    0    0  0.97369791919E+01 -0.23848402705E+03 -0.56320303953E+02  0.25925412179E+03  0.84090921659E+02 0.  0.
         23    2    4    4    0    0  0.12389155786E+03  0.48133346454E+03 -0.13664710997E+04  0.14570653309E+04  0.93622058174E+02 0.  0.
          4    1    3    3  502    0 -0.12011821543E+03 -0.14114739231E+03  0.42132344271E+03  0.46028731832E+03  0.00000000000E+00 0. -1.
         -3    1    3    3    0  502 -0.13510321620E+02 -0.10170204519E+03  0.25164357738E+03  0.27175416248E+03  0.00000000000E+00 0.  1.
         11    1    5    5    0    0  0.23791128706E+02 -0.20198764322E+03 -0.73876158596E+02  0.21638556474E+03  0.00000000000E+00 0. -1.
        -11    1    5    5    0    0 -0.14054149514E+02 -0.36496383824E+02  0.17555854643E+02  0.42868557044E+02  0.00000000000E+00 0.  1.
          3    1    6    6  503    0  0.75547911136E+02  0.40731993785E+03 -0.10592292652E+04  0.11373581911E+04  0.00000000000E+00 0. -1.
         -3    1    6    6    0  503  0.48343646721E+02  0.74013526692E+02 -0.30724183452E+03  0.31970713972E+03  0.00000000000E+00 0.  1.
<mgrwt>
<rscale>  0 0.23307155E+04</rscale>
<asrwt>0</asrwt>
<pdfrwt beam="1">  1        2 0.24601425E+00 0.23307155E+04</pdfrwt>
<pdfrwt beam="2">  1       -1 0.13065666E+00 0.23307155E+04</pdfrwt>
<totfact> 0.57579729E+00</totfact>
</mgrwt>
</event>
<event>
12    6  0.1647231E-007  0.1816439E+04  0.7818608E-02  0.8697606E-01
          2   -1    0    0  501    0  0.00000000000E+00  0.00000000000E+00  0.25140476244E+04  0.25140476244E+04  0.00000000000E+00 0. -1.
         -1   -1    0    0    0  501 -0.00000000000E+00 -0.00000000000E+00 -0.32810148075E+03  0.32810148075E+03  0.00000000000E+00 0.  1.
         24    2    1    2    0    0  0.22995510153E+03 -0.10998281221E+03 -0.15751232267E+03  0.31313423629E+03  0.90924971497E+02 0.  0.
        254    2    1    2    0    0 -0.22995510153E+03  0.10998281221E+03  0.23434584663E+04  0.25290148689E+04  0.91604751833E+03 0.  0.
         23    2    4    4    0    0  0.61268707406E+02  0.46598801590E+03  0.10819315872E+04  0.11831383093E+04  0.91332437241E+02 0.  0.
         23    2    4    4    0    0 -0.29122380894E+03 -0.35600520369E+03  0.12615268791E+04  0.13458765595E+04  0.91556730303E+02 0.  0.
          4    1    3    3  502    0  0.12448588035E+03 -0.81199471823E+02 -0.42795330638E+02  0.15466586228E+03  0.00000000000E+00 0. -1.
         -3    1    3    3    0  502  0.10546922118E+03 -0.28783340388E+02 -0.11471699203E+03  0.15846837401E+03  0.00000000000E+00 0.  1.
         11    1    5    5    0    0  0.19685891867E+02  0.14620954332E+03  0.45197230699E+03  0.47544056535E+03  0.00000000000E+00 0. -1.
        -11    1    5    5    0    0  0.41582815539E+02  0.31977847258E+03  0.62995928024E+03  0.70769774398E+03  0.00000000000E+00 0.  1.
          3    1    6    6  503    0 -0.11508695260E+03 -0.75210008654E+02  0.37570487726E+03  0.40006962751E+03  0.00000000000E+00 0. -1.
         -3    1    6    6    0  503 -0.17613685633E+03 -0.28079519504E+03  0.88582200183E+03  0.94580693201E+03  0.00000000000E+00 0.  1.
<mgrwt>
<rscale>  0 0.18164391E+04</rscale>
<asrwt>0</asrwt>
<pdfrwt beam="1">  1        2 0.38677655E+00 0.18164391E+04</pdfrwt>
<pdfrwt beam="2">  1       -1 0.50477152E-01 0.18164391E+04</pdfrwt>
<totfact> 0.14472889E+01</totfact>
</mgrwt>
</event>
<event>
12    6  0.1647231E-007  0.1725313E+04  0.7818608E-02  0.8747058E-01
         -1   -1    0    0    0  501 -0.00000000000E+00  0.00000000000E+00  0.74512654488E+03  0.74512654488E+03  0.00000000000E+00 0.  1.
          2   -1    0    0  501    0  0.00000000000E+00 -0.00000000000E+00 -0.99872470757E+03  0.99872470757E+03  0.00000000000E+00 0. -1.
         24    2    1    2    0    0  0.16166046729E+02 -0.58545949022E+03  0.11573535625E+03  0.60265534443E+03  0.82308175362E+02 0.  0.
        254    2    1    2    0    0 -0.16166046729E+02  0.58545949022E+03 -0.36933351894E+03  0.11411959080E+04  0.90713653687E+03 0.  0.
         23    2    4    4    0    0 -0.64919451891E+02  0.62113681240E+03  0.11757967874E+03  0.64207496369E+03  0.91704979135E+02 0.  0.
         23    2    4    4    0    0  0.48753405162E+02 -0.35677322181E+02 -0.48691319768E+03  0.49912094433E+03  0.91583236271E+02 0.  0.
          4    1    3    3  502    0  0.23370064473E+02 -0.35925587682E+03  0.32355305923E+02  0.36146619588E+03  0.00000000000E+00 0. -1.
         -3    1    3    3    0  502 -0.72040177436E+01 -0.22620361340E+03  0.83380050323E+02  0.24118914855E+03  0.00000000000E+00 0.  1.
         11    1    5    5    0    0 -0.62176468913E+02  0.18742712521E+03  0.33992155154E+02  0.20037541557E+03  0.00000000000E+00 0. -1.
        -11    1    5    5    0    0 -0.27429829778E+01  0.43370968719E+03  0.83587523582E+02  0.44169954813E+03  0.00000000000E+00 0.  1.
          2    1    6    6  503    0  0.67275490064E+02  0.24040026899E+01 -0.30611732611E+03  0.31343195136E+03  0.00000000000E+00 0. -1.
         -2    1    6    6    0  503 -0.18522084902E+02 -0.38081324871E+02 -0.18079587157E+03  0.18568899297E+03  0.00000000000E+00 0.  1.
<mgrwt>
<rscale>  0 0.17253131E+04</rscale>
<asrwt>0</asrwt>
<pdfrwt beam="1">  1        2 0.15364995E+00 0.17253131E+04</pdfrwt>
<pdfrwt beam="2">  1       -1 0.11463485E+00 0.17253131E+04</pdfrwt>
<totfact> 0.18915210E+01</totfact>
</mgrwt>
</event>
<event>
12    6  0.1647231E-007  0.1733283E+04  0.7818608E-02  0.8742606E-01
         -1   -1    0    0    0  501 -0.00000000000E+00  0.00000000000E+00  0.50307247023E+03  0.50307247023E+03  0.00000000000E+00 0.  1.
          2   -1    0    0  501    0  0.00000000000E+00 -0.00000000000E+00 -0.14929611869E+04  0.14929611869E+04  0.00000000000E+00 0. -1.
         24    2    1    2    0    0 -0.16781924584E+03  0.75461525100E+02 -0.10675674514E+04  0.10862703631E+04  0.80157952971E+02 0.  0.
        254    2    1    2    0    0  0.16781924584E+03 -0.75461525100E+02  0.77678734695E+02  0.90976329406E+03  0.88756832095E+03 0.  0.
         23    2    4    4    0    0 -0.32570013192E+03 -0.16830417760E+03  0.12393255831E+03  0.39745895093E+03  0.90595069020E+02 0.  0.
         23    2    4    4    0    0  0.49351937777E+03  0.92842652503E+02 -0.46253823614E+02  0.51230434313E+03  0.90195285012E+02 0.  0.
          2    1    3    3  502    0 -0.11655697402E+03  0.32781115295E+02 -0.85365713988E+03  0.86220104510E+03  0.00000000000E+00 0. -1.
         -1    1    3    3    0  502 -0.51262271820E+02  0.42680409805E+02 -0.21391031148E+03  0.22406931796E+03  0.00000000000E+00 0.  1.
         11    1    5    5    0    0 -0.31845714147E+02  0.87977781964E+01  0.11658308837E+01  0.33059182875E+02  0.00000000000E+00 0.  1.
        -11    1    5    5    0    0 -0.29385441778E+03 -0.17710195580E+03  0.12276672743E+03  0.36439976805E+03  0.00000000000E+00 0. -1.
          2    1    6    6  503    0  0.20395511184E+03 -0.87764008117E+00  0.30703665580E+01  0.20398010944E+03  0.00000000000E+00 0. -1.
         -2    1    6    6    0  503  0.28956426593E+03  0.93720292584E+02 -0.49324190172E+02  0.30832423369E+03  0.00000000000E+00 0.  1.
<mgrwt>
<rscale>  0 0.17332832E+04</rscale>
<asrwt>0</asrwt>
<pdfrwt beam="1">  1        2 0.22968633E+00 0.17332832E+04</pdfrwt>
<pdfrwt beam="2">  1       -1 0.77395766E-01 0.17332832E+04</pdfrwt>
<totfact> 0.23184454E+01</totfact>
</mgrwt>
</event>
<event>
12    6  0.1647231E-007  0.1670969E+04  0.7818608E-02  0.8778097E-01
         -1   -1    0    0    0  501 -0.00000000000E+00  0.00000000000E+00  0.17929739309E+03  0.17929739309E+03  0.00000000000E+00 0.  1.
          2   -1    0    0  501    0  0.00000000000E+00 -0.00000000000E+00 -0.38931634459E+04  0.38931634459E+04  0.00000000000E+00 0. -1.
         24    2    1    2    0    0  0.14038669909E+03  0.41992050601E+03 -0.23057493516E+04  0.23491224974E+04  0.76516525286E+02 0.  0.
        254    2    1    2    0    0 -0.14038669909E+03 -0.41992050601E+03 -0.14081167012E+04  0.17233383416E+04  0.88941595374E+03 0.  0.
         23    2    4    4    0    0  0.97239078040E+02 -0.17598690532E+03 -0.13477247318E+04  0.13655632632E+04  0.89298621502E+02 0.  0.
         23    2    4    4    0    0 -0.23762577712E+03 -0.24393360069E+03 -0.60391969388E+02  0.35777507844E+03  0.91576226627E+02 0.  0.
          4    1    3    3  502    0  0.14727937464E+03  0.37275535289E+03 -0.21022574573E+04  0.21401224694E+04  0.00000000000E+00 0. -1.
         -3    1    3    3    0  502 -0.68926755551E+01  0.47165153118E+02 -0.20349189430E+03  0.20900002797E+03  0.00000000000E+00 0.  1.
         11    1    5    5    0    0  0.15727985985E+02  0.86099934385E+01 -0.13031945278E+03  0.13154718280E+03  0.00000000000E+00 0. -1.
        -11    1    5    5    0    0  0.81511092055E+02 -0.18459689875E+03 -0.12174052790E+04  0.12340160804E+04  0.00000000000E+00 0.  1.
          4    1    6    6  503    0 -0.14664368632E+03 -0.12892879357E+03 -0.77622427975E+02  0.21012435812E+03  0.00000000000E+00 0. -1.
         -4    1    6    6    0  503 -0.90982090808E+02 -0.11500480712E+03  0.17230458587E+02  0.14765072032E+03  0.00000000000E+00 0.  1.
<mgrwt>
<rscale>  0 0.16709686E+04</rscale>
<asrwt>0</asrwt>
<pdfrwt beam="1">  1        2 0.59894823E+00 0.16709686E+04</pdfrwt>
<pdfrwt beam="2">  1       -1 0.27584214E-01 0.16709686E+04</pdfrwt>
<totfact> 0.54278542E+00</totfact>
</mgrwt>
</event>
<event>
12    6  0.1647231E-007  0.1287659E+04  0.7818608E-02  0.9039409E-01
         -1   -1    0    0    0  501 -0.00000000000E+00  0.00000000000E+00  0.36866070468E+03  0.36866070468E+03  0.00000000000E+00 0.  1.
          2   -1    0    0  501    0  0.00000000000E+00 -0.00000000000E+00 -0.11243843553E+04  0.11243843553E+04  0.00000000000E+00 0. -1.
         24    2    1    2    0    0 -0.19936175250E+03  0.25212481166E+03 -0.24550501729E+03  0.41225833820E+03  0.79826028909E+02 0.  0.
        254    2    1    2    0    0  0.19936175250E+03 -0.25212481166E+03 -0.51021863336E+03  0.10807867218E+04  0.89691964812E+03 0.  0.
         23    2    4    4    0    0  0.34843159379E+03 -0.98901460359E+02 -0.69197913057E+03  0.78618526593E+03  0.89811362407E+02 0.  0.
         23    2    4    4    0    0 -0.14906984129E+03 -0.15322335130E+03  0.18176049721E+03  0.29460145587E+03  0.89743671039E+02 0.  0.
          2    1    3    3  502    0 -0.16085077603E+03  0.22581247925E+03 -0.23723354817E+03  0.36488903013E+03  0.00000000000E+00 0. -1.
         -1    1    3    3    0  502 -0.38510976472E+02  0.26312332413E+02 -0.82714691136E+01  0.47369308071E+02  0.00000000000E+00 0.  1.
         11    1    5    5    0    0  0.25979579811E+03 -0.84597138746E+02 -0.43210508705E+03  0.51123902321E+03  0.00000000000E+00 0. -1.
        -11    1    5    5    0    0  0.88635795676E+02 -0.14304321613E+02 -0.25987404351E+03  0.27494624272E+03  0.00000000000E+00 0.  1.
          1    1    6    6  503    0 -0.12361967097E+03 -0.10658320563E+03  0.17774260394E+03  0.24131770766E+03  0.00000000000E+00 0. -1.
         -1    1    6    6    0  503 -0.25450170314E+02 -0.46640145670E+02  0.40178932635E+01  0.53283748210E+02  0.00000000000E+00 0.  1.
<mgrwt>
<rscale>  0 0.12876589E+04</rscale>
<asrwt>0</asrwt>
<pdfrwt beam="1">  1        2 0.17298221E+00 0.12876589E+04</pdfrwt>
<pdfrwt beam="2">  1       -1 0.56717031E-01 0.12876589E+04</pdfrwt>
<totfact> 0.74079548E+01</totfact>
</mgrwt>
</event>
<event>
12    6  0.1647231E-007  0.1603211E+04  0.7818608E-02  0.8818578E-01
          2   -1    0    0  501    0  0.00000000000E+00  0.00000000000E+00  0.10774484889E+04  0.10774484889E+04  0.00000000000E+00 0. -1.
         -1   -1    0    0    0  501 -0.00000000000E+00 -0.00000000000E+00 -0.59638259850E+03  0.59638259850E+03  0.00000000000E+00 0.  1.
         24    2    1    2    0    0 -0.16469446446E+03  0.38921126164E+03 -0.18349568043E+03  0.46752529316E+03  0.79369781342E+02 0.  0.
        254    2    1    2    0    0  0.16469446446E+03 -0.38921126164E+03  0.66456157088E+03  0.12063057943E+04  0.91374061692E+03 0.  0.
         23    2    4    4    0    0  0.39693172273E+03 -0.36242383653E+03  0.56090200988E+02  0.54818907932E+03  0.91974595651E+02 0.  0.
         23    2    4    4    0    0 -0.23223725827E+03 -0.26787425113E+02  0.60847136989E+03  0.65811671496E+03  0.90711037195E+02 0.  0.
          2    1    3    3  502    0 -0.39320349922E+02  0.10051000596E+03 -0.86062956108E+02  0.13804051445E+03  0.00000000000E+00 0. -1.
         -1    1    3    3    0  502 -0.12537411454E+03  0.28870125568E+03 -0.97432724326E+02  0.32948477870E+03  0.00000000000E+00 0.  1.
         11    1    5    5    0    0  0.21092794344E+03 -0.13604622107E+03  0.68603822959E+01  0.25109009626E+03  0.00000000000E+00 0. -1.
        -11    1    5    5    0    0  0.18600377928E+03 -0.22637761545E+03  0.49229818692E+02  0.29709898306E+03  0.00000000000E+00 0.  1.
          3    1    6    6  503    0 -0.60866100813E+02  0.12181408289E+02  0.26644218515E+03  0.27357724131E+03  0.00000000000E+00 0.  1.
         -3    1    6    6    0  503 -0.17137115745E+03 -0.38968833402E+02  0.34202918474E+03  0.38453947365E+03  0.00000000000E+00 0. -1.
<mgrwt>
<rscale>  0 0.16032112E+04</rscale>
<asrwt>0</asrwt>
<pdfrwt beam="1">  1        2 0.16576131E+00 0.16032112E+04</pdfrwt>
<pdfrwt beam="2">  1       -1 0.91751169E-01 0.16032112E+04</pdfrwt>
<totfact> 0.28482996E+01</totfact>
</mgrwt>
</event>
<event>
12    6  0.1647231E-007  0.1202326E+04  0.7818608E-02  0.9110823E-01
         -1   -1    0    0    0  501 -0.00000000000E+00  0.00000000000E+00  0.43894166179E+03  0.43894166179E+03  0.00000000000E+00 0.  1.
          2   -1    0    0  501    0  0.00000000000E+00 -0.00000000000E+00 -0.82333739082E+03  0.82333739082E+03  0.00000000000E+00 0. -1.
         24    2    1    2    0    0 -0.18939461997E+03 -0.18667234392E+02  0.90588825871E+02  0.22519304685E+03  0.79289250619E+02 0.  0.
        254    2    1    2    0    0  0.18939461997E+03  0.18667234392E+02 -0.47498455490E+03  0.10370860058E+04  0.90206333937E+03 0.  0.
         23    2    4    4    0    0 -0.99617284479E+02 -0.19643907467E+03  0.16967132602E+03  0.29245709781E+03  0.90724207141E+02 0.  0.
         23    2    4    4    0    0  0.28901190445E+03  0.21510630906E+03 -0.64465588092E+03  0.74462890795E+03  0.95354080317E+02 0.  0.
          4    1    3    3  502    0  0.77670784066E+01 -0.14278928277E+01  0.10488632081E+01  0.79665864040E+01  0.00000000000E+00 0. -1.
         -3    1    3    3    0  502 -0.19716169838E+03 -0.17239341564E+02  0.89539962663E+02  0.21722646045E+03  0.00000000000E+00 0.  1.
         11    1    5    5    0    0 -0.62385568146E+01  0.95972408094E+01  0.12829909316E+02  0.17193987186E+02  0.00000000000E+00 0.  1.
        -11    1    5    5    0    0 -0.93378727665E+02 -0.20603631548E+03  0.15684141671E+03  0.27526311062E+03  0.00000000000E+00 0. -1.
          3    1    6    6  503    0  0.27932422011E+02  0.66828308240E+02 -0.12435563574E+03  0.14391166430E+03  0.00000000000E+00 0. -1.
         -3    1    6    6    0  503  0.26107948244E+03  0.14827800082E+03 -0.52030024519E+03  0.60071724365E+03  0.00000000000E+00 0.  1.
<mgrwt>
<rscale>  0 0.12023262E+04</rscale>
<asrwt>0</asrwt>
<pdfrwt beam="1">  1        2 0.12666729E+00 0.12023262E+04</pdfrwt>
<pdfrwt beam="2">  1       -1 0.67529487E-01 0.12023262E+04</pdfrwt>
<totfact> 0.82913855E+01</totfact>
</mgrwt>
</event>
<event>
12    6  0.1647231E-007  0.1316688E+04  0.7818608E-02  0.9016435E-01
         -3   -1    0    0    0  501 -0.00000000000E+00  0.00000000000E+00  0.57631843209E+03  0.57631843209E+03  0.00000000000E+00 0.  1.
          2   -1    0    0  501    0  0.00000000000E+00 -0.00000000000E+00 -0.75204345980E+03  0.75204345980E+03  0.00000000000E+00 0. -1.
         24    2    1    2    0    0  0.23997021017E+02  0.34544877988E+03 -0.12188228156E+02  0.35544494984E+03  0.79258077967E+02 0.  0.
        254    2    1    2    0    0 -0.23997021017E+02 -0.34544877988E+03 -0.16353679955E+03  0.97291694204E+03  0.89437820566E+03 0.  0.
         23    2    4    4    0    0  0.35479026958E+03  0.86637562257E+02 -0.71103323433E+02  0.38366262066E+03  0.93590177406E+02 0.  0.
         23    2    4    4    0    0 -0.37878729059E+03 -0.43208634214E+03 -0.92433476120E+02  0.58925432138E+03  0.92186165909E+02 0.  0.
          2    1    3    3  502    0  0.11380333284E+02  0.92632975119E+02 -0.38483797208E+02  0.10095237844E+03  0.00000000000E+00 0. -1.
         -1    1    3    3    0  502  0.12616687733E+02  0.25281580476E+03  0.26295569052E+02  0.25449257140E+03  0.00000000000E+00 0.  1.
         11    1    5    5    0    0  0.25546596266E+03  0.51264771143E+02 -0.77837245884E+01  0.26067512579E+03  0.00000000000E+00 0. -1.
        -11    1    5    5    0    0  0.99324306919E+02  0.35372791114E+02 -0.63319598845E+02  0.12298749487E+03  0.00000000000E+00 0.  1.
          1    1    6    6  503    0 -0.33710592703E+03 -0.40093904447E+03 -0.58379986913E+02  0.52706806609E+03  0.00000000000E+00 0. -1.
         -1    1    6    6    0  503 -0.41681363561E+02 -0.31147297671E+02 -0.34053489207E+02  0.62186255295E+02  0.00000000000E+00 0.  1.
<mgrwt>
<rscale>  0 0.13166875E+04</rscale>
<asrwt>0</asrwt>
<pdfrwt beam="1">  1        2 0.11569899E+00 0.13166875E+04</pdfrwt>
<pdfrwt beam="2">  1       -3 0.88664374E-01 0.13166875E+04</pdfrwt>
<totfact> 0.26703320E+01</totfact>
</mgrwt>
</event>
<event>
12    6  0.1647231E-007  0.1710624E+04  0.7818608E-02  0.8755328E-01
          2   -1    0    0  501    0  0.00000000000E+00  0.00000000000E+00  0.12946708916E+04  0.12946708916E+04  0.00000000000E+00 0. -1.
         -1   -1    0    0    0  501 -0.00000000000E+00 -0.00000000000E+00 -0.56505352164E+03  0.56505352164E+03  0.00000000000E+00 0.  1.
         24    2    1    2    0    0  0.14312589150E+03 -0.57726900962E+03  0.29739335483E+03  0.66965379103E+03  0.79176145759E+02 0.  0.
        254    2    1    2    0    0 -0.14312589150E+03  0.57726900962E+03  0.43222401510E+03  0.11900706222E+04  0.93580230618E+03 0.  0.
         23    2    4    4    0    0  0.19029279414E+03  0.53958303318E+03 -0.65167596418E+02  0.58287318077E+03  0.90183879028E+02 0.  0.
         23    2    4    4    0    0 -0.33341868564E+03  0.37685976438E+02  0.49739161151E+03  0.60719744141E+03  0.93284858880E+02 0.  0.
          2    1    3    3  502    0  0.15179455884E+03 -0.52892697291E+03  0.28103275465E+03  0.61788731978E+03  0.00000000000E+00 0. -1.
         -1    1    3    3    0  502 -0.86686673433E+01 -0.48342036711E+02  0.16360600186E+02  0.51766471247E+02  0.00000000000E+00 0.  1.
         11    1    5    5    0    0  0.17393001293E+03  0.39419673433E+03 -0.27187867430E+02  0.43171969481E+03  0.00000000000E+00 0. -1.
        -11    1    5    5    0    0  0.16362781216E+02  0.14538629885E+03 -0.37979728989E+02  0.15115348596E+03  0.00000000000E+00 0.  1.
          4    1    6    6  503    0 -0.23984677385E+03  0.37247727855E+01  0.28412640725E+03  0.37184427406E+03  0.00000000000E+00 0. -1.
         -4    1    6    6    0  503 -0.93571911793E+02  0.33961203652E+02  0.21326520427E+03  0.23535316735E+03  0.00000000000E+00 0.  1.
<mgrwt>
<rscale>  0 0.17106237E+04</rscale>
<asrwt>0</asrwt>
<pdfrwt beam="1">  1        2 0.19918014E+00 0.17106237E+04</pdfrwt>
<pdfrwt beam="2">  1       -1 0.86931312E-01 0.17106237E+04</pdfrwt>
<totfact> 0.23528922E+01</totfact>
</mgrwt>
</event>
<event>
12    6  0.1647231E-007  0.3740145E+04  0.7818608E-02  0.8059123E-01
         -1   -1    0    0    0  501 -0.00000000000E+00  0.00000000000E+00  0.10348815585E+04  0.10348815585E+04  0.00000000000E+00 0.  1.
          2   -1    0    0  501    0  0.00000000000E+00 -0.00000000000E+00 -0.33792965403E+04  0.33792965403E+04  0.00000000000E+00 0. -1.
         24    2    1    2    0    0  0.64669946392E+03 -0.81568613214E+03  0.57169109401E+03  0.11903021070E+04  0.80151956319E+02 0.  0.
        254    2    1    2    0    0 -0.64669946392E+03  0.81568613214E+03 -0.29161060759E+04  0.32238759919E+04  0.89785171516E+03 0.  0.
         23    2    4    4    0    0 -0.46091158006E+03  0.87300023802E+02 -0.18846601870E+04  0.19442499700E+04  0.90017479362E+02 0.  0.
         23    2    4    4    0    0 -0.18578788386E+03  0.72838610834E+03 -0.10314458888E+04  0.12796260218E+04  0.92188250662E+02 0.  0.
          2    1    3    3  502    0  0.16070393259E+03 -0.21455181426E+03  0.10888548891E+03  0.28933420926E+03  0.00000000000E+00 0. -1.
         -1    1    3    3    0  502  0.48599553133E+03 -0.60113431788E+03  0.46280560510E+03  0.90096789772E+03  0.00000000000E+00 0.  1.
         11    1    5    5    0    0 -0.51256040175E+02 -0.14744711322E+01 -0.33497085684E+03  0.33887288273E+03  0.00000000000E+00 0. -1.
        -11    1    5    5    0    0 -0.40965553989E+03  0.88774494934E+02 -0.15496893302E+04  0.16053770873E+04  0.00000000000E+00 0.  1.
          3    1    6    6  503    0 -0.71804965185E+02  0.15481843803E+03 -0.19654692168E+03  0.26029866346E+03  0.00000000000E+00 0. -1.
         -3    1    6    6    0  503 -0.11398291868E+03  0.57356767031E+03 -0.83489896716E+03  0.10193273584E+04  0.00000000000E+00 0.  1.
<mgrwt>
<rscale>  0 0.37401453E+04</rscale>
<asrwt>0</asrwt>
<pdfrwt beam="1">  1        2 0.51989178E+00 0.37401453E+04</pdfrwt>
<pdfrwt beam="2">  1       -1 0.15921255E+00 0.37401453E+04</pdfrwt>
<totfact> 0.26650775E-01</totfact>
</mgrwt>
</event>
<event>
12    6  0.1647231E-007  0.1959936E+04  0.7818608E-02  0.8625584E-01
         -1   -1    0    0    0  501 -0.00000000000E+00  0.00000000000E+00  0.14024841444E+04  0.14024841444E+04  0.00000000000E+00 0.  1.
          2   -1    0    0  501    0  0.00000000000E+00 -0.00000000000E+00 -0.68474007045E+03  0.68474007045E+03  0.00000000000E+00 0. -1.
         24    2    1    2    0    0 -0.54801577025E+03  0.39750284805E+03  0.67512467148E+03  0.95945568345E+03  0.80200298070E+02 0.  0.
        254    2    1    2    0    0  0.54801577025E+03 -0.39750284805E+03  0.42619402495E+02  0.11277685314E+04  0.90095263381E+03 0.  0.
         23    2    4    4    0    0 -0.93025275292E+02 -0.22115355697E+03  0.31252305747E+03  0.40437358816E+03  0.91020545741E+02 0.  0.
         23    2    4    4    0    0  0.64104104554E+03 -0.17634929108E+03 -0.26990365497E+03  0.72339494328E+03  0.91758195589E+02 0.  0.
          4    1    3    3  502    0 -0.21983807465E+03  0.17810798278E+03  0.33397649289E+03  0.43771169780E+03  0.00000000000E+00 0. -1.
         -3    1    3    3    0  502 -0.32817769560E+03  0.21939486528E+03  0.34114817860E+03  0.52174398565E+03  0.00000000000E+00 0.  1.
         11    1    5    5    0    0  0.12909774892E+02 -0.14397917694E+02  0.70178553763E+01  0.20572132018E+02  0.00000000000E+00 0.  1.
        -11    1    5    5    0    0 -0.10593505018E+03 -0.20675563928E+03  0.30550520209E+03  0.38380145614E+03  0.00000000000E+00 0. -1.
          1    1    6    6  503    0  0.60402474226E+03 -0.14187494990E+03 -0.24604742065E+03  0.66746814447E+03  0.00000000000E+00 0. -1.
         -1    1    6    6    0  503  0.37016303277E+02 -0.34474341188E+02 -0.23856234326E+02  0.55926798808E+02  0.00000000000E+00 0.  1.
<mgrwt>
<rscale>  0 0.19599358E+04</rscale>
<asrwt>0</asrwt>
<pdfrwt beam="1">  1        2 0.10534463E+00 0.19599358E+04</pdfrwt>
<pdfrwt beam="2">  1       -1 0.21576679E+00 0.19599358E+04</pdfrwt>
<totfact> 0.52673152E+00</totfact>
</mgrwt>
</event>
<event>
12    6  0.1647231E-007  0.2248562E+04  0.7818608E-02  0.8498483E-01
          2   -1    0    0  501    0  0.00000000000E+00  0.00000000000E+00  0.21981961748E+04  0.21981961748E+04  0.00000000000E+00 0. -1.
         -1   -1    0    0    0  501 -0.00000000000E+00 -0.00000000000E+00 -0.57502071041E+03  0.57502071041E+03  0.00000000000E+00 0.  1.
         24    2    1    2    0    0 -0.19956146788E+03  0.76659785471E+03  0.13114118882E+04  0.15338929327E+04  0.74359518360E+02 0.  0.
        254    2    1    2    0    0  0.19956146788E+03 -0.76659785471E+03  0.31176357619E+03  0.12393239526E+04  0.90068323050E+03 0.  0.
         23    2    4    4    0    0  0.12951648084E+03 -0.85180462017E+03  0.50229153513E+03  0.10012504211E+04  0.88656583373E+02 0.  0.
         23    2    4    4    0    0  0.70044987035E+02  0.85206765465E+02 -0.19052795894E+03  0.23807353146E+03  0.90617935050E+02 0.  0.
          4    1    3    3  502    0 -0.20591158067E+03  0.74563682737E+03  0.12696502661E+04  0.14867365791E+04  0.00000000000E+00 0. -1.
         -3    1    3    3    0  502  0.63501127936E+01  0.20961027343E+02  0.41761622123E+02  0.47156353571E+02  0.00000000000E+00 0.  1.
         11    1    5    5    0    0  0.54251920571E+02 -0.62007551178E+03  0.35593372369E+03  0.71702561102E+03  0.00000000000E+00 0. -1.
        -11    1    5    5    0    0  0.75264560271E+02 -0.23172910839E+03  0.14635781144E+03  0.28422481010E+03  0.00000000000E+00 0.  1.
          4    1    6    6  503    0  0.46020388472E+02  0.70186892853E+02 -0.19216418473E+03  0.20969298981E+03  0.00000000000E+00 0. -1.
         -4    1    6    6    0  503  0.24024598564E+02  0.15019872613E+02  0.16362257858E+01  0.28380541648E+02  0.00000000000E+00 0.  1.
<mgrwt>
<rscale>  0 0.22485625E+04</rscale>
<asrwt>0</asrwt>
<pdfrwt beam="1">  1        2 0.33818402E+00 0.22485625E+04</pdfrwt>
<pdfrwt beam="2">  1       -1 0.88464726E-01 0.22485625E+04</pdfrwt>
<totfact> 0.67273093E+00</totfact>
</mgrwt>
</event>
<event>
12    6  0.1647231E-007  0.1380370E+04  0.7818608E-02  0.8968151E-01
          2   -1    0    0  501    0  0.00000000000E+00  0.00000000000E+00  0.73061822234E+03  0.73061822234E+03  0.00000000000E+00 0. -1.
         -1   -1    0    0    0  501 -0.00000000000E+00 -0.00000000000E+00 -0.65198961299E+03  0.65198961299E+03  0.00000000000E+00 0.  1.
         24    2    1    2    0    0 -0.24428261516E+03  0.25116717564E+02  0.33818274309E+03  0.42559168010E+03  0.80348396857E+02 0.  0.
        254    2    1    2    0    0  0.24428261516E+03 -0.25116717564E+02 -0.25955413374E+03  0.95701615523E+03  0.88781007398E+03 0.  0.
         23    2    4    4    0    0  0.47099151089E+03 -0.24423779628E+03 -0.31533536402E+03  0.62388219122E+03  0.91145445634E+02 0.  0.
         23    2    4    4    0    0 -0.22670889573E+03  0.21912107872E+03  0.55781230274E+02  0.33313396401E+03  0.91954998698E+02 0.  0.
          4    1    3    3  502    0 -0.24325771817E+03  0.35328228998E+02  0.33352767521E+03  0.41432247265E+03  0.00000000000E+00 0. -1.
         -1    1    3    3    0  502 -0.10248969921E+01 -0.10211511434E+02  0.46550678801E+01  0.11269207451E+02  0.00000000000E+00 0.  1.
         11    1    5    5    0    0  0.19154836194E+03 -0.49900295277E+02 -0.11746897977E+03  0.23017335996E+03  0.00000000000E+00 0.  1.
        -11    1    5    5    0    0  0.27944314895E+03 -0.19433750101E+03 -0.19786638425E+03  0.39370883126E+03  0.00000000000E+00 0. -1.
          1    1    6    6  503    0 -0.40031487374E+02  0.69871921182E+02 -0.18932100095E+02  0.82722607340E+02  0.00000000000E+00 0. -1.
         -1    1    6    6    0  503 -0.18667740835E+03  0.14924915754E+03  0.74713330369E+02  0.25041135667E+03  0.00000000000E+00 0.  1.
<mgrwt>
<rscale>  0 0.13803702E+04</rscale>
<asrwt>0</asrwt>
<pdfrwt beam="1">  1        2 0.11240280E+00 0.13803702E+04</pdfrwt>
<pdfrwt beam="2">  1       -1 0.10030609E+00 0.13803702E+04</pdfrwt>
<totfact> 0.40887032E+01</totfact>
</mgrwt>
</event>
<event>
12    6  0.1647231E-007  0.1804379E+04  0.7818608E-02  0.8703974E-01
         -1   -1    0    0    0  501 -0.00000000000E+00  0.00000000000E+00  0.40924995269E+03  0.40924995269E+03  0.00000000000E+00 0.  1.
          2   -1    0    0  501    0  0.00000000000E+00 -0.00000000000E+00 -0.19888712160E+04  0.19888712160E+04  0.00000000000E+00 0. -1.
         24    2    1    2    0    0  0.41091779899E+03 -0.30846633809E+03 -0.10230601341E+04  0.11498403015E+04  0.10712498208E+03 0.  0.
        254    2    1    2    0    0 -0.41091779899E+03  0.30846633809E+03 -0.55656112921E+03  0.12482808671E+04  0.99218945443E+03 0.  0.
         23    2    4    4    0    0  0.24594936476E+03  0.49519055976E+02 -0.45670313914E+03  0.52936930301E+03  0.93332067057E+02 0.  0.
         23    2    4    4    0    0 -0.65686716375E+03  0.25894728211E+03 -0.99857990074E+02  0.71891156414E+03  0.91291035444E+02 0.  0.
          2    1    3    3  502    0  0.40469690971E+03 -0.31644907855E+03 -0.99135600812E+03  0.11165600489E+04  0.00000000000E+00 0. -1.
         -1    1    3    3    0  502  0.62208892807E+01  0.79827404659E+01 -0.31704125966E+02  0.33280252584E+02  0.00000000000E+00 0.  1.
         11    1    5    5    0    0  0.19903088351E+02  0.21650775064E+02 -0.11512453626E+03  0.11882149568E+03  0.00000000000E+00 0. -1.
        -11    1    5    5    0    0  0.22604627641E+03  0.27868280912E+02 -0.34157860288E+03  0.41054780733E+03  0.00000000000E+00 0.  1.
          1    1    6    6  503    0 -0.16842939166E+02  0.22308230133E+02 -0.13682043795E+02  0.31121376156E+02  0.00000000000E+00 0. -1.
         -1    1    6    6    0  503 -0.64002422458E+03  0.23663905198E+03 -0.86175946279E+02  0.68779018798E+03  0.00000000000E+00 0.  1.
<mgrwt>
<rscale>  0 0.18043785E+04</rscale>
<asrwt>0</asrwt>
<pdfrwt beam="1">  1        2 0.30598019E+00 0.18043785E+04</pdfrwt>
<pdfrwt beam="2">  1       -1 0.62961531E-01 0.18043785E+04</pdfrwt>
<totfact> 0.18636543E+01</totfact>
</mgrwt>
</event>
<event>
12    6  0.1647231E-007  0.1838677E+04  0.7818608E-02  0.8685998E-01
         -1   -1    0    0    0  501 -0.00000000000E+00  0.00000000000E+00  0.14228358618E+04  0.14228358618E+04  0.00000000000E+00 0.  1.
          2   -1    0    0  501    0  0.00000000000E+00 -0.00000000000E+00 -0.59401294928E+03  0.59401294928E+03  0.00000000000E+00 0. -1.
         24    2    1    2    0    0  0.14529905600E+03 -0.10733821342E+03 -0.42245711646E+03  0.46634937727E+03  0.79865002970E+02 0.  0.
        254    2    1    2    0    0 -0.14529905600E+03  0.10733821342E+03  0.12512800289E+04  0.15504994338E+04  0.89761543857E+03 0.  0.
         23    2    4    4    0    0 -0.21203456109E+02 -0.12466576311E+03  0.12616282467E+04  0.12712778911E+04  0.91926625738E+02 0.  0.
         23    2    4    4    0    0 -0.12409559989E+03  0.23200397653E+03 -0.10348217757E+02  0.27922154266E+03  0.92908671479E+02 0.  0.
          4    1    3    3  502    0  0.11861505749E+03 -0.43660736367E+02 -0.30418524397E+03  0.32940014331E+03  0.00000000000E+00 0. -1.
         -3    1    3    3    0  502  0.26683998505E+02 -0.63677477053E+02 -0.11827187249E+03  0.13694923396E+03  0.00000000000E+00 0.  1.
         11    1    5    5    0    0 -0.63006664484E+01 -0.57543733999E+02  0.22348996950E+03  0.23086521216E+03  0.00000000000E+00 0. -1.
        -11    1    5    5    0    0 -0.14902789661E+02 -0.67122029113E+02  0.10381382772E+04  0.10404126789E+04  0.00000000000E+00 0.  1.
          1    1    6    6  503    0 -0.11383235994E+03  0.22643790400E+03 -0.31170003794E+02  0.25534975949E+03  0.00000000000E+00 0. -1.
         -1    1    6    6    0  503 -0.10263239951E+02  0.55660725315E+01  0.20821786037E+02  0.23871783166E+02  0.00000000000E+00 0.  1.
<mgrwt>
<rscale>  0 0.18386766E+04</rscale>
<asrwt>0</asrwt>
<pdfrwt beam="1">  1        2 0.91386608E-01 0.18386766E+04</pdfrwt>
<pdfrwt beam="2">  1       -1 0.21889782E+00 0.18386766E+04</pdfrwt>
<totfact> 0.60402530E+00</totfact>
</mgrwt>
</event>
<event>
12    6  0.1647231E-007  0.2011400E+04  0.7818608E-02  0.8601309E-01
          2   -1    0    0  501    0  0.00000000000E+00  0.00000000000E+00  0.35962353855E+04  0.35962353855E+04  0.00000000000E+00 0. -1.
         -1   -1    0    0    0  501 -0.00000000000E+00 -0.00000000000E+00 -0.28124754061E+03  0.28124754061E+03  0.00000000000E+00 0.  1.
         24    2    1    2    0    0  0.21880174652E+03 -0.71045081876E+03  0.19300186260E+04  0.20693086665E+04  0.66722486447E+02 0.  0.
        254    2    1    2    0    0 -0.21880174652E+03  0.71045081876E+03  0.13849692188E+04  0.18081742596E+04  0.89372246577E+03 0.  0.
         23    2    4    4    0    0 -0.27665500082E+03  0.88967218373E+03  0.99665289742E+03  0.13671632566E+04  0.88112361732E+02 0.  0.
         23    2    4    4    0    0  0.57853254303E+02 -0.17922136497E+03  0.38831632139E+03  0.44101100298E+03  0.90740523465E+02 0.  0.
          4    1    3    3  502    0  0.21958402010E+03 -0.67043116382E+03  0.18469648010E+04  0.19771125571E+04  0.00000000000E+00 0. -1.
         -3    1    3    3    0  502 -0.78227357997E+00 -0.40019654943E+02  0.83053825066E+02  0.92196109418E+02  0.00000000000E+00 0.  1.
         11    1    5    5    0    0 -0.26174901446E+03  0.86885454411E+03  0.98423093237E+03  0.13387050809E+04  0.00000000000E+00 0.  1.
        -11    1    5    5    0    0 -0.14905986358E+02  0.20817639617E+02  0.12421965047E+02  0.28458175700E+02  0.00000000000E+00 0. -1.
          4    1    6    6  503    0 -0.20415440592E+02 -0.15494789393E+02  0.30756999586E+02  0.40035880612E+02  0.00000000000E+00 0. -1.
         -4    1    6    6    0  503  0.78268694895E+02 -0.16372657558E+03  0.35755932180E+03  0.40097512237E+03  0.00000000000E+00 0.  1.
<mgrwt>
<rscale>  0 0.20113999E+04</rscale>
<asrwt>0</asrwt>
<pdfrwt beam="1">  1        2 0.55326695E+00 0.20113999E+04</pdfrwt>
<pdfrwt beam="2">  1       -1 0.43268855E-01 0.20113999E+04</pdfrwt>
<totfact> 0.38915106E+00</totfact>
</mgrwt>
</event>
<event>
12    6  0.1647231E-007  0.2577662E+04  0.7818608E-02  0.8375829E-01
          2   -1    0    0  501    0  0.00000000000E+00  0.00000000000E+00  0.92393443170E+03  0.92393443170E+03  0.00000000000E+00 0. -1.
         -1   -1    0    0    0  501 -0.00000000000E+00 -0.00000000000E+00 -0.17978396704E+04  0.17978396704E+04  0.00000000000E+00 0.  1.
         24    2    1    2    0    0 -0.60785658091E+03  0.32351602164E+03  0.54343895882E+03  0.88080167728E+03  0.79582997672E+02 0.  0.
        254    2    1    2    0    0  0.60785658091E+03 -0.32351602164E+03 -0.14173441975E+04  0.18409724248E+04  0.95192576154E+03 0.  0.
         23    2    4    4    0    0  0.84116860885E+03 -0.34497081629E+03 -0.12067657527E+04  0.15135230642E+04  0.88876270607E+02 0.  0.
         23    2    4    4    0    0 -0.23331202794E+03  0.21454794646E+02 -0.21057844482E+03  0.32744936058E+03  0.89358780940E+02 0.  0.
          4    1    3    3  502    0 -0.50204243272E+03  0.23611691111E+03  0.45522981174E+03  0.71765728692E+03  0.00000000000E+00 0. -1.
         -3    1    3    3    0  502 -0.10581414819E+03  0.87399110529E+02  0.88209147076E+02  0.16314439036E+03  0.00000000000E+00 0.  1.
         11    1    5    5    0    0  0.46842342269E+02 -0.38023934650E+02 -0.59355765951E+02  0.84635285710E+02  0.00000000000E+00 0.  1.
        -11    1    5    5    0    0  0.79432626658E+03 -0.30694688164E+03 -0.11474099868E+04  0.14288877785E+04  0.00000000000E+00 0. -1.
          1    1    6    6  503    0 -0.13774941188E+03  0.48406097945E+02 -0.15786551308E+03  0.21503388340E+03  0.00000000000E+00 0. -1.
         -1    1    6    6    0  503 -0.95562616058E+02 -0.26951303300E+02 -0.52712931740E+02  0.11241547718E+03  0.00000000000E+00 0.  1.
<mgrwt>
<rscale>  0 0.25776625E+04</rscale>
<asrwt>0</asrwt>
<pdfrwt beam="1">  1        2 0.14214376E+00 0.25776625E+04</pdfrwt>
<pdfrwt beam="2">  1       -1 0.27659071E+00 0.25776625E+04</pdfrwt>
<totfact> 0.13368297E+00</totfact>
</mgrwt>
</event>
<event>
12    6  0.1647231E-007  0.1572059E+04  0.7818608E-02  0.8837900E-01
         -1   -1    0    0    0  501 -0.00000000000E+00  0.00000000000E+00  0.21334786953E+03  0.21334786953E+03  0.00000000000E+00 0.  1.
          2   -1    0    0  501    0  0.00000000000E+00 -0.00000000000E+00 -0.28959380904E+04  0.28959380904E+04  0.00000000000E+00 0. -1.
         24    2    1    2    0    0  0.10874354193E+03  0.40827892565E+03 -0.15241054964E+04  0.15835103782E+04  0.78043031550E+02 0.  0.
        254    2    1    2    0    0 -0.10874354193E+03 -0.40827892565E+03 -0.11584847245E+04  0.15257755817E+04  0.89854739986E+03 0.  0.
         23    2    4    4    0    0  0.19192769799E+03  0.20188476413E+03 -0.23520637125E+03  0.37529960816E+03  0.89073338130E+02 0.  0.
         23    2    4    4    0    0 -0.30067123992E+03 -0.61016368978E+03 -0.92327835321E+03  0.11504759735E+04  0.91919123696E+02 0.  0.
          4    1    3    3  502    0  0.83882105970E+02  0.32748745244E+03 -0.13198028178E+04  0.13624109942E+04  0.00000000000E+00 0. -1.
         -3    1    3    3    0  502  0.24861435964E+02  0.80791473212E+02 -0.20430267855E+03  0.22109938400E+03  0.00000000000E+00 0.  1.
         11    1    5    5    0    0  0.79584559142E+02  0.14050427606E+03 -0.15735828849E+03  0.22547014126E+03  0.00000000000E+00 0.  1.
        -11    1    5    5    0    0  0.11234313885E+03  0.61380488073E+02 -0.77848082767E+02  0.14982946690E+03  0.00000000000E+00 0. -1.
          4    1    6    6  503    0 -0.16933149920E+03 -0.28093868874E+03 -0.38258101717E+03  0.50395231734E+03  0.00000000000E+00 0. -1.
         -4    1    6    6    0  503 -0.13133974072E+03 -0.32922500104E+03 -0.54069733603E+03  0.64652365618E+03  0.00000000000E+00 0.  1.
<mgrwt>
<rscale>  0 0.15720588E+04</rscale>
<asrwt>0</asrwt>
<pdfrwt beam="1">  1        2 0.44552896E+00 0.15720588E+04</pdfrwt>
<pdfrwt beam="2">  1       -1 0.32822747E-01 0.15720588E+04</pdfrwt>
<totfact> 0.19347788E+01</totfact>
</mgrwt>
</event>
<event>
12    6  0.1647231E-007  0.1910237E+04  0.7818608E-02  0.8649778E-01
         -1   -1    0    0    0  501 -0.00000000000E+00  0.00000000000E+00  0.16745490701E+04  0.16745490701E+04  0.00000000000E+00 0.  1.
          2   -1    0    0  501    0  0.00000000000E+00 -0.00000000000E+00 -0.54477408396E+03  0.54477408396E+03  0.00000000000E+00 0. -1.
         24    2    1    2    0    0  0.62391348057E+03 -0.12108196827E+03  0.86823482761E+03  0.10789414325E+04  0.79712135963E+02 0.  0.
        254    2    1    2    0    0 -0.62391348057E+03  0.12108196827E+03  0.26154015858E+03  0.11403817216E+04  0.91002106686E+03 0.  0.
         23    2    4    4    0    0 -0.56790736278E+03 -0.13428456355E+03 -0.17990372266E+03  0.61752532141E+03  0.91766314326E+02 0.  0.
         23    2    4    4    0    0 -0.56006117792E+02  0.25536653182E+03  0.44144388123E+03  0.52285640019E+03  0.10078374939E+03 0.  0.
          2    1    3    3  502    0  0.21936139784E+03 -0.12014088920E+02  0.33832907442E+03  0.40339846776E+03  0.00000000000E+00 0. -1.
         -1    1    3    3    0  502  0.40455208274E+03 -0.10906787935E+03  0.52990575319E+03  0.67554296474E+03  0.00000000000E+00 0.  1.
         11    1    5    5    0    0 -0.49912388139E+02 -0.17369699499E+02  0.95733125116E+01  0.53708484087E+02  0.00000000000E+00 0.  1.
        -11    1    5    5    0    0 -0.51799497464E+03 -0.11691486405E+03 -0.18947703517E+03  0.56381683732E+03  0.00000000000E+00 0. -1.
          1    1    6    6  503    0 -0.47702768010E+02  0.24633058048E+03  0.44430458997E+03  0.51025569828E+03  0.00000000000E+00 0. -1.
         -1    1    6    6    0  503 -0.83033497825E+01  0.90359513304E+01 -0.28607087419E+01  0.12600701907E+02  0.00000000000E+00 0.  1.
<mgrwt>
<rscale>  0 0.19102366E+04</rscale>
<asrwt>0</asrwt>
<pdfrwt beam="1">  1        2 0.83811399E-01 0.19102366E+04</pdfrwt>
<pdfrwt beam="2">  1       -1 0.25762293E+00 0.19102366E+04</pdfrwt>
<totfact> 0.37012447E+00</totfact>
</mgrwt>
</event>
<event>
12    6  0.1647231E-007  0.2273176E+04  0.7818608E-02  0.8488573E-01
          2   -1    0    0  501    0  0.00000000000E+00  0.00000000000E+00  0.68020963206E+03  0.68020963206E+03  0.00000000000E+00 0. -1.
         -1   -1    0    0    0  501 -0.00000000000E+00 -0.00000000000E+00 -0.18991676596E+04  0.18991676596E+04  0.00000000000E+00 0.  1.
         24    2    1    2    0    0 -0.10657396373E+03  0.52991220439E+03 -0.14124763143E+04  0.15144514126E+04  0.79427883404E+02 0.  0.
        254    2    1    2    0    0  0.10657396373E+03 -0.52991220439E+03  0.19351828671E+03  0.10649258791E+04  0.89691295371E+03 0.  0.
         23    2    4    4    0    0  0.12937317620E+03  0.22413271427E+03  0.12614235745E+03  0.30214462758E+03  0.91687454464E+02 0.  0.
         23    2    4    4    0    0 -0.22799212473E+02 -0.75404491865E+03  0.67375929264E+02  0.76278125150E+03  0.90510653308E+02 0.  0.
          4    1    3    3  502    0 -0.14322241011E+02  0.42002344956E+02 -0.18706142929E+03  0.19225322338E+03  0.00000000000E+00 0. -1.
         -3    1    3    3    0  502 -0.92251722719E+02  0.48790985943E+03 -0.12254148850E+04  0.13221981892E+04  0.00000000000E+00 0.  1.
         11    1    5    5    0    0  0.10258268592E+03  0.95056061735E+02  0.43108211274E+02  0.14634609732E+03  0.00000000000E+00 0. -1.
        -11    1    5    5    0    0  0.26790490286E+02  0.12907665253E+03  0.83034146175E+02  0.15579853025E+03  0.00000000000E+00 0.  1.
          4    1    6    6  503    0 -0.42600802727E+01 -0.26057176946E+02  0.19804754334E+02  0.33005348787E+02  0.00000000000E+00 0. -1.
         -4    1    6    6    0  503 -0.18539132200E+02 -0.72798774171E+03  0.47571174930E+02  0.72977590271E+03  0.00000000000E+00 0.  1.
<mgrwt>
<rscale>  0 0.22731759E+04</rscale>
<asrwt>0</asrwt>
<pdfrwt beam="1">  1        2 0.10464764E+00 0.22731759E+04</pdfrwt>
<pdfrwt beam="2">  1       -1 0.29217963E+00 0.22731759E+04</pdfrwt>
<totfact> 0.16352455E+00</totfact>
</mgrwt>
</event>
<event>
12    6  0.1647231E-007  0.1969430E+04  0.7818608E-02  0.8621048E-01
         -1   -1    0    0    0  501 -0.00000000000E+00  0.00000000000E+00  0.12440579981E+04  0.12440579981E+04  0.00000000000E+00 0.  1.
          2   -1    0    0  501    0  0.00000000000E+00 -0.00000000000E+00 -0.77943600415E+03  0.77943600415E+03  0.00000000000E+00 0. -1.
         24    2    1    2    0    0 -0.56053985958E+03  0.11142982617E+03 -0.36147498858E+03  0.68121481799E+03  0.82267372250E+02 0.  0.
        254    2    1    2    0    0  0.56053985958E+03 -0.11142982617E+03  0.82609698252E+03  0.13422791842E+04  0.89031210459E+03 0.  0.
         23    2    4    4    0    0  0.56282185181E+03 -0.42879787365E+03  0.45689673413E+03  0.84732966288E+03  0.92611438962E+02 0.  0.
         23    2    4    4    0    0 -0.22819922238E+01  0.31736804748E+03  0.36920024840E+03  0.49494952136E+03  0.89098373905E+02 0.  0.
          2    1    3    3  502    0 -0.55037036040E+03  0.10456270817E+03 -0.33681530862E+03  0.65367074714E+03  0.00000000000E+00 0. -1.
         -1    1    3    3    0  502 -0.10169499186E+02  0.68671179974E+01 -0.24659679960E+02  0.27544070850E+02  0.00000000000E+00 0.  1.
         11    1    5    5    0    0  0.14610486662E+03 -0.15622033905E+03  0.11054544931E+03  0.24077317696E+03  0.00000000000E+00 0.  1.
        -11    1    5    5    0    0  0.41671698519E+03 -0.27257753460E+03  0.34635128482E+03  0.60655648592E+03  0.00000000000E+00 0. -1.
          3    1    6    6  503    0 -0.34075737538E+02  0.26522290842E+03  0.28349268063E+03  0.38970815620E+03  0.00000000000E+00 0. -1.
         -3    1    6    6    0  503  0.31793745315E+02  0.52145139063E+02  0.85707567770E+02  0.10524136517E+03  0.00000000000E+00 0.  1.
<mgrwt>
<rscale>  0 0.19694300E+04</rscale>
<asrwt>0</asrwt>
<pdfrwt beam="1">  1        2 0.11991323E+00 0.19694300E+04</pdfrwt>
<pdfrwt beam="2">  1       -1 0.19139354E+00 0.19694300E+04</pdfrwt>
<totfact> 0.65477865E+00</totfact>
</mgrwt>
</event>
<event>
12    6  0.1647231E-007  0.3198962E+04  0.7818608E-02  0.8189091E-01
          2   -1    0    0  501    0  0.00000000000E+00  0.00000000000E+00  0.18718043007E+04  0.18718043007E+04  0.00000000000E+00 0. -1.
         -1   -1    0    0    0  501 -0.00000000000E+00 -0.00000000000E+00 -0.13667771159E+04  0.13667771159E+04  0.00000000000E+00 0.  1.
         24    2    1    2    0    0  0.12109321288E+04  0.68524366540E+03 -0.25454285722E+03  0.14167934363E+04  0.81216214136E+02 0.  0.
        254    2    1    2    0    0 -0.12109321288E+04 -0.68524366540E+03  0.75957004200E+03  0.18217879803E+04  0.89780248099E+03 0.  0.
         23    2    4    4    0    0 -0.12396686371E+04 -0.80926854402E+03  0.60318124421E+03  0.16011785273E+04  0.90835878853E+02 0.  0.
         23    2    4    4    0    0  0.28736508239E+02  0.12402487862E+03  0.15638879778E+03  0.22060945299E+03  0.89460143372E+02 0.  0.
          4    1    3    3  502    0  0.97969265145E+03  0.52922432167E+03 -0.17898666721E+03  0.11277908942E+04  0.00000000000E+00 0. -1.
         -3    1    3    3    0  502  0.23123947739E+03  0.15601934374E+03 -0.75556190002E+02  0.28900254215E+03  0.00000000000E+00 0.  1.
         11    1    5    5    0    0 -0.11269218786E+04 -0.72657562260E+03  0.51781716380E+03  0.14373585743E+04  0.00000000000E+00 0. -1.
        -11    1    5    5    0    0 -0.11274675844E+03 -0.82692921429E+02  0.85364080417E+02  0.16381995306E+03  0.00000000000E+00 0.  1.
          1    1    6    6  503    0  0.51302530393E+02  0.11999001423E+03  0.11820992049E+03  0.17607708096E+03  0.00000000000E+00 0. -1.
         -1    1    6    6    0  503 -0.22566022154E+02  0.40348643963E+01  0.38178877295E+02  0.44532372023E+02  0.00000000000E+00 0.  1.
<mgrwt>
<rscale>  0 0.31989619E+04</rscale>
<asrwt>0</asrwt>
<pdfrwt beam="1">  1        2 0.28796989E+00 0.31989619E+04</pdfrwt>
<pdfrwt beam="2">  1       -1 0.21027340E+00 0.31989619E+04</pdfrwt>
<totfact> 0.96556609E-01</totfact>
</mgrwt>
</event>
<event>
12    6  0.1647231E-007  0.1415856E+04  0.7818608E-02  0.8942421E-01
          2   -1    0    0  501    0  0.00000000000E+00  0.00000000000E+00  0.35656940918E+03  0.35656940918E+03  0.00000000000E+00 0. -1.
         -1   -1    0    0    0  501 -0.00000000000E+00 -0.00000000000E+00 -0.14055098646E+04  0.14055098646E+04  0.00000000000E+00 0.  1.
         24    2    1    2    0    0 -0.80380355231E+02  0.39555012016E+03 -0.19135477587E+03  0.45361561666E+03  0.78927678049E+02 0.  0.
        254    2    1    2    0    0  0.80380355231E+02 -0.39555012016E+03 -0.85758567951E+03  0.13084636571E+04  0.90205490140E+03 0.  0.
         23    2    4    4    0    0  0.30936642092E+03  0.10329935373E+03 -0.73225781472E+02  0.34644469406E+03  0.91014131297E+02 0.  0.
         23    2    4    4    0    0 -0.22898606569E+03 -0.49884947389E+03 -0.78435989804E+03  0.96201896302E+03  0.94734469332E+02 0.  0.
          2    1    3    3  502    0 -0.67694583543E+02  0.30644606078E+03 -0.11077118883E+03  0.33280925631E+03  0.00000000000E+00 0. -1.
         -1    1    3    3    0  502 -0.12685771687E+02  0.89104059382E+02 -0.80583587038E+02  0.12080636035E+03  0.00000000000E+00 0.  1.
         11    1    5    5    0    0  0.71436665552E+02  0.53342131909E+02 -0.50004175073E+02  0.10222033920E+03  0.00000000000E+00 0.  1.
        -11    1    5    5    0    0  0.23792975537E+03  0.49957221818E+02 -0.23221606399E+02  0.24422435486E+03  0.00000000000E+00 0. -1.
          2    1    6    6  503    0 -0.25624356234E+02 -0.14006675568E+02 -0.62488200656E+02  0.68975139102E+02  0.00000000000E+00 0. -1.
         -2    1    6    6    0  503 -0.20336170946E+03 -0.48484279832E+03 -0.72187169739E+03  0.89304382392E+03  0.00000000000E+00 0.  1.
<mgrwt>
<rscale>  0 0.14158557E+04</rscale>
<asrwt>0</asrwt>
<pdfrwt beam="1">  1        2 0.54856830E-01 0.14158557E+04</pdfrwt>
<pdfrwt beam="2">  1       -1 0.21623229E+00 0.14158557E+04</pdfrwt>
<totfact> 0.11750114E+01</totfact>
</mgrwt>
</event>
<event>
12    6  0.1647231E-007  0.1234250E+04  0.7818608E-02  0.9083395E-01
         -1   -1    0    0    0  501 -0.00000000000E+00  0.00000000000E+00  0.69088119762E+03  0.69088119762E+03  0.00000000000E+00 0.  1.
          2   -1    0    0  501    0  0.00000000000E+00 -0.00000000000E+00 -0.55124297292E+03  0.55124297292E+03  0.00000000000E+00 0. -1.
         24    2    1    2    0    0 -0.22947459023E+03  0.21066674470E+02 -0.12312357180E+03  0.27341579327E+03  0.80587776638E+02 0.  0.
        254    2    1    2    0    0  0.22947459023E+03 -0.21066674470E+02  0.26276179649E+03  0.96870837727E+03  0.90346542057E+03 0.  0.
         23    2    4    4    0    0  0.42245556984E+03 -0.62457036910E+02  0.48967406162E+03  0.65619114699E+03  0.91850665875E+02 0.  0.
         23    2    4    4    0    0 -0.19298097961E+03  0.41390362440E+02 -0.22691226513E+03  0.31251723028E+03  0.84988367206E+02 0.  0.
          4    1    3    3  502    0 -0.23205419142E+03  0.16306116176E+02 -0.12852307091E+03  0.26576910456E+03  0.00000000000E+00 0. -1.
         -3    1    3    3    0  502  0.25796011906E+01  0.47605582943E+01  0.53994991157E+01  0.76466887131E+01  0.00000000000E+00 0.  1.
         11    1    5    5    0    0  0.39336451758E+03 -0.36722104969E+02  0.42134739571E+03  0.57759655864E+03  0.00000000000E+00 0. -1.
        -11    1    5    5    0    0  0.29091052257E+02 -0.25734931941E+02  0.68326665911E+02  0.78594588350E+02  0.00000000000E+00 0.  1.
          1    1    6    6  503    0 -0.13845467339E+03 -0.11489148508E+02 -0.14755069152E+03  0.20266451018E+03  0.00000000000E+00 0. -1.
         -1    1    6    6    0  503 -0.54526306223E+02  0.52879510948E+02 -0.79361573607E+02  0.10985272010E+03  0.00000000000E+00 0.  1.
<mgrwt>
<rscale>  0 0.12342502E+04</rscale>
<asrwt>0</asrwt>
<pdfrwt beam="1">  1        2 0.84806612E-01 0.12342502E+04</pdfrwt>
<pdfrwt beam="2">  1       -1 0.10628941E+00 0.12342502E+04</pdfrwt>
<totfact> 0.51156580E+01</totfact>
</mgrwt>
</event>
<event>
12    6  0.1647231E-007  0.1814198E+04  0.7818608E-02  0.8698785E-01
          2   -1    0    0  501    0  0.00000000000E+00  0.00000000000E+00  0.65354928669E+03  0.65354928669E+03  0.00000000000E+00 0. -1.
         -1   -1    0    0    0  501 -0.00000000000E+00 -0.00000000000E+00 -0.12590158730E+04  0.12590158730E+04  0.00000000000E+00 0.  1.
         24    2    1    2    0    0  0.32313153183E+03 -0.49365012299E+03  0.13049046089E+03  0.60939567672E+03  0.78936047763E+02 0.  0.
        254    2    1    2    0    0 -0.32313153183E+03  0.49365012299E+03 -0.73595704723E+03  0.13031694830E+04  0.89917378479E+03 0.  0.
         23    2    4    4    0    0 -0.20679686464E+03 -0.29935003903E+02 -0.72352557581E+03  0.75870509864E+03  0.92103855309E+02 0.  0.
         23    2    4    4    0    0 -0.11633466720E+03  0.52358512689E+03 -0.12431471418E+02  0.54446438436E+03  0.92799700743E+02 0.  0.
          2    1    3    3  502    0  0.23265774655E+03 -0.36453656557E+03  0.13057957604E+03  0.45173837600E+03  0.00000000000E+00 0. -1.
         -3    1    3    3    0  502  0.90473785283E+02 -0.12911355741E+03 -0.89115142737E-01  0.15765730073E+03  0.00000000000E+00 0.  1.
         11    1    5    5    0    0 -0.30015760849E+02  0.14450440774E+02 -0.23378484500E+03  0.23614638446E+03  0.00000000000E+00 0. -1.
        -11    1    5    5    0    0 -0.17678110379E+03 -0.44385444677E+02 -0.48974073081E+03  0.52255871418E+03  0.00000000000E+00 0.  1.
          3    1    6    6  503    0  0.64161506336E+01  0.35573898863E+02 -0.19764897311E+02  0.41198548942E+02  0.00000000000E+00 0. -1.
         -3    1    6    6    0  503 -0.12275081783E+03  0.48801122803E+03  0.73334258934E+01  0.50326583541E+03  0.00000000000E+00 0.  1.
<mgrwt>
<rscale>  0 0.18141984E+04</rscale>
<asrwt>0</asrwt>
<pdfrwt beam="1">  1        2 0.10054604E+00 0.18141984E+04</pdfrwt>
<pdfrwt beam="2">  1       -1 0.19369475E+00 0.18141984E+04</pdfrwt>
<totfact> 0.80052978E+00</totfact>
</mgrwt>
</event>
<event>
12    6  0.1647231E-007  0.1792223E+04  0.7818608E-02  0.8710446E-01
         -1   -1    0    0    0  501 -0.00000000000E+00  0.00000000000E+00  0.13547261625E+04  0.13547261625E+04  0.00000000000E+00 0.  1.
          2   -1    0    0  501    0  0.00000000000E+00 -0.00000000000E+00 -0.59275159960E+03  0.59275159960E+03  0.00000000000E+00 0. -1.
         24    2    1    2    0    0  0.35993583755E+02 -0.41299575780E+03  0.83414404935E+03  0.93503352606E+03  0.81427057924E+02 0.  0.
        254    2    1    2    0    0 -0.35993583755E+02  0.41299575780E+03 -0.72169486462E+02  0.10124442360E+04  0.92085496265E+03 0.  0.
         23    2    4    4    0    0  0.34430744297E+03  0.14017514739E+03 -0.29780277904E+03  0.48492012702E+03  0.90908454786E+02 0.  0.
         23    2    4    4    0    0 -0.38030102672E+03  0.27282061041E+03  0.22563329258E+03  0.52752410900E+03  0.91166586342E+02 0.  0.
          2    1    3    3  502    0 -0.21625824951E+02 -0.17648077388E+03  0.31698345698E+03  0.36344415231E+03  0.00000000000E+00 0. -1.
         -1    1    3    3    0  502  0.57619408705E+02 -0.23651498392E+03  0.51716059237E+03  0.57158937374E+03  0.00000000000E+00 0.  1.
         11    1    5    5    0    0  0.68552657758E+02  0.69991357862E+02 -0.69753352008E+02  0.12026548623E+03  0.00000000000E+00 0.  1.
        -11    1    5    5    0    0  0.27575478521E+03  0.70183789529E+02 -0.22804942703E+03  0.36465464079E+03  0.00000000000E+00 0. -1.
          3    1    6    6  503    0 -0.27919415571E+03  0.15240699362E+03  0.17055233028E+03  0.36092293589E+03  0.00000000000E+00 0. -1.
         -3    1    6    6    0  503 -0.10110687101E+03  0.12041361678E+03  0.55080962295E+02  0.16660117311E+03  0.00000000000E+00 0.  1.
<mgrwt>
<rscale>  0 0.17922233E+04</rscale>
<asrwt>0</asrwt>
<pdfrwt beam="1">  1        2 0.91192554E-01 0.17922233E+04</pdfrwt>
<pdfrwt beam="2">  1       -1 0.20841941E+00 0.17922233E+04</pdfrwt>
<totfact> 0.71559191E+00</totfact>
</mgrwt>
</event>
<event>
12    6  0.1647231E-007  0.1034835E+04  0.7818608E-02  0.9271143E-01
         -1   -1    0    0    0  501 -0.00000000000E+00  0.00000000000E+00  0.16701595001E+03  0.16701595001E+03  0.00000000000E+00 0.  1.
          2   -1    0    0  501    0  0.00000000000E+00 -0.00000000000E+00 -0.16029656651E+04  0.16029656651E+04  0.00000000000E+00 0. -1.
         24    2    1    2    0    0 -0.83764961351E+00  0.20301148449E+02  0.10542803293E+02  0.79356843326E+02  0.75983679801E+02 0.  0.
        254    2    1    2    0    0  0.83764961351E+00 -0.20301148449E+02 -0.14464925184E+04  0.16906247718E+04  0.87490495195E+03 0.  0.
         23    2    4    4    0    0 -0.12770525582E+02 -0.43845876139E+03 -0.75133343356E+03  0.87405154195E+03  0.83994034543E+02 0.  0.
         23    2    4    4    0    0  0.13608175195E+02  0.41815761294E+03 -0.69515908483E+03  0.81657322984E+03  0.92221010508E+02 0.  0.
          4    1    3    3  502    0 -0.89907401147E+01 -0.23776863441E+02 -0.13187736654E+02  0.28637196807E+02  0.00000000000E+00 0. -1.
         -3    1    3    3    0  502  0.81530905012E+01  0.44078011890E+02  0.23730539947E+02  0.50719646519E+02  0.00000000000E+00 0.  1.
         11    1    5    5    0    0  0.22528460980E+02 -0.11588699705E+03 -0.15146160087E+03  0.19203630953E+03  0.00000000000E+00 0.  1.
        -11    1    5    5    0    0 -0.35298986561E+02 -0.32257176434E+03 -0.59987183269E+03  0.68201523242E+03  0.00000000000E+00 0. -1.
          3    1    6    6  503    0  0.35557426671E+02  0.38606010520E+03 -0.60738323066E+03  0.72056999959E+03  0.00000000000E+00 0. -1.
         -3    1    6    6    0  503 -0.21949251476E+02  0.32097507734E+02 -0.87775854177E+02  0.96003230256E+02  0.00000000000E+00 0.  1.
<mgrwt>
<rscale>  0 0.10348349E+04</rscale>
<asrwt>0</asrwt>
<pdfrwt beam="1">  1        2 0.24661009E+00 0.10348349E+04</pdfrwt>
<pdfrwt beam="2">  1       -1 0.25694763E-01 0.10348349E+04</pdfrwt>
<totfact> 0.16847426E+02</totfact>
</mgrwt>
</event>
<event>
12    6  0.1647231E-007  0.1864144E+04  0.7818608E-02  0.8672913E-01
         -1   -1    0    0    0  501 -0.00000000000E+00  0.00000000000E+00  0.56521335241E+03  0.56521335241E+03  0.00000000000E+00 0.  1.
          2   -1    0    0  501    0  0.00000000000E+00 -0.00000000000E+00 -0.15370452790E+04  0.15370452790E+04  0.00000000000E+00 0. -1.
         24    2    1    2    0    0  0.53891880564E+03  0.27078209443E+03  0.43239475675E+02  0.60992104997E+03  0.79859959969E+02 0.  0.
        254    2    1    2    0    0 -0.53891880564E+03 -0.27078209443E+03 -0.10150714022E+04  0.14923375814E+04  0.91265825121E+03 0.  0.
         23    2    4    4    0    0 -0.23633313886E+03 -0.21066885700E+03 -0.11093543964E+04  0.11572101962E+04  0.90738864106E+02 0.  0.
         23    2    4    4    0    0 -0.30258566678E+03 -0.60113237436E+02  0.94282994165E+02  0.33512738524E+03  0.90826176277E+02 0.  0.
          2    1    3    3  502    0  0.14100486591E+03  0.11147132306E+03  0.10455742714E+02  0.18004874515E+03  0.00000000000E+00 0. -1.
         -1    1    3    3    0  502  0.39791393972E+03  0.15931077138E+03  0.32783732961E+02  0.42987230482E+03  0.00000000000E+00 0.  1.
         11    1    5    5    0    0 -0.12443659080E+03 -0.11388874835E+03 -0.42935715282E+03  0.46130540514E+03  0.00000000000E+00 0. -1.
        -11    1    5    5    0    0 -0.11189654806E+03 -0.96780108652E+02 -0.67999724357E+03  0.69590479102E+03  0.00000000000E+00 0.  1.
          1    1    6    6  503    0 -0.13253636002E+03 -0.33437582697E+01  0.14777541770E-01  0.13257853396E+03  0.00000000000E+00 0. -1.
         -1    1    6    6    0  503 -0.17004930675E+03 -0.56769479166E+02  0.94268216623E+02  0.20254885129E+03  0.00000000000E+00 0.  1.
<mgrwt>
<rscale>  0 0.18641443E+04</rscale>
<asrwt>0</asrwt>
<pdfrwt beam="1">  1        2 0.23646850E+00 0.18641443E+04</pdfrwt>
<pdfrwt beam="2">  1       -1 0.86955903E-01 0.18641443E+04</pdfrwt>
<totfact> 0.16866778E+01</totfact>
</mgrwt>
</event>
<event>
12    6  0.1647231E-007  0.1464827E+04  0.7818608E-02  0.8908185E-01
         -1   -1    0    0    0  501 -0.00000000000E+00  0.00000000000E+00  0.58189522343E+03  0.58189522343E+03  0.00000000000E+00 0.  1.
          2   -1    0    0  501    0  0.00000000000E+00 -0.00000000000E+00 -0.92186623610E+03  0.92186623610E+03  0.00000000000E+00 0. -1.
         24    2    1    2    0    0  0.30700294938E+03 -0.31265696941E+03 -0.11982573437E+02  0.44550904733E+03  0.79558391972E+02 0.  0.
        254    2    1    2    0    0 -0.30700294938E+03  0.31265696941E+03 -0.32798843923E+03  0.10582524122E+04  0.90571328809E+03 0.  0.
         23    2    4    4    0    0  0.30639117942E+03  0.20402031972E+02 -0.82737591605E+02  0.33073049003E+03  0.90803910893E+02 0.  0.
         23    2    4    4    0    0 -0.61339412880E+03  0.29225493744E+03 -0.24525084762E+03  0.72752192218E+03  0.86457291675E+02 0.  0.
          2    1    3    3  502    0  0.96143588641E+02 -0.14906090439E+03 -0.20045702315E+02  0.17850650698E+03  0.00000000000E+00 0. -1.
         -1    1    3    3    0  502  0.21085936074E+03 -0.16359606502E+03  0.80631288780E+01  0.26700254035E+03  0.00000000000E+00 0.  1.
         11    1    5    5    0    0  0.10814627802E+03  0.25564720188E+02 -0.71414393606E+02  0.13209537457E+03  0.00000000000E+00 0. -1.
        -11    1    5    5    0    0  0.19824490140E+03 -0.51626882154E+01 -0.11323197998E+02  0.19863511546E+03  0.00000000000E+00 0.  1.
          4    1    6    6  503    0 -0.14461714909E+02 -0.14101716809E+01  0.45561886694E+01  0.15227890119E+02  0.00000000000E+00 0. -1.
         -4    1    6    6    0  503 -0.59893241389E+03  0.29366510912E+03 -0.24980703629E+03  0.71229403206E+03  0.00000000000E+00 0.  1.
<mgrwt>
<rscale>  0 0.14648270E+04</rscale>
<asrwt>0</asrwt>
<pdfrwt beam="1">  1        2 0.14182557E+00 0.14648270E+04</pdfrwt>
<pdfrwt beam="2">  1       -1 0.89522343E-01 0.14648270E+04</pdfrwt>
<totfact> 0.38309690E+01</totfact>
</mgrwt>
</event>
<event>
12    6  0.1647231E-007  0.1452727E+04  0.7818608E-02  0.8916512E-01
         -1   -1    0    0    0  501 -0.00000000000E+00  0.00000000000E+00  0.15868462092E+03  0.15868462092E+03  0.00000000000E+00 0.  1.
          2   -1    0    0  501    0  0.00000000000E+00 -0.00000000000E+00 -0.33248578387E+04  0.33248578387E+04  0.00000000000E+00 0. -1.
         24    2    1    2    0    0 -0.23248172860E+03 -0.37599629920E+03 -0.93861593880E+03  0.10402846179E+04  0.75968641574E+02 0.  0.
        254    2    1    2    0    0  0.23248172860E+03  0.37599629920E+03 -0.22275572790E+04  0.24432578417E+04  0.90115286099E+03 0.  0.
         23    2    4    4    0    0  0.28176503949E+03  0.46795368708E+03 -0.22349758426E+04  0.23026528310E+04  0.93385505450E+02 0.  0.
         23    2    4    4    0    0 -0.49283310884E+02 -0.91957387883E+02  0.74185635713E+01  0.14060501072E+03  0.93966632562E+02 0.  0.
          4    1    3    3  502    0 -0.40570448445E+02 -0.12976329681E+03 -0.30528288237E+03  0.33418873822E+03  0.00000000000E+00 0. -1.
         -1    1    3    3    0  502 -0.19191128016E+03 -0.24623300239E+03 -0.63333305644E+03  0.70609587967E+03  0.00000000000E+00 0.  1.
         11    1    5    5    0    0  0.50886013651E+02  0.90761105094E+02 -0.59829202659E+03  0.60727284944E+03  0.00000000000E+00 0.  1.
        -11    1    5    5    0    0  0.23087902583E+03  0.37719258199E+03 -0.16366838160E+04  0.16953799816E+04  0.00000000000E+00 0. -1.
          2    1    6    6  503    0  0.69408034801E+01  0.16680275291E+02  0.20332696543E+00  0.18067863144E+02  0.00000000000E+00 0.  1.
         -2    1    6    6    0  503 -0.56224114364E+02 -0.10863766317E+03  0.72152366059E+01  0.12253714757E+03  0.00000000000E+00 0. -1.
<mgrwt>
<rscale>  0 0.14527268E+04</rscale>
<asrwt>0</asrwt>
<pdfrwt beam="1">  1        2 0.51151655E+00 0.14527268E+04</pdfrwt>
<pdfrwt beam="2">  1       -1 0.24413020E-01 0.14527268E+04</pdfrwt>
<totfact> 0.17488953E+01</totfact>
</mgrwt>
</event>
<event>
12    6  0.1647231E-007  0.1465959E+04  0.7818608E-02  0.8907411E-01
          2   -1    0    0  501    0  0.00000000000E+00  0.00000000000E+00  0.13220788919E+04  0.13220788919E+04  0.00000000000E+00 0. -1.
         -1   -1    0    0    0  501 -0.00000000000E+00 -0.00000000000E+00 -0.40637428211E+03  0.40637428211E+03  0.00000000000E+00 0.  1.
         24    2    1    2    0    0  0.12154381622E+03  0.36158846768E+03 -0.23415803476E+02  0.39239664396E+03  0.88925289531E+02 0.  0.
        254    2    1    2    0    0 -0.12154381622E+03 -0.36158846768E+03  0.93912041329E+03  0.13360565301E+04  0.87039116591E+03 0.  0.
         23    2    4    4    0    0  0.29089546988E+03 -0.13514679105E+03  0.75086734236E+03  0.82197486503E+03  0.94636585910E+02 0.  0.
         23    2    4    4    0    0 -0.41243928609E+03 -0.22644167663E+03  0.18825307093E+03  0.51408166505E+03  0.86364008689E+02 0.  0.
          4    1    3    3  502    0  0.18672843224E+02  0.56467695598E+01  0.67961625519E+01  0.20657901780E+02  0.00000000000E+00 0. -1.
         -1    1    3    3    0  502  0.10287097299E+03  0.35594169812E+03 -0.30211966028E+02  0.37173874218E+03  0.00000000000E+00 0.  1.
         11    1    5    5    0    0  0.31103984490E+02 -0.47893898154E+02  0.90658228619E+02  0.10714568469E+03  0.00000000000E+00 0.  1.
        -11    1    5    5    0    0  0.25979148539E+03 -0.87252892898E+02  0.66020911374E+03  0.71482918034E+03  0.00000000000E+00 0. -1.
          3    1    6    6  503    0 -0.27508989163E+03 -0.11500071661E+03  0.88494632465E+02  0.31101593733E+03  0.00000000000E+00 0.  1.
         -3    1    6    6    0  503 -0.13734939446E+03 -0.11144096001E+03  0.99758438466E+02  0.20306572772E+03  0.00000000000E+00 0. -1.
<mgrwt>
<rscale>  0 0.14659589E+04</rscale>
<asrwt>0</asrwt>
<pdfrwt beam="1">  1        2 0.20339675E+00 0.14659589E+04</pdfrwt>
<pdfrwt beam="2">  1       -1 0.62519121E-01 0.14659589E+04</pdfrwt>
<totfact> 0.45983335E+01</totfact>
</mgrwt>
</event>
<event>
12    6  0.1647231E-007  0.1163028E+04  0.7818608E-02  0.9145848E-01
          2   -1    0    0  501    0  0.00000000000E+00  0.00000000000E+00  0.12148777293E+04  0.12148777293E+04  0.00000000000E+00 0. -1.
         -1   -1    0    0    0  501 -0.00000000000E+00 -0.00000000000E+00 -0.27834774003E+03  0.27834774003E+03  0.00000000000E+00 0.  1.
         24    2    1    2    0    0  0.17529045285E+03 -0.13368590220E+03  0.22367026963E+03  0.32425305247E+03  0.80703092970E+02 0.  0.
        254    2    1    2    0    0 -0.17529045285E+03  0.13368590220E+03  0.71285971965E+03  0.11689724169E+04  0.89984935863E+03 0.  0.
         23    2    4    4    0    0 -0.12180363952E+03 -0.37315556062E+03  0.38076583360E+03  0.55441410654E+03  0.91165686858E+02 0.  0.
         23    2    4    4    0    0 -0.53486813327E+02  0.50684146282E+03  0.33209388605E+03  0.61455831035E+03  0.87444039408E+02 0.  0.
          4    1    3    3  502    0  0.11135914758E+03 -0.51607388705E+02  0.16222726187E+03  0.20342533474E+03  0.00000000000E+00 0. -1.
         -3    1    3    3    0  502  0.63931305265E+02 -0.82078513493E+02  0.61443007760E+02  0.12082771773E+03  0.00000000000E+00 0.  1.
         11    1    5    5    0    0 -0.21803073195E+00 -0.42616890867E+02  0.11538719078E+02  0.44151885153E+02  0.00000000000E+00 0.  1.
        -11    1    5    5    0    0 -0.12158560879E+03 -0.33053866976E+03  0.36922711453E+03  0.51026222138E+03  0.00000000000E+00 0. -1.
          3    1    6    6  503    0  0.44627328135E+01  0.29685214641E+03  0.22040669430E+03  0.36975697925E+03  0.00000000000E+00 0. -1.
         -3    1    6    6    0  503 -0.57949546140E+02  0.20998931641E+03  0.11168719175E+03  0.24480133109E+03  0.00000000000E+00 0.  1.
<mgrwt>
<rscale>  0 0.11630279E+04</rscale>
<asrwt>0</asrwt>
<pdfrwt beam="1">  1        2 0.18690426E+00 0.11630279E+04</pdfrwt>
<pdfrwt beam="2">  1       -1 0.42822730E-01 0.11630279E+04</pdfrwt>
<totfact> 0.11231427E+02</totfact>
</mgrwt>
</event>
<event>
12    6  0.1647231E-007  0.1481007E+04  0.7818608E-02  0.8897182E-01
          2   -1    0    0  501    0  0.00000000000E+00  0.00000000000E+00  0.99382087715E+03  0.99382087715E+03  0.00000000000E+00 0. -1.
         -1   -1    0    0    0  501 -0.00000000000E+00 -0.00000000000E+00 -0.55175510317E+03  0.55175510317E+03  0.00000000000E+00 0.  1.
         24    2    1    2    0    0 -0.90482831138E+02 -0.39966948993E+03 -0.85985810824E+02  0.42624034500E+03  0.79777366047E+02 0.  0.
        254    2    1    2    0    0  0.90482831138E+02  0.39966948993E+03  0.52805158480E+03  0.11193356353E+04  0.89785908938E+03 0.  0.
         23    2    4    4    0    0 -0.34761623615E+03  0.43685448924E+02  0.38834967156E+03  0.53097599910E+03  0.91512721192E+02 0.  0.
         23    2    4    4    0    0  0.43809906729E+03  0.35598404100E+03  0.13970191324E+03  0.58835963622E+03  0.89414801655E+02 0.  0.
          2    1    3    3  502    0 -0.74815946835E+01 -0.35293674328E+02  0.15084569955E+02  0.39104500474E+02  0.00000000000E+00 0. -1.
         -1    1    3    3    0  502 -0.83001236454E+02 -0.36437581560E+03 -0.10107038078E+03  0.38713584452E+03  0.00000000000E+00 0.  1.
         11    1    5    5    0    0 -0.14726044904E+03  0.64309106417E+02  0.17277552734E+03  0.23595059624E+03  0.00000000000E+00 0. -1.
        -11    1    5    5    0    0 -0.20035578711E+03 -0.20623657493E+02  0.21557414422E+03  0.29502540286E+03  0.00000000000E+00 0.  1.
          3    1    6    6  503    0  0.52195409513E+02  0.77099848526E+02  0.42792572211E+02  0.10246927175E+03  0.00000000000E+00 0. -1.
         -3    1    6    6    0  503  0.38590365778E+03  0.27888419248E+03  0.96909341032E+02  0.48589036446E+03  0.00000000000E+00 0.  1.
<mgrwt>
<rscale>  0 0.14810074E+04</rscale>
<asrwt>0</asrwt>
<pdfrwt beam="1">  1        2 0.15289552E+00 0.14810074E+04</pdfrwt>
<pdfrwt beam="2">  1       -1 0.84885401E-01 0.14810074E+04</pdfrwt>
<totfact> 0.38542333E+01</totfact>
</mgrwt>
</event>
<event>
12    6  0.1647231E-007  0.1751796E+04  0.7818608E-02  0.8732362E-01
         -1   -1    0    0    0  501 -0.00000000000E+00  0.00000000000E+00  0.95120224055E+03  0.95120224055E+03  0.00000000000E+00 0.  1.
          2   -1    0    0  501    0  0.00000000000E+00 -0.00000000000E+00 -0.80655569289E+03  0.80655569289E+03  0.00000000000E+00 0. -1.
         24    2    1    2    0    0  0.43278892533E+02 -0.25921484311E+03 -0.53011743586E+03  0.59714199872E+03  0.80552302286E+02 0.  0.
        254    2    1    2    0    0 -0.43278892533E+02  0.25921484311E+03  0.67476398352E+03  0.11606159347E+04  0.90700469516E+03 0.  0.
         23    2    4    4    0    0 -0.35612109369E+03  0.43776484539E+03  0.39073199402E+03  0.69272100853E+03  0.93437740181E+02 0.  0.
         23    2    4    4    0    0  0.31284220115E+03 -0.17855000228E+03  0.28403198950E+03  0.46789492618E+03  0.92201652649E+02 0.  0.
          2    1    3    3  502    0  0.22491653873E+02 -0.25173963570E+03 -0.48473994882E+03  0.54667315340E+03  0.00000000000E+00 0. -1.
         -1    1    3    3    0  502  0.20787238660E+02 -0.74752074133E+01 -0.45377487041E+02  0.50468845312E+02  0.00000000000E+00 0.  1.
         11    1    5    5    0    0 -0.27076740497E+03  0.37391281077E+03  0.28476928807E+03  0.54241987895E+03  0.00000000000E+00 0. -1.
        -11    1    5    5    0    0 -0.85353688715E+02  0.63852034614E+02  0.10596270595E+03  0.15030112958E+03  0.00000000000E+00 0.  1.
          2    1    6    6  503    0  0.28665669942E+01 -0.75687701054E+01  0.32845528692E+02  0.33827980169E+02  0.00000000000E+00 0.  1.
         -2    1    6    6    0  503  0.30997563416E+03 -0.17098123217E+03  0.25118646081E+03  0.43406694601E+03  0.00000000000E+00 0. -1.
<mgrwt>
<rscale>  0 0.17517963E+04</rscale>
<asrwt>0</asrwt>
<pdfrwt beam="1">  1        2 0.12408549E+00 0.17517963E+04</pdfrwt>
<pdfrwt beam="2">  1       -1 0.14633881E+00 0.17517963E+04</pdfrwt>
<totfact> 0.13743918E+01</totfact>
</mgrwt>
</event>
<event>
12    6  0.1647231E-007  0.2394302E+04  0.7818608E-02  0.8441640E-01
          2   -1    0    0  501    0  0.00000000000E+00  0.00000000000E+00  0.11630721505E+04  0.11630721505E+04  0.00000000000E+00 0. -1.
         -1   -1    0    0    0  501 -0.00000000000E+00 -0.00000000000E+00 -0.12322282172E+04  0.12322282172E+04  0.00000000000E+00 0.  1.
         24    2    1    2    0    0 -0.96677491047E+03 -0.20614034052E+03  0.12780339773E+03  0.99984716124E+03  0.78823028831E+02 0.  0.
        254    2    1    2    0    0  0.96677491047E+03  0.20614034052E+03 -0.19695946440E+03  0.13954532065E+04  0.96506427421E+03 0.  0.
         23    2    4    4    0    0  0.89866978080E+03  0.25239523315E+03 -0.50468549361E+03  0.10650642121E+04  0.91343307745E+02 0.  0.
         23    2    4    4    0    0  0.68105129668E+02 -0.46254892630E+02  0.30772602920E+03  0.33038899434E+03  0.87657029123E+02 0.  0.
          4    1    3    3  502    0 -0.93497665717E+03 -0.19452058771E+03  0.13697921595E+03  0.96477091275E+03  0.00000000000E+00 0. -1.
         -3    1    3    3    0  502 -0.31798253294E+02 -0.11619752809E+02 -0.91758182127E+01  0.35076248485E+02  0.00000000000E+00 0.  1.
         11    1    5    5    0    0  0.51399541404E+03  0.97321811650E+02 -0.28453700539E+03  0.59550325617E+03  0.00000000000E+00 0.  1.
        -11    1    5    5    0    0  0.38467436676E+03  0.15507342150E+03 -0.22014848821E+03  0.46956095596E+03  0.00000000000E+00 0. -1.
          2    1    6    6  503    0  0.43452727130E+02 -0.56549365157E+02  0.11152498438E+03  0.13237746158E+03  0.00000000000E+00 0. -1.
         -2    1    6    6    0  503  0.24652402538E+02  0.10294472527E+02  0.19620104482E+03  0.19801153276E+03  0.00000000000E+00 0.  1.
<mgrwt>
<rscale>  0 0.23943018E+04</rscale>
<asrwt>0</asrwt>
<pdfrwt beam="1">  1        2 0.17893418E+00 0.23943018E+04</pdfrwt>
<pdfrwt beam="2">  1       -1 0.18957357E+00 0.23943018E+04</pdfrwt>
<totfact> 0.36373933E+00</totfact>
</mgrwt>
</event>
<event>
12    6  0.1647231E-007  0.2106662E+04  0.7818608E-02  0.8558314E-01
         -1   -1    0    0    0  501 -0.00000000000E+00  0.00000000000E+00  0.74573819052E+03  0.74573819052E+03  0.00000000000E+00 0.  1.
          2   -1    0    0  501    0  0.00000000000E+00 -0.00000000000E+00 -0.14877959779E+04  0.14877959779E+04  0.00000000000E+00 0. -1.
         24    2    1    2    0    0  0.26565118458E+03 -0.13472571100E+03  0.54946749297E+03  0.63050762100E+03  0.83088899636E+02 0.  0.
        254    2    1    2    0    0 -0.26565118458E+03  0.13472571100E+03 -0.12915252804E+04  0.16030265475E+04  0.90162907722E+03 0.  0.
         23    2    4    4    0    0 -0.37885331242E+03  0.19973230438E+03 -0.13593542092E+04  0.14281088718E+04  0.90709746250E+02 0.  0.
         23    2    4    4    0    0  0.11320212784E+03 -0.65006593376E+02  0.67828928791E+02  0.17491767562E+03  0.94630073086E+02 0.  0.
          2    1    3    3  502    0  0.10153017141E+03 -0.10031121954E+02  0.15766147755E+03  0.18779281300E+03  0.00000000000E+00 0. -1.
         -1    1    3    3    0  502  0.16412101317E+03 -0.12469458905E+03  0.39180601542E+03  0.44271480800E+03  0.00000000000E+00 0.  1.
         11    1    5    5    0    0  0.41331579097E+01  0.14782315702E+00 -0.46109722509E+01  0.61940222062E+01  0.00000000000E+00 0.  1.
        -11    1    5    5    0    0 -0.38298647033E+03  0.19958448122E+03 -0.13547432369E+04  0.14219148496E+04  0.00000000000E+00 0. -1.
          1    1    6    6  503    0  0.61181975976E+02 -0.21082775513E+02  0.82918569146E+02  0.10518177940E+03  0.00000000000E+00 0. -1.
         -1    1    6    6    0  503  0.52020151867E+02 -0.43923817863E+02 -0.15089640355E+02  0.69735896222E+02  0.00000000000E+00 0.  1.
<mgrwt>
<rscale>  0 0.21066621E+04</rscale>
<asrwt>0</asrwt>
<pdfrwt beam="1">  1        2 0.22889169E+00 0.21066621E+04</pdfrwt>
<pdfrwt beam="2">  1       -1 0.11472895E+00 0.21066621E+04</pdfrwt>
<totfact> 0.93428798E+00</totfact>
</mgrwt>
</event>
<event>
12    6  0.1647231E-007  0.1598086E+04  0.7818608E-02  0.8821724E-01
          2   -1    0    0  501    0  0.00000000000E+00  0.00000000000E+00  0.60898845695E+03  0.60898845695E+03  0.00000000000E+00 0. -1.
         -1   -1    0    0    0  501 -0.00000000000E+00 -0.00000000000E+00 -0.10484107905E+04  0.10484107905E+04  0.00000000000E+00 0.  1.
         24    2    1    2    0    0  0.52253491123E+03  0.16329210571E+03 -0.17798185482E+03  0.58130616688E+03  0.80822483051E+02 0.  0.
        254    2    1    2    0    0 -0.52253491123E+03 -0.16329210571E+03 -0.26144047877E+03  0.10760930806E+04  0.88877339573E+03 0.  0.
         23    2    4    4    0    0  0.17740320104E+03 -0.83657834412E+02  0.14123810446E+03  0.25846032769E+03  0.91558778074E+02 0.  0.
         23    2    4    4    0    0 -0.69993811226E+03 -0.79634271296E+02 -0.40267858322E+03  0.81763275292E+03  0.10058975643E+03 0.  0.
          4    1    3    3  502    0  0.51159326473E+03  0.15766703197E+03 -0.15857854106E+03  0.55833118771E+03  0.00000000000E+00 0. -1.
         -3    1    3    3    0  502  0.10941646494E+02  0.56250737416E+01 -0.19403313764E+02  0.22974979165E+02  0.00000000000E+00 0.  1.
         11    1    5    5    0    0  0.63354479152E+02  0.15047885714E+02  0.34587943050E+02  0.73732995989E+02  0.00000000000E+00 0. -1.
        -11    1    5    5    0    0  0.11404872188E+03 -0.98705720126E+02  0.10665016141E+03  0.18472733170E+03  0.00000000000E+00 0.  1.
          1    1    6    6  503    0 -0.58626338798E+03 -0.86864035394E+02 -0.37174351064E+03  0.69960228590E+03  0.00000000000E+00 0. -1.
         -1    1    6    6    0  503 -0.11367472429E+03  0.72297640986E+01 -0.30935072583E+02  0.11803046703E+03  0.00000000000E+00 0.  1.
<mgrwt>
<rscale>  0 0.15980864E+04</rscale>
<asrwt>0</asrwt>
<pdfrwt beam="1">  1        2 0.93690533E-01 0.15980864E+04</pdfrwt>
<pdfrwt beam="2">  1       -1 0.16129397E+00 0.15980864E+04</pdfrwt>
<totfact> 0.15249536E+01</totfact>
</mgrwt>
</event>
<event>
12    6  0.1647231E-007  0.3136060E+04  0.7818608E-02  0.8205911E-01
         -1   -1    0    0    0  501 -0.00000000000E+00  0.00000000000E+00  0.27771688028E+04  0.27771688028E+04  0.00000000000E+00 0.  1.
          2   -1    0    0  501    0  0.00000000000E+00 -0.00000000000E+00 -0.88533266399E+03  0.88533266399E+03  0.00000000000E+00 0. -1.
         24    2    1    2    0    0 -0.43975237681E+03  0.31461122528E+03 -0.68870195853E+03  0.87907317135E+03  0.78082500771E+02 0.  0.
        254    2    1    2    0    0  0.43975237681E+03 -0.31461122528E+03  0.25805380974E+04  0.27834282955E+04  0.89215123607E+03 0.  0.
         23    2    4    4    0    0  0.66342795697E+03 -0.18592394786E+03  0.12953515566E+04  0.14694419146E+04  0.81360412823E+02 0.  0.
         23    2    4    4    0    0 -0.22367558017E+03 -0.12868727742E+03  0.12851865407E+04  0.13139863808E+04  0.90909757120E+02 0.  0.
          2    1    3    3  502    0 -0.41820640381E+03  0.31112791536E+03 -0.67665849986E+03  0.85414512897E+03  0.00000000000E+00 0. -1.
         -1    1    3    3    0  502 -0.21545972998E+02  0.34833099166E+01 -0.12043458672E+02  0.24928042386E+02  0.00000000000E+00 0.  1.
         11    1    5    5    0    0  0.51298341014E+03 -0.11367501639E+03  0.94098168057E+03  0.10777386100E+04  0.00000000000E+00 0.  1.
        -11    1    5    5    0    0  0.15044454683E+03 -0.72248931475E+02  0.35436987606E+03  0.39170330460E+03  0.00000000000E+00 0. -1.
          1    1    6    6  503    0 -0.20080851073E+03 -0.82945530699E+02  0.11265942327E+04  0.11473528595E+04  0.00000000000E+00 0. -1.
         -1    1    6    6    0  503 -0.22867069440E+02 -0.45741746717E+02  0.15859230801E+03  0.16663352129E+03  0.00000000000E+00 0.  1.
<mgrwt>
<rscale>  0 0.31360601E+04</rscale>
<asrwt>0</asrwt>
<pdfrwt beam="1">  1        2 0.13620503E+00 0.31360601E+04</pdfrwt>
<pdfrwt beam="2">  1       -1 0.42725673E+00 0.31360601E+04</pdfrwt>
<totfact> 0.13435769E-01</totfact>
</mgrwt>
</event>
<event>
12    6  0.1740002E-007  0.2545128E+04  0.7818608E-02  0.8387082E-01
          2   -1    0    0  501    0  0.00000000000E+00  0.00000000000E+00  0.17399445353E+04  0.17399445353E+04  0.00000000000E+00 0. -1.
         -1   -1    0    0    0  501 -0.00000000000E+00 -0.00000000000E+00 -0.93073062552E+03  0.93073062552E+03  0.00000000000E+00 0.  1.
         24    2    1    2    0    0  0.47633478499E+03 -0.39255505133E+03  0.13093354596E+04  0.14496815490E+04  0.78885688905E+02 0.  0.
        254    2    1    2    0    0 -0.47633478499E+03  0.39255505133E+03 -0.50012154983E+03  0.12209936118E+04  0.92720523069E+03 0.  0.
         23    2    4    4    0    0 -0.18687013515E+03  0.62920572306E+03 -0.51068150536E+03  0.83676590999E+03  0.92527287144E+02 0.  0.
         23    2    4    4    0    0 -0.28946464984E+03 -0.23665067174E+03  0.10559955523E+02  0.38422770184E+03  0.87898181208E+02 0.  0.
          2    1    3    3  502    0  0.42038875347E+03 -0.37563148464E+03  0.11804734765E+04  0.13081832230E+04  0.00000000000E+00 0. -1.
         -1    1    3    3    0  502  0.55946031519E+02 -0.16923566684E+02  0.12886198312E+03  0.14149832595E+03  0.00000000000E+00 0.  1.
         11    1    5    5    0    0 -0.19293135255E+03  0.54993799572E+03 -0.43785588898E+03  0.72895273197E+03  0.00000000000E+00 0. -1.
        -11    1    5    5    0    0  0.60612173993E+01  0.79267727349E+02 -0.72825616381E+02  0.10781317803E+03  0.00000000000E+00 0.  1.
          2    1    6    6  503    0 -0.29374423959E+03 -0.23936055147E+03  0.94192951304E+01  0.37903545351E+03  0.00000000000E+00 0. -1.
         -2    1    6    6    0  503  0.42795897543E+01  0.27098797312E+01  0.11406603926E+01  0.51922483333E+01  0.00000000000E+00 0.  1.
<mgrwt>
<rscale>  0 0.25451284E+04</rscale>
<asrwt>0</asrwt>
<pdfrwt beam="1">  1        2 0.26768377E+00 0.25451284E+04</pdfrwt>
<pdfrwt beam="2">  1       -1 0.14318933E+00 0.25451284E+04</pdfrwt>
<totfact> 0.37233309E+00</totfact>
</mgrwt>
</event>
<event>
12    6  0.1647231E-007  0.1443658E+04  0.7818608E-02  0.8922809E-01
         -1   -1    0    0    0  501 -0.00000000000E+00  0.00000000000E+00  0.34113456790E+03  0.34113456790E+03  0.00000000000E+00 0.  1.
          2   -1    0    0  501    0  0.00000000000E+00 -0.00000000000E+00 -0.15273654574E+04  0.15273654574E+04  0.00000000000E+00 0. -1.
         24    2    1    2    0    0  0.18191548122E+03  0.52861448645E+02  0.13795061922E+03  0.24775924979E+03  0.80415778627E+02 0.  0.
        254    2    1    2    0    0 -0.18191548122E+03 -0.52861448645E+02 -0.13241815087E+04  0.16207407755E+04  0.91512644935E+03 0.  0.
         23    2    4    4    0    0 -0.42328148045E+03  0.23384674358E+03 -0.45622020459E+03  0.67102328004E+03  0.91015691562E+02 0.  0.
         23    2    4    4    0    0  0.24136599923E+03 -0.28670819223E+03 -0.86796130409E+03  0.94971749543E+03  0.90262742347E+02 0.  0.
          4    1    3    3  502    0  0.58222850078E+02  0.56798296242E+02  0.44763103227E+02  0.92842243282E+02  0.00000000000E+00 0. -1.
         -3    1    3    3    0  502  0.12369263114E+03 -0.39368475967E+01  0.93187515994E+02  0.15491700651E+03  0.00000000000E+00 0.  1.
         11    1    5    5    0    0 -0.21838671576E+03  0.16783220936E+03 -0.28082477404E+03  0.39334839752E+03  0.00000000000E+00 0.  1.
        -11    1    5    5    0    0 -0.20489476469E+03  0.66014534225E+02 -0.17539543055E+03  0.27767488252E+03  0.00000000000E+00 0. -1.
          2    1    6    6  503    0  0.54763663750E+02 -0.24020268144E+02 -0.94613396813E+02  0.11192732913E+03  0.00000000000E+00 0.  1.
         -2    1    6    6    0  503  0.18660233548E+03 -0.26268792408E+03 -0.77334790728E+03  0.83779016631E+03  0.00000000000E+00 0. -1.
<mgrwt>
<rscale>  0 0.14436581E+04</rscale>
<asrwt>0</asrwt>
<pdfrwt beam="1">  1        2 0.23497930E+00 0.14436581E+04</pdfrwt>
<pdfrwt beam="2">  1       -1 0.52482241E-01 0.14436581E+04</pdfrwt>
<totfact> 0.49536532E+01</totfact>
</mgrwt>
</event>
<event>
12    6  0.1647231E-007  0.2884893E+04  0.7818608E-02  0.8277386E-01
          2   -1    0    0  501    0  0.00000000000E+00  0.00000000000E+00  0.31104473685E+04  0.31104473685E+04  0.00000000000E+00 0. -1.
         -1   -1    0    0    0  501 -0.00000000000E+00 -0.00000000000E+00 -0.66892366579E+03  0.66892366579E+03  0.00000000000E+00 0.  1.
         24    2    1    2    0    0  0.71535460410E+03  0.49512589792E+03  0.23842711803E+04  0.25388249297E+04  0.63254236876E+02 0.  0.
        254    2    1    2    0    0 -0.71535460410E+03 -0.49512589792E+03  0.57252522408E+02  0.12405461045E+04  0.88249358167E+03 0.  0.
         23    2    4    4    0    0 -0.77092381662E+03 -0.52949086903E+03 -0.19867802647E+03  0.96033896902E+03  0.89965914652E+02 0.  0.
         23    2    4    4    0    0  0.55569212518E+02  0.34364971106E+02  0.25593054888E+03  0.28020713549E+03  0.93523816823E+02 0.  0.
          4    1    3    3  502    0  0.44191326978E+03  0.28826348909E+03  0.15235947192E+04  0.16123659775E+04  0.00000000000E+00 0. -1.
         -3    1    3    3    0  502  0.27344133433E+03  0.20686240883E+03  0.86067646106E+03  0.92645895221E+03  0.00000000000E+00 0.  1.
         11    1    5    5    0    0 -0.95749204490E+01 -0.12419196535E+02  0.72043647197E+01  0.17257416237E+02  0.00000000000E+00 0.  1.
        -11    1    5    5    0    0 -0.76134889617E+03 -0.51707167249E+03 -0.20588239119E+03  0.94308155278E+03  0.00000000000E+00 0. -1.
          3    1    6    6  503    0  0.69846519907E+02  0.32247529436E+02  0.11391087904E+03  0.13745591242E+03  0.00000000000E+00 0. -1.
         -3    1    6    6    0  503 -0.14277307388E+02  0.21174416702E+01  0.14201966984E+03  0.14275122307E+03  0.00000000000E+00 0.  1.
<mgrwt>
<rscale>  0 0.28848930E+04</rscale>
<asrwt>0</asrwt>
<pdfrwt beam="1">  1        2 0.47853036E+00 0.28848930E+04</pdfrwt>
<pdfrwt beam="2">  1       -1 0.10291133E+00 0.28848930E+04</pdfrwt>
<totfact> 0.12973881E+00</totfact>
</mgrwt>
</event>
<event>
12    6  0.1647231E-007  0.1496377E+04  0.7818608E-02  0.8886866E-01
          2   -1    0    0  501    0  0.00000000000E+00  0.00000000000E+00  0.32144750006E+03  0.32144750006E+03  0.00000000000E+00 0. -1.
         -1   -1    0    0    0  501 -0.00000000000E+00 -0.00000000000E+00 -0.17414534692E+04  0.17414534692E+04  0.00000000000E+00 0.  1.
         24    2    1    2    0    0  0.42829898491E+02  0.42584936563E+03 -0.71028649572E+03  0.83391355004E+03  0.87879579647E+02 0.  0.
        254    2    1    2    0    0 -0.42829898491E+02 -0.42584936563E+03 -0.70971947337E+03  0.12289874192E+04  0.90748347820E+03 0.  0.
         23    2    4    4    0    0  0.79150051954E+02 -0.65130732393E+03 -0.68765481192E+03  0.95491478567E+03  0.92342550330E+02 0.  0.
         23    2    4    4    0    0 -0.12197995045E+03  0.22545795829E+03 -0.22064661447E+02  0.27407263351E+03  0.94438127289E+02 0.  0.
          4    1    3    3  502    0 -0.25242599803E+02  0.15459051542E+03 -0.23399380483E+03  0.28158216741E+03  0.00000000000E+00 0. -1.
         -3    1    3    3    0  502  0.68072498295E+02  0.27125885021E+03 -0.47629269090E+03  0.55233138263E+03  0.00000000000E+00 0.  1.
         11    1    5    5    0    0 -0.77474011565E+01 -0.20338084403E+03 -0.25345307115E+03  0.32505730144E+03  0.00000000000E+00 0.  1.
        -11    1    5    5    0    0  0.86897453110E+02 -0.44792647990E+03 -0.43420174077E+03  0.62985748423E+03  0.00000000000E+00 0. -1.
          3    1    6    6  503    0 -0.12525793532E+03  0.16179697968E+03 -0.38582411448E+02  0.20822203406E+03  0.00000000000E+00 0. -1.
         -3    1    6    6    0  503  0.32779848769E+01  0.63660978615E+02  0.16517750001E+02  0.65850599452E+02  0.00000000000E+00 0.  1.
<mgrwt>
<rscale>  0 0.14963768E+04</rscale>
<asrwt>0</asrwt>
<pdfrwt beam="1">  1        2 0.49453462E-01 0.14963768E+04</pdfrwt>
<pdfrwt beam="2">  1       -1 0.26791592E+00 0.14963768E+04</pdfrwt>
<totfact> 0.60019023E+00</totfact>
</mgrwt>
</event>
<event>
12    6  0.1647231E-007  0.3778260E+04  0.7818608E-02  0.8050836E-01
         -1   -1    0    0    0  501 -0.00000000000E+00  0.00000000000E+00  0.11753783098E+04  0.11753783098E+04  0.00000000000E+00 0.  1.
          2   -1    0    0  501    0  0.00000000000E+00 -0.00000000000E+00 -0.30363087389E+04  0.30363087389E+04  0.00000000000E+00 0. -1.
         24    2    1    2    0    0 -0.14428444688E+03  0.17732792434E+04 -0.10071606743E+04  0.20459748217E+04  0.79391879384E+02 0.  0.
        254    2    1    2    0    0  0.14428444688E+03 -0.17732792434E+04 -0.85376975477E+03  0.21657122270E+04  0.89221599361E+03 0.  0.
         23    2    4    4    0    0 -0.24546696545E+01 -0.11764649134E+04 -0.97739120646E+03  0.15323114144E+04  0.92784601915E+02 0.  0.
         23    2    4    4    0    0  0.14673911653E+03 -0.59681433001E+03  0.12362145170E+03  0.63340081259E+03  0.90524103149E+02 0.  0.
          2    1    3    3  502    0 -0.15262524605E+03  0.15712700335E+04 -0.89826579435E+03  0.18163329599E+04  0.00000000000E+00 0. -1.
         -1    1    3    3    0  502  0.83407991778E+01  0.20200920993E+03 -0.10889487995E+03  0.22964186184E+03  0.00000000000E+00 0.  1.
         11    1    5    5    0    0  0.32943341924E+02 -0.50426524056E+03 -0.37922787667E+03  0.63180889441E+03  0.00000000000E+00 0. -1.
        -11    1    5    5    0    0 -0.35398011579E+02 -0.67219967288E+03 -0.59816332980E+03  0.90050252001E+03  0.00000000000E+00 0.  1.
          3    1    6    6  503    0  0.37337667778E+01 -0.73063672945E+02 -0.11141740621E+02  0.74002565514E+02  0.00000000000E+00 0. -1.
         -3    1    6    6    0  503  0.14300534975E+03 -0.52375065706E+03  0.13476319232E+03  0.55939824708E+03  0.00000000000E+00 0.  1.
<mgrwt>
<rscale>  0 0.37782596E+04</rscale>
<asrwt>0</asrwt>
<pdfrwt beam="1">  1        2 0.46712442E+00 0.37782596E+04</pdfrwt>
<pdfrwt beam="2">  1       -1 0.18082743E+00 0.37782596E+04</pdfrwt>
<totfact> 0.30907259E-01</totfact>
</mgrwt>
</event>
<event>
12    6  0.1647231E-007  0.1690015E+04  0.7818608E-02  0.8767080E-01
          2   -1    0    0  501    0  0.00000000000E+00  0.00000000000E+00  0.81097657435E+03  0.81097657435E+03  0.00000000000E+00 0. -1.
         -1   -1    0    0    0  501 -0.00000000000E+00 -0.00000000000E+00 -0.88046606817E+03  0.88046606817E+03  0.00000000000E+00 0.  1.
         24    2    1    2    0    0 -0.20364319208E+03 -0.40036769503E+03 -0.42529898738E+03  0.62365483444E+03  0.79380620715E+02 0.  0.
        254    2    1    2    0    0  0.20364319208E+03  0.40036769503E+03  0.35580949356E+03  0.10677878081E+04  0.90100253411E+03 0.  0.
         23    2    4    4    0    0  0.34007163893E+03  0.11865722207E+03  0.56778214234E+03  0.67873865716E+03  0.92635563437E+02 0.  0.
         23    2    4    4    0    0 -0.13642844686E+03  0.28171047296E+03 -0.21197264877E+03  0.38904915092E+03  0.91941972564E+02 0.  0.
          4    1    3    3  502    0 -0.71208694881E+02 -0.18556657568E+03 -0.23383522205E+03  0.30689500372E+03  0.00000000000E+00 0. -1.
         -3    1    3    3    0  502 -0.13243449720E+03 -0.21480111935E+03 -0.19146376533E+03  0.31675983072E+03  0.00000000000E+00 0.  1.
         11    1    5    5    0    0  0.29993656332E+03  0.70191830270E+02  0.45245878418E+03  0.54736440004E+03  0.00000000000E+00 0. -1.
        -11    1    5    5    0    0  0.40135075615E+02  0.48465391804E+02  0.11532335816E+03  0.13137425712E+03  0.00000000000E+00 0.  1.
          1    1    6    6  503    0 -0.14367507753E+03  0.25644801574E+03 -0.21257337283E+03  0.36276101158E+03  0.00000000000E+00 0. -1.
         -1    1    6    6    0  503  0.72466306775E+01  0.25262457218E+02  0.60072406096E+00  0.26288139346E+02  0.00000000000E+00 0.  1.
<mgrwt>
<rscale>  0 0.16900146E+04</rscale>
<asrwt>0</asrwt>
<pdfrwt beam="1">  1        2 0.12476563E+00 0.16900146E+04</pdfrwt>
<pdfrwt beam="2">  1       -1 0.13545632E+00 0.16900146E+04</pdfrwt>
<totfact> 0.16794211E+01</totfact>
</mgrwt>
</event>
<event>
12    6  0.1647231E-007  0.1318385E+04  0.7818608E-02  0.9015111E-01
          2   -1    0    0  501    0  0.00000000000E+00  0.00000000000E+00  0.10027661860E+04  0.10027661860E+04  0.00000000000E+00 0. -1.
         -1   -1    0    0    0  501 -0.00000000000E+00 -0.00000000000E+00 -0.43333620914E+03  0.43333620914E+03  0.00000000000E+00 0.  1.
         24    2    1    2    0    0 -0.11913317646E+03  0.23183582022E+03 -0.11578023236E+03  0.29550730523E+03  0.77323631372E+02 0.  0.
        254    2    1    2    0    0  0.11913317646E+03 -0.23183582022E+03  0.68521020927E+03  0.11405950900E+04  0.87378691170E+03 0.  0.
         23    2    4    4    0    0  0.45117068028E+03 -0.64564954938E+02  0.16254818179E+03  0.49248253836E+03  0.91616172333E+02 0.  0.
         23    2    4    4    0    0 -0.33203750383E+03 -0.16727086528E+03  0.52266202748E+03  0.64811255159E+03  0.92982999717E+02 0.  0.
          2    1    3    3  502    0  0.91728275798E+01  0.57351413922E+01  0.24715152272E+00  0.10820984081E+02  0.00000000000E+00 0. -1.
         -1    1    3    3    0  502 -0.12830600404E+03  0.22610067883E+03 -0.11602738388E+03  0.28468632115E+03  0.00000000000E+00 0.  1.
         11    1    5    5    0    0  0.28946617461E+02  0.18758037761E+02  0.13374820327E+02  0.36995357301E+02  0.00000000000E+00 0. -1.
        -11    1    5    5    0    0  0.42222406282E+03 -0.83322992699E+02  0.14917336146E+03  0.45548718106E+03  0.00000000000E+00 0.  1.
          1    1    6    6  503    0 -0.71847600639E+02 -0.26724270217E+02  0.17904005758E+03  0.19476038240E+03  0.00000000000E+00 0. -1.
         -1    1    6    6    0  503 -0.26018990319E+03 -0.14054659507E+03  0.34362196990E+03  0.45335216919E+03  0.00000000000E+00 0.  1.
<mgrwt>
<rscale>  0 0.13183852E+04</rscale>
<asrwt>0</asrwt>
<pdfrwt beam="1">  1        2 0.15427172E+00 0.13183852E+04</pdfrwt>
<pdfrwt beam="2">  1       -1 0.66667109E-01 0.13183852E+04</pdfrwt>
<totfact> 0.63873578E+01</totfact>
</mgrwt>
</event>
<event>
12    6  0.1647231E-007  0.2171696E+04  0.7818608E-02  0.8530302E-01
          2   -1    0    0  501    0  0.00000000000E+00  0.00000000000E+00  0.13148587054E+04  0.13148587054E+04  0.00000000000E+00 0. -1.
         -1   -1    0    0    0  501 -0.00000000000E+00 -0.00000000000E+00 -0.89672465934E+03  0.89672465934E+03  0.00000000000E+00 0.  1.
         24    2    1    2    0    0 -0.55485068342E+03 -0.15886809012E+03  0.87355354343E+03  0.10500007930E+04  0.79419903286E+02 0.  0.
        254    2    1    2    0    0  0.55485068342E+03  0.15886809012E+03 -0.45541949732E+03  0.11615825718E+04  0.89931574080E+03 0.  0.
         23    2    4    4    0    0  0.20473252265E+03  0.30734793922E+03 -0.62719568031E+03  0.73394270263E+03  0.94442086811E+02 0.  0.
         23    2    4    4    0    0  0.35011816078E+03 -0.14847984910E+03  0.17177618299E+03  0.42763986919E+03  0.93486943392E+02 0.  0.
          4    1    3    3  502    0 -0.39184734940E+03 -0.10507821173E+03  0.54629847004E+03  0.68046145679E+03  0.00000000000E+00 0. -1.
         -3    1    3    3    0  502 -0.16300333402E+03 -0.53789878397E+02  0.32725507340E+03  0.36953933618E+03  0.00000000000E+00 0.  1.
         11    1    5    5    0    0  0.15105669397E+03  0.18973814807E+03 -0.48170618421E+03  0.53931395080E+03  0.00000000000E+00 0. -1.
        -11    1    5    5    0    0  0.53675828677E+02  0.11760979115E+03 -0.14548949610E+03  0.19462875182E+03  0.00000000000E+00 0.  1.
          3    1    6    6  503    0  0.30197274987E+03 -0.10079583012E+03  0.11260584229E+03  0.33767945859E+03  0.00000000000E+00 0. -1.
         -3    1    6    6    0  503  0.48145410902E+02 -0.47684018975E+02  0.59170340700E+02  0.89960410599E+02  0.00000000000E+00 0.  1.
<mgrwt>
<rscale>  0 0.21716963E+04</rscale>
<asrwt>0</asrwt>
<pdfrwt beam="1">  1        2 0.20228596E+00 0.21716963E+04</pdfrwt>
<pdfrwt beam="2">  1       -1 0.13795764E+00 0.21716963E+04</pdfrwt>
<totfact> 0.73703955E+00</totfact>
</mgrwt>
</event>
<event>
12    6  0.1647231E-007  0.1851860E+04  0.7818608E-02  0.8679197E-01
         -1   -1    0    0    0  501 -0.00000000000E+00  0.00000000000E+00  0.41612108098E+03  0.41612108098E+03  0.00000000000E+00 0.  1.
          2   -1    0    0  501    0  0.00000000000E+00 -0.00000000000E+00 -0.20603291180E+04  0.20603291180E+04  0.00000000000E+00 0. -1.
         24    2    1    2    0    0 -0.12005895999E+03  0.17789724784E+03  0.26723680090E+03  0.35194357739E+03  0.79919892696E+02 0.  0.
        254    2    1    2    0    0  0.12005895999E+03 -0.17789724784E+03 -0.19114448379E+04  0.21245066216E+04  0.90213382161E+03 0.  0.
         23    2    4    4    0    0 -0.19772805356E+03 -0.43524536902E+03 -0.12537972012E+04  0.13447545512E+04  0.88444710203E+02 0.  0.
         23    2    4    4    0    0  0.31778701355E+03  0.25734812118E+03 -0.65764763668E+03  0.77975207037E+03  0.91083674532E+02 0.  0.
          4    1    3    3  502    0  0.41440637203E+01  0.40618567770E+02  0.28287351551E+02  0.49671073771E+02  0.00000000000E+00 0. -1.
         -1    1    3    3    0  502 -0.12420302371E+03  0.13727868007E+03  0.23894944935E+03  0.30227250362E+03  0.00000000000E+00 0.  1.
         11    1    5    5    0    0 -0.16247125734E+03 -0.38935191340E+03 -0.11622016841E+04  0.12364079328E+04  0.00000000000E+00 0.  1.
        -11    1    5    5    0    0 -0.35256796215E+02 -0.45893455618E+02 -0.91595517157E+02  0.10834661837E+03  0.00000000000E+00 0. -1.
          2    1    6    6  503    0  0.20958427388E+03  0.11223207624E+03 -0.36186156075E+03  0.43297274272E+03  0.00000000000E+00 0. -1.
         -2    1    6    6    0  503  0.10820273967E+03  0.14511604493E+03 -0.29578607593E+03  0.34677932765E+03  0.00000000000E+00 0.  1.
<mgrwt>
<rscale>  0 0.18518600E+04</rscale>
<asrwt>0</asrwt>
<pdfrwt beam="1">  1        2 0.31697371E+00 0.18518600E+04</pdfrwt>
<pdfrwt beam="2">  1       -1 0.64018627E-01 0.18518600E+04</pdfrwt>
<totfact> 0.16381242E+01</totfact>
</mgrwt>
</event>
<event>
12    6  0.1647231E-007  0.2056457E+04  0.7818608E-02  0.8580671E-01
          2   -1    0    0  501    0  0.00000000000E+00  0.00000000000E+00  0.15707669750E+04  0.15707669750E+04  0.00000000000E+00 0. -1.
         -3   -1    0    0    0  501 -0.00000000000E+00 -0.00000000000E+00 -0.67308138471E+03  0.67308138471E+03  0.00000000000E+00 0.  1.
         24    2    1    2    0    0 -0.53769586050E+03  0.41813927521E+03  0.87362974838E+03  0.11106976928E+04  0.80393629159E+02 0.  0.
        254    2    1    2    0    0  0.53769586050E+03 -0.41813927521E+03  0.24055841888E+02  0.11331506669E+04  0.90525933220E+03 0.  0.
         23    2    4    4    0    0  0.51304552865E+03 -0.67365029372E+03 -0.41868436384E+02  0.85406735127E+03  0.10323585537E+03 0.  0.
         23    2    4    4    0    0  0.24650331852E+02  0.25551101851E+03  0.65924278272E+02  0.27908331565E+03  0.87452656742E+02 0.  0.
          4    1    3    3  502    0 -0.45025841927E+03  0.30929267629E+03  0.69588244190E+03  0.88467337287E+03  0.00000000000E+00 0. -1.
         -3    1    3    3    0  502 -0.87437441237E+02  0.10884659892E+03  0.17774730648E+03  0.22602431990E+03  0.00000000000E+00 0.  1.
         11    1    5    5    0    0  0.84397661662E+02 -0.10240614702E+03  0.30695232725E+02  0.13620639322E+03  0.00000000000E+00 0.  1.
        -11    1    5    5    0    0  0.42864786699E+03 -0.57124414670E+03 -0.72563669108E+02  0.71786095805E+03  0.00000000000E+00 0. -1.
          1    1    6    6  503    0  0.56523119147E+02  0.18864468033E+03  0.43346787106E+02  0.20164479256E+03  0.00000000000E+00 0. -1.
         -1    1    6    6    0  503 -0.31872787295E+02  0.66866338175E+02  0.22577491165E+02  0.77438523089E+02  0.00000000000E+00 0.  1.
<mgrwt>
<rscale>  0 0.20564572E+04</rscale>
<asrwt>0</asrwt>
<pdfrwt beam="1">  1        2 0.24165646E+00 0.20564572E+04</pdfrwt>
<pdfrwt beam="2">  1       -3 0.10355098E+00 0.20564572E+04</pdfrwt>
<totfact> 0.54855466E+00</totfact>
</mgrwt>
</event>
<event>
12    6  0.1647231E-007  0.1863983E+04  0.7818608E-02  0.8672995E-01
         -1   -1    0    0    0  501 -0.00000000000E+00  0.00000000000E+00  0.43295718292E+03  0.43295718292E+03  0.00000000000E+00 0.  1.
          2   -1    0    0  501    0  0.00000000000E+00 -0.00000000000E+00 -0.20062211801E+04  0.20062211801E+04  0.00000000000E+00 0. -1.
         24    2    1    2    0    0 -0.60919161703E+03 -0.23706241580E+03 -0.97593906935E+03  0.11772128735E+04  0.77846433385E+02 0.  0.
        254    2    1    2    0    0  0.60919161703E+03  0.23706241580E+03 -0.59732492781E+03  0.12619654895E+04  0.89913670379E+03 0.  0.
         23    2    4    4    0    0  0.27385180466E+03  0.86937939486E+02 -0.78431927824E+03  0.84019516845E+03  0.90654148464E+02 0.  0.
         23    2    4    4    0    0  0.33533981237E+03  0.15012447631E+03  0.18699435043E+03  0.42177032107E+03  0.89068336092E+02 0.  0.
          4    1    3    3  502    0 -0.58590687382E+03 -0.21568386035E+03 -0.90411359856E+03  0.10987391827E+04  0.00000000000E+00 0. -1.
         -3    1    3    3    0  502 -0.23284743212E+02 -0.21378555442E+02 -0.71825470790E+02  0.78473690836E+02  0.00000000000E+00 0.  1.
         11    1    5    5    0    0  0.21818089029E+03  0.85766193454E+02 -0.70741708185E+03  0.74525007113E+03  0.00000000000E+00 0.  1.
        -11    1    5    5    0    0  0.55670914371E+02  0.11717460316E+01 -0.76902196386E+02  0.94945097317E+02  0.00000000000E+00 0. -1.
          3    1    6    6  503    0  0.20281239147E+02 -0.12159833053E+02  0.11097175620E+02  0.26121590839E+02  0.00000000000E+00 0. -1.
         -3    1    6    6    0  503  0.31505857322E+03  0.16228430936E+03  0.17589717481E+03  0.39564873023E+03  0.00000000000E+00 0.  1.
<mgrwt>
<rscale>  0 0.18639827E+04</rscale>
<asrwt>0</asrwt>
<pdfrwt beam="1">  1        2 0.30864941E+00 0.18639827E+04</pdfrwt>
<pdfrwt beam="2">  1       -1 0.66608798E-01 0.18639827E+04</pdfrwt>
<totfact> 0.16189771E+01</totfact>
</mgrwt>
</event>
<event>
12    6  0.1647231E-007  0.3556915E+04  0.7818608E-02  0.8100433E-01
         -1   -1    0    0    0  501 -0.00000000000E+00  0.00000000000E+00  0.21044560387E+04  0.21044560387E+04  0.00000000000E+00 0.  1.
          2   -1    0    0  501    0  0.00000000000E+00 -0.00000000000E+00 -0.15029588723E+04  0.15029588723E+04  0.00000000000E+00 0. -1.
         24    2    1    2    0    0 -0.54114923602E+03  0.20326820389E+03 -0.13024933293E+04  0.14272471454E+04  0.79906712558E+02 0.  0.
        254    2    1    2    0    0  0.54114923602E+03 -0.20326820389E+03  0.19039904958E+04  0.21801677656E+04  0.89094961681E+03 0.  0.
         23    2    4    4    0    0  0.72492852261E+02  0.14949050594E+03  0.13640801599E+04  0.13773240570E+04  0.93296572017E+02 0.  0.
         23    2    4    4    0    0  0.46865638376E+03 -0.35275870983E+03  0.53991033593E+03  0.80284370863E+03  0.94748806014E+02 0.  0.
          2    1    3    3  502    0 -0.52112252024E+03  0.18270635737E+03 -0.12627846752E+04  0.13782508589E+04  0.00000000000E+00 0. -1.
         -1    1    3    3    0  502 -0.20026715783E+02  0.20561846524E+02 -0.39708654135E+02  0.48996286499E+02  0.00000000000E+00 0.  1.
         11    1    5    5    0    0  0.85400369284E+02  0.87341607647E+02  0.73882902713E+03  0.74885920628E+03  0.00000000000E+00 0. -1.
        -11    1    5    5    0    0 -0.12907517023E+02  0.62148898293E+02  0.62525113276E+03  0.62846485070E+03  0.00000000000E+00 0.  1.
          4    1    6    6  503    0  0.19165676232E+03 -0.18018777217E+03  0.19096755779E+03  0.32506700219E+03  0.00000000000E+00 0. -1.
         -4    1    6    6    0  503  0.27699962144E+03 -0.17257093766E+03  0.34894277813E+03  0.47777670644E+03  0.00000000000E+00 0.  1.
<mgrwt>
<rscale>  0 0.35569149E+04</rscale>
<asrwt>0</asrwt>
<pdfrwt beam="1">  1        2 0.23122444E+00 0.35569149E+04</pdfrwt>
<pdfrwt beam="2">  1       -1 0.32376247E+00 0.35569149E+04</pdfrwt>
<totfact> 0.27227839E-01</totfact>
</mgrwt>
</event>
<event>
12    6  0.1647231E-007  0.2069099E+04  0.7818608E-02  0.8574979E-01
         -1   -1    0    0    0  501 -0.00000000000E+00  0.00000000000E+00  0.39326556266E+03  0.39326556266E+03  0.00000000000E+00 0.  1.
          2   -1    0    0  501    0  0.00000000000E+00 -0.00000000000E+00 -0.27215528635E+04  0.27215528635E+04  0.00000000000E+00 0. -1.
         24    2    1    2    0    0  0.39933880614E+03 -0.18141187113E+03 -0.20289915852E+04  0.20774260044E+04  0.80685823774E+02 0.  0.
        254    2    1    2    0    0 -0.39933880614E+03  0.18141187113E+03 -0.29929571564E+03  0.10373924217E+04  0.89119210168E+03 0.  0.
         23    2    4    4    0    0  0.17011055298E+03  0.63485275717E+02 -0.39197078273E+03  0.44127013983E+03  0.90056989295E+02 0.  0.
         23    2    4    4    0    0 -0.56944935913E+03  0.11792659542E+03  0.92675067097E+02  0.59612228186E+03  0.92703033112E+02 0.  0.
          4    1    3    3  502    0  0.60518487072E+02  0.22541669827E+01 -0.27003185478E+03  0.27673953664E+03  0.00000000000E+00 0. -1.
         -3    1    3    3    0  502  0.33882031907E+03 -0.18366603812E+03 -0.17589597304E+04  0.18006864678E+04  0.00000000000E+00 0.  1.
         11    1    5    5    0    0  0.12193389319E+02  0.16005256953E+02 -0.51529364379E+01  0.20770164832E+02  0.00000000000E+00 0.  1.
        -11    1    5    5    0    0  0.15791716367E+03  0.47480018764E+02 -0.38681784629E+03  0.42049997500E+03  0.00000000000E+00 0. -1.
          2    1    6    6  503    0 -0.41620301658E+03  0.70255295960E+02  0.10563927714E+03  0.43510965801E+03  0.00000000000E+00 0. -1.
         -2    1    6    6    0  503 -0.15324634255E+03  0.47671299455E+02 -0.12964210038E+02  0.16101262385E+03  0.00000000000E+00 0.  1.
<mgrwt>
<rscale>  0 0.20690993E+04</rscale>
<asrwt>0</asrwt>
<pdfrwt beam="1">  1        2 0.41870042E+00 0.20690993E+04</pdfrwt>
<pdfrwt beam="2">  1       -1 0.60502398E-01 0.20690993E+04</pdfrwt>
<totfact> 0.75166319E+00</totfact>
</mgrwt>
</event>
<event>
12    6  0.1647231E-007  0.1947968E+04  0.7818608E-02  0.8631341E-01
          2   -1    0    0  501    0  0.00000000000E+00  0.00000000000E+00  0.78186719977E+03  0.78186719977E+03  0.00000000000E+00 0. -1.
         -1   -1    0    0    0  501 -0.00000000000E+00 -0.00000000000E+00 -0.12133071227E+04  0.12133071227E+04  0.00000000000E+00 0.  1.
         24    2    1    2    0    0  0.73309451560E+03 -0.82105549324E+02 -0.36420357039E+03  0.82656062085E+03  0.79933279812E+02 0.  0.
        254    2    1    2    0    0 -0.73309451560E+03  0.82105549324E+02 -0.67236352551E+02  0.11686137016E+04  0.90386302420E+03 0.  0.
         23    2    4    4    0    0 -0.19904727092E+03 -0.38946113036E+03 -0.58999970445E+02  0.45065300886E+03  0.91144663914E+02 0.  0.
         23    2    4    4    0    0 -0.53404724468E+03  0.47156667968E+03 -0.82363821067E+01  0.71796069278E+03  0.88420164268E+02 0.  0.
          2    1    3    3  502    0  0.31188642932E+03 -0.21668221139E+00 -0.13203598883E+03  0.33868376709E+03  0.00000000000E+00 0. -1.
         -1    1    3    3    0  502  0.42120808628E+03 -0.81888867113E+02 -0.23216758156E+03  0.48787685376E+03  0.00000000000E+00 0.  1.
         11    1    5    5    0    0 -0.16067009953E+03 -0.33886075747E+03 -0.80575914278E+02  0.38358046326E+03  0.00000000000E+00 0. -1.
        -11    1    5    5    0    0 -0.38377171387E+02 -0.50600372890E+02  0.21575943833E+02  0.67072545595E+02  0.00000000000E+00 0.  1.
          3    1    6    6  503    0 -0.44755771554E+03  0.34956890212E+03  0.40539324910E+01  0.56791087367E+03  0.00000000000E+00 0. -1.
         -3    1    6    6    0  503 -0.86489529144E+02  0.12199777756E+03 -0.12290314598E+02  0.15004981911E+03  0.00000000000E+00 0.  1.
<mgrwt>
<rscale>  0 0.19479682E+04</rscale>
<asrwt>0</asrwt>
<pdfrwt beam="1">  1        2 0.12028726E+00 0.19479682E+04</pdfrwt>
<pdfrwt beam="2">  1       -1 0.18666263E+00 0.19479682E+04</pdfrwt>
<totfact> 0.70531503E+00</totfact>
</mgrwt>
</event>
<event>
12    6  0.1647231E-007  0.2852912E+04  0.7818608E-02  0.8287027E-01
          2   -1    0    0  501    0  0.00000000000E+00  0.00000000000E+00  0.24928899985E+04  0.24928899985E+04  0.00000000000E+00 0. -1.
         -3   -1    0    0    0  501 -0.00000000000E+00 -0.00000000000E+00 -0.81623201538E+03  0.81623201538E+03  0.00000000000E+00 0.  1.
         24    2    1    2    0    0  0.13491714736E+03 -0.34607526138E+03 -0.66759684230E+03  0.76813724298E+03  0.79865868806E+02 0.  0.
        254    2    1    2    0    0 -0.13491714736E+03  0.34607526138E+03  0.23442548255E+04  0.25409847709E+04  0.90724979815E+03 0.  0.
         23    2    4    4    0    0  0.10469267883E+03  0.29002751518E+03  0.19699863750E+03  0.37776658236E+03  0.93928754977E+02 0.  0.
         23    2    4    4    0    0 -0.23960982619E+03  0.56047746201E+02  0.21472561880E+04  0.21632181886E+04  0.90827176423E+02 0.  0.
          2    1    3    3  502    0  0.11970199644E+01 -0.21903757179E+02 -0.12916848055E+02  0.25456873316E+02  0.00000000000E+00 0. -1.
         -1    1    3    3    0  502  0.13372012739E+03 -0.32417150420E+03 -0.65467999425E+03  0.74268036966E+03  0.00000000000E+00 0.  1.
         11    1    5    5    0    0  0.66483892526E+02  0.22612691192E+03  0.10136989677E+03  0.25657229825E+03  0.00000000000E+00 0. -1.
        -11    1    5    5    0    0  0.38208786307E+02  0.63900603261E+02  0.95628740724E+02  0.12119428411E+03  0.00000000000E+00 0.  1.
          1    1    6    6  503    0 -0.24113355690E+03  0.40924893183E+02  0.19308714265E+04  0.19463002607E+04  0.00000000000E+00 0. -1.
         -1    1    6    6    0  503  0.15237307039E+01  0.15122853019E+02  0.21638476144E+03  0.21691792785E+03  0.00000000000E+00 0.  1.
<mgrwt>
<rscale>  0 0.28529119E+04</rscale>
<asrwt>0</asrwt>
<pdfrwt beam="1">  1        2 0.38352153E+00 0.28529119E+04</pdfrwt>
<pdfrwt beam="2">  1       -3 0.12557416E+00 0.28529119E+04</pdfrwt>
<totfact> 0.98113313E-01</totfact>
</mgrwt>
</event>
<event>
12    6  0.1647231E-007  0.1664948E+04  0.7818608E-02  0.8781612E-01
         -1   -1    0    0    0  501 -0.00000000000E+00  0.00000000000E+00  0.99935831496E+03  0.99935831496E+03  0.00000000000E+00 0.  1.
          2   -1    0    0  501    0  0.00000000000E+00 -0.00000000000E+00 -0.69345757590E+03  0.69345757590E+03  0.00000000000E+00 0. -1.
         24    2    1    2    0    0 -0.11619803801E+03  0.49387818588E+03 -0.18492922477E+03  0.54571240637E+03  0.78648367839E+02 0.  0.
        254    2    1    2    0    0  0.11619803801E+03 -0.49387818588E+03  0.49082996384E+03  0.11471034845E+04  0.90416519741E+03 0.  0.
         23    2    4    4    0    0 -0.20157599662E+02 -0.22933535041E+03 -0.24478082375E+03  0.34833489759E+03  0.91752479178E+02 0.  0.
         23    2    4    4    0    0  0.13635563768E+03 -0.26454283547E+03  0.73561078759E+03  0.79876858690E+03  0.91281174845E+02 0.  0.
          2    1    3    3  502    0 -0.11427640853E+03  0.48123408683E+03 -0.19260813901E+03  0.53079491246E+03  0.00000000000E+00 0. -1.
         -1    1    3    3    0  502 -0.19216294861E+01  0.12644099045E+02  0.76789142449E+01  0.14917493909E+02  0.00000000000E+00 0.  1.
         11    1    5    5    0    0 -0.29696327375E+02 -0.42155678782E+02 -0.96253135165E+02  0.10919541722E+03  0.00000000000E+00 0. -1.
        -11    1    5    5    0    0  0.95387277131E+01 -0.18717967163E+03 -0.14852768859E+03  0.23913948037E+03  0.00000000000E+00 0.  1.
          3    1    6    6  503    0  0.29563101343E+02 -0.22988242611E+02  0.40430914204E+02  0.55109845606E+02  0.00000000000E+00 0. -1.
         -3    1    6    6    0  503  0.10679253633E+03 -0.24155459286E+03  0.69517987338E+03  0.74365874129E+03  0.00000000000E+00 0.  1.
<mgrwt>
<rscale>  0 0.16649476E+04</rscale>
<asrwt>0</asrwt>
<pdfrwt beam="1">  1        2 0.10668578E+00 0.16649476E+04</pdfrwt>
<pdfrwt beam="2">  1       -1 0.15374743E+00 0.16649476E+04</pdfrwt>
<totfact> 0.14742984E+01</totfact>
</mgrwt>
</event>
<event>
12    6  0.1647231E-007  0.2443791E+04  0.7818608E-02  0.8423288E-01
          2   -1    0    0  501    0  0.00000000000E+00  0.00000000000E+00  0.10641280130E+04  0.10641280130E+04  0.00000000000E+00 0. -1.
         -1   -1    0    0    0  501 -0.00000000000E+00 -0.00000000000E+00 -0.14030535278E+04  0.14030535278E+04  0.00000000000E+00 0.  1.
         24    2    1    2    0    0 -0.50209416002E+03 -0.47166458676E+02  0.78489915406E+03  0.93638662341E+03  0.80187318848E+02 0.  0.
        254    2    1    2    0    0  0.50209416002E+03  0.47166458676E+02 -0.11238246688E+04  0.15307949174E+04  0.90886081029E+03 0.  0.
         23    2    4    4    0    0  0.22192611987E+03  0.33594691948E+03 -0.97910193539E+02  0.42441031964E+03  0.91794215673E+02 0.  0.
         23    2    4    4    0    0  0.28016804016E+03 -0.28878046080E+03 -0.10259144753E+04  0.11063845977E+04  0.98478841691E+02 0.  0.
          4    1    3    3  502    0 -0.40200606299E+03 -0.12617432663E+02  0.65712576903E+03  0.77044295740E+03  0.00000000000E+00 0. -1.
         -3    1    3    3    0  502 -0.10008809704E+03 -0.34549026012E+02  0.12777338503E+03  0.16594366601E+03  0.00000000000E+00 0.  1.
         11    1    5    5    0    0  0.99726770106E+02  0.20792801741E+03 -0.21387955642E+02  0.23159648906E+03  0.00000000000E+00 0.  1.
        -11    1    5    5    0    0  0.12219934976E+03  0.12801890207E+03 -0.76522237897E+02  0.19281383058E+03  0.00000000000E+00 0. -1.
          1    1    6    6  503    0  0.16629298812E+02 -0.35907805524E+02 -0.46346522410E+02  0.60941810082E+02  0.00000000000E+00 0. -1.
         -1    1    6    6    0  503  0.26353874135E+03 -0.25287265528E+03 -0.97956795286E+03  0.10454427877E+04  0.00000000000E+00 0.  1.
<mgrwt>
<rscale>  0 0.24437910E+04</rscale>
<asrwt>0</asrwt>
<pdfrwt beam="1">  1        2 0.16371200E+00 0.24437910E+04</pdfrwt>
<pdfrwt beam="2">  1       -1 0.21585439E+00 0.24437910E+04</pdfrwt>
<totfact> 0.27490330E+00</totfact>
</mgrwt>
</event>
<event>
12    6  0.1647231E-007  0.1362175E+04  0.7818608E-02  0.8981663E-01
         -1   -1    0    0    0  501 -0.00000000000E+00  0.00000000000E+00  0.19892853264E+03  0.19892853264E+03  0.00000000000E+00 0.  1.
          2   -1    0    0  501    0  0.00000000000E+00 -0.00000000000E+00 -0.23318921508E+04  0.23318921508E+04  0.00000000000E+00 0. -1.
         24    2    1    2    0    0 -0.22703380898E+03  0.29040458396E+03 -0.76852216393E+03  0.85595148302E+03  0.78405688723E+02 0.  0.
        254    2    1    2    0    0  0.22703380898E+03 -0.29040458396E+03 -0.13644414543E+04  0.16748692004E+04  0.89866967442E+03 0.  0.
         23    2    4    4    0    0 -0.12200232947E+03 -0.44818796271E+03 -0.11077462842E+04  0.12046553288E+04  0.91299576797E+02 0.  0.
         23    2    4    4    0    0  0.34903613845E+03  0.15778337875E+03 -0.25669517010E+03  0.47021387169E+03  0.92124123998E+02 0.  0.
          4    1    3    3  502    0 -0.31088936568E+02  0.64135546732E+02 -0.21751018457E+03  0.22888986593E+03  0.00000000000E+00 0. -1.
         -3    1    3    3    0  502 -0.19594487241E+03  0.22626903723E+03 -0.55101197936E+03  0.62706161709E+03  0.00000000000E+00 0.  1.
         11    1    5    5    0    0 -0.10398071805E+03 -0.37311282045E+03 -0.99750738827E+03  0.10700682951E+04  0.00000000000E+00 0.  1.
        -11    1    5    5    0    0 -0.18021611417E+02 -0.75075142265E+02 -0.11023889588E+03  0.13458703366E+03  0.00000000000E+00 0. -1.
          4    1    6    6  503    0 -0.57258453679E+01  0.51903133224E+01 -0.40293297585E+01  0.87155123696E+01  0.00000000000E+00 0. -1.
         -4    1    6    6    0  503  0.35476198382E+03  0.15259306543E+03 -0.25266584034E+03  0.46149835933E+03  0.00000000000E+00 0.  1.
<mgrwt>
<rscale>  0 0.13621746E+04</rscale>
<asrwt>0</asrwt>
<pdfrwt beam="1">  1        2 0.35875267E+00 0.13621746E+04</pdfrwt>
<pdfrwt beam="2">  1       -1 0.30604387E-01 0.13621746E+04</pdfrwt>
<totfact> 0.47743430E+01</totfact>
</mgrwt>
</event>
<event>
12    6  0.1647231E-007  0.1558748E+04  0.7818608E-02  0.8846299E-01
          2   -1    0    0  501    0  0.00000000000E+00  0.00000000000E+00  0.35438761586E+03  0.35438761586E+03  0.00000000000E+00 0. -1.
         -1   -1    0    0    0  501 -0.00000000000E+00 -0.00000000000E+00 -0.17140107754E+04  0.17140107754E+04  0.00000000000E+00 0.  1.
         24    2    1    2    0    0 -0.11967674251E+03  0.46425635460E+03 -0.21500423145E+03  0.53183687331E+03  0.82262718087E+02 0.  0.
        254    2    1    2    0    0  0.11967674251E+03 -0.46425635460E+03 -0.11446189281E+04  0.15365615180E+04  0.90609730295E+03 0.  0.
         23    2    4    4    0    0  0.17935042008E+03 -0.29458884526E+03  0.16777348058E+02  0.35775680424E+03  0.93591082040E+02 0.  0.
         23    2    4    4    0    0 -0.59673677564E+02 -0.16966750933E+03 -0.11613962762E+04  0.11788047137E+04  0.91603664099E+02 0.  0.
          4    1    3    3  502    0 -0.72696279809E+02  0.20325343714E+03 -0.13595492861E+03  0.25510870511E+03  0.00000000000E+00 0. -1.
         -3    1    3    3    0  502 -0.46980462703E+02  0.26100291746E+03 -0.79049302841E+02  0.27672816821E+03  0.00000000000E+00 0.  1.
         11    1    5    5    0    0  0.10422228002E+03 -0.24528144259E+03  0.93391716932E+00  0.26650730184E+03  0.00000000000E+00 0. -1.
        -11    1    5    5    0    0  0.75128140053E+02 -0.49307402674E+02  0.15843430889E+02  0.91249502402E+02  0.00000000000E+00 0.  1.
          1    1    6    6  503    0 -0.11373278488E+02 -0.35625667908E+02 -0.53956151265E+03  0.54085595644E+03  0.00000000000E+00 0. -1.
         -1    1    6    6    0  503 -0.48300399076E+02 -0.13404184143E+03 -0.62183476351E+03  0.63794875728E+03  0.00000000000E+00 0.  1.
<mgrwt>
<rscale>  0 0.15587485E+04</rscale>
<asrwt>0</asrwt>
<pdfrwt beam="1">  1        2 0.54521173E-01 0.15587485E+04</pdfrwt>
<pdfrwt beam="2">  1       -1 0.26369396E+00 0.15587485E+04</pdfrwt>
<totfact> 0.57001451E+00</totfact>
</mgrwt>
</event>
<event>
12    6  0.1647231E-007  0.1099650E+04  0.7818608E-02  0.9205533E-01
          2   -1    0    0  501    0  0.00000000000E+00  0.00000000000E+00  0.36368890121E+04  0.36368890121E+04  0.00000000000E+00 0. -1.
         -1   -1    0    0    0  501 -0.00000000000E+00 -0.00000000000E+00 -0.83122584869E+02  0.83122584869E+02  0.00000000000E+00 0.  1.
         24    2    1    2    0    0 -0.14382011676E+02  0.80333371695E+02  0.10737806789E+04  0.10799290177E+04  0.81126098408E+02 0.  0.
        254    2    1    2    0    0  0.14382011676E+02 -0.80333371695E+02  0.24799857483E+04  0.26400825793E+04  0.90169086776E+03 0.  0.
         23    2    4    4    0    0 -0.17260709537E+03 -0.42043900121E+03  0.17255366324E+04  0.17867011846E+04  0.90897139920E+02 0.  0.
         23    2    4    4    0    0  0.18698910704E+03  0.34010562952E+03  0.75444911588E+03  0.85338139474E+03  0.91812695514E+02 0.  0.
          2    1    3    3  502    0  0.17001899360E+02  0.64534912283E+02  0.90886572608E+03  0.91131263984E+03  0.00000000000E+00 0. -1.
         -1    1    3    3    0  502 -0.31383911035E+02  0.15798459413E+02  0.16491495285E+03  0.16861637781E+03  0.00000000000E+00 0.  1.
         11    1    5    5    0    0 -0.22508184283E+02 -0.14958377029E+02  0.57438806599E+02  0.63479035174E+02  0.00000000000E+00 0. -1.
        -11    1    5    5    0    0 -0.15009891109E+03 -0.40548062418E+03  0.16680978258E+04  0.17232221494E+04  0.00000000000E+00 0.  1.
          3    1    6    6  503    0 -0.76125665326E+00  0.26737902158E+02  0.10384261191E+03  0.10723237838E+03  0.00000000000E+00 0. -1.
         -3    1    6    6    0  503  0.18775036370E+03  0.31336772736E+03  0.65060650397E+03  0.74614901637E+03  0.00000000000E+00 0.  1.
<mgrwt>
<rscale>  0 0.10996502E+04</rscale>
<asrwt>0</asrwt>
<pdfrwt beam="1">  1        2 0.55952127E+00 0.10996502E+04</pdfrwt>
<pdfrwt beam="2">  1       -1 0.12788093E-01 0.10996502E+04</pdfrwt>
<totfact> 0.32429449E+01</totfact>
</mgrwt>
</event>
<event>
12    6  0.1647231E-007  0.1520044E+04  0.7818608E-02  0.8871233E-01
          2   -1    0    0  501    0  0.00000000000E+00  0.00000000000E+00  0.22468177896E+04  0.22468177896E+04  0.00000000000E+00 0. -1.
         -1   -1    0    0    0  501 -0.00000000000E+00 -0.00000000000E+00 -0.25708942455E+03  0.25708942455E+03  0.00000000000E+00 0.  1.
         24    2    1    2    0    0 -0.31033736571E+03 -0.20198099118E+03  0.11395987137E+04  0.12008739121E+04  0.79418657702E+02 0.  0.
        254    2    1    2    0    0  0.31033736571E+03  0.20198099118E+03  0.85012965134E+03  0.13030333020E+04  0.91546150151E+03 0.  0.
         23    2    4    4    0    0 -0.97795597539E+02  0.44330391730E+03  0.60265715039E+03  0.76007252409E+03  0.91827332420E+02 0.  0.
         23    2    4    4    0    0  0.40813296325E+03 -0.24132292612E+03  0.24747250095E+03  0.54296077793E+03  0.93565470570E+02 0.  0.
          2    1    3    3  502    0 -0.14528008226E+03 -0.97661247186E+02  0.66553991215E+03  0.68817686401E+03  0.00000000000E+00 0. -1.
         -3    1    3    3    0  502 -0.16505728345E+03 -0.10431974399E+03  0.47405880153E+03  0.51269704808E+03  0.00000000000E+00 0.  1.
         11    1    5    5    0    0 -0.32667619646E+02  0.33338834343E+03  0.42172387233E+03  0.53857774313E+03  0.00000000000E+00 0. -1.
        -11    1    5    5    0    0 -0.65127977893E+02  0.10991557387E+03  0.18093327806E+03  0.22149478096E+03  0.00000000000E+00 0.  1.
          4    1    6    6  503    0  0.16723542770E+03 -0.11969668025E+03  0.15560767462E+03  0.25789286912E+03  0.00000000000E+00 0. -1.
         -4    1    6    6    0  503  0.24089753555E+03 -0.12162624587E+03  0.91864826327E+02  0.28506790881E+03  0.00000000000E+00 0.  1.
<mgrwt>
<rscale>  0 0.15200435E+04</rscale>
<asrwt>0</asrwt>
<pdfrwt beam="1">  1        2 0.34566426E+00 0.15200435E+04</pdfrwt>
<pdfrwt beam="2">  1       -1 0.39552221E-01 0.15200435E+04</pdfrwt>
<totfact> 0.33238684E+01</totfact>
</mgrwt>
</event>
<event>
12    6  0.1647231E-007  0.2275058E+04  0.7818608E-02  0.8487821E-01
          2   -1    0    0  501    0  0.00000000000E+00  0.00000000000E+00  0.30759076539E+04  0.30759076539E+04  0.00000000000E+00 0. -1.
         -1   -1    0    0    0  501 -0.00000000000E+00 -0.00000000000E+00 -0.42067989335E+03  0.42067989335E+03  0.00000000000E+00 0.  1.
         24    2    1    2    0    0  0.24460553480E+03  0.64056239463E+03  0.21479417518E+04  0.22562056525E+04  0.81597353116E+02 0.  0.
        254    2    1    2    0    0 -0.24460553480E+03 -0.64056239463E+03  0.50728600875E+03  0.12403818948E+04  0.90058653175E+03 0.  0.
         23    2    4    4    0    0 -0.23001980184E+03  0.16510172462E+03  0.28918632302E+02  0.29868953371E+03  0.90617115059E+02 0.  0.
         23    2    4    4    0    0 -0.14585732957E+02 -0.80566411926E+03  0.47836737645E+03  0.94169236107E+03  0.92960956299E+02 0.  0.
          4    1    3    3  502    0  0.23211617710E+03  0.60339649588E+03  0.20751575478E+04  0.21735326313E+04  0.00000000000E+00 0. -1.
         -3    1    3    3    0  502  0.12489357697E+02  0.37165898750E+02  0.72784203999E+02  0.82673021218E+02  0.00000000000E+00 0.  1.
         11    1    5    5    0    0 -0.65213981428E+02  0.44197636562E+02 -0.32562956928E+02  0.85244592880E+02  0.00000000000E+00 0. -1.
        -11    1    5    5    0    0 -0.16480582041E+03  0.12090408806E+03  0.61481589231E+02  0.21344494083E+03  0.00000000000E+00 0.  1.
          2    1    6    6  503    0 -0.35595342782E+02 -0.35000873584E+03  0.24989353611E+03  0.43153206483E+03  0.00000000000E+00 0. -1.
         -2    1    6    6    0  503  0.21009609824E+02 -0.45565538342E+03  0.22847384034E+03  0.51016029624E+03  0.00000000000E+00 0.  1.
<mgrwt>
<rscale>  0 0.22750582E+04</rscale>
<asrwt>0</asrwt>
<pdfrwt beam="1">  1        2 0.47321655E+00 0.22750582E+04</pdfrwt>
<pdfrwt beam="2">  1       -1 0.64719986E-01 0.22750582E+04</pdfrwt>
<totfact> 0.39051573E+00</totfact>
</mgrwt>
</event>
<event>
12    6  0.1647231E-007  0.1722809E+04  0.7818608E-02  0.8748461E-01
          2   -1    0    0  501    0  0.00000000000E+00  0.00000000000E+00  0.31425928295E+04  0.31425928295E+04  0.00000000000E+00 0. -1.
         -1   -1    0    0    0  501 -0.00000000000E+00 -0.00000000000E+00 -0.23611653394E+03  0.23611653394E+03  0.00000000000E+00 0.  1.
         24    2    1    2    0    0 -0.34582121738E+03 -0.18641263527E+03  0.11293569419E+03  0.41617940394E+03  0.78159070230E+02 0.  0.
        254    2    1    2    0    0  0.34582121738E+03  0.18641263527E+03  0.27935406014E+04  0.29625299595E+04  0.90463953291E+03 0.  0.
         23    2    4    4    0    0  0.53888169258E+03 -0.76655608915E+02  0.10474187152E+04  0.11838370751E+04  0.90081598841E+02 0.  0.
         23    2    4    4    0    0 -0.19306047519E+03  0.26306824418E+03  0.17461218861E+04  0.17786928844E+04  0.91266026120E+02 0.  0.
          2    1    3    3  502    0 -0.14298561657E+03 -0.50578735501E+02  0.74771268361E+02  0.16909712476E+03  0.00000000000E+00 0. -1.
         -3    1    3    3    0  502 -0.20283560081E+03 -0.13583389976E+03  0.38164425831E+02  0.24708227917E+03  0.00000000000E+00 0.  1.
         11    1    5    5    0    0  0.15232292729E+03 -0.31752813424E+02  0.38967877536E+03  0.41959511830E+03  0.00000000000E+00 0.  1.
        -11    1    5    5    0    0  0.38655876529E+03 -0.44902795492E+02  0.65773993987E+03  0.76424195682E+03  0.00000000000E+00 0. -1.
          1    1    6    6  503    0 -0.18962263754E+03  0.20332381363E+03  0.14849397091E+04  0.15107426179E+04  0.00000000000E+00 0. -1.
         -1    1    6    6    0  503 -0.34378376572E+01  0.59744430548E+02  0.26118217702E+03  0.26795026647E+03  0.00000000000E+00 0.  1.
<mgrwt>
<rscale>  0 0.17228095E+04</rscale>
<asrwt>0</asrwt>
<pdfrwt beam="1">  1        2 0.48347579E+00 0.17228095E+04</pdfrwt>
<pdfrwt beam="2">  1       -1 0.36325623E-01 0.17228095E+04</pdfrwt>
<totfact> 0.11154513E+01</totfact>
</mgrwt>
</event>
<event>
12    6  0.1647231E-007  0.2425653E+04  0.7818608E-02  0.8429961E-01
         -1   -1    0    0    0  501 -0.00000000000E+00  0.00000000000E+00  0.11180237554E+04  0.11180237554E+04  0.00000000000E+00 0.  1.
          2   -1    0    0  501    0  0.00000000000E+00 -0.00000000000E+00 -0.13156683411E+04  0.13156683411E+04  0.00000000000E+00 0. -1.
         24    2    1    2    0    0 -0.31010755512E+03  0.92554039458E+03 -0.43482179759E+03  0.10714675816E+04  0.78619750241E+02 0.  0.
        254    2    1    2    0    0  0.31010755512E+03 -0.92554039458E+03  0.23717721193E+03  0.13622245149E+04  0.92011460227E+03 0.  0.
         23    2    4    4    0    0  0.32278214890E+03 -0.48763130490E+03  0.55648306314E+03  0.81258413710E+03  0.92989113068E+02 0.  0.
         23    2    4    4    0    0 -0.12674593782E+02 -0.43790908968E+03 -0.31930585121E+03  0.54964037777E+03  0.90682424430E+02 0.  0.
          2    1    3    3  502    0 -0.98162214659E+02  0.21378473816E+03 -0.12928891093E+03  0.26843128943E+03  0.00000000000E+00 0. -1.
         -3    1    3    3    0  502 -0.21194534046E+03  0.71175565642E+03 -0.30553288666E+03  0.80303629222E+03  0.00000000000E+00 0.  1.
         11    1    5    5    0    0  0.32147680240E+03 -0.48408206966E+03  0.53212377428E+03  0.78793305287E+03  0.00000000000E+00 0.  1.
        -11    1    5    5    0    0  0.13053464981E+01 -0.35492352365E+01  0.24359288861E+02  0.24651084237E+02  0.00000000000E+00 0. -1.
          4    1    6    6  503    0 -0.11314596607E+02 -0.25155724704E+01 -0.48571069441E+01  0.12567405822E+02  0.00000000000E+00 0. -1.
         -4    1    6    6    0  503 -0.13599971749E+01 -0.43539351721E+03 -0.31444874427E+03  0.53707297194E+03  0.00000000000E+00 0.  1.
<mgrwt>
<rscale>  0 0.24256533E+04</rscale>
<asrwt>0</asrwt>
<pdfrwt beam="1">  1        2 0.20241051E+00 0.24256533E+04</pdfrwt>
<pdfrwt beam="2">  1       -1 0.17200366E+00 0.24256533E+04</pdfrwt>
<totfact> 0.39373894E+00</totfact>
</mgrwt>
</event>
<event>
12    6  0.1647231E-007  0.1605447E+04  0.7818608E-02  0.8817208E-01
          2   -1    0    0  501    0  0.00000000000E+00  0.00000000000E+00  0.27082828545E+04  0.27082828545E+04  0.00000000000E+00 0. -1.
         -1   -1    0    0    0  501 -0.00000000000E+00 -0.00000000000E+00 -0.23792396343E+03  0.23792396343E+03  0.00000000000E+00 0.  1.
         24    2    1    2    0    0  0.21297801567E+03  0.41399655376E+03  0.13851967361E+04  0.14633964895E+04  0.77501652506E+02 0.  0.
        254    2    1    2    0    0 -0.21297801567E+03 -0.41399655376E+03  0.10851621550E+04  0.14828103284E+04  0.89688170111E+03 0.  0.
         23    2    4    4    0    0 -0.49282142396E+03 -0.46059217970E+03  0.91098362494E+03  0.11371452325E+04  0.90498635178E+02 0.  0.
         23    2    4    4    0    0  0.27984340829E+03  0.46595625938E+02  0.17417853003E+03  0.34566509592E+03  0.93073694955E+02 0.  0.
          2    1    3    3  502    0  0.14614657092E+03  0.34973444212E+03  0.11301995132E+04  0.11920670870E+04  0.00000000000E+00 0. -1.
         -1    1    3    3    0  502  0.66831444751E+02  0.64262111641E+02  0.25499722290E+03  0.27132940255E+03  0.00000000000E+00 0.  1.
         11    1    5    5    0    0 -0.25205953550E+03 -0.19039088830E+03  0.47627057760E+03  0.57150359831E+03  0.00000000000E+00 0. -1.
        -11    1    5    5    0    0 -0.24076188846E+03 -0.27020129139E+03  0.43471304733E+03  0.56564163419E+03  0.00000000000E+00 0.  1.
          4    1    6    6  503    0  0.23927960833E+00 -0.87184472698E+01 -0.39326221890E+01  0.95673452330E+01  0.00000000000E+00 0. -1.
         -4    1    6    6    0  503  0.27960412868E+03  0.55314073207E+02  0.17811115222E+03  0.33609775069E+03  0.00000000000E+00 0.  1.
<mgrwt>
<rscale>  0 0.16054475E+04</rscale>
<asrwt>0</asrwt>
<pdfrwt beam="1">  1        2 0.41665888E+00 0.16054475E+04</pdfrwt>
<pdfrwt beam="2">  1       -1 0.36603689E-01 0.16054475E+04</pdfrwt>
<totfact> 0.20584705E+01</totfact>
</mgrwt>
</event>
<event>
12    6  0.1647231E-007  0.2053392E+04  0.7818608E-02  0.8582057E-01
         -1   -1    0    0    0  501 -0.00000000000E+00  0.00000000000E+00  0.60347464023E+03  0.60347464023E+03  0.00000000000E+00 0.  1.
          2   -1    0    0  501    0  0.00000000000E+00 -0.00000000000E+00 -0.17467258279E+04  0.17467258279E+04  0.00000000000E+00 0. -1.
         24    2    1    2    0    0 -0.22855021907E+03  0.49123673227E+03  0.25366327061E+03  0.60362845988E+03  0.80458268416E+02 0.  0.
        254    2    1    2    0    0  0.22855021907E+03 -0.49123673227E+03 -0.13969144583E+04  0.17465720083E+04  0.89754946742E+03 0.  0.
         23    2    4    4    0    0  0.71550404577E+01 -0.11434710941E+03  0.10461803345E+03  0.18012084730E+03  0.91499347948E+02 0.  0.
         23    2    4    4    0    0  0.22139517862E+03 -0.37688962285E+03 -0.15015324917E+04  0.15664511610E+04  0.90043339443E+02 0.  0.
          4    1    3    3  502    0 -0.51777791026E+01  0.76415369003E+02  0.36930305277E+02  0.85029203596E+02  0.00000000000E+00 0. -1.
         -3    1    3    3    0  502 -0.22337243997E+03  0.41482136326E+03  0.21673296533E+03  0.51859925629E+03  0.00000000000E+00 0.  1.
         11    1    5    5    0    0  0.30619860755E+02 -0.25807423471E+02  0.72925098159E+02  0.83196567960E+02  0.00000000000E+00 0. -1.
        -11    1    5    5    0    0 -0.23464820297E+02 -0.88539685944E+02  0.31692935287E+02  0.96924279341E+02  0.00000000000E+00 0.  1.
          4    1    6    6  503    0  0.67555712058E+02 -0.63084274995E+02 -0.41191887438E+03  0.42216176882E+03  0.00000000000E+00 0. -1.
         -4    1    6    6    0  503  0.15383946656E+03 -0.31380534786E+03 -0.10896136174E+04  0.11442893921E+04  0.00000000000E+00 0.  1.
<mgrwt>
<rscale>  0 0.20533921E+04</rscale>
<asrwt>0</asrwt>
<pdfrwt beam="1">  1        2 0.26872705E+00 0.20533921E+04</pdfrwt>
<pdfrwt beam="2">  1       -1 0.92842252E-01 0.20533921E+04</pdfrwt>
<totfact> 0.10969737E+01</totfact>
</mgrwt>
</event>
<event>
12    6  0.1647231E-007  0.2033882E+04  0.7818608E-02  0.8590942E-01
         -1   -1    0    0    0  501 -0.00000000000E+00  0.00000000000E+00  0.11045790471E+04  0.11045790471E+04  0.00000000000E+00 0.  1.
          2   -1    0    0  501    0  0.00000000000E+00 -0.00000000000E+00 -0.93625613873E+03  0.93625613873E+03  0.00000000000E+00 0. -1.
         24    2    1    2    0    0  0.32811193253E+03  0.56559003286E+03  0.54992007219E+03  0.85837461204E+03  0.82736710387E+02 0.  0.
        254    2    1    2    0    0 -0.32811193253E+03 -0.56559003286E+03 -0.38159716379E+03  0.11824605738E+04  0.90832102680E+03 0.  0.
         23    2    4    4    0    0 -0.43399570029E+03  0.67440094608E+02 -0.27557196789E+03  0.52582801851E+03  0.87491492953E+02 0.  0.
         23    2    4    4    0    0  0.10588376776E+03 -0.63303012747E+03 -0.10602519590E+03  0.65663255532E+03  0.89366973669E+02 0.  0.
          2    1    3    3  502    0  0.38518760841E+02  0.92626881690E+02  0.12166338174E+03  0.15768770594E+03  0.00000000000E+00 0. -1.
         -1    1    3    3    0  502  0.28959317169E+03  0.47296315117E+03  0.42825669045E+03  0.70068690610E+03  0.00000000000E+00 0.  1.
         11    1    5    5    0    0 -0.24491765237E+03  0.81587374525E+02 -0.16371484130E+03  0.30568563164E+03  0.00000000000E+00 0.  1.
        -11    1    5    5    0    0 -0.18907804792E+03 -0.14147279917E+02 -0.11185712658E+03  0.22014238688E+03  0.00000000000E+00 0. -1.
          1    1    6    6  503    0  0.69701385443E+02 -0.18340440165E+03 -0.46552042622E+02  0.20164957315E+03  0.00000000000E+00 0. -1.
         -1    1    6    6    0  503  0.36182382314E+02 -0.44962572582E+03 -0.59473153276E+02  0.45498298217E+03  0.00000000000E+00 0.  1.
<mgrwt>
<rscale>  0 0.20338819E+04</rscale>
<asrwt>0</asrwt>
<pdfrwt beam="1">  1        2 0.14403940E+00 0.20338819E+04</pdfrwt>
<pdfrwt beam="2">  1       -1 0.16993524E+00 0.20338819E+04</pdfrwt>
<totfact> 0.72187848E+00</totfact>
</mgrwt>
</event>
<event>
12    6  0.1647231E-007  0.2421428E+04  0.7818608E-02  0.8431524E-01
          2   -1    0    0  501    0  0.00000000000E+00  0.00000000000E+00  0.10802648796E+04  0.10802648796E+04  0.00000000000E+00 0. -1.
         -1   -1    0    0    0  501 -0.00000000000E+00 -0.00000000000E+00 -0.13569159392E+04  0.13569159392E+04  0.00000000000E+00 0.  1.
         24    2    1    2    0    0 -0.86640335785E+03 -0.16449829656E+03  0.38119373957E+03  0.96458410177E+03  0.86019499217E+02 0.  0.
        254    2    1    2    0    0  0.86640335785E+03  0.16449829656E+03 -0.65784479907E+03  0.14725967170E+04  0.97880889006E+03 0.  0.
         23    2    4    4    0    0 -0.10955003699E+03 -0.13746465876E+03  0.74619744396E+02  0.21227153239E+03  0.92700346242E+02 0.  0.
         23    2    4    4    0    0  0.97595339484E+03  0.30196295532E+03 -0.73246454347E+03  0.12603251846E+04  0.90821849311E+02 0.  0.
          2    1    3    3  502    0 -0.82027674612E+03 -0.14333255917E+03  0.37570127731E+03  0.91353686982E+03  0.00000000000E+00 0. -1.
         -1    1    3    3    0  502 -0.46126611726E+02 -0.21165737386E+02  0.54924622581E+01  0.51047231953E+02  0.00000000000E+00 0.  1.
         11    1    5    5    0    0 -0.66306647046E+02 -0.11641367386E+03  0.13724339957E+02  0.13467394852E+03  0.00000000000E+00 0. -1.
        -11    1    5    5    0    0 -0.43243389945E+02 -0.21050984907E+02  0.60895404439E+02  0.77597583862E+02  0.00000000000E+00 0.  1.
          3    1    6    6  503    0  0.12247974828E+03  0.70392143974E+02 -0.10426835781E+03  0.17557970587E+03  0.00000000000E+00 0. -1.
         -3    1    6    6    0  503  0.85347364657E+03  0.23157081135E+03 -0.62819618566E+03  0.10847454788E+04  0.00000000000E+00 0.  1.
<mgrwt>
<rscale>  0 0.24214282E+04</rscale>
<asrwt>0</asrwt>
<pdfrwt beam="1">  1        2 0.16619460E+00 0.24214282E+04</pdfrwt>
<pdfrwt beam="2">  1       -1 0.20875630E+00 0.24214282E+04</pdfrwt>
<totfact> 0.30060076E+00</totfact>
</mgrwt>
</event>
<event>
12    6  0.1647231E-007  0.1572999E+04  0.7818608E-02  0.8837310E-01
         -1   -1    0    0    0  501 -0.00000000000E+00  0.00000000000E+00  0.81676434632E+03  0.81676434632E+03  0.00000000000E+00 0.  1.
          2   -1    0    0  501    0  0.00000000000E+00 -0.00000000000E+00 -0.75735618485E+03  0.75735618485E+03  0.00000000000E+00 0. -1.
         24    2    1    2    0    0  0.45431119823E+03  0.18948581382E+03  0.21150422956E+03  0.54166623218E+03  0.79779254690E+02 0.  0.
        254    2    1    2    0    0 -0.45431119823E+03 -0.18948581382E+03 -0.15209606809E+03  0.10324542990E+04  0.89472069782E+03 0.  0.
         23    2    4    4    0    0  0.60385046762E+02 -0.11250100255E+03 -0.41388405521E+03  0.44269937771E+03  0.91541785105E+02 0.  0.
         23    2    4    4    0    0 -0.51469624500E+03 -0.76984811270E+02  0.26178798712E+03  0.58975492129E+03  0.91864199799E+02 0.  0.
          2    1    3    3  502    0  0.59594856556E+02  0.16013483503E+02  0.64347828857E+00  0.61712175833E+02  0.00000000000E+00 0. -1.
         -1    1    3    3    0  502  0.39471634168E+03  0.17347233031E+03  0.21086075127E+03  0.47995405634E+03  0.00000000000E+00 0.  1.
         11    1    5    5    0    0 -0.20349912035E+02 -0.46933868926E+02 -0.17089704029E+03  0.17838919629E+03  0.00000000000E+00 0.  1.
        -11    1    5    5    0    0  0.80734958797E+02 -0.65567133622E+02 -0.24298701492E+03  0.26431018142E+03  0.00000000000E+00 0. -1.
          1    1    6    6  503    0 -0.14795549830E+02  0.39597021050E+01 -0.65318099577E+01  0.16650888170E+02  0.00000000000E+00 0. -1.
         -1    1    6    6    0  503 -0.49990069516E+03 -0.80944513375E+02  0.26831979708E+03  0.57310403312E+03  0.00000000000E+00 0.  1.
<mgrwt>
<rscale>  0 0.15729991E+04</rscale>
<asrwt>0</asrwt>
<pdfrwt beam="1">  1        2 0.11651633E+00 0.15729991E+04</pdfrwt>
<pdfrwt beam="2">  1       -1 0.12565605E+00 0.15729991E+04</pdfrwt>
<totfact> 0.22445823E+01</totfact>
</mgrwt>
</event>
<event>
12    6  0.1647231E-007  0.1421217E+04  0.7818608E-02  0.8938602E-01
          2   -1    0    0  501    0  0.00000000000E+00  0.00000000000E+00  0.10029796945E+04  0.10029796945E+04  0.00000000000E+00 0. -1.
         -1   -1    0    0    0  501 -0.00000000000E+00 -0.00000000000E+00 -0.50346404895E+03  0.50346404895E+03  0.00000000000E+00 0.  1.
         24    2    1    2    0    0 -0.26491035781E+03  0.27877350179E+03 -0.32835838786E+02  0.39399398295E+03  0.79125870091E+02 0.  0.
        254    2    1    2    0    0  0.26491035781E+03 -0.27877350179E+03  0.53235148435E+03  0.11124497605E+04  0.89791659065E+03 0.  0.
         23    2    4    4    0    0  0.30772734081E+02 -0.14595243919E+03  0.73995640292E+03  0.76007729994E+03  0.89067098201E+02 0.  0.
         23    2    4    4    0    0  0.23413762373E+03 -0.13282106260E+03 -0.20760491858E+03  0.35237246056E+03  0.92761453354E+02 0.  0.
          4    1    3    3  502    0 -0.20950009480E+02  0.62713459112E+02 -0.13883638145E+02  0.67562091880E+02  0.00000000000E+00 0. -1.
         -3    1    3    3    0  502 -0.24396034833E+03  0.21606004268E+03 -0.18952200641E+02  0.32643189107E+03  0.00000000000E+00 0.  1.
         11    1    5    5    0    0 -0.85675179910E+01 -0.12301534745E+03  0.61091965058E+03  0.62324072198E+03  0.00000000000E+00 0. -1.
        -11    1    5    5    0    0  0.39340252072E+02 -0.22937091740E+02  0.12903675234E+03  0.13683657795E+03  0.00000000000E+00 0.  1.
          1    1    6    6  503    0  0.22653235723E+03 -0.10195804492E+03 -0.20181083992E+03  0.32006244220E+03  0.00000000000E+00 0. -1.
         -1    1    6    6    0  503  0.76052664971E+01 -0.30863017688E+02 -0.57940786599E+01  0.32310018366E+02  0.00000000000E+00 0.  1.
<mgrwt>
<rscale>  0 0.14212167E+04</rscale>
<asrwt>0</asrwt>
<pdfrwt beam="1">  1        2 0.15430457E+00 0.14212167E+04</pdfrwt>
<pdfrwt beam="2">  1       -1 0.77456008E-01 0.14212167E+04</pdfrwt>
<totfact> 0.46463018E+01</totfact>
</mgrwt>
</event>
<event>
12    6  0.1647231E-007  0.1378169E+04  0.7818608E-02  0.8969774E-01
          2   -1    0    0  501    0  0.00000000000E+00  0.00000000000E+00  0.77154321025E+03  0.77154321025E+03  0.00000000000E+00 0. -1.
         -1   -1    0    0    0  501 -0.00000000000E+00 -0.00000000000E+00 -0.61543875927E+03  0.61543875927E+03  0.00000000000E+00 0.  1.
         24    2    1    2    0    0  0.38393622577E+03 -0.47197475540E+02  0.25191435365E+02  0.39625941248E+03  0.82172297101E+02 0.  0.
        254    2    1    2    0    0 -0.38393622577E+03  0.47197475540E+02  0.13091301561E+03  0.99072255704E+03  0.90263965136E+03 0.  0.
         23    2    4    4    0    0 -0.19863153054E+03  0.20670238209E+03 -0.33875354225E+03  0.45288833387E+03  0.90407526683E+02 0.  0.
         23    2    4    4    0    0 -0.18530469523E+03 -0.15950490655E+03  0.46966655787E+03  0.53783422316E+03  0.94336264159E+02 0.  0.
          2    1    3    3  502    0  0.38364435127E+03 -0.45738650519E+02  0.33507323936E+02  0.38781149180E+03  0.00000000000E+00 0. -1.
         -1    1    3    3    0  502  0.29187449696E+00 -0.14588250213E+01 -0.83158885708E+01  0.84479206842E+01  0.00000000000E+00 0.  1.
         11    1    5    5    0    0 -0.83533333961E+01  0.58456414942E+02 -0.75259126062E+02  0.95660162462E+02  0.00000000000E+00 0.  1.
        -11    1    5    5    0    0 -0.19027819715E+03  0.14824596715E+03 -0.26349441619E+03  0.35722817141E+03  0.00000000000E+00 0. -1.
          4    1    6    6  503    0 -0.11152184759E+03 -0.14218174834E+03  0.37740934192E+03  0.41843826715E+03  0.00000000000E+00 0. -1.
         -4    1    6    6    0  503 -0.73782847641E+02 -0.17323158212E+02  0.92257215954E+02  0.11939595601E+03  0.00000000000E+00 0.  1.
<mgrwt>
<rscale>  0 0.13781692E+04</rscale>
<asrwt>0</asrwt>
<pdfrwt beam="1">  1        2 0.11869896E+00 0.13781692E+04</pdfrwt>
<pdfrwt beam="2">  1       -1 0.94682886E-01 0.13781692E+04</pdfrwt>
<totfact> 0.43415708E+01</totfact>
</mgrwt>
</event>
<event>
12    6  0.1647231E-007  0.1631389E+04  0.7818608E-02  0.8801493E-01
          2   -1    0    0  501    0  0.00000000000E+00  0.00000000000E+00  0.20185080504E+04  0.20185080504E+04  0.00000000000E+00 0. -1.
         -1   -1    0    0    0  501 -0.00000000000E+00 -0.00000000000E+00 -0.32962832217E+03  0.32962832217E+03  0.00000000000E+00 0.  1.
         24    2    1    2    0    0  0.12763056225E+03 -0.30662957737E+03 -0.68453944507E+02  0.34787124261E+03  0.77570617994E+02 0.  0.
        254    2    1    2    0    0 -0.12763056225E+03  0.30662957737E+03  0.17573336727E+04  0.20002651299E+04  0.89583910090E+03 0.  0.
         23    2    4    4    0    0  0.37869968317E+03  0.14749184000E+03  0.75874711364E+03  0.86560755588E+03  0.91716767482E+02 0.  0.
         23    2    4    4    0    0 -0.50633024541E+03  0.15913773737E+03  0.99858655907E+03  0.11346575741E+04  0.92615104370E+02 0.  0.
          2    1    3    3  502    0 -0.84023035251E+01 -0.48786781755E+02 -0.81179961243E+01  0.50166230072E+02  0.00000000000E+00 0. -1.
         -1    1    3    3    0  502  0.13603286577E+03 -0.25784279562E+03 -0.60335948382E+02  0.29770501254E+03  0.00000000000E+00 0.  1.
         11    1    5    5    0    0  0.27466349725E+01  0.18353937568E+02  0.44055066593E+02  0.47804392271E+02  0.00000000000E+00 0. -1.
        -11    1    5    5    0    0  0.37595304819E+03  0.12913790243E+03  0.71469204705E+03  0.81780316361E+03  0.00000000000E+00 0.  1.
          2    1    6    6  503    0 -0.34566242735E+03  0.10517298673E+03  0.58356178928E+03  0.68635867644E+03  0.00000000000E+00 0. -1.
         -2    1    6    6    0  503 -0.16066781806E+03  0.53964750637E+02  0.41502476979E+03  0.44829889763E+03  0.00000000000E+00 0.  1.
<mgrwt>
<rscale>  0 0.16313889E+04</rscale>
<asrwt>0</asrwt>
<pdfrwt beam="1">  1        2 0.31053969E+00 0.16313889E+04</pdfrwt>
<pdfrwt beam="2">  1       -1 0.50712051E-01 0.16313889E+04</pdfrwt>
<totfact> 0.27781225E+01</totfact>
</mgrwt>
</event>
<event>
12    6  0.1647231E-007  0.1987323E+04  0.7818608E-02  0.8612570E-01
          2   -1    0    0  501    0  0.00000000000E+00  0.00000000000E+00  0.24587723355E+04  0.24587723355E+04  0.00000000000E+00 0. -1.
         -1   -1    0    0    0  501 -0.00000000000E+00 -0.00000000000E+00 -0.40156772177E+03  0.40156772177E+03  0.00000000000E+00 0.  1.
         24    2    1    2    0    0  0.48650831662E+02 -0.23905369984E+03 -0.25314655182E+03  0.36002021135E+03  0.77574487132E+02 0.  0.
        254    2    1    2    0    0 -0.48650831662E+02  0.23905369984E+03  0.23103511656E+04  0.25003198459E+04  0.92431772077E+03 0.  0.
         23    2    4    4    0    0  0.40987752883E+03  0.23471699115E+03  0.10248685979E+04  0.11324530451E+04  0.94882041552E+02 0.  0.
         23    2    4    4    0    0 -0.45852836050E+03  0.43367086936E+01  0.12854825677E+04  0.13678668009E+04  0.91252882927E+02 0.  0.
          2    1    3    3  502    0  0.50511055057E+01 -0.23279934220E+02 -0.69077324900E+02  0.73069458869E+02  0.00000000000E+00 0. -1.
         -1    1    3    3    0  502  0.43599726157E+02 -0.21577376562E+03 -0.18406922692E+03  0.28695075248E+03  0.00000000000E+00 0.  1.
         11    1    5    5    0    0  0.35329689039E+02  0.27397486790E+02  0.46409687564E+02  0.64441200406E+02  0.00000000000E+00 0. -1.
        -11    1    5    5    0    0  0.37454783980E+03  0.20731950436E+03  0.97845891030E+03  0.10680118447E+04  0.00000000000E+00 0.  1.
          2    1    6    6  503    0 -0.13907812925E+03  0.83659042790E+01  0.52114586492E+03  0.53944946650E+03  0.00000000000E+00 0. -1.
         -2    1    6    6    0  503 -0.31945023125E+03 -0.40291955854E+01  0.76433670278E+03  0.82841733437E+03  0.00000000000E+00 0.  1.
<mgrwt>
<rscale>  0 0.19873234E+04</rscale>
<asrwt>0</asrwt>
<pdfrwt beam="1">  1        2 0.37827266E+00 0.19873234E+04</pdfrwt>
<pdfrwt beam="2">  1       -1 0.61779651E-01 0.19873234E+04</pdfrwt>
<totfact> 0.10351850E+01</totfact>
</mgrwt>
</event>
<event>
12    6  0.1647231E-007  0.2484489E+04  0.7818608E-02  0.8408532E-01
          2   -1    0    0  501    0  0.00000000000E+00  0.00000000000E+00  0.38078167339E+04  0.38078167339E+04  0.00000000000E+00 0. -1.
         -1   -1    0    0    0  501 -0.00000000000E+00 -0.00000000000E+00 -0.40526423855E+03  0.40526423855E+03  0.00000000000E+00 0.  1.
         24    2    1    2    0    0 -0.12372619793E+03 -0.81439051478E+03  0.26962255552E+04  0.28205379941E+04  0.85218832158E+02 0.  0.
        254    2    1    2    0    0  0.12372619793E+03  0.81439051478E+03  0.70632694017E+03  0.13925429783E+04  0.87277609811E+03 0.  0.
         23    2    4    4    0    0  0.13242709279E+03  0.76364585704E+03  0.88864474299E+03  0.11825336233E+04  0.89467094640E+02 0.  0.
         23    2    4    4    0    0 -0.87008948562E+01  0.50744657744E+02 -0.18231780283E+03  0.21000935505E+03  0.90627932352E+02 0.  0.
          4    1    3    3  502    0 -0.48600530081E+02 -0.57577137790E+03  0.18569953743E+04  0.19448152898E+04  0.00000000000E+00 0. -1.
         -3    1    3    3    0  502 -0.75125667849E+02 -0.23861913689E+03  0.83923018084E+03  0.87572270434E+03  0.00000000000E+00 0.  1.
         11    1    5    5    0    0 -0.55425101765E+01  0.10227045923E+03  0.88986390985E+02  0.13567808973E+03  0.00000000000E+00 0. -1.
        -11    1    5    5    0    0  0.13796960296E+03  0.66137539780E+03  0.79965835201E+03  0.10468555335E+04  0.00000000000E+00 0.  1.
          1    1    6    6  503    0 -0.58098553012E+01  0.47078045238E+02 -0.26920304822E+02  0.54541723238E+02  0.00000000000E+00 0. -1.
         -1    1    6    6    0  503 -0.28910395550E+01  0.36666125059E+01 -0.15539749800E+03  0.15546763182E+03  0.00000000000E+00 0.  1.
<mgrwt>
<rscale>  0 0.24844894E+04</rscale>
<asrwt>0</asrwt>
<pdfrwt beam="1">  1        2 0.58581794E+00 0.24844894E+04</pdfrwt>
<pdfrwt beam="2">  1       -1 0.62348347E-01 0.24844894E+04</pdfrwt>
<totfact> 0.12871454E+00</totfact>
</mgrwt>
</event>
<event>
12    6  0.1647231E-007  0.2659045E+04  0.7818608E-02  0.8348417E-01
         -1   -1    0    0    0  501 -0.00000000000E+00  0.00000000000E+00  0.64781035157E+03  0.64781035157E+03  0.00000000000E+00 0.  1.
          2   -1    0    0  501    0  0.00000000000E+00 -0.00000000000E+00 -0.27286237778E+04  0.27286237778E+04  0.00000000000E+00 0. -1.
         24    2    1    2    0    0 -0.71224646454E+03 -0.82219507876E+03 -0.15203805240E+04  0.18711572155E+04  0.79828652066E+02 0.  0.
        254    2    1    2    0    0  0.71224646454E+03  0.82219507876E+03 -0.56043290229E+03  0.15052769139E+04  0.87662636041E+03 0.  0.
         23    2    4    4    0    0 -0.74570108099E+01  0.14714923647E+03 -0.48125628494E+03  0.51110126750E+03  0.88929123663E+02 0.  0.
         23    2    4    4    0    0  0.71970347535E+03  0.67504584229E+03 -0.79176617341E+02  0.99417564640E+03  0.91958129300E+02 0.  0.
          4    1    3    3  502    0 -0.59003241823E+03 -0.63780894188E+03 -0.12370562628E+04  0.15117032441E+04  0.00000000000E+00 0. -1.
         -3    1    3    3    0  502 -0.12221404631E+03 -0.18438613688E+03 -0.28332426116E+03  0.35945397140E+03  0.00000000000E+00 0.  1.
         11    1    5    5    0    0 -0.62320065083E+00  0.47771277860E+02 -0.30435762929E+03  0.30808448497E+03  0.00000000000E+00 0. -1.
        -11    1    5    5    0    0 -0.68338101591E+01  0.99377958608E+02 -0.17689865565E+03  0.20301678253E+03  0.00000000000E+00 0.  1.
          4    1    6    6  503    0  0.22239836870E+03  0.18490551016E+03 -0.61570609019E+02  0.29570597218E+03  0.00000000000E+00 0.  1.
         -4    1    6    6    0  503  0.49730510665E+03  0.49014033213E+03 -0.17606008322E+02  0.69846967422E+03  0.00000000000E+00 0. -1.
<mgrwt>
<rscale>  0 0.26590455E+04</rscale>
<asrwt>0</asrwt>
<pdfrwt beam="1">  1        2 0.41978828E+00 0.26590455E+04</pdfrwt>
<pdfrwt beam="2">  1       -1 0.99663129E-01 0.26590455E+04</pdfrwt>
<totfact> 0.24534465E+00</totfact>
</mgrwt>
</event>
<event>
12    6  0.1647231E-007  0.4477553E+04  0.7818608E-02  0.7914578E-01
         -1   -1    0    0    0  501 -0.00000000000E+00  0.00000000000E+00  0.16050103987E+04  0.16050103987E+04  0.00000000000E+00 0.  1.
          2   -1    0    0  501    0  0.00000000000E+00 -0.00000000000E+00 -0.31227954063E+04  0.31227954063E+04  0.00000000000E+00 0. -1.
         24    2    1    2    0    0 -0.10152210892E+04 -0.53328189995E+03  0.11919869297E+04  0.16559531585E+04  0.79275329879E+02 0.  0.
        254    2    1    2    0    0  0.10152210892E+04  0.53328189995E+03 -0.27097719373E+04  0.30718526466E+04  0.88224219208E+03 0.  0.
         23    2    4    4    0    0  0.22914433894E+03  0.57549104964E+03 -0.15069678038E+04  0.16317141294E+04  0.88554854876E+02 0.  0.
         23    2    4    4    0    0  0.78607675021E+03 -0.42209149695E+02 -0.12028041335E+04  0.14401385171E+04  0.86964908986E+02 0.  0.
          2    1    3    3  502    0 -0.53526939591E+03 -0.32510785521E+03  0.65915577164E+03  0.90922757053E+03  0.00000000000E+00 0. -1.
         -1    1    3    3    0  502 -0.47995169324E+03 -0.20817404473E+03  0.53283115802E+03  0.74672558795E+03  0.00000000000E+00 0.  1.
         11    1    5    5    0    0  0.22719416725E+03  0.50196507317E+03 -0.13598413683E+04  0.14672268643E+04  0.00000000000E+00 0.  1.
        -11    1    5    5    0    0  0.19501716928E+01  0.73525976475E+02 -0.14712643543E+03  0.16448726512E+03  0.00000000000E+00 0. -1.
          1    1    6    6  503    0  0.32227378830E+03 -0.19573297625E+02 -0.57229748786E+03  0.65709049850E+03  0.00000000000E+00 0. -1.
         -1    1    6    6    0  503  0.46380296191E+03 -0.22635852070E+02 -0.63050664566E+03  0.78304801864E+03  0.00000000000E+00 0.  1.
<mgrwt>
<rscale>  0 0.44775525E+04</rscale>
<asrwt>0</asrwt>
<pdfrwt beam="1">  1        2 0.48043006E+00 0.44775525E+04</pdfrwt>
<pdfrwt beam="2">  1       -1 0.24692468E+00 0.44775525E+04</pdfrwt>
<totfact> 0.91537684E-02</totfact>
</mgrwt>
</event>
<event>
12    6  0.1647231E-007  0.1532805E+04  0.7818608E-02  0.8862926E-01
         -1   -1    0    0    0  501 -0.00000000000E+00  0.00000000000E+00  0.61332176499E+03  0.61332176499E+03  0.00000000000E+00 0.  1.
          2   -1    0    0  501    0  0.00000000000E+00 -0.00000000000E+00 -0.95769101103E+03  0.95769101103E+03  0.00000000000E+00 0. -1.
         24    2    1    2    0    0  0.36377936927E+03 -0.24719116094E+03  0.12185893116E+03  0.46488770905E+03  0.88499058539E+02 0.  0.
        254    2    1    2    0    0 -0.36377936927E+03  0.24719116094E+03 -0.46622817720E+03  0.11061250670E+04  0.90150155352E+03 0.  0.
         23    2    4    4    0    0 -0.49991978600E+03  0.39833813327E+03 -0.56919840520E+03  0.86066244256E+03  0.90332467577E+02 0.  0.
         23    2    4    4    0    0  0.13614041673E+03 -0.15114697232E+03  0.10297022800E+03  0.24546262441E+03  0.90936306379E+02 0.  0.
          2    1    3    3  502    0  0.32718733905E+02  0.41377527497E+01  0.90263595982E+01  0.34192275645E+02  0.00000000000E+00 0. -1.
         -1    1    3    3    0  502  0.33106063537E+03 -0.25132891369E+03  0.11283257156E+03  0.43069543340E+03  0.00000000000E+00 0.  1.
         11    1    5    5    0    0 -0.29689627379E+02  0.22786036033E+02 -0.67461548567E+02  0.77147507717E+02  0.00000000000E+00 0.  1.
        -11    1    5    5    0    0 -0.47023015862E+03  0.37555209723E+03 -0.50173685663E+03  0.78351493484E+03  0.00000000000E+00 0. -1.
          3    1    6    6  503    0  0.81963159555E+02 -0.48637310269E+02  0.81018968089E+01  0.95651388941E+02  0.00000000000E+00 0. -1.
         -3    1    6    6    0  503  0.54177257172E+02 -0.10250966206E+03  0.94868331191E+02  0.14981123547E+03  0.00000000000E+00 0.  1.
<mgrwt>
<rscale>  0 0.15328049E+04</rscale>
<asrwt>0</asrwt>
<pdfrwt beam="1">  1        2 0.14733708E+00 0.15328049E+04</pdfrwt>
<pdfrwt beam="2">  1       -1 0.94357195E-01 0.15328049E+04</pdfrwt>
<totfact> 0.32095946E+01</totfact>
</mgrwt>
</event>
<event>
12    6  0.1647231E-007  0.1580266E+04  0.7818608E-02  0.8832764E-01
         -1   -1    0    0    0  501 -0.00000000000E+00  0.00000000000E+00  0.27478941583E+03  0.27478941583E+03  0.00000000000E+00 0.  1.
          2   -1    0    0  501    0  0.00000000000E+00 -0.00000000000E+00 -0.22719591443E+04  0.22719591443E+04  0.00000000000E+00 0. -1.
         24    2    1    2    0    0 -0.27287356558E+03  0.32132232472E+03 -0.11542009036E+04  0.12313847135E+04  0.80128445543E+02 0.  0.
        254    2    1    2    0    0  0.27287356558E+03 -0.32132232472E+03 -0.84296882486E+03  0.13153638466E+04  0.91753887656E+03 0.  0.
         23    2    4    4    0    0 -0.88960367829E+02 -0.50583240019E+03 -0.70672013043E+03  0.87753771863E+03  0.82696679108E+02 0.  0.
         23    2    4    4    0    0  0.36183393341E+03  0.18451007547E+03 -0.13624869444E+03  0.43782612793E+03  0.90334092403E+02 0.  0.
          2    1    3    3  502    0 -0.24214809921E+03  0.27043700331E+03 -0.90268106244E+03  0.97293626472E+03  0.00000000000E+00 0. -1.
         -1    1    3    3    0  502 -0.30725466370E+02  0.50885321409E+02 -0.25151984112E+03  0.25844844881E+03  0.00000000000E+00 0.  1.
         11    1    5    5    0    0 -0.83862200689E+02 -0.28598601692E+03 -0.36565239182E+03  0.47172295070E+03  0.00000000000E+00 0.  1.
        -11    1    5    5    0    0 -0.50981671393E+01 -0.21984638327E+03 -0.34106773860E+03  0.40581476792E+03  0.00000000000E+00 0. -1.
          3    1    6    6  503    0  0.27504534401E+03  0.15224410367E+03 -0.14221641164E+03  0.34504161503E+03  0.00000000000E+00 0. -1.
         -3    1    6    6    0  503  0.86788589401E+02  0.32265971804E+02  0.59677172021E+01  0.92784512906E+02  0.00000000000E+00 0.  1.
<mgrwt>
<rscale>  0 0.15802662E+04</rscale>
<asrwt>0</asrwt>
<pdfrwt beam="1">  1        2 0.34953218E+00 0.15802662E+04</pdfrwt>
<pdfrwt beam="2">  1       -1 0.42275294E-01 0.15802662E+04</pdfrwt>
<totfact> 0.28325441E+01</totfact>
</mgrwt>
</event>
<event>
12    6  0.1647231E-007  0.1842781E+04  0.7818608E-02  0.8683874E-01
         -1   -1    0    0    0  501 -0.00000000000E+00  0.00000000000E+00  0.92745485559E+03  0.92745485559E+03  0.00000000000E+00 0.  1.
          2   -1    0    0  501    0  0.00000000000E+00 -0.00000000000E+00 -0.91536580255E+03  0.91536580255E+03  0.00000000000E+00 0. -1.
         24    2    1    2    0    0 -0.55015581150E+01 -0.66163551849E+03 -0.32291466906E+03  0.74078387076E+03  0.81823182617E+02 0.  0.
        254    2    1    2    0    0  0.55015581150E+01  0.66163551849E+03  0.33500372210E+03  0.11020367874E+04  0.81514769242E+03 0.  0.
         23    2    4    4    0    0 -0.10171639165E+03  0.60058569643E+03 -0.11511023459E+03  0.62654432916E+03  0.90873688202E+02 0.  0.
         23    2    4    4    0    0  0.10721794977E+03  0.61049822061E+02  0.45011395669E+03  0.47549245823E+03  0.90927082308E+02 0.  0.
          4    1    3    3  502    0 -0.21006520791E+02 -0.55178721520E+03 -0.29645719554E+03  0.62673540954E+03  0.00000000000E+00 0. -1.
         -3    1    3    3    0  502  0.15504962676E+02 -0.10984830329E+03 -0.26457473520E+02  0.11404846122E+03  0.00000000000E+00 0.  1.
         11    1    5    5    0    0  0.93610423056E+01  0.94952175276E+01  0.28848178669E+01  0.13642230135E+02  0.00000000000E+00 0.  1.
        -11    1    5    5    0    0 -0.11107743396E+03  0.59109047890E+03 -0.11799505246E+03  0.61290209902E+03  0.00000000000E+00 0. -1.
          3    1    6    6  503    0  0.61096132795E+02  0.30372264258E+02  0.38030384512E+03  0.38637575816E+03  0.00000000000E+00 0. -1.
         -3    1    6    6    0  503  0.46121816974E+02  0.30677557803E+02  0.69810111567E+02  0.89116700067E+02  0.00000000000E+00 0.  1.
<mgrwt>
<rscale>  0 0.18427810E+04</rscale>
<asrwt>0</asrwt>
<pdfrwt beam="1">  1        2 0.14082551E+00 0.18427810E+04</pdfrwt>
<pdfrwt beam="2">  1       -1 0.14268536E+00 0.18427810E+04</pdfrwt>
<totfact> 0.12256591E+01</totfact>
</mgrwt>
</event>
<event>
12    6  0.1647231E-007  0.1894318E+04  0.7818608E-02  0.8657690E-01
         -1   -1    0    0    0  501 -0.00000000000E+00  0.00000000000E+00  0.42505788662E+03  0.42505788662E+03  0.00000000000E+00 0.  1.
          2   -1    0    0  501    0  0.00000000000E+00 -0.00000000000E+00 -0.21105591714E+04  0.21105591714E+04  0.00000000000E+00 0. -1.
         24    2    1    2    0    0 -0.32072022979E+03 -0.53240099275E+03 -0.13639817048E+03  0.64127946662E+03  0.79514844633E+02 0.  0.
        254    2    1    2    0    0  0.32072022979E+03  0.53240099275E+03 -0.15491031143E+04  0.18943375914E+04  0.89581369077E+03 0.  0.
         23    2    4    4    0    0  0.17590336018E+02  0.69000647414E+03 -0.76595806768E+03  0.10350864943E+04  0.91071043698E+02 0.  0.
         23    2    4    4    0    0  0.30312989377E+03 -0.15760548139E+03 -0.78314504663E+03  0.85925109708E+03  0.90934391275E+02 0.  0.
          4    1    3    3  502    0 -0.55104129857E+02 -0.13035598102E+03 -0.58598319779E+02  0.15317607514E+03  0.00000000000E+00 0. -1.
         -3    1    3    3    0  502 -0.26561609993E+03 -0.40204501173E+03 -0.77799850703E+02  0.48810339147E+03  0.00000000000E+00 0.  1.
         11    1    5    5    0    0  0.50183787583E+02  0.43302602153E+03 -0.45013196754E+03  0.62661689736E+03  0.00000000000E+00 0. -1.
        -11    1    5    5    0    0 -0.32593451565E+02  0.25698045261E+03 -0.31582610013E+03  0.40846959695E+03  0.00000000000E+00 0.  1.
          2    1    6    6  503    0  0.22137585383E+03 -0.14726094226E+03 -0.65487387871E+03  0.70679052823E+03  0.00000000000E+00 0. -1.
         -2    1    6    6    0  503  0.81754039942E+02 -0.10344539129E+02 -0.12827116792E+03  0.15246056886E+03  0.00000000000E+00 0.  1.
<mgrwt>
<rscale>  0 0.18943176E+04</rscale>
<asrwt>0</asrwt>
<pdfrwt beam="1">  1        2 0.32470142E+00 0.18943176E+04</pdfrwt>
<pdfrwt beam="2">  1       -1 0.65393520E-01 0.18943176E+04</pdfrwt>
<totfact> 0.14661025E+01</totfact>
</mgrwt>
</event>
<event>
12    6  0.1647231E-007  0.1921138E+04  0.7818608E-02  0.8644406E-01
          2   -1    0    0  501    0  0.00000000000E+00  0.00000000000E+00  0.24004107938E+04  0.24004107938E+04  0.00000000000E+00 0. -1.
         -1   -1    0    0    0  501 -0.00000000000E+00 -0.00000000000E+00 -0.38438962267E+03  0.38438962267E+03  0.00000000000E+00 0.  1.
         24    2    1    2    0    0 -0.16639691115E+03 -0.72988321830E+03  0.72796196449E+03  0.10472697629E+04  0.80174123485E+02 0.  0.
        254    2    1    2    0    0  0.16639691115E+03  0.72988321830E+03  0.12880592066E+04  0.17375306536E+04  0.89414697224E+03 0.  0.
         23    2    4    4    0    0  0.18426011091E+03  0.92579480973E+03  0.10338517848E+04  0.14030954466E+04  0.93698992973E+02 0.  0.
         23    2    4    4    0    0 -0.17863199759E+02 -0.19591159143E+03  0.25420742182E+03  0.33443520693E+03  0.92331190622E+02 0.  0.
          4    1    3    3  502    0 -0.12704162417E+02 -0.12370236110E+02  0.86806110694E+01  0.19742631351E+02  0.00000000000E+00 0. -1.
         -3    1    3    3    0  502 -0.15369274874E+03 -0.71751298219E+03  0.71928135342E+03  0.10275271315E+04  0.00000000000E+00 0.  1.
         11    1    5    5    0    0  0.12905144526E+03  0.50504135810E+03  0.51444902752E+03  0.73237889841E+03  0.00000000000E+00 0.  1.
        -11    1    5    5    0    0  0.55208665658E+02  0.42075345163E+03  0.51940275725E+03  0.67071654823E+03  0.00000000000E+00 0. -1.
          1    1    6    6  503    0 -0.31346074665E+01 -0.20134623812E+03  0.23145826042E+03  0.30679481691E+03  0.00000000000E+00 0. -1.
         -1    1    6    6    0  503 -0.14728592293E+02  0.54346466915E+01  0.22749161400E+02  0.27640390011E+02  0.00000000000E+00 0.  1.
<mgrwt>
<rscale>  0 0.19211382E+04</rscale>
<asrwt>0</asrwt>
<pdfrwt beam="1">  1        2 0.36929396E+00 0.19211382E+04</pdfrwt>
<pdfrwt beam="2">  1       -1 0.59136866E-01 0.19211382E+04</pdfrwt>
<totfact> 0.12265050E+01</totfact>
</mgrwt>
</event>
<event>
12    6  0.1647231E-007  0.1138629E+04  0.7818608E-02  0.9168338E-01
         -1   -1    0    0    0  501 -0.00000000000E+00  0.00000000000E+00  0.15153386107E+04  0.15153386107E+04  0.00000000000E+00 0.  1.
          2   -1    0    0  501    0  0.00000000000E+00 -0.00000000000E+00 -0.21389219503E+03  0.21389219503E+03  0.00000000000E+00 0. -1.
         24    2    1    2    0    0 -0.79403032606E+02 -0.13021324634E+03  0.45210283981E+03  0.48368642279E+03  0.79342590801E+02 0.  0.
        254    2    1    2    0    0  0.79403032606E+02  0.13021324634E+03  0.84934357583E+03  0.12455443829E+04  0.89818481890E+03 0.  0.
         23    2    4    4    0    0 -0.23832663861E+03 -0.11922922564E+03 -0.19860131757E+02  0.28226330304E+03  0.90900783768E+02 0.  0.
         23    2    4    4    0    0  0.31772967122E+03  0.24944247198E+03  0.86920370758E+03  0.96328107988E+03  0.96029489059E+02 0.  0.
          2    1    3    3  502    0 -0.75270610093E+02 -0.89817203452E+02  0.23252737511E+03  0.26038773964E+03  0.00000000000E+00 0. -1.
         -1    1    3    3    0  502 -0.41324225132E+01 -0.40396042891E+02  0.21957546470E+03  0.22329868315E+03  0.00000000000E+00 0.  1.
         11    1    5    5    0    0  0.28234524641E+01 -0.20509379587E+02  0.18548600686E+01  0.20785741284E+02  0.00000000000E+00 0.  1.
        -11    1    5    5    0    0 -0.24115009108E+03 -0.98719846051E+02 -0.21714991825E+02  0.26147756175E+03  0.00000000000E+00 0. -1.
          3    1    6    6  503    0  0.30090720193E+03  0.25318786682E+03  0.85441569411E+03  0.94057185712E+03  0.00000000000E+00 0. -1.
         -3    1    6    6    0  503  0.16822469284E+02 -0.37453948401E+01  0.14788013478E+02  0.22709222751E+02  0.00000000000E+00 0.  1.
<mgrwt>
<rscale>  0 0.11386292E+04</rscale>
<asrwt>0</asrwt>
<pdfrwt beam="1">  1        2 0.32906493E-01 0.11386292E+04</pdfrwt>
<pdfrwt beam="2">  1       -1 0.23312901E+00 0.11386292E+04</pdfrwt>
<totfact> 0.16439028E+01</totfact>
</mgrwt>
</event>
<event>
12    6  0.1647231E-007  0.1830895E+04  0.7818608E-02  0.8690040E-01
          2   -1    0    0  501    0  0.00000000000E+00  0.00000000000E+00  0.78374796399E+03  0.78374796399E+03  0.00000000000E+00 0. -1.
         -1   -1    0    0    0  501 -0.00000000000E+00 -0.00000000000E+00 -0.10692771130E+04  0.10692771130E+04  0.00000000000E+00 0.  1.
         24    2    1    2    0    0  0.48070435968E+03  0.94141227109E+02  0.40059964676E+03  0.63755300062E+03  0.77810664781E+02 0.  0.
        254    2    1    2    0    0 -0.48070435968E+03 -0.94141227109E+02 -0.68612879574E+03  0.12154720764E+04  0.87559145266E+03 0.  0.
         23    2    4    4    0    0 -0.21513994910E+02 -0.38774995419E+03 -0.10215801344E+03  0.41141454225E+03  0.89514171543E+02 0.  0.
         23    2    4    4    0    0 -0.45919036477E+03  0.29360872709E+03 -0.58397078230E+03  0.80405753410E+03  0.91786534100E+02 0.  0.
          2    1    3    3  502    0  0.16943601840E+03  0.69800567441E+02  0.13433267725E+03  0.22721344970E+03  0.00000000000E+00 0. -1.
         -1    1    3    3    0  502  0.31126834129E+03  0.24340659668E+02  0.26626696950E+03  0.41033955092E+03  0.00000000000E+00 0.  1.
         11    1    5    5    0    0 -0.14671485654E+02 -0.33122873887E+03 -0.52136136072E+02  0.33562763091E+03  0.00000000000E+00 0.  1.
        -11    1    5    5    0    0 -0.68425092553E+01 -0.56521215321E+02 -0.50021877367E+02  0.75786911334E+02  0.00000000000E+00 0. -1.
          1    1    6    6  503    0 -0.31497154267E+02  0.50344489484E+02 -0.46891124168E+02  0.75666477875E+02  0.00000000000E+00 0. -1.
         -1    1    6    6    0  503 -0.42769321051E+03  0.24326423760E+03 -0.53707965814E+03  0.72839105623E+03  0.00000000000E+00 0.  1.
<mgrwt>
<rscale>  0 0.18308946E+04</rscale>
<asrwt>0</asrwt>
<pdfrwt beam="1">  1        2 0.12057661E+00 0.18308946E+04</pdfrwt>
<pdfrwt beam="2">  1       -1 0.16450417E+00 0.18308946E+04</pdfrwt>
<totfact> 0.10284961E+01</totfact>
</mgrwt>
</event>
<event>
12    6  0.1647231E-007  0.1312184E+04  0.7818608E-02  0.9019959E-01
          2   -1    0    0  501    0  0.00000000000E+00  0.00000000000E+00  0.16403176522E+04  0.16403176522E+04  0.00000000000E+00 0. -1.
         -1   -1    0    0    0  501 -0.00000000000E+00 -0.00000000000E+00 -0.26242270751E+03  0.26242270751E+03  0.00000000000E+00 0.  1.
         24    2    1    2    0    0  0.12394612900E+03 -0.30469654632E+03  0.32852596721E+03  0.47199563221E+03  0.81534884940E+02 0.  0.
        254    2    1    2    0    0 -0.12394612900E+03  0.30469654632E+03  0.10493689775E+04  0.14307447275E+04  0.91523362926E+03 0.  0.
         23    2    4    4    0    0  0.22810507363E+03 -0.21304370537E+03  0.47695810206E+03  0.57730498621E+03  0.91501207481E+02 0.  0.
         23    2    4    4    0    0 -0.35205120263E+03  0.51774025169E+03  0.57241087543E+03  0.85343974130E+03  0.93328260569E+02 0.  0.
          2    1    3    3  502    0  0.95604811628E+02 -0.29261666322E+03  0.30364952603E+03  0.43239776394E+03  0.00000000000E+00 0. -1.
         -1    1    3    3    0  502  0.28341317370E+02 -0.12079883101E+02  0.24876441178E+02  0.39597868272E+02  0.00000000000E+00 0.  1.
         11    1    5    5    0    0  0.17844120972E+03 -0.19387907791E+03  0.43869980050E+03  0.51174981889E+03  0.00000000000E+00 0. -1.
        -11    1    5    5    0    0  0.49663863906E+02 -0.19164627455E+02  0.38258301560E+02  0.65555167316E+02  0.00000000000E+00 0.  1.
          3    1    6    6  503    0 -0.32947159969E+03  0.51338013568E+03  0.55237600648E+03  0.82293982237E+03  0.00000000000E+00 0. -1.
         -3    1    6    6    0  503 -0.22579602936E+02  0.43601160089E+01  0.20034868952E+02  0.30499918922E+02  0.00000000000E+00 0.  1.
<mgrwt>
<rscale>  0 0.13121838E+04</rscale>
<asrwt>0</asrwt>
<pdfrwt beam="1">  1        2 0.25235655E+00 0.13121838E+04</pdfrwt>
<pdfrwt beam="2">  1       -1 0.40372725E-01 0.13121838E+04</pdfrwt>
<totfact> 0.70730578E+01</totfact>
</mgrwt>
</event>
<event>
12    6  0.1647231E-007  0.1483605E+04  0.7818608E-02  0.8895429E-01
          2   -1    0    0  501    0  0.00000000000E+00  0.00000000000E+00  0.51990432481E+03  0.51990432481E+03  0.00000000000E+00 0. -1.
         -1   -1    0    0    0  501 -0.00000000000E+00 -0.00000000000E+00 -0.10584087857E+04  0.10584087857E+04  0.00000000000E+00 0.  1.
         24    2    1    2    0    0  0.32274296759E+03 -0.17920128357E+03 -0.45850721464E+03  0.59429174696E+03  0.81717143057E+02 0.  0.
        254    2    1    2    0    0 -0.32274296759E+03  0.17920128357E+03 -0.79997246287E+02  0.98402136358E+03  0.90863764032E+03 0.  0.
         23    2    4    4    0    0 -0.34176154424E+03  0.28660650043E+03  0.32240521701E+03  0.55792326777E+03  0.91591536523E+02 0.  0.
         23    2    4    4    0    0  0.19018576645E+02 -0.10740521686E+03 -0.40240246329E+03  0.42609809580E+03  0.87944629831E+02 0.  0.
          2    1    3    3  502    0  0.69996011375E+01  0.16419274702E+01 -0.35943309970E+02  0.36655311668E+02  0.00000000000E+00 0. -1.
         -1    1    3    3    0  502  0.31574336645E+03 -0.18084321104E+03 -0.42256390467E+03  0.55763643530E+03  0.00000000000E+00 0.  1.
         11    1    5    5    0    0 -0.13653108224E+03  0.15375891776E+03  0.18963869529E+03  0.27972374936E+03  0.00000000000E+00 0. -1.
        -11    1    5    5    0    0 -0.20523046200E+03  0.13284758268E+03  0.13276652171E+03  0.27819951841E+03  0.00000000000E+00 0.  1.
          1    1    6    6  503    0 -0.29260262502E+02 -0.12160031503E+02 -0.12210929204E+03  0.12615351176E+03  0.00000000000E+00 0. -1.
         -1    1    6    6    0  503  0.48278839148E+02 -0.95245185358E+02 -0.28029317125E+03  0.29994458404E+03  0.00000000000E+00 0.  1.
<mgrwt>
<rscale>  0 0.14836055E+04</rscale>
<asrwt>0</asrwt>
<pdfrwt beam="1">  1        2 0.79985282E-01 0.14836055E+04</pdfrwt>
<pdfrwt beam="2">  1       -1 0.16283212E+00 0.14836055E+04</pdfrwt>
<totfact> 0.18099357E+01</totfact>
</mgrwt>
</event>
<event>
12    6  0.1647231E-007  0.2089122E+04  0.7818608E-02  0.8566051E-01
          2   -1    0    0  501    0  0.00000000000E+00  0.00000000000E+00  0.26200485723E+04  0.26200485723E+04  0.00000000000E+00 0. -1.
         -1   -1    0    0    0  501 -0.00000000000E+00 -0.00000000000E+00 -0.41644540124E+03  0.41644540124E+03  0.00000000000E+00 0.  1.
         24    2    1    2    0    0 -0.30398357781E+03  0.64041511491E+02 -0.24749028356E+03  0.40543590730E+03  0.81360332493E+02 0.  0.
        254    2    1    2    0    0  0.30398357781E+03 -0.64041511491E+02  0.24510934546E+04  0.26310580662E+04  0.90448885782E+03 0.  0.
         23    2    4    4    0    0 -0.21560402926E+02  0.26860948164E+03  0.24610368198E+03  0.37591813118E+03  0.90174910385E+02 0.  0.
         23    2    4    4    0    0  0.32554398073E+03 -0.33265099314E+03  0.22049897726E+04  0.22551399351E+04  0.83908656662E+02 0.  0.
          4    1    3    3  502    0 -0.48509731715E+01  0.14119318830E+01  0.63734437118E+01  0.81330361551E+01  0.00000000000E+00 0. -1.
         -3    1    3    3    0  502 -0.29913260464E+03  0.62629579608E+02 -0.25386372727E+03  0.39730287115E+03  0.00000000000E+00 0.  1.
         11    1    5    5    0    0 -0.33992736830E+02  0.23688819300E+03  0.24401767202E+03  0.34178377141E+03  0.00000000000E+00 0. -1.
        -11    1    5    5    0    0  0.12432333903E+02  0.31721288646E+02  0.20860099609E+01  0.34134359775E+02  0.00000000000E+00 0.  1.
          1    1    6    6  503    0  0.22001460724E+03 -0.18013019322E+03  0.12048735645E+04  0.12379715750E+04  0.00000000000E+00 0. -1.
         -1    1    6    6    0  503  0.10552937349E+03 -0.15252079992E+03  0.10001162081E+04  0.10171683601E+04  0.00000000000E+00 0.  1.
<mgrwt>
<rscale>  0 0.20891215E+04</rscale>
<asrwt>0</asrwt>
<pdfrwt beam="1">  1        2 0.40308438E+00 0.20891215E+04</pdfrwt>
<pdfrwt beam="2">  1       -1 0.64068525E-01 0.20891215E+04</pdfrwt>
<totfact> 0.76857779E+00</totfact>
</mgrwt>
</event>
<event>
12    6  0.1647231E-007  0.1572946E+04  0.7818608E-02  0.8837343E-01
          2   -1    0    0  501    0  0.00000000000E+00  0.00000000000E+00  0.11406753012E+04  0.11406753012E+04  0.00000000000E+00 0. -1.
         -1   -1    0    0    0  501 -0.00000000000E+00 -0.00000000000E+00 -0.54225734713E+03  0.54225734713E+03  0.00000000000E+00 0.  1.
         24    2    1    2    0    0  0.18043276075E+03  0.28341247975E+03 -0.23983654661E+03  0.42170567560E+03  0.86229304258E+02 0.  0.
        254    2    1    2    0    0 -0.18043276075E+03 -0.28341247975E+03  0.83825450067E+03  0.12612269727E+04  0.88042277004E+03 0.  0.
         23    2    4    4    0    0  0.20877419841E+03  0.11700788655E+03  0.59071779752E+03  0.64393263489E+03  0.91783498152E+02 0.  0.
         23    2    4    4    0    0 -0.38920695917E+03 -0.40042036630E+03  0.24753670315E+03  0.61729433783E+03  0.89215207807E+02 0.  0.
          4    1    3    3  502    0  0.12682711800E+03  0.13513386582E+03 -0.98084816970E+02  0.20968288168E+03  0.00000000000E+00 0. -1.
         -3    1    3    3    0  502  0.53605642754E+02  0.14827861394E+03 -0.14175172964E+03  0.21202279392E+03  0.00000000000E+00 0.  1.
         11    1    5    5    0    0 -0.51802863626E+00 -0.11053156704E+01 -0.30983379606E+01  0.33301313063E+01  0.00000000000E+00 0. -1.
        -11    1    5    5    0    0  0.20929222705E+03  0.11811320222E+03  0.59381613549E+03  0.64060250359E+03  0.00000000000E+00 0.  1.
          1    1    6    6  503    0 -0.21195015858E+02 -0.43794585822E+02  0.44964911371E+02  0.66249812823E+02  0.00000000000E+00 0. -1.
         -1    1    6    6    0  503 -0.36801194331E+03 -0.35662578048E+03  0.20257179177E+03  0.55104452501E+03  0.00000000000E+00 0.  1.
<mgrwt>
<rscale>  0 0.15729457E+04</rscale>
<asrwt>0</asrwt>
<pdfrwt beam="1">  1        2 0.17548851E+00 0.15729457E+04</pdfrwt>
<pdfrwt beam="2">  1       -1 0.83424207E-01 0.15729457E+04</pdfrwt>
<totfact> 0.32142427E+01</totfact>
</mgrwt>
</event>
<event>
12    6  0.1647231E-007  0.1415175E+04  0.7818608E-02  0.8942907E-01
          2   -1    0    0  501    0  0.00000000000E+00  0.00000000000E+00  0.66171209829E+03  0.66171209829E+03  0.00000000000E+00 0. -1.
         -1   -1    0    0    0  501 -0.00000000000E+00 -0.00000000000E+00 -0.75664301386E+03  0.75664301386E+03  0.00000000000E+00 0.  1.
         24    2    1    2    0    0  0.17037854370E+03 -0.38537020035E+03 -0.22645014136E+02  0.42938273315E+03  0.79483931686E+02 0.  0.
        254    2    1    2    0    0 -0.17037854370E+03  0.38537020035E+03 -0.72285901426E+02  0.98897237900E+03  0.89179710439E+03 0.  0.
         23    2    4    4    0    0 -0.14532262089E+03 -0.53584863558E+02 -0.39619103759E+03  0.43490388505E+03  0.90465735075E+02 0.  0.
         23    2    4    4    0    0 -0.25055922807E+02  0.43895506391E+03  0.32390513616E+03  0.55406849395E+03  0.93637659918E+02 0.  0.
          4    1    3    3  502    0  0.14803720802E+03 -0.32237394578E+03  0.10247364508E+02  0.35488728402E+03  0.00000000000E+00 0. -1.
         -3    1    3    3    0  502  0.22341335674E+02 -0.62996254564E+02 -0.32892378643E+02  0.74495449133E+02  0.00000000000E+00 0.  1.
         11    1    5    5    0    0 -0.89493401519E+02 -0.38505540668E+02 -0.12972838341E+03  0.16223809368E+03  0.00000000000E+00 0. -1.
        -11    1    5    5    0    0 -0.55829219370E+02 -0.15079322890E+02 -0.26646265418E+03  0.27266579137E+03  0.00000000000E+00 0.  1.
          2    1    6    6  503    0  0.28599095362E+02  0.26752506087E+03  0.17741557616E+03  0.32227915402E+03  0.00000000000E+00 0. -1.
         -2    1    6    6    0  503 -0.53655018169E+02  0.17143000304E+03  0.14648956000E+03  0.23178933993E+03  0.00000000000E+00 0.  1.
<mgrwt>
<rscale>  0 0.14151747E+04</rscale>
<asrwt>0</asrwt>
<pdfrwt beam="1">  1        2 0.10180186E+00 0.14151747E+04</pdfrwt>
<pdfrwt beam="2">  1       -1 0.11640662E+00 0.14151747E+04</pdfrwt>
<totfact> 0.32571329E+01</totfact>
</mgrwt>
</event>
<event>
12    6  0.1647231E-007  0.1289976E+04  0.7818608E-02  0.9037552E-01
          2   -1    0    0  501    0  0.00000000000E+00  0.00000000000E+00  0.90105720327E+03  0.90105720327E+03  0.00000000000E+00 0. -1.
         -1   -1    0    0    0  501 -0.00000000000E+00 -0.00000000000E+00 -0.46169055196E+03  0.46169055196E+03  0.00000000000E+00 0.  1.
         24    2    1    2    0    0 -0.27221600122E+02 -0.55496530530E+02 -0.20907862550E+03  0.23162719690E+03  0.78207456732E+02 0.  0.
        254    2    1    2    0    0  0.27221600122E+02  0.55496530530E+02  0.64844527681E+03  0.11311205583E+04  0.92473323722E+03 0.  0.
         23    2    4    4    0    0  0.23801388445E+03 -0.20282229705E+03 -0.71022409082E+02  0.33320391744E+03  0.90516156753E+02 0.  0.
         23    2    4    4    0    0 -0.21079228433E+03  0.25831882758E+03  0.71946768589E+03  0.79791664088E+03  0.88742385178E+02 0.  0.
          4    1    3    3  502    0 -0.46828686680E+02 -0.42372560679E+02 -0.88265948055E+02  0.10853219514E+03  0.00000000000E+00 0. -1.
         -3    1    3    3    0  502  0.19607086558E+02 -0.13123969851E+02 -0.12081267745E+03  0.12309500177E+03  0.00000000000E+00 0.  1.
         11    1    5    5    0    0  0.22956585793E+03 -0.16208575831E+03 -0.46297928982E+02  0.28480831168E+03  0.00000000000E+00 0.  1.
        -11    1    5    5    0    0  0.84480265207E+01 -0.40736538741E+02 -0.24724480099E+02  0.48395605760E+02  0.00000000000E+00 0. -1.
          2    1    6    6  503    0 -0.52349233236E+02  0.11916130830E+03  0.33534305336E+03  0.35971491915E+03  0.00000000000E+00 0. -1.
         -2    1    6    6    0  503 -0.15844305109E+03  0.13915751928E+03  0.38412463253E+03  0.43820172173E+03  0.00000000000E+00 0.  1.
<mgrwt>
<rscale>  0 0.12899761E+04</rscale>
<asrwt>0</asrwt>
<pdfrwt beam="1">  1        2 0.13862418E+00 0.12899761E+04</pdfrwt>
<pdfrwt beam="2">  1       -1 0.71029316E-01 0.12899761E+04</pdfrwt>
<totfact> 0.65619300E+01</totfact>
</mgrwt>
</event>
<event>
12    6  0.1647231E-007  0.2236788E+04  0.7818608E-02  0.8503270E-01
          2   -1    0    0  501    0  0.00000000000E+00  0.00000000000E+00  0.99611738417E+03  0.99611738417E+03  0.00000000000E+00 0. -1.
         -1   -1    0    0    0  501 -0.00000000000E+00 -0.00000000000E+00 -0.12556808475E+04  0.12556808475E+04  0.00000000000E+00 0.  1.
         24    2    1    2    0    0 -0.68896842068E+03 -0.61106667265E+03  0.44824738828E+02  0.92544836767E+03  0.79783838547E+02 0.  0.
        254    2    1    2    0    0  0.68896842068E+03  0.61106667265E+03 -0.30438820213E+03  0.13263498640E+04  0.90469432460E+03 0.  0.
         23    2    4    4    0    0  0.88484275977E+03  0.57541798142E+03 -0.31886907738E+03  0.11062309632E+04  0.89537101404E+02 0.  0.
         23    2    4    4    0    0 -0.19587433909E+03  0.35648691237E+02  0.14480875244E+02  0.22011890080E+03  0.92763402480E+02 0.  0.
          2    1    3    3  502    0 -0.12541837413E+03 -0.99168985045E+02 -0.21062975436E+02  0.16126966577E+03  0.00000000000E+00 0. -1.
         -1    1    3    3    0  502 -0.56355004655E+03 -0.51189768761E+03  0.65887714263E+02  0.76417870190E+03  0.00000000000E+00 0.  1.
         11    1    5    5    0    0  0.60262599506E+03  0.34113856459E+03 -0.21030507488E+03  0.72371391771E+03  0.00000000000E+00 0.  1.
        -11    1    5    5    0    0  0.28221676471E+03  0.23427941682E+03 -0.10856400250E+03  0.38251704546E+03  0.00000000000E+00 0. -1.
          3    1    6    6  503    0 -0.10927038461E+03 -0.26085566918E+02 -0.27646265325E+01  0.11237489450E+03  0.00000000000E+00 0. -1.
         -3    1    6    6    0  503 -0.86603954487E+02  0.61734258155E+02  0.17245501777E+02  0.10774400630E+03  0.00000000000E+00 0.  1.
<mgrwt>
<rscale>  0 0.22367883E+04</rscale>
<asrwt>0</asrwt>
<pdfrwt beam="1">  1        2 0.15324883E+00 0.22367883E+04</pdfrwt>
<pdfrwt beam="2">  1       -1 0.19318167E+00 0.22367883E+04</pdfrwt>
<totfact> 0.44192531E+00</totfact>
</mgrwt>
</event>
<event>
12    6  0.1647231E-007  0.2412381E+04  0.7818608E-02  0.8434883E-01
          2   -1    0    0  501    0  0.00000000000E+00  0.00000000000E+00  0.16006536255E+04  0.16006536255E+04  0.00000000000E+00 0. -1.
         -1   -1    0    0    0  501 -0.00000000000E+00 -0.00000000000E+00 -0.90893851468E+03  0.90893851468E+03  0.00000000000E+00 0.  1.
         24    2    1    2    0    0 -0.31128331257E+03  0.63995452046E+03  0.10479629944E+04  0.12693052230E+04  0.80437693241E+02 0.  0.
        254    2    1    2    0    0  0.31128331257E+03 -0.63995452046E+03 -0.35624788359E+03  0.12402869172E+04  0.95129385233E+03 0.  0.
         23    2    4    4    0    0  0.56835221776E+03 -0.13140762967E+03 -0.65466733535E+02  0.59401946903E+03  0.91000152867E+02 0.  0.
         23    2    4    4    0    0 -0.25706890519E+03 -0.50854689079E+03 -0.29078115006E+03  0.64626744817E+03  0.91671016054E+02 0.  0.
          2    1    3    3  502    0 -0.29928455882E+03  0.56677970418E+03  0.91674690185E+03  0.11185863231E+04  0.00000000000E+00 0. -1.
         -1    1    3    3    0  502 -0.11998753749E+02  0.73174816279E+02  0.13121609254E+03  0.15071889985E+03  0.00000000000E+00 0.  1.
         11    1    5    5    0    0  0.34075023221E+03 -0.12015791618E+03 -0.58598871345E+02  0.36603616392E+03  0.00000000000E+00 0. -1.
        -11    1    5    5    0    0  0.22760198555E+03 -0.11249713483E+02 -0.68678621900E+01  0.22798330511E+03  0.00000000000E+00 0.  1.
          1    1    6    6  503    0 -0.28048467858E+02 -0.30514764746E+02 -0.47507040895E+02  0.63045906697E+02  0.00000000000E+00 0. -1.
         -1    1    6    6    0  503 -0.22902043733E+03 -0.47803212605E+03 -0.24327410916E+03  0.58322154147E+03  0.00000000000E+00 0.  1.
<mgrwt>
<rscale>  0 0.24123812E+04</rscale>
<asrwt>0</asrwt>
<pdfrwt beam="1">  1        2 0.24625440E+00 0.24123812E+04</pdfrwt>
<pdfrwt beam="2">  1       -1 0.13983669E+00 0.24123812E+04</pdfrwt>
<totfact> 0.47927882E+00</totfact>
</mgrwt>
</event>
<event>
12    6  0.1647231E-007  0.1668107E+04  0.7818608E-02  0.8779766E-01
         -1   -1    0    0    0  501 -0.00000000000E+00  0.00000000000E+00  0.18359559117E+03  0.18359559117E+03  0.00000000000E+00 0.  1.
          2   -1    0    0  501    0  0.00000000000E+00 -0.00000000000E+00 -0.37890093924E+04  0.37890093924E+04  0.00000000000E+00 0. -1.
         24    2    1    2    0    0 -0.57113652483E+02  0.10508046733E+03 -0.26318268826E+04  0.26357477742E+04  0.79685099773E+02 0.  0.
        254    2    1    2    0    0  0.57113652483E+02 -0.10508046733E+03 -0.97358691861E+03  0.13368572094E+04  0.90830162186E+03 0.  0.
         23    2    4    4    0    0  0.24053388212E+03  0.29323709146E+03 -0.18730142921E+03  0.43122171173E+03  0.83820039558E+02 0.  0.
         23    2    4    4    0    0 -0.18342022964E+03 -0.39831755879E+03 -0.78628548940E+03  0.90563549766E+03  0.98137278775E+02 0.  0.
          2    1    3    3  502    0 -0.42551568164E+02  0.11612823872E+03 -0.24088476129E+04  0.24120205691E+04  0.00000000000E+00 0. -1.
         -1    1    3    3    0  502 -0.14562084318E+02 -0.11047771387E+02 -0.22297926969E+03  0.22372720502E+03  0.00000000000E+00 0.  1.
         11    1    5    5    0    0  0.18795850618E+02  0.39069793444E+02  0.38498818070E+01  0.43526478725E+02  0.00000000000E+00 0.  1.
        -11    1    5    5    0    0  0.22173803150E+03  0.25416729801E+03 -0.19115131102E+03  0.38769523301E+03  0.00000000000E+00 0. -1.
          3    1    6    6  503    0 -0.14875788476E+03 -0.36281219291E+03 -0.63394680521E+03  0.74541944396E+03  0.00000000000E+00 0. -1.
         -3    1    6    6    0  503 -0.34662344879E+02 -0.35505365881E+02 -0.15233868420E+03  0.16021605370E+03  0.00000000000E+00 0.  1.
<mgrwt>
<rscale>  0 0.16681072E+04</rscale>
<asrwt>0</asrwt>
<pdfrwt beam="1">  1        2 0.58292447E+00 0.16681072E+04</pdfrwt>
<pdfrwt beam="2">  1       -1 0.28245478E-01 0.16681072E+04</pdfrwt>
<totfact> 0.62570601E+00</totfact>
</mgrwt>
</event>
<event>
12    6  0.1647231E-007  0.1583803E+04  0.7818608E-02  0.8830561E-01
          2   -1    0    0  501    0  0.00000000000E+00  0.00000000000E+00  0.34224489974E+04  0.34224489974E+04  0.00000000000E+00 0. -1.
         -1   -1    0    0    0  501 -0.00000000000E+00 -0.00000000000E+00 -0.18323366932E+03  0.18323366932E+03  0.00000000000E+00 0.  1.
         24    2    1    2    0    0  0.27708977695E+03  0.45812296030E+03  0.93895992660E+03  0.10838817608E+04  0.80613500026E+02 0.  0.
        254    2    1    2    0    0 -0.27708977695E+03 -0.45812296030E+03  0.23002554014E+04  0.25218009059E+04  0.88410944222E+03 0.  0.
         23    2    4    4    0    0 -0.54958835881E+02  0.24713255944E+03  0.40968376998E+03  0.48978033830E+03  0.89157236478E+02 0.  0.
         23    2    4    4    0    0 -0.22213094107E+03 -0.70525551974E+03  0.18905716315E+04  0.20320205676E+04  0.90105440027E+02 0.  0.
          4    1    3    3  502    0  0.19082970901E+03  0.37387111742E+03  0.69956750623E+03  0.81583716884E+03  0.00000000000E+00 0. -1.
         -1    1    3    3    0  502  0.86260067941E+02  0.84251842880E+02  0.23939242037E+03  0.26804459196E+03  0.00000000000E+00 0.  1.
         11    1    5    5    0    0 -0.31961583536E+02  0.91348827275E+02  0.84511422521E+02  0.12848475241E+03  0.00000000000E+00 0.  1.
        -11    1    5    5    0    0 -0.22997252344E+02  0.15578373217E+03  0.32517234746E+03  0.36129558588E+03  0.00000000000E+00 0. -1.
          2    1    6    6  503    0 -0.42011611997E+02 -0.11426829287E+03  0.41054166508E+03  0.42821335461E+03  0.00000000000E+00 0.  1.
         -2    1    6    6    0  503 -0.18011932907E+03 -0.59098722687E+03  0.14800299664E+04  0.16038072130E+04  0.00000000000E+00 0. -1.
<mgrwt>
<rscale>  0 0.15838029E+04</rscale>
<asrwt>0</asrwt>
<pdfrwt beam="1">  1        2 0.52653057E+00 0.15838029E+04</pdfrwt>
<pdfrwt beam="2">  1       -1 0.28189798E-01 0.15838029E+04</pdfrwt>
<totfact> 0.11575329E+01</totfact>
</mgrwt>
</event>
<event>
12    6  0.1647231E-007  0.1445718E+04  0.7818608E-02  0.8921374E-01
          2   -1    0    0  501    0  0.00000000000E+00  0.00000000000E+00  0.15138974562E+04  0.15138974562E+04  0.00000000000E+00 0. -1.
         -1   -1    0    0    0  501 -0.00000000000E+00 -0.00000000000E+00 -0.34515234476E+03  0.34515234476E+03  0.00000000000E+00 0.  1.
         24    2    1    2    0    0  0.25034091011E+03  0.12530193955E+02  0.81644056087E+03  0.85787312980E+03  0.80892152680E+02 0.  0.
        254    2    1    2    0    0 -0.25034091011E+03 -0.12530193955E+02  0.35230455054E+03  0.10011766711E+04  0.90299980810E+03 0.  0.
         23    2    4    4    0    0  0.29227504992E+03  0.12589467548E+03 -0.51515810125E+01  0.33095441828E+03  0.90719976132E+02 0.  0.
         23    2    4    4    0    0 -0.54261596003E+03 -0.13842486944E+03  0.35745613155E+03  0.67022225284E+03  0.88484222659E+02 0.  0.
          4    1    3    3  502    0  0.21326093397E+03 -0.57864136723E+01  0.74873295475E+03  0.77853371544E+03  0.00000000000E+00 0. -1.
         -3    1    3    3    0  502  0.37079976134E+02  0.18316607627E+02  0.67707606120E+02  0.79339414364E+02  0.00000000000E+00 0.  1.
         11    1    5    5    0    0  0.21246881978E+03  0.13240287355E+03  0.38693688954E+01  0.25037670083E+03  0.00000000000E+00 0. -1.
        -11    1    5    5    0    0  0.79806230146E+02 -0.65081980705E+01 -0.90209499079E+01  0.80577717450E+02  0.00000000000E+00 0.  1.
          1    1    6    6  503    0 -0.26273637719E+03 -0.11175287060E+03  0.16959910842E+03  0.33208879168E+03  0.00000000000E+00 0. -1.
         -1    1    6    6    0  503 -0.27987958285E+03 -0.26671998840E+02  0.18785702313E+03  0.33813346116E+03  0.00000000000E+00 0.  1.
<mgrwt>
<rscale>  0 0.14457182E+04</rscale>
<asrwt>0</asrwt>
<pdfrwt beam="1">  1        2 0.23290730E+00 0.14457182E+04</pdfrwt>
<pdfrwt beam="2">  1       -1 0.53100362E-01 0.14457182E+04</pdfrwt>
<totfact> 0.49279256E+01</totfact>
</mgrwt>
</event>
<event>
12    6  0.1647231E-007  0.2116668E+04  0.7818608E-02  0.8553936E-01
         -1   -1    0    0    0  501 -0.00000000000E+00  0.00000000000E+00  0.11447521735E+04  0.11447521735E+04  0.00000000000E+00 0.  1.
          2   -1    0    0  501    0  0.00000000000E+00 -0.00000000000E+00 -0.97843983826E+03  0.97843983826E+03  0.00000000000E+00 0. -1.
         24    2    1    2    0    0 -0.29143300020E+03  0.41878298823E+02  0.88709843498E+03  0.93775608268E+03  0.75867329845E+02 0.  0.
        254    2    1    2    0    0  0.29143300020E+03 -0.41878298823E+02 -0.72078609977E+03  0.11854359290E+04  0.89388967705E+03 0.  0.
         23    2    4    4    0    0 -0.25859972489E+03 -0.21780388713E+03 -0.34073059753E+03  0.48827008669E+03  0.89431462637E+02 0.  0.
         23    2    4    4    0    0  0.55003272509E+03  0.17592558831E+03 -0.38005550224E+03  0.69716584235E+03  0.90067839253E+02 0.  0.
          4    1    3    3  502    0 -0.57656109459E+02  0.32797939858E+02  0.14071890781E+03  0.15556909344E+03  0.00000000000E+00 0. -1.
         -3    1    3    3    0  502 -0.23377689075E+03  0.90803589656E+01  0.74637952716E+03  0.78218698924E+03  0.00000000000E+00 0.  1.
         11    1    5    5    0    0 -0.23738493527E+03 -0.19513432087E+03 -0.26265731936E+03  0.40424977191E+03  0.00000000000E+00 0.  1.
        -11    1    5    5    0    0 -0.21214789620E+02 -0.22669566256E+02 -0.78073278171E+02  0.84020314788E+02  0.00000000000E+00 0. -1.
          2    1    6    6  503    0  0.50274146160E+03  0.16023669572E+03 -0.37445789602E+03  0.64702665460E+03  0.00000000000E+00 0.  1.
         -2    1    6    6    0  503  0.47291263490E+02  0.15688892588E+02 -0.55976062154E+01  0.50139187752E+02  0.00000000000E+00 0. -1.
<mgrwt>
<rscale>  0 0.21166683E+04</rscale>
<asrwt>0</asrwt>
<pdfrwt beam="1">  1        2 0.15052921E+00 0.21166683E+04</pdfrwt>
<pdfrwt beam="2">  1       -1 0.17611572E+00 0.21166683E+04</pdfrwt>
<totfact> 0.60614233E+00</totfact>
</mgrwt>
</event>
<event>
12    6  0.1647231E-007  0.3818300E+04  0.7818608E-02  0.8042239E-01
         -1   -1    0    0    0  501 -0.00000000000E+00  0.00000000000E+00  0.14278804514E+04  0.14278804514E+04  0.00000000000E+00 0.  1.
          2   -1    0    0  501    0  0.00000000000E+00 -0.00000000000E+00 -0.25526319711E+04  0.25526319711E+04  0.00000000000E+00 0. -1.
         24    2    1    2    0    0 -0.53540651434E+03  0.16474598521E+04 -0.10413536371E+04  0.20227563189E+04  0.79634341231E+02 0.  0.
        254    2    1    2    0    0  0.53540651434E+03 -0.16474598521E+04 -0.83397882554E+02  0.19577561036E+04  0.90833344890E+03 0.  0.
         23    2    4    4    0    0  0.38386613194E+03 -0.11334712435E+04 -0.47244166327E+03  0.12901099043E+04  0.95247955143E+02 0.  0.
         23    2    4    4    0    0  0.15154038240E+03 -0.51398860863E+03  0.38904378071E+03  0.66764619928E+03  0.85132877288E+02 0.  0.
          4    1    3    3  502    0 -0.53100808642E+03  0.15877103974E+04 -0.10078870438E+04  0.19541315685E+04  0.00000000000E+00 0. -1.
         -3    1    3    3    0  502 -0.43984279202E+01  0.59749454672E+02 -0.33466593332E+02  0.68624750426E+02  0.00000000000E+00 0.  1.
         11    1    5    5    0    0  0.17492498637E+03 -0.49753435428E+03 -0.15797061403E+03  0.55053964384E+03  0.00000000000E+00 0.  1.
        -11    1    5    5    0    0  0.20894114557E+03 -0.63593688919E+03 -0.31447104924E+03  0.73957026045E+03  0.00000000000E+00 0. -1.
          4    1    6    6  503    0  0.41848412275E+02 -0.75343373260E+02  0.33576052977E+02  0.92494674645E+02  0.00000000000E+00 0. -1.
         -4    1    6    6    0  503  0.10969197013E+03 -0.43864523537E+03  0.35546772773E+03  0.57515152463E+03  0.00000000000E+00 0.  1.
<mgrwt>
<rscale>  0 0.38182998E+04</rscale>
<asrwt>0</asrwt>
<pdfrwt beam="1">  1        2 0.39271260E+00 0.38182998E+04</pdfrwt>
<pdfrwt beam="2">  1       -1 0.21967392E+00 0.38182998E+04</pdfrwt>
<totfact> 0.32642545E-01</totfact>
</mgrwt>
</event>
<event>
12    6  0.1647231E-007  0.2807879E+04  0.7818608E-02  0.8300826E-01
         -1   -1    0    0    0  501 -0.00000000000E+00  0.00000000000E+00  0.68289547581E+03  0.68289547581E+03  0.00000000000E+00 0.  1.
          2   -1    0    0  501    0  0.00000000000E+00 -0.00000000000E+00 -0.28863081534E+04  0.28863081534E+04  0.00000000000E+00 0. -1.
         24    2    1    2    0    0 -0.36217116450E+03 -0.71941895409E+03 -0.22087015437E+04  0.23522791478E+04  0.78250214557E+02 0.  0.
        254    2    1    2    0    0  0.36217116450E+03  0.71941895409E+03  0.52888660469E+01  0.12169244815E+04  0.91222016950E+03 0.  0.
         23    2    4    4    0    0  0.72423546740E+01  0.56186704865E+02 -0.36053322007E+03  0.37590638800E+03  0.90066710050E+02 0.  0.
         23    2    4    4    0    0  0.35492880982E+03  0.66323224922E+03  0.36582208612E+03  0.84101809349E+03  0.87373671281E+02 0.  0.
          4    1    3    3  502    0 -0.27714110229E+03 -0.56047426072E+03 -0.16147440098E+04  0.17315706179E+04  0.00000000000E+00 0. -1.
         -3    1    3    3    0  502 -0.85030062202E+02 -0.15894469336E+03 -0.59395753384E+03  0.62070852985E+03  0.00000000000E+00 0.  1.
         11    1    5    5    0    0  0.35899511658E+00  0.15482744212E+01 -0.26954998528E+03  0.26955467089E+03  0.00000000000E+00 0. -1.
        -11    1    5    5    0    0  0.68833595574E+01  0.54638430444E+02 -0.90983234787E+02  0.10635171711E+03  0.00000000000E+00 0.  1.
          4    1    6    6  503    0 -0.47356719747E+01  0.50272012723E+01  0.11381267564E+01  0.69996195752E+01  0.00000000000E+00 0. -1.
         -4    1    6    6    0  503  0.35966448180E+03  0.65820504795E+03  0.36468395936E+03  0.83401847391E+03  0.00000000000E+00 0.  1.
<mgrwt>
<rscale>  0 0.28078795E+04</rscale>
<asrwt>0</asrwt>
<pdfrwt beam="1">  1        2 0.44404740E+00 0.28078795E+04</pdfrwt>
<pdfrwt beam="2">  1       -1 0.10506084E+00 0.28078795E+04</pdfrwt>
<totfact> 0.17206182E+00</totfact>
</mgrwt>
</event>
<event>
12    6  0.1647231E-007  0.1278915E+04  0.7818608E-02  0.9046455E-01
         -1   -1    0    0    0  501 -0.00000000000E+00  0.00000000000E+00  0.37601176420E+03  0.37601176420E+03  0.00000000000E+00 0.  1.
          2   -1    0    0  501    0  0.00000000000E+00 -0.00000000000E+00 -0.10874823248E+04  0.10874823248E+04  0.00000000000E+00 0. -1.
         24    2    1    2    0    0  0.46548159074E+02  0.10125667544E+03 -0.52527683464E+03  0.54303125410E+03  0.80916898637E+02 0.  0.
        254    2    1    2    0    0 -0.46548159074E+02 -0.10125667544E+03 -0.18619372590E+03  0.92046283485E+03  0.89451891056E+03 0.  0.
         23    2    4    4    0    0 -0.34758764172E+03  0.67101399154E+02  0.18175076433E+03  0.40836149247E+03  0.91684250329E+02 0.  0.
         23    2    4    4    0    0  0.30103948264E+03 -0.16835807459E+03 -0.36794449023E+03  0.51210134238E+03  0.88856207342E+02 0.  0.
          2    1    3    3  502    0  0.17205549648E+02  0.47724067351E+02 -0.40484039018E+03  0.40800656743E+03  0.00000000000E+00 0. -1.
         -1    1    3    3    0  502  0.29342609426E+02  0.53532608088E+02 -0.12043644446E+03  0.13502468668E+03  0.00000000000E+00 0.  1.
         11    1    5    5    0    0 -0.34573818130E+03  0.74179040121E+02  0.16525423771E+03  0.39031574793E+03  0.00000000000E+00 0.  1.
        -11    1    5    5    0    0 -0.18494604130E+01 -0.70776409668E+01  0.16496526619E+02  0.18045744539E+02  0.00000000000E+00 0. -1.
          1    1    6    6  503    0 -0.31267571039E+01 -0.31417060740E+01 -0.23022468380E+02  0.23445276227E+02  0.00000000000E+00 0. -1.
         -1    1    6    6    0  503  0.30416623975E+03 -0.16521636852E+03 -0.34492202185E+03  0.48865606615E+03  0.00000000000E+00 0.  1.
<mgrwt>
<rscale>  0 0.12789154E+04</rscale>
<asrwt>0</asrwt>
<pdfrwt beam="1">  1        2 0.16730497E+00 0.12789154E+04</pdfrwt>
<pdfrwt beam="2">  1       -1 0.57847964E-01 0.12789154E+04</pdfrwt>
<totfact> 0.75154225E+01</totfact>
</mgrwt>
</event>
<event>
12    6  0.1647231E-007  0.1829092E+04  0.7818608E-02  0.8690980E-01
          2   -1    0    0  501    0  0.00000000000E+00  0.00000000000E+00  0.54151299162E+03  0.54151299162E+03  0.00000000000E+00 0. -1.
         -1   -1    0    0    0  501 -0.00000000000E+00 -0.00000000000E+00 -0.15445501177E+04  0.15445501177E+04  0.00000000000E+00 0.  1.
         24    2    1    2    0    0 -0.35575711405E+03  0.13863955364E+03 -0.10311374469E+04  0.11023784043E+04  0.78801407962E+02 0.  0.
        254    2    1    2    0    0  0.35575711405E+03 -0.13863955364E+03  0.28100320787E+02  0.98368470502E+03  0.90612467179E+03 0.  0.
         23    2    4    4    0    0 -0.20486635636E+03  0.21830096520E+03 -0.43660908587E+01  0.31164267742E+03  0.86467105095E+02 0.  0.
         23    2    4    4    0    0  0.56062347041E+03 -0.35694051885E+03  0.32466411645E+02  0.67204202760E+03  0.94240168745E+02 0.  0.
          4    1    3    3  502    0 -0.13208748321E+02 -0.60031455456E+01 -0.17739017391E+02  0.22916839368E+02  0.00000000000E+00 0. -1.
         -3    1    3    3    0  502 -0.34254836573E+03  0.14464269919E+03 -0.10133984295E+04  0.10794615650E+04  0.00000000000E+00 0.  1.
         11    1    5    5    0    0 -0.82337220265E+02  0.14526478850E+03 -0.19880456833E+02  0.16815620471E+03  0.00000000000E+00 0. -1.
        -11    1    5    5    0    0 -0.12252913609E+03  0.73036176707E+02  0.15514365975E+02  0.14348647271E+03  0.00000000000E+00 0.  1.
          1    1    6    6  503    0  0.73125994634E+02 -0.65057426986E+02  0.34680024931E+02  0.10383922200E+03  0.00000000000E+00 0. -1.
         -1    1    6    6    0  503  0.48749747577E+03 -0.29188309186E+03 -0.22136132851E+01  0.56820280559E+03  0.00000000000E+00 0.  1.
<mgrwt>
<rscale>  0 0.18290915E+04</rscale>
<asrwt>0</asrwt>
<pdfrwt beam="1">  1        2 0.83309692E-01 0.18290915E+04</pdfrwt>
<pdfrwt beam="2">  1       -1 0.23762309E+00 0.18290915E+04</pdfrwt>
<totfact> 0.50714343E+00</totfact>
</mgrwt>
</event>
<event>
12    6  0.1647231E-007  0.1107288E+04  0.7818608E-02  0.9198117E-01
         -1   -1    0    0    0  501 -0.00000000000E+00  0.00000000000E+00  0.48901066440E+03  0.48901066440E+03  0.00000000000E+00 0.  1.
          2   -1    0    0  501    0  0.00000000000E+00 -0.00000000000E+00 -0.62682022593E+03  0.62682022593E+03  0.00000000000E+00 0. -1.
         24    2    1    2    0    0  0.15482505446E+03 -0.35728071926E+02 -0.10143607409E+03  0.20471465181E+03  0.79821794812E+02 0.  0.
        254    2    1    2    0    0 -0.15482505446E+03  0.35728071926E+02 -0.36373487447E+02  0.91111623852E+03  0.89641646398E+03 0.  0.
         23    2    4    4    0    0  0.26547080254E+03  0.17180277060E+03  0.21685623949E+03  0.39390114731E+03  0.90224975810E+02 0.  0.
         23    2    4    4    0    0 -0.42029585700E+03 -0.13607469868E+03 -0.25322972693E+03  0.51721509121E+03  0.90670970799E+02 0.  0.
          2    1    3    3  502    0  0.91022800710E+02  0.64178443326E+01 -0.88586746280E+02  0.12717684770E+03  0.00000000000E+00 0. -1.
         -1    1    3    3    0  502  0.63802253748E+02 -0.42145916258E+02 -0.12849327811E+02  0.77537804107E+02  0.00000000000E+00 0.  1.
         11    1    5    5    0    0  0.44003422873E+02  0.48837379895E+02  0.92553667747E+01  0.66385636351E+02  0.00000000000E+00 0. -1.
        -11    1    5    5    0    0  0.22146737967E+03  0.12296539071E+03  0.20760087271E+03  0.32751551096E+03  0.00000000000E+00 0.  1.
          3    1    6    6  503    0 -0.18480054146E+03 -0.10579777589E+03 -0.10634801480E+03  0.23802165817E+03  0.00000000000E+00 0. -1.
         -3    1    6    6    0  503 -0.23549531554E+03 -0.30276922787E+02 -0.14688171213E+03  0.27919343304E+03  0.00000000000E+00 0.  1.
<mgrwt>
<rscale>  0 0.11072882E+04</rscale>
<asrwt>0</asrwt>
<pdfrwt beam="1">  1        2 0.96433880E-01 0.11072882E+04</pdfrwt>
<pdfrwt beam="2">  1       -1 0.75232410E-01 0.11072882E+04</pdfrwt>
<totfact> 0.94761382E+01</totfact>
</mgrwt>
</event>
<event>
12    6  0.1647231E-007  0.1563328E+04  0.7818608E-02  0.8843399E-01
          2   -1    0    0  501    0  0.00000000000E+00  0.00000000000E+00  0.21361808181E+04  0.21361808181E+04  0.00000000000E+00 0. -1.
         -1   -1    0    0    0  501 -0.00000000000E+00 -0.00000000000E+00 -0.28602391264E+03  0.28602391264E+03  0.00000000000E+00 0.  1.
         24    2    1    2    0    0  0.49991935760E+03 -0.17559378746E+03  0.51512134235E+03  0.74326082698E+03  0.79587167786E+02 0.  0.
        254    2    1    2    0    0 -0.49991935760E+03  0.17559378746E+03  0.13350355631E+04  0.16789439038E+04  0.86935616115E+03 0.  0.
         23    2    4    4    0    0 -0.43439809438E+03  0.13565311588E+03  0.14435924584E+04  0.15163915976E+04  0.91546814367E+02 0.  0.
         23    2    4    4    0    0 -0.65521263221E+02  0.39940671580E+02 -0.10855689525E+03  0.16255230616E+03  0.93543356525E+02 0.  0.
          2    1    3    3  502    0  0.40386382166E+03 -0.15938666958E+03  0.38198900666E+03  0.57829551104E+03  0.00000000000E+00 0. -1.
         -1    1    3    3    0  502  0.96055535944E+02 -0.16207117884E+02  0.13313233569E+03  0.16496531593E+03  0.00000000000E+00 0.  1.
         11    1    5    5    0    0 -0.95420330648E+02  0.38316800073E+02  0.21744251153E+03  0.24052954598E+03  0.00000000000E+00 0. -1.
        -11    1    5    5    0    0 -0.33897776373E+03  0.97336315810E+02  0.12261499468E+04  0.12758620516E+04  0.00000000000E+00 0.  1.
          3    1    6    6  503    0  0.48381919861E+01 -0.90782924169E+01  0.11233960743E+02  0.15232378963E+02  0.00000000000E+00 0. -1.
         -3    1    6    6    0  503 -0.70359455207E+02  0.49018963997E+02 -0.11979085599E+03  0.14731992719E+03  0.00000000000E+00 0.  1.
<mgrwt>
<rscale>  0 0.15633282E+04</rscale>
<asrwt>0</asrwt>
<pdfrwt beam="1">  1        2 0.32864319E+00 0.15633282E+04</pdfrwt>
<pdfrwt beam="2">  1       -1 0.44003680E-01 0.15633282E+04</pdfrwt>
<totfact> 0.31385454E+01</totfact>
</mgrwt>
</event>
<event>
12    6  0.1647231E-007  0.2024739E+04  0.7818608E-02  0.8595141E-01
         -1   -1    0    0    0  501 -0.00000000000E+00  0.00000000000E+00  0.15065431619E+04  0.15065431619E+04  0.00000000000E+00 0.  1.
          2   -1    0    0  501    0  0.00000000000E+00 -0.00000000000E+00 -0.68029395327E+03  0.68029395327E+03  0.00000000000E+00 0. -1.
         24    2    1    2    0    0 -0.53971954281E+02 -0.55285257062E+02 -0.51433725070E+03  0.52624492798E+03  0.80134170387E+02 0.  0.
        254    2    1    2    0    0  0.53971954281E+02  0.55285257062E+02  0.13405864593E+04  0.16605921872E+04  0.97694673635E+03 0.  0.
         23    2    4    4    0    0  0.43047733683E+03 -0.16803482507E+03  0.39707570066E+03  0.61645986121E+03  0.93846728621E+02 0.  0.
         23    2    4    4    0    0 -0.37650538255E+03  0.22332008213E+03  0.94351075864E+03  0.10441323259E+04  0.91496449262E+02 0.  0.
          4    1    3    3  502    0 -0.33063120247E+02 -0.40679262405E+02 -0.48301778975E+03  0.48585404962E+03  0.00000000000E+00 0. -1.
         -3    1    3    3    0  502 -0.20908834034E+02 -0.14605994657E+02 -0.31319460949E+02  0.40390878360E+02  0.00000000000E+00 0.  1.
         11    1    5    5    0    0  0.14172774716E+02 -0.23032477821E+02  0.72766957896E+01  0.28005586573E+02  0.00000000000E+00 0.  1.
        -11    1    5    5    0    0  0.41630456211E+03 -0.14500234724E+03  0.38979900487E+03  0.58845427464E+03  0.00000000000E+00 0. -1.
          2    1    6    6  503    0 -0.23158977666E+03  0.90002752611E+02  0.47894343436E+03  0.53955642285E+03  0.00000000000E+00 0. -1.
         -2    1    6    6    0  503 -0.14491560589E+03  0.13331732952E+03  0.46456732429E+03  0.50457590309E+03  0.00000000000E+00 0.  1.
<mgrwt>
<rscale>  0 0.20247392E+04</rscale>
<asrwt>0</asrwt>
<pdfrwt beam="1">  1        2 0.10466061E+00 0.20247392E+04</pdfrwt>
<pdfrwt beam="2">  1       -1 0.23177587E+00 0.20247392E+04</pdfrwt>
<totfact> 0.41301411E+00</totfact>
</mgrwt>
</event>
<event>
12    6  0.1647231E-007  0.1896579E+04  0.7818608E-02  0.8656561E-01
         -1   -1    0    0    0  501 -0.00000000000E+00  0.00000000000E+00  0.13688599427E+04  0.13688599427E+04  0.00000000000E+00 0.  1.
          2   -1    0    0  501    0  0.00000000000E+00 -0.00000000000E+00 -0.65693551580E+03  0.65693551580E+03  0.00000000000E+00 0. -1.
         24    2    1    2    0    0 -0.20980917367E+03 -0.35918802084E+03  0.89754606014E+03  0.99246622085E+03  0.79776849988E+02 0.  0.
        254    2    1    2    0    0  0.20980917367E+03  0.35918802084E+03 -0.18562163323E+03  0.10333292377E+04  0.92751172445E+03 0.  0.
         23    2    4    4    0    0  0.42628517690E+03  0.55438513894E+03 -0.78827834229E+02  0.70965891552E+03  0.91323680410E+02 0.  0.
         23    2    4    4    0    0 -0.21647600322E+03 -0.19519711810E+03 -0.10679379900E+03  0.32367032214E+03  0.91617613150E+02 0.  0.
          2    1    3    3  502    0 -0.30280980242E+02 -0.51774288325E+02  0.73896294412E+02  0.95174455731E+02  0.00000000000E+00 0. -1.
         -1    1    3    3    0  502 -0.17952819343E+03 -0.30741373251E+03  0.82364976572E+03  0.89729176512E+03  0.00000000000E+00 0.  1.
         11    1    5    5    0    0  0.12510853952E+03  0.10579631378E+03 -0.35226026279E+02  0.16758842322E+03  0.00000000000E+00 0.  1.
        -11    1    5    5    0    0  0.30117663737E+03  0.44858882516E+03 -0.43601807950E+02  0.54207049229E+03  0.00000000000E+00 0. -1.
          4    1    6    6  503    0 -0.14704009549E+03 -0.18285376907E+03 -0.88843188583E+02  0.25089719549E+03  0.00000000000E+00 0. -1.
         -4    1    6    6    0  503 -0.69435907729E+02 -0.12343349030E+02 -0.17950610419E+02  0.72773126646E+02  0.00000000000E+00 0.  1.
<mgrwt>
<rscale>  0 0.18965787E+04</rscale>
<asrwt>0</asrwt>
<pdfrwt beam="1">  1        2 0.10106700E+00 0.18965787E+04</pdfrwt>
<pdfrwt beam="2">  1       -1 0.21059384E+00 0.18965787E+04</pdfrwt>
<totfact> 0.60451604E+00</totfact>
</mgrwt>
</event>
<event>
12    6  0.1647231E-007  0.1437011E+04  0.7818608E-02  0.8927456E-01
          2   -1    0    0  501    0  0.00000000000E+00  0.00000000000E+00  0.18100473192E+04  0.18100473192E+04  0.00000000000E+00 0. -1.
         -1   -1    0    0    0  501 -0.00000000000E+00 -0.00000000000E+00 -0.28521345808E+03  0.28521345808E+03  0.00000000000E+00 0.  1.
         24    2    1    2    0    0  0.39703639473E+03  0.91632528559E+02  0.31176896728E+03  0.52365778398E+03  0.10480060465E+03 0.  0.
        254    2    1    2    0    0 -0.39703639473E+03 -0.91632528559E+02  0.12130648939E+04  0.15716029934E+04  0.91234593927E+03 0.  0.
         23    2    4    4    0    0 -0.86567053532E+02 -0.25415853455E+03  0.11728713412E+04  0.12071790859E+04  0.97794411661E+02 0.  0.
         23    2    4    4    0    0 -0.31046934120E+03  0.16252600599E+03  0.40193552717E+02  0.36442390750E+03  0.91560625960E+02 0.  0.
          4    1    3    3  502    0  0.21853494504E+03  0.83499667817E+01  0.20429065493E+03  0.29926896906E+03  0.00000000000E+00 0. -1.
         -3    1    3    3    0  502  0.17850144969E+03  0.83282561778E+02  0.10747831235E+03  0.22438881492E+03  0.00000000000E+00 0.  1.
         11    1    5    5    0    0 -0.48140929188E+02 -0.23514297186E+03  0.92534461535E+03  0.95596674808E+03  0.00000000000E+00 0. -1.
        -11    1    5    5    0    0 -0.38426124344E+02 -0.19015562693E+02  0.24752672581E+03  0.25121233777E+03  0.00000000000E+00 0.  1.
          4    1    6    6  503    0 -0.22520515747E+03  0.14480261845E+03  0.61619670071E+02  0.27474014087E+03  0.00000000000E+00 0. -1.
         -4    1    6    6    0  503 -0.85264183724E+02  0.17723387543E+02 -0.21426117354E+02  0.89683766630E+02  0.00000000000E+00 0.  1.
<mgrwt>
<rscale>  0 0.14370106E+04</rscale>
<asrwt>0</asrwt>
<pdfrwt beam="1">  1        2 0.27846881E+00 0.14370106E+04</pdfrwt>
<pdfrwt beam="2">  1       -1 0.43878995E-01 0.14370106E+04</pdfrwt>
<totfact> 0.48361975E+01</totfact>
</mgrwt>
</event>
<event>
12    6  0.1647231E-007  0.1607808E+04  0.7818608E-02  0.8815766E-01
          2   -1    0    0  501    0  0.00000000000E+00  0.00000000000E+00  0.79488198912E+03  0.79488198912E+03  0.00000000000E+00 0. -1.
         -1   -1    0    0    0  501 -0.00000000000E+00 -0.00000000000E+00 -0.81302836014E+03  0.81302836014E+03  0.00000000000E+00 0.  1.
         24    2    1    2    0    0  0.90234736214E+02 -0.43497469071E+03 -0.28734853122E+03  0.53469621268E+03  0.77366480372E+02 0.  0.
        254    2    1    2    0    0 -0.90234736214E+02  0.43497469071E+03  0.26920216020E+03  0.10732141366E+04  0.93913443698E+03 0.  0.
         23    2    4    4    0    0  0.24577790529E+02 -0.19567605001E+03 -0.18279259257E+03  0.28351924545E+03  0.89871276302E+02 0.  0.
         23    2    4    4    0    0 -0.11481252674E+03  0.63065074072E+03  0.45199475278E+03  0.78969489114E+03  0.91741438219E+02 0.  0.
          4    1    3    3  502    0  0.44449654068E+01 -0.74434625037E+01  0.47148388641E+01  0.98687667429E+01  0.00000000000E+00 0. -1.
         -3    1    3    3    0  502  0.85789770808E+02 -0.42753122820E+03 -0.29206337009E+03  0.52482744594E+03  0.00000000000E+00 0.  1.
         11    1    5    5    0    0  0.29272665552E+02 -0.12241808820E+03 -0.16580842676E+03  0.20817183203E+03  0.00000000000E+00 0. -1.
        -11    1    5    5    0    0 -0.46948750225E+01 -0.73257961806E+02 -0.16984165813E+02  0.75347413411E+02  0.00000000000E+00 0.  1.
          4    1    6    6  503    0 -0.28391675557E+02  0.10663427147E+03  0.12165343946E+03  0.16424528738E+03  0.00000000000E+00 0. -1.
         -4    1    6    6    0  503 -0.86420851186E+02  0.52401646924E+03  0.33034131332E+03  0.62544960376E+03  0.00000000000E+00 0.  1.
<mgrwt>
<rscale>  0 0.16078079E+04</rscale>
<asrwt>0</asrwt>
<pdfrwt beam="1">  1        2 0.12228954E+00 0.16078079E+04</pdfrwt>
<pdfrwt beam="2">  1       -1 0.12508129E+00 0.16078079E+04</pdfrwt>
<totfact> 0.21243198E+01</totfact>
</mgrwt>
</event>
<event>
12    6  0.1647231E-007  0.2308270E+04  0.7818608E-02  0.8474667E-01
         -1   -1    0    0    0  501 -0.00000000000E+00  0.00000000000E+00  0.66789002132E+03  0.66789002132E+03  0.00000000000E+00 0.  1.
          2   -1    0    0  501    0  0.00000000000E+00 -0.00000000000E+00 -0.19943818357E+04  0.19943818357E+04  0.00000000000E+00 0. -1.
         24    2    1    2    0    0 -0.25095978724E+03  0.33870393840E+03  0.45370220042E+03  0.62496541740E+03  0.83874391646E+02 0.  0.
        254    2    1    2    0    0  0.25095978724E+03 -0.33870393840E+03 -0.17801940148E+04  0.20373064396E+04  0.89656323027E+03 0.  0.
         23    2    4    4    0    0  0.46996974253E+03  0.25145238419E+02 -0.13179069042E+04  0.14023382136E+04  0.90388135975E+02 0.  0.
         23    2    4    4    0    0 -0.21900995530E+03 -0.36384917682E+03 -0.46228711056E+03  0.63496822604E+03  0.95518016566E+02 0.  0.
          4    1    3    3  502    0 -0.61756219461E+02  0.14329091885E+03  0.19322573097E+03  0.24835921802E+03  0.00000000000E+00 0. -1.
         -3    1    3    3    0  502 -0.18920356778E+03  0.19541301956E+03  0.26047646945E+03  0.37660619938E+03  0.00000000000E+00 0.  1.
         11    1    5    5    0    0  0.12575507948E+03 -0.18949508764E+02 -0.26971192376E+03  0.29819112280E+03  0.00000000000E+00 0. -1.
        -11    1    5    5    0    0  0.34421466306E+03  0.44094747184E+02 -0.10481949804E+04  0.11041470908E+04  0.00000000000E+00 0.  1.
          4    1    6    6  503    0 -0.12916118883E+03 -0.12564277833E+03 -0.17656487401E+03  0.25227737746E+03  0.00000000000E+00 0. -1.
         -4    1    6    6    0  503 -0.89848766463E+02 -0.23820639849E+03 -0.28572223656E+03  0.38269084857E+03  0.00000000000E+00 0.  1.
<mgrwt>
<rscale>  0 0.23082701E+04</rscale>
<asrwt>0</asrwt>
<pdfrwt beam="1">  1        2 0.30682797E+00 0.23082701E+04</pdfrwt>
<pdfrwt beam="2">  1       -1 0.10275231E+00 0.23082701E+04</pdfrwt>
<totfact> 0.62119228E+00</totfact>
</mgrwt>
</event>
<event>
12    6  0.1647231E-007  0.2008178E+04  0.7818608E-02  0.8602807E-01
         -1   -1    0    0    0  501 -0.00000000000E+00  0.00000000000E+00  0.44540611330E+03  0.44540611330E+03  0.00000000000E+00 0.  1.
          2   -1    0    0  501    0  0.00000000000E+00 -0.00000000000E+00 -0.22635398807E+04  0.22635398807E+04  0.00000000000E+00 0. -1.
         24    2    1    2    0    0  0.49383241011E+02 -0.25495550978E+03  0.29305353182E+03  0.40011757632E+03  0.82296329864E+02 0.  0.
        254    2    1    2    0    0 -0.49383241011E+02  0.25495550978E+03 -0.21111872992E+04  0.23088284177E+04  0.89785067434E+03 0.  0.
         23    2    4    4    0    0  0.23341681615E+03  0.64598552835E+02 -0.11826014178E+03  0.28490432352E+03  0.92350578450E+02 0.  0.
         23    2    4    4    0    0 -0.28280005716E+03  0.19035695694E+03 -0.19929271574E+04  0.20239240941E+04  0.91095777383E+02 0.  0.
          4    1    3    3  502    0  0.67553144641E+02 -0.14645144959E+03  0.15613804745E+03  0.22447838270E+03  0.00000000000E+00 0. -1.
         -3    1    3    3    0  502 -0.18169903630E+02 -0.10850406019E+03  0.13691548438E+03  0.17563919362E+03  0.00000000000E+00 0.  1.
         11    1    5    5    0    0  0.15025339106E+03  0.63383716909E+02 -0.34143689493E+02  0.16661143006E+03  0.00000000000E+00 0. -1.
        -11    1    5    5    0    0  0.83163425084E+02  0.12148359261E+01 -0.84116452290E+02  0.11829289346E+03  0.00000000000E+00 0.  1.
          4    1    6    6  503    0 -0.28492745016E+03  0.17676232941E+03 -0.18337524536E+04  0.18641557429E+04  0.00000000000E+00 0. -1.
         -4    1    6    6    0  503  0.21273930060E+01  0.13594627535E+02 -0.15917470385E+03  0.15976835120E+03  0.00000000000E+00 0.  1.
<mgrwt>
<rscale>  0 0.20081778E+04</rscale>
<asrwt>0</asrwt>
<pdfrwt beam="1">  1        2 0.34823690E+00 0.20081778E+04</pdfrwt>
<pdfrwt beam="2">  1       -1 0.68524018E-01 0.20081778E+04</pdfrwt>
<totfact> 0.10832904E+01</totfact>
</mgrwt>
</event>
<event>
12    6  0.1647231E-007  0.1578662E+04  0.7818608E-02  0.8833765E-01
         -1   -1    0    0    0  501 -0.00000000000E+00  0.00000000000E+00  0.55465089579E+03  0.55465089579E+03  0.00000000000E+00 0.  1.
          2   -1    0    0  501    0  0.00000000000E+00 -0.00000000000E+00 -0.11233066693E+04  0.11233066693E+04  0.00000000000E+00 0. -1.
         24    2    1    2    0    0  0.11513947095E+03 -0.51810710638E+03 -0.14590111412E+03  0.55588438031E+03  0.77641726663E+02 0.  0.
        254    2    1    2    0    0 -0.11513947095E+03  0.51810710638E+03 -0.42275465941E+03  0.11220731848E+04  0.89366361599E+03 0.  0.
         23    2    4    4    0    0 -0.18781838796E+03  0.41418043421E+03 -0.67872865576E+03  0.82229697338E+03  0.93158710526E+02 0.  0.
         23    2    4    4    0    0  0.72678917013E+02  0.10392667217E+03  0.25597399634E+03  0.29977621142E+03  0.90885158102E+02 0.  0.
          4    1    3    3  502    0  0.99631012894E+02 -0.41623265680E+03 -0.14787684242E+03  0.45281731840E+03  0.00000000000E+00 0. -1.
         -3    1    3    3    0  502  0.15508458054E+02 -0.10187444958E+03  0.19757283058E+01  0.10306706191E+03  0.00000000000E+00 0.  1.
         11    1    5    5    0    0 -0.52341311452E+02  0.82718294877E+02 -0.88617172964E+02  0.13204140463E+03  0.00000000000E+00 0. -1.
        -11    1    5    5    0    0 -0.13547707651E+03  0.33146213933E+03 -0.59011148279E+03  0.69025556875E+03  0.00000000000E+00 0.  1.
          1    1    6    6  503    0  0.80882084006E+02  0.11274887199E+03  0.20603102848E+03  0.24840089442E+03  0.00000000000E+00 0. -1.
         -1    1    6    6    0  503 -0.82031669932E+01 -0.88221998255E+01  0.49942967863E+02  0.51375317006E+02  0.00000000000E+00 0.  1.
<mgrwt>
<rscale>  0 0.15786615E+04</rscale>
<asrwt>0</asrwt>
<pdfrwt beam="1">  1        2 0.17281641E+00 0.15786615E+04</pdfrwt>
<pdfrwt beam="2">  1       -1 0.85330909E-01 0.15786615E+04</pdfrwt>
<totfact> 0.31351942E+01</totfact>
</mgrwt>
</event>
<event>
12    6  0.1647231E-007  0.1887468E+04  0.7818608E-02  0.8661120E-01
          2   -1    0    0  501    0  0.00000000000E+00  0.00000000000E+00  0.16834039704E+04  0.16834039704E+04  0.00000000000E+00 0. -1.
         -1   -1    0    0    0  501 -0.00000000000E+00 -0.00000000000E+00 -0.52906717679E+03  0.52906717679E+03  0.00000000000E+00 0.  1.
         24    2    1    2    0    0  0.65308161409E+03 -0.51250671395E+02  0.73487938342E+02  0.66409202721E+03  0.80470600549E+02 0.  0.
        254    2    1    2    0    0 -0.65308161409E+03  0.51250671395E+02  0.10808488553E+04  0.15483791200E+04  0.89448388767E+03 0.  0.
         23    2    4    4    0    0 -0.59323253619E+03  0.39751198581E+03  0.87209800889E+03  0.11307835666E+04  0.90420774546E+02 0.  0.
         23    2    4    4    0    0 -0.59849077893E+02 -0.34626131442E+03  0.20875084640E+03  0.41759555342E+03  0.85617290185E+02 0.  0.
          4    1    3    3  502    0  0.27085439727E+03 -0.35193126289E+02 -0.67029064664E+01  0.27321345064E+03  0.00000000000E+00 0. -1.
         -3    1    3    3    0  502  0.38222721682E+03 -0.16057545106E+02  0.80190844809E+02  0.39087857657E+03  0.00000000000E+00 0.  1.
         11    1    5    5    0    0 -0.29244993588E+03  0.17876439124E+03  0.48583434465E+03  0.59457437130E+03  0.00000000000E+00 0. -1.
        -11    1    5    5    0    0 -0.30078260031E+03  0.21874759458E+03  0.38626366424E+03  0.53620919527E+03  0.00000000000E+00 0.  1.
          2    1    6    6  503    0 -0.31290714427E+02 -0.75064811210E+02  0.14060045866E+02  0.82531930676E+02  0.00000000000E+00 0. -1.
         -2    1    6    6    0  503 -0.28558363466E+02 -0.27119650321E+03  0.19469080053E+03  0.33506362275E+03  0.00000000000E+00 0.  1.
<mgrwt>
<rscale>  0 0.18874679E+04</rscale>
<asrwt>0</asrwt>
<pdfrwt beam="1">  1        2 0.25898522E+00 0.18874679E+04</pdfrwt>
<pdfrwt beam="2">  1       -1 0.81394951E-01 0.18874679E+04</pdfrwt>
<totfact> 0.16081291E+01</totfact>
</mgrwt>
</event>
<event>
12    6  0.1647231E-007  0.3068933E+04  0.7818608E-02  0.8224316E-01
          2   -1    0    0  501    0  0.00000000000E+00  0.00000000000E+00  0.17959209882E+04  0.17959209882E+04  0.00000000000E+00 0. -1.
         -1   -1    0    0    0  501 -0.00000000000E+00 -0.00000000000E+00 -0.13110753745E+04  0.13110753745E+04  0.00000000000E+00 0.  1.
         24    2    1    2    0    0 -0.33112286631E+03  0.10572184271E+04  0.10958478280E+04  0.15604293639E+04  0.81879071639E+02 0.  0.
        254    2    1    2    0    0  0.33112286631E+03 -0.10572184271E+04 -0.61100221431E+03  0.15465669987E+04  0.88949009012E+03 0.  0.
         23    2    4    4    0    0 -0.20676284304E+02 -0.99161237807E+03 -0.62799753413E+03  0.11774697390E+04  0.91276866228E+02 0.  0.
         23    2    4    4    0    0  0.35179915061E+03 -0.65606049049E+02  0.16995319820E+02  0.36909725973E+03  0.88753310907E+02 0.  0.
          4    1    3    3  502    0 -0.28636164303E+03  0.92899347274E+03  0.99667202617E+03  0.13922596707E+04  0.00000000000E+00 0. -1.
         -3    1    3    3    0  502 -0.44761223283E+02  0.12822495438E+03  0.99175801860E+02  0.16816969320E+03  0.00000000000E+00 0.  1.
         11    1    5    5    0    0 -0.46061805087E+02 -0.27654603002E+03 -0.18591440142E+03  0.33639792101E+03  0.00000000000E+00 0.  1.
        -11    1    5    5    0    0  0.25385520783E+02 -0.71506634805E+03 -0.44208313271E+03  0.84107181799E+03  0.00000000000E+00 0. -1.
          4    1    6    6  503    0  0.22438663796E+03 -0.37579827550E+02  0.53319458725E+02  0.23367621062E+03  0.00000000000E+00 0. -1.
         -4    1    6    6    0  503  0.12741251266E+03 -0.28026221499E+02 -0.36324138905E+02  0.13542104910E+03  0.00000000000E+00 0.  1.
<mgrwt>
<rscale>  0 0.30689332E+04</rscale>
<asrwt>0</asrwt>
<pdfrwt beam="1">  1        2 0.27629554E+00 0.30689332E+04</pdfrwt>
<pdfrwt beam="2">  1       -1 0.20170390E+00 0.30689332E+04</pdfrwt>
<totfact> 0.12307880E+00</totfact>
</mgrwt>
</event>
<event>
12    6  0.1647231E-007  0.2456435E+04  0.7818608E-02  0.8418672E-01
          2   -1    0    0  501    0  0.00000000000E+00  0.00000000000E+00  0.12734092904E+04  0.12734092904E+04  0.00000000000E+00 0. -1.
         -1   -1    0    0    0  501 -0.00000000000E+00 -0.00000000000E+00 -0.11846294787E+04  0.11846294787E+04  0.00000000000E+00 0.  1.
         24    2    1    2    0    0  0.54166737572E+03  0.61881759774E+03 -0.63471017397E+03  0.10414840175E+04  0.74116047655E+02 0.  0.
        254    2    1    2    0    0 -0.54166737572E+03 -0.61881759774E+03  0.72348998567E+03  0.14165547517E+04  0.89824876288E+03 0.  0.
         23    2    4    4    0    0 -0.61766145793E+03 -0.74649248146E+03  0.75924038152E+03  0.12343210877E+04  0.91355838561E+02 0.  0.
         23    2    4    4    0    0  0.75994082208E+02  0.12767488373E+03 -0.35750395856E+02  0.18223366395E+03  0.99272559184E+02 0.  0.
          2    1    3    3  502    0  0.35909809767E+03  0.43513656972E+03 -0.39610141862E+03  0.68934143346E+03  0.00000000000E+00 0. -1.
         -1    1    3    3    0  502  0.18256927805E+03  0.18368102801E+03 -0.23860875536E+03  0.35214258401E+03  0.00000000000E+00 0.  1.
         11    1    5    5    0    0 -0.17853985425E+03 -0.16054862987E+03  0.21013606139E+03  0.31907601980E+03  0.00000000000E+00 0.  1.
        -11    1    5    5    0    0 -0.43912160367E+03 -0.58594385159E+03  0.54910432013E+03  0.91524506795E+03  0.00000000000E+00 0. -1.
          3    1    6    6  503    0  0.39189179668E+02  0.11712649195E+03  0.84006396447E+01  0.12379409383E+03  0.00000000000E+00 0. -1.
         -3    1    6    6    0  503  0.36804902540E+02  0.10548391774E+02 -0.44151035501E+02  0.58439570120E+02  0.00000000000E+00 0.  1.
<mgrwt>
<rscale>  0 0.24564350E+04</rscale>
<asrwt>0</asrwt>
<pdfrwt beam="1">  1        2 0.19590912E+00 0.24564350E+04</pdfrwt>
<pdfrwt beam="2">  1       -1 0.18225069E+00 0.24564350E+04</pdfrwt>
<totfact> 0.35047144E+00</totfact>
</mgrwt>
</event>
<event>
12    6  0.1647231E-007  0.2503333E+04  0.7818608E-02  0.8401799E-01
          2   -1    0    0  501    0  0.00000000000E+00  0.00000000000E+00  0.17565340310E+04  0.17565340310E+04  0.00000000000E+00 0. -1.
         -1   -1    0    0    0  501 -0.00000000000E+00 -0.00000000000E+00 -0.89190915409E+03  0.89190915409E+03  0.00000000000E+00 0.  1.
         24    2    1    2    0    0 -0.33271110602E+03 -0.43144929867E+03  0.13790318822E+04  0.14836079924E+04  0.50185312460E+02 0.  0.
        254    2    1    2    0    0  0.33271110602E+03  0.43144929867E+03 -0.51440700525E+03  0.11648351927E+04  0.89184151159E+03 0.  0.
         23    2    4    4    0    0  0.23700169709E+02  0.23824357727E+03 -0.69962858957E+03  0.74589959372E+03  0.97797445841E+02 0.  0.
         23    2    4    4    0    0  0.30901093631E+03  0.19320572140E+03  0.18522158433E+03  0.41893559902E+03  0.91563045378E+02 0.  0.
          2    1    3    3  502    0 -0.22792709035E+03 -0.30498785498E+03  0.10217983939E+04  0.10904312486E+04  0.00000000000E+00 0. -1.
         -1    1    3    3    0  502 -0.10478401568E+03 -0.12646144369E+03  0.35723348831E+03  0.39317674378E+03  0.00000000000E+00 0.  1.
         11    1    5    5    0    0  0.15919524294E+02  0.23952513273E+03 -0.60412970035E+03  0.65007569968E+03  0.00000000000E+00 0. -1.
        -11    1    5    5    0    0  0.77806454153E+01 -0.12815554624E+01 -0.95498889221E+02  0.95823894045E+02  0.00000000000E+00 0.  1.
          4    1    6    6  503    0  0.94867073682E+01  0.19160625962E+02 -0.73263404348E+01  0.22600939540E+02  0.00000000000E+00 0.  1.
         -4    1    6    6    0  503  0.29952422895E+03  0.17404509544E+03  0.19254792476E+03  0.39633465948E+03  0.00000000000E+00 0. -1.
<mgrwt>
<rscale>  0 0.25033328E+04</rscale>
<asrwt>0</asrwt>
<pdfrwt beam="1">  1        2 0.27023600E+00 0.25033328E+04</pdfrwt>
<pdfrwt beam="2">  1       -1 0.13721679E+00 0.25033328E+04</pdfrwt>
<totfact> 0.40897291E+00</totfact>
</mgrwt>
</event>
<event>
12    6  0.1647231E-007  0.3161536E+04  0.7818608E-02  0.8199050E-01
         -1   -1    0    0    0  501 -0.00000000000E+00  0.00000000000E+00  0.20919603308E+04  0.20919603308E+04  0.00000000000E+00 0.  1.
          2   -1    0    0  501    0  0.00000000000E+00 -0.00000000000E+00 -0.11944906635E+04  0.11944906635E+04  0.00000000000E+00 0. -1.
         24    2    1    2    0    0 -0.88395999805E+03  0.98296860443E+03  0.10432504677E+04  0.16854909146E+04  0.69968060794E+02 0.  0.
        254    2    1    2    0    0  0.88395999805E+03 -0.98296860443E+03 -0.14578080035E+03  0.16009600797E+04  0.89118380798E+03 0.  0.
         23    2    4    4    0    0  0.78863514188E+03 -0.37344727495E+03 -0.35062847316E+03  0.94463115693E+03  0.89327723970E+02 0.  0.
         23    2    4    4    0    0  0.95324856173E+02 -0.60952132948E+03  0.20484767281E+03  0.65632892278E+03  0.90564929880E+02 0.  0.
          4    1    3    3  502    0 -0.15960395840E+03  0.13921505543E+03  0.16527567586E+03  0.26864531305E+03  0.00000000000E+00 0. -1.
         -3    1    3    3    0  502 -0.72435603966E+03  0.84375354900E+03  0.87797479181E+03  0.14168456016E+04  0.00000000000E+00 0.  1.
         11    1    5    5    0    0  0.65706288692E+03 -0.27337439402E+03 -0.27703783513E+03  0.76368524849E+03  0.00000000000E+00 0. -1.
        -11    1    5    5    0    0  0.13157225496E+03 -0.10007288093E+03 -0.73590638031E+02  0.18094590844E+03  0.00000000000E+00 0.  1.
          3    1    6    6  503    0  0.19751660029E+02 -0.17831090412E+03  0.17872495783E+02  0.18028958014E+03  0.00000000000E+00 0. -1.
         -3    1    6    6    0  503  0.75573196144E+02 -0.43121042537E+03  0.18697517702E+03  0.47603934264E+03  0.00000000000E+00 0.  1.
<mgrwt>
<rscale>  0 0.31615358E+04</rscale>
<asrwt>0</asrwt>
<pdfrwt beam="1">  1        2 0.18376779E+00 0.31615358E+04</pdfrwt>
<pdfrwt beam="2">  1       -1 0.32184005E+00 0.31615358E+04</pdfrwt>
<totfact> 0.43714823E-01</totfact>
</mgrwt>
</event>
<event>
12    6  0.1647231E-007  0.1807659E+04  0.7818608E-02  0.8702237E-01
          2   -1    0    0  501    0  0.00000000000E+00  0.00000000000E+00  0.91009081797E+03  0.91009081797E+03  0.00000000000E+00 0. -1.
         -1   -1    0    0    0  501 -0.00000000000E+00 -0.00000000000E+00 -0.89761100137E+03  0.89761100137E+03  0.00000000000E+00 0.  1.
         24    2    1    2    0    0 -0.47786177814E+03  0.35705643284E+03  0.28985190399E+03  0.66783842286E+03  0.78440152845E+02 0.  0.
        254    2    1    2    0    0  0.47786177814E+03 -0.35705643284E+03 -0.27737208739E+03  0.11398633965E+04  0.93086632366E+03 0.  0.
         23    2    4    4    0    0  0.45052481396E+03 -0.29677584681E+03 -0.59167160304E+03  0.80609031826E+03  0.93047321830E+02 0.  0.
         23    2    4    4    0    0  0.27336964179E+02 -0.60280586026E+02  0.31429951565E+03  0.33377307822E+03  0.90770168781E+02 0.  0.
          2    1    3    3  502    0 -0.12440822534E+03  0.98987117386E+02  0.11657297717E+03  0.19714237228E+03  0.00000000000E+00 0. -1.
         -1    1    3    3    0  502 -0.35345355279E+03  0.25806931545E+03  0.17327892681E+03  0.47069605058E+03  0.00000000000E+00 0.  1.
         11    1    5    5    0    0  0.18061071861E+03 -0.15235492149E+03 -0.31258253553E+03  0.39184192641E+03  0.00000000000E+00 0. -1.
        -11    1    5    5    0    0  0.26991409535E+03 -0.14442092532E+03 -0.27908906751E+03  0.41424839184E+03  0.00000000000E+00 0.  1.
          4    1    6    6  503    0 -0.25354088183E+02  0.53493436676E+01  0.10580448369E+03  0.10893132715E+03  0.00000000000E+00 0.  1.
         -4    1    6    6    0  503  0.52691052362E+02 -0.65629929693E+02  0.20849503197E+03  0.22484175107E+03  0.00000000000E+00 0. -1.
<mgrwt>
<rscale>  0 0.18076587E+04</rscale>
<asrwt>0</asrwt>
<pdfrwt beam="1">  1        2 0.14001397E+00 0.18076587E+04</pdfrwt>
<pdfrwt beam="2">  1       -1 0.13809400E+00 0.18076587E+04</pdfrwt>
<totfact> 0.13502523E+01</totfact>
</mgrwt>
</event>
<event>
12    6  0.1647231E-007  0.1423232E+04  0.7818608E-02  0.8937172E-01
          2   -1    0    0  501    0  0.00000000000E+00  0.00000000000E+00  0.40158659804E+04  0.40158659804E+04  0.00000000000E+00 0. -1.
         -1   -1    0    0    0  501 -0.00000000000E+00 -0.00000000000E+00 -0.12609915514E+03  0.12609915514E+03  0.00000000000E+00 0.  1.
         24    2    1    2    0    0 -0.23435556064E+03 -0.34734316294E+03  0.10801175475E+04  0.11613196965E+04  0.80247862854E+02 0.  0.
        254    2    1    2    0    0  0.23435556064E+03  0.34734316294E+03  0.28096492778E+04  0.29806454390E+04  0.90252333347E+03 0.  0.
         23    2    4    4    0    0 -0.27658067690E+03 -0.82252550223E+02  0.11553193779E+04  0.11944831738E+04  0.93620696000E+02 0.  0.
         23    2    4    4    0    0  0.51093623754E+03  0.42959571317E+03  0.16543298999E+04  0.17861622652E+04  0.89218296607E+02 0.  0.
          2    1    3    3  502    0 -0.76805807378E+01 -0.45688563812E+02  0.80833953015E+02  0.93169545151E+02  0.00000000000E+00 0. -1.
         -1    1    3    3    0  502 -0.22667497990E+03 -0.30165459913E+03  0.99928359449E+03  0.10681501514E+04  0.00000000000E+00 0.  1.
         11    1    5    5    0    0 -0.20481949022E+01 -0.10725105864E+02  0.13549246897E+03  0.13593171869E+03  0.00000000000E+00 0.  1.
        -11    1    5    5    0    0 -0.27453248200E+03 -0.71527444359E+02  0.10198269089E+04  0.10585514551E+04  0.00000000000E+00 0. -1.
          3    1    6    6  503    0  0.47515487089E+03  0.40745988044E+03  0.14818622009E+04  0.16086364685E+04  0.00000000000E+00 0. -1.
         -3    1    6    6    0  503  0.35781366655E+02  0.22135832726E+02  0.17246769903E+03  0.17752579671E+03  0.00000000000E+00 0.  1.
<mgrwt>
<rscale>  0 0.14232320E+04</rscale>
<asrwt>0</asrwt>
<pdfrwt beam="1">  1        2 0.61782544E+00 0.14232320E+04</pdfrwt>
<pdfrwt beam="2">  1       -1 0.19399873E-01 0.14232320E+04</pdfrwt>
<totfact> 0.81309160E+00</totfact>
</mgrwt>
</event>
<event>
12    6  0.1647231E-007  0.2375412E+04  0.7818608E-02  0.8448767E-01
          2   -1    0    0  501    0  0.00000000000E+00  0.00000000000E+00  0.24323709055E+04  0.24323709055E+04  0.00000000000E+00 0. -1.
         -1   -1    0    0    0  501 -0.00000000000E+00 -0.00000000000E+00 -0.57994678666E+03  0.57994678666E+03  0.00000000000E+00 0.  1.
         24    2    1    2    0    0  0.93362978039E+03  0.34272781392E+03  0.53215667423E+03  0.11308422458E+04  0.80539044673E+02 0.  0.
        254    2    1    2    0    0 -0.93362978039E+03 -0.34272781392E+03  0.13202674446E+04  0.18814754463E+04  0.89873066522E+03 0.  0.
         23    2    4    4    0    0 -0.88352223869E+03 -0.52418691553E+02  0.53453986855E+03  0.10379664189E+04  0.91006319550E+02 0.  0.
         23    2    4    4    0    0 -0.50107541702E+02 -0.29030912236E+03  0.78572757602E+03  0.84350902742E+03  0.85729244434E+02 0.  0.
          4    1    3    3  502    0  0.92381544072E+03  0.34718076752E+03  0.52446266996E+03  0.11176003517E+04  0.00000000000E+00 0. -1.
         -3    1    3    3    0  502  0.98143396629E+01 -0.44529536037E+01  0.76940042678E+01  0.13241894143E+02  0.00000000000E+00 0.  1.
         11    1    5    5    0    0 -0.70403894767E+03 -0.78379922450E+02  0.42455661893E+03  0.82587079785E+03  0.00000000000E+00 0.  1.
        -11    1    5    5    0    0 -0.17948329102E+03  0.25961230897E+02  0.10998324962E+03  0.21209562104E+03  0.00000000000E+00 0. -1.
          1    1    6    6  503    0 -0.50236820344E+02 -0.13261098857E+03  0.28157381805E+03  0.31526691456E+03  0.00000000000E+00 0. -1.
         -1    1    6    6    0  503  0.12927864235E+00 -0.15769813380E+03  0.50415375797E+03  0.52824211285E+03  0.00000000000E+00 0.  1.
<mgrwt>
<rscale>  0 0.23754121E+04</rscale>
<asrwt>0</asrwt>
<pdfrwt beam="1">  1        2 0.37421090E+00 0.23754121E+04</pdfrwt>
<pdfrwt beam="2">  1       -1 0.89222584E-01 0.23754121E+04</pdfrwt>
<totfact> 0.48068287E+00</totfact>
</mgrwt>
</event>
<event>
12    6  0.1647231E-007  0.2372727E+04  0.7818608E-02  0.8449785E-01
         -1   -1    0    0    0  501 -0.00000000000E+00  0.00000000000E+00  0.39240091117E+03  0.39240091117E+03  0.00000000000E+00 0.  1.
          2   -1    0    0  501    0  0.00000000000E+00 -0.00000000000E+00 -0.35867861146E+04  0.35867861146E+04  0.00000000000E+00 0. -1.
         24    2    1    2    0    0 -0.95099916058E+03  0.23063351827E+02 -0.77956523384E+03  0.12323884688E+04  0.78281942358E+02 0.  0.
        254    2    1    2    0    0  0.95099916058E+03 -0.23063351827E+02 -0.24148199696E+04  0.27467985570E+04  0.89923050749E+03 0.  0.
         23    2    4    4    0    0  0.75422315909E+03  0.38081529286E+03 -0.15375613442E+04  0.17571568405E+04  0.98144863166E+02 0.  0.
         23    2    4    4    0    0  0.19677600148E+03 -0.40387864469E+03 -0.87725862540E+03  0.98964171645E+03  0.89270805450E+02 0.  0.
          4    1    3    3  502    0 -0.40538887923E+03  0.39049423466E+02 -0.36610041395E+03  0.54762625391E+03  0.00000000000E+00 0. -1.
         -3    1    3    3    0  502 -0.54561028134E+03 -0.15986071639E+02 -0.41346481989E+03  0.68476221485E+03  0.00000000000E+00 0.  1.
         11    1    5    5    0    0  0.12125728622E+03  0.57865980227E+02 -0.32572866842E+03  0.35235063014E+03  0.00000000000E+00 0. -1.
        -11    1    5    5    0    0  0.63296587287E+03  0.32294931263E+03 -0.12118326757E+04  0.14048062104E+04  0.00000000000E+00 0.  1.
          2    1    6    6  503    0  0.48146185924E+02 -0.40572927177E+02 -0.16102446166E+03  0.17289619687E+03  0.00000000000E+00 0. -1.
         -2    1    6    6    0  503  0.14862981556E+03 -0.36330571751E+03 -0.71623416374E+03  0.81674551959E+03  0.00000000000E+00 0.  1.
<mgrwt>
<rscale>  0 0.23727268E+04</rscale>
<asrwt>0</asrwt>
<pdfrwt beam="1">  1        2 0.55181326E+00 0.23727268E+04</pdfrwt>
<pdfrwt beam="2">  1       -1 0.60369370E-01 0.23727268E+04</pdfrwt>
<totfact> 0.20179728E+00</totfact>
</mgrwt>
</event>
<event>
12    6  0.1647231E-007  0.1401899E+04  0.7818608E-02  0.8952445E-01
         -1   -1    0    0    0  501 -0.00000000000E+00  0.00000000000E+00  0.44728174475E+03  0.44728174475E+03  0.00000000000E+00 0.  1.
          2   -1    0    0  501    0  0.00000000000E+00 -0.00000000000E+00 -0.10984799274E+04  0.10984799274E+04  0.00000000000E+00 0. -1.
         24    2    1    2    0    0 -0.39249374633E+03 -0.46339844895E+02 -0.33080541047E+03  0.52142693339E+03  0.79089222634E+02 0.  0.
        254    2    1    2    0    0  0.39249374633E+03  0.46339844895E+02 -0.32039277220E+03  0.10243347388E+04  0.88905084582E+03 0.  0.
         23    2    4    4    0    0 -0.24687782256E+03 -0.10911029049E+03 -0.20304606388E+03  0.34906918482E+03  0.88135560195E+02 0.  0.
         23    2    4    4    0    0  0.63937156889E+03  0.15545013538E+03 -0.11734670832E+03  0.67526555396E+03  0.96190283900E+02 0.  0.
          4    1    3    3  502    0 -0.14406013822E+03 -0.45611203836E+02 -0.92481835644E+02  0.17716262378E+03  0.00000000000E+00 0. -1.
         -3    1    3    3    0  502 -0.24843360810E+03 -0.72864105905E+00 -0.23832357483E+03  0.34426430961E+03  0.00000000000E+00 0.  1.
         11    1    5    5    0    0 -0.91027516511E+02 -0.83707545468E+02 -0.11171023361E+03  0.16664974714E+03  0.00000000000E+00 0.  1.
        -11    1    5    5    0    0 -0.15585030605E+03 -0.25402745020E+02 -0.91335830268E+02  0.18241943767E+03  0.00000000000E+00 0. -1.
          2    1    6    6  503    0  0.69185022571E+02  0.38617445282E+02  0.87965357010E+01  0.79719843631E+02  0.00000000000E+00 0. -1.
         -2    1    6    6    0  503  0.57018654631E+03  0.11683269010E+03 -0.12614324402E+03  0.59554571033E+03  0.00000000000E+00 0.  1.
<mgrwt>
<rscale>  0 0.14018987E+04</rscale>
<asrwt>0</asrwt>
<pdfrwt beam="1">  1        2 0.16899691E+00 0.14018987E+04</pdfrwt>
<pdfrwt beam="2">  1       -1 0.68812576E-01 0.14018987E+04</pdfrwt>
<totfact> 0.51792854E+01</totfact>
</mgrwt>
</event>
<event>
12    6  0.1647231E-007  0.1418976E+04  0.7818608E-02  0.8940196E-01
          2   -1    0    0  501    0  0.00000000000E+00  0.00000000000E+00  0.35235711871E+03  0.35235711871E+03  0.00000000000E+00 0. -1.
         -1   -1    0    0    0  501 -0.00000000000E+00 -0.00000000000E+00 -0.14285890062E+04  0.14285890062E+04  0.00000000000E+00 0.  1.
         24    2    1    2    0    0 -0.40183079973E+03  0.26470662223E+02 -0.17131157217E+03  0.44458560393E+03  0.78358259863E+02 0.  0.
        254    2    1    2    0    0  0.40183079973E+03 -0.26470662223E+02 -0.90492031534E+03  0.13363605210E+04  0.89711202054E+03 0.  0.
         23    2    4    4    0    0 -0.64273367285E+02  0.51259887501E+02 -0.84156756136E+03  0.85043238193E+03  0.90777938430E+02 0.  0.
         23    2    4    4    0    0  0.46610416702E+03 -0.77730549724E+02 -0.63352753983E+02  0.48592813907E+03  0.93901288750E+02 0.  0.
          4    1    3    3  502    0 -0.21903537555E+03  0.44376803109E+02 -0.12104621890E+03  0.25416133362E+03  0.00000000000E+00 0. -1.
         -3    1    3    3    0  502 -0.18279542418E+03 -0.17906140886E+02 -0.50265353263E+02  0.19042427030E+03  0.00000000000E+00 0.  1.
         11    1    5    5    0    0 -0.21737689171E+02  0.16975224214E+02 -0.66577728022E+03  0.66634831149E+03  0.00000000000E+00 0.  1.
        -11    1    5    5    0    0 -0.42535678114E+02  0.34284663287E+02 -0.17579028113E+03  0.18408407044E+03  0.00000000000E+00 0. -1.
          4    1    6    6  503    0  0.86548168911E+02  0.67544205678E+01 -0.42156417998E+02  0.96505809760E+02  0.00000000000E+00 0. -1.
         -4    1    6    6    0  503  0.37955599811E+03 -0.84484970292E+02 -0.21196335985E+02  0.38942232931E+03  0.00000000000E+00 0.  1.
<mgrwt>
<rscale>  0 0.14189764E+04</rscale>
<asrwt>0</asrwt>
<pdfrwt beam="1">  1        2 0.54208786E-01 0.14189764E+04</pdfrwt>
<pdfrwt beam="2">  1       -1 0.21978293E+00 0.14189764E+04</pdfrwt>
<totfact> 0.11269388E+01</totfact>
</mgrwt>
</event>
<event>
12    6  0.1647231E-007  0.1177991E+04  0.7818608E-02  0.9132342E-01
          2   -1    0    0  501    0  0.00000000000E+00  0.00000000000E+00  0.98515488331E+02  0.98515488331E+02  0.00000000000E+00 0. -1.
         -1   -1    0    0    0  501 -0.00000000000E+00 -0.00000000000E+00 -0.35214332840E+04  0.35214332840E+04  0.00000000000E+00 0.  1.
         24    2    1    2    0    0 -0.76466228391E+02 -0.75540108732E+02 -0.13634073626E+04  0.13699771749E+04  0.80027689375E+02 0.  0.
        254    2    1    2    0    0  0.76466228391E+02  0.75540108732E+02 -0.20595104331E+04  0.22499715975E+04  0.89957521838E+03 0.  0.
         23    2    4    4    0    0 -0.44425929330E+02  0.65768917726E+01 -0.20779610422E+04  0.20804943752E+04  0.92292110601E+02 0.  0.
         23    2    4    4    0    0  0.12089215772E+03  0.68963216959E+02  0.18450609106E+02  0.16947722231E+03  0.94927682021E+02 0.  0.
          4    1    3    3  502    0  0.10297886930E+01 -0.37620976165E+01 -0.18297213702E+01  0.43083318721E+01  0.00000000000E+00 0. -1.
         -3    1    3    3    0  502 -0.77496017084E+02 -0.71778011115E+02 -0.13615776413E+04  0.13656688430E+04  0.00000000000E+00 0.  1.
         11    1    5    5    0    0 -0.38255955815E+02 -0.26927827573E+02 -0.50447539615E+03  0.50663996227E+03  0.00000000000E+00 0. -1.
        -11    1    5    5    0    0 -0.61699735149E+01  0.33504719346E+02 -0.15734856461E+04  0.15738544129E+04  0.00000000000E+00 0.  1.
          3    1    6    6  503    0  0.15419193830E+02 -0.21405300642E+02 -0.90479549088E+01  0.27889136272E+02  0.00000000000E+00 0. -1.
         -3    1    6    6    0  503  0.10547296389E+03  0.90368517601E+02  0.27498564015E+02  0.14158808604E+03  0.00000000000E+00 0.  1.
<mgrwt>
<rscale>  0 0.11779910E+04</rscale>
<asrwt>0</asrwt>
<pdfrwt beam="1">  1        2 0.15156229E-01 0.11779910E+04</pdfrwt>
<pdfrwt beam="2">  1       -1 0.54175896E+00 0.11779910E+04</pdfrwt>
<totfact> 0.37478652E-01</totfact>
</mgrwt>
</event>
<event>
12    6  0.1675010E-007  0.1991484E+04  0.7818608E-02  0.8610612E-01
          2   -1    0    0  501    0  0.00000000000E+00  0.00000000000E+00  0.18792282559E+04  0.18792282559E+04  0.00000000000E+00 0. -1.
         -1   -1    0    0    0  501 -0.00000000000E+00 -0.00000000000E+00 -0.52761151950E+03  0.52761151950E+03  0.00000000000E+00 0.  1.
         24    2    1    2    0    0  0.51306324344E+03  0.43692683346E+02  0.10832536027E+04  0.12018913746E+04  0.77211179340E+02 0.  0.
        254    2    1    2    0    0 -0.51306324344E+03 -0.43692683346E+02  0.26836313369E+03  0.12049484008E+04  0.10558119789E+04 0.  0.
         23    2    4    4    0    0 -0.86572573307E+02 -0.44188021775E+03  0.38911547529E+03  0.60245407953E+03  0.93739679660E+02 0.  0.
         23    2    4    4    0    0 -0.42649067014E+03  0.39818753440E+03 -0.12075234160E+03  0.60249432126E+03  0.89278636222E+02 0.  0.
          4    1    3    3  502    0  0.49685573628E+03  0.31429691852E+02  0.10594409793E+04  0.11705847414E+04  0.00000000000E+00 0. -1.
         -3    1    3    3    0  502  0.16207507159E+02  0.12262991494E+02  0.23812623470E+02  0.31306633247E+02  0.00000000000E+00 0.  1.
         11    1    5    5    0    0 -0.27166055122E+02 -0.29018900628E+03  0.20340976925E+03  0.35541973517E+03  0.00000000000E+00 0. -1.
        -11    1    5    5    0    0 -0.59406518186E+02 -0.15169121146E+03  0.18570570604E+03  0.24703434436E+03  0.00000000000E+00 0.  1.
          1    1    6    6  503    0 -0.39019669617E+03  0.34659364030E+03 -0.13219793036E+03  0.53838360486E+03  0.00000000000E+00 0. -1.
         -1    1    6    6    0  503 -0.36293973970E+02  0.51593894103E+02  0.11445588757E+02  0.64110716399E+02  0.00000000000E+00 0.  1.
<mgrwt>
<rscale>  0 0.19914843E+04</rscale>
<asrwt>0</asrwt>
<pdfrwt beam="1">  1        2 0.28911204E+00 0.19914843E+04</pdfrwt>
<pdfrwt beam="2">  1       -1 0.81171004E-01 0.19914843E+04</pdfrwt>
<totfact> 0.12482521E+01</totfact>
</mgrwt>
</event>
<event>
12    6  0.1647231E-007  0.1989682E+04  0.7818608E-02  0.8611460E-01
         -1   -1    0    0    0  501 -0.00000000000E+00  0.00000000000E+00  0.40349596878E+03  0.40349596878E+03  0.00000000000E+00 0.  1.
          2   -1    0    0  501    0  0.00000000000E+00 -0.00000000000E+00 -0.24528337447E+04  0.24528337447E+04  0.00000000000E+00 0. -1.
         24    2    1    2    0    0  0.58774718869E+02 -0.10183459643E+03 -0.19525626364E+04  0.19578219377E+04  0.82104433825E+02 0.  0.
        254    2    1    2    0    0 -0.58774718869E+02  0.10183459643E+03 -0.96775139499E+02  0.89850777575E+03  0.88550891743E+03 0.  0.
         23    2    4    4    0    0  0.37538646292E+01 -0.35980137589E+03 -0.18669967674E+03  0.41515838394E+03  0.89602415525E+02 0.  0.
         23    2    4    4    0    0 -0.62528583498E+02  0.46163597233E+03  0.89924537240E+02  0.48334939181E+03  0.92318023497E+02 0.  0.
          2    1    3    3  502    0  0.66069897981E+02 -0.55328158752E+02 -0.15717458515E+04  0.15741065588E+04  0.00000000000E+00 0. -1.
         -1    1    3    3    0  502 -0.72951791118E+01 -0.46506437683E+02 -0.38081678486E+03  0.38371537892E+03  0.00000000000E+00 0.  1.
         11    1    5    5    0    0  0.53744901536E+01 -0.22267498794E+03 -0.16294923507E+03  0.27598095697E+03  0.00000000000E+00 0.  1.
        -11    1    5    5    0    0 -0.16206255244E+01 -0.13712638795E+03 -0.23750441673E+02  0.13917742698E+03  0.00000000000E+00 0. -1.
          3    1    6    6  503    0  0.24140783265E+02  0.88119122207E+02  0.21312544878E+02  0.93818877015E+02  0.00000000000E+00 0. -1.
         -3    1    6    6    0  503 -0.86669366763E+02  0.37351685012E+03  0.68611992362E+02  0.38953051479E+03  0.00000000000E+00 0.  1.
<mgrwt>
<rscale>  0 0.19896819E+04</rscale>
<asrwt>0</asrwt>
<pdfrwt beam="1">  1        2 0.37735904E+00 0.19896819E+04</pdfrwt>
<pdfrwt beam="2">  1       -1 0.62076302E-01 0.19896819E+04</pdfrwt>
<totfact> 0.10332338E+01</totfact>
</mgrwt>
</event>
<event>
12    6  0.1647231E-007  0.1404225E+04  0.7818608E-02  0.8950766E-01
         -1   -1    0    0    0  501 -0.00000000000E+00  0.00000000000E+00  0.36739829086E+03  0.36739829086E+03  0.00000000000E+00 0.  1.
          2   -1    0    0  501    0  0.00000000000E+00 -0.00000000000E+00 -0.13417647299E+04  0.13417647299E+04  0.00000000000E+00 0. -1.
         24    2    1    2    0    0  0.12408552443E+03 -0.13952783166E+03  0.15636889808E+03  0.25272122862E+03  0.67465205308E+02 0.  0.
        254    2    1    2    0    0 -0.12408552443E+03  0.13952783166E+03 -0.11307353371E+04  0.14564417921E+04  0.89877419750E+03 0.  0.
         23    2    4    4    0    0  0.24361672862E+03 -0.18676208057E+03 -0.78750072562E+03  0.85008594900E+03  0.90882025884E+02 0.  0.
         23    2    4    4    0    0 -0.36770225305E+03  0.32628991223E+03 -0.34323461150E+03  0.60635584314E+03  0.90484011067E+02 0.  0.
          4    1    3    3  502    0  0.82258735967E+02 -0.66819106126E+02  0.12322601429E+03  0.16252982244E+03  0.00000000000E+00 0. -1.
         -3    1    3    3    0  502  0.41826788463E+02 -0.72708725534E+02  0.33142883794E+02  0.90191406176E+02  0.00000000000E+00 0.  1.
         11    1    5    5    0    0  0.12769419256E+03 -0.15316822765E+03 -0.48477752353E+03  0.52419038535E+03  0.00000000000E+00 0. -1.
        -11    1    5    5    0    0  0.11592253605E+03 -0.33593852917E+02 -0.30272320210E+03  0.32589556365E+03  0.00000000000E+00 0.  1.
          1    1    6    6  503    0 -0.29138941173E+03  0.28821894843E+03 -0.25037453161E+03  0.48027633460E+03  0.00000000000E+00 0. -1.
         -1    1    6    6    0  503 -0.76312841322E+02  0.38070963794E+02 -0.92860079893E+02  0.12607950854E+03  0.00000000000E+00 0.  1.
<mgrwt>
<rscale>  0 0.14042252E+04</rscale>
<asrwt>0</asrwt>
<pdfrwt beam="1">  1        2 0.20642534E+00 0.14042252E+04</pdfrwt>
<pdfrwt beam="2">  1       -1 0.56522814E-01 0.14042252E+04</pdfrwt>
<totfact> 0.54917512E+01</totfact>
</mgrwt>
</event>
<event>
12    6  0.1714240E-007  0.2532678E+04  0.7818608E-02  0.8391435E-01
         -1   -1    0    0    0  501 -0.00000000000E+00  0.00000000000E+00  0.97884762228E+03  0.97884762228E+03  0.00000000000E+00 0.  1.
          2   -1    0    0  501    0  0.00000000000E+00 -0.00000000000E+00 -0.16382683408E+04  0.16382683408E+04  0.00000000000E+00 0. -1.
         24    2    1    2    0    0 -0.25054638979E+03 -0.82089147449E+03 -0.10029865730E+04  0.13241884542E+04  0.10419544256E+03 0.  0.
        254    2    1    2    0    0  0.25054638979E+03  0.82089147449E+03  0.34356585447E+03  0.12929275089E+04  0.90387374151E+03 0.  0.
         23    2    4    4    0    0  0.46825987415E+03  0.70666635171E+03 -0.11314128123E+02  0.85174915199E+03  0.81877750685E+02 0.  0.
         23    2    4    4    0    0 -0.21771348435E+03  0.11422512278E+03  0.35487998260E+03  0.44117835690E+03  0.90840522948E+02 0.  0.
          2    1    3    3  502    0 -0.24416986810E+03 -0.66314091551E+03 -0.82425994504E+03  0.10857160104E+04  0.00000000000E+00 0. -1.
         -1    1    3    3    0  502 -0.63765216885E+01 -0.15775055898E+03 -0.17872662797E+03  0.23847244376E+03  0.00000000000E+00 0.  1.
         11    1    5    5    0    0  0.45889702639E+03  0.70094503422E+03 -0.19550950993E+02  0.83802903381E+03  0.00000000000E+00 0. -1.
        -11    1    5    5    0    0  0.93628477585E+01  0.57213174846E+01  0.82368228705E+01  0.13720118181E+02  0.00000000000E+00 0.  1.
          3    1    6    6  503    0 -0.19572226520E+03  0.69619464989E+02  0.31547126350E+03  0.37772502313E+03  0.00000000000E+00 0. -1.
         -3    1    6    6    0  503 -0.21991219150E+02  0.44605657790E+02  0.39408719094E+02  0.63453333775E+02  0.00000000000E+00 0.  1.
<mgrwt>
<rscale>  0 0.25326785E+04</rscale>
<asrwt>0</asrwt>
<pdfrwt beam="1">  1        2 0.25204128E+00 0.25326785E+04</pdfrwt>
<pdfrwt beam="2">  1       -1 0.15059194E+00 0.25326785E+04</pdfrwt>
<totfact> 0.37116476E+00</totfact>
</mgrwt>
</event>
<event>
12    6  0.1647231E-007  0.3618111E+04  0.7818608E-02  0.8086356E-01
          2   -1    0    0  501    0  0.00000000000E+00  0.00000000000E+00  0.20455625514E+04  0.20455625514E+04  0.00000000000E+00 0. -1.
         -1   -1    0    0    0  501 -0.00000000000E+00 -0.00000000000E+00 -0.15998932049E+04  0.15998932049E+04  0.00000000000E+00 0.  1.
         24    2    1    2    0    0 -0.10157274959E+04 -0.36815375592E+03  0.15269498577E+04  0.18721732534E+04  0.78849785258E+02 0.  0.
        254    2    1    2    0    0  0.10157274959E+04  0.36815375592E+03 -0.10812805112E+04  0.17732825029E+04  0.89895703863E+03 0.  0.
         23    2    4    4    0    0  0.29120034249E+03  0.40977108914E+02 -0.90262449345E+03  0.95305375177E+03  0.84283537336E+02 0.  0.
         23    2    4    4    0    0  0.72452715345E+03  0.32717664701E+03 -0.17865601773E+03  0.82022875115E+03  0.94197012235E+02 0.  0.
          4    1    3    3  502    0 -0.78509856170E+03 -0.25363078675E+03  0.11921546986E+04  0.14498072813E+04  0.00000000000E+00 0. -1.
         -3    1    3    3    0  502 -0.23062893424E+03 -0.11452296917E+03  0.33479515912E+03  0.42236597205E+03  0.00000000000E+00 0.  1.
         11    1    5    5    0    0  0.98943852964E+02 -0.24313614763E+02 -0.33855307257E+03  0.35355228871E+03  0.00000000000E+00 0. -1.
        -11    1    5    5    0    0  0.19225648953E+03  0.65290723677E+02 -0.56407142088E+03  0.59950146306E+03  0.00000000000E+00 0.  1.
          1    1    6    6  503    0  0.35924461914E+03  0.21370772321E+03 -0.89694560242E+02  0.42751935801E+03  0.00000000000E+00 0. -1.
         -1    1    6    6    0  503  0.36528253432E+03  0.11346892379E+03 -0.88961457488E+02  0.39270939314E+03  0.00000000000E+00 0.  1.
<mgrwt>
<rscale>  0 0.36181109E+04</rscale>
<asrwt>0</asrwt>
<pdfrwt beam="1">  1        2 0.31470193E+00 0.36181109E+04</pdfrwt>
<pdfrwt beam="2">  1       -1 0.24613742E+00 0.36181109E+04</pdfrwt>
<totfact> 0.43107946E-01</totfact>
</mgrwt>
</event>
<event>
12    6  0.1647231E-007  0.1825196E+04  0.7818608E-02  0.8693014E-01
          2   -1    0    0  501    0  0.00000000000E+00  0.00000000000E+00  0.28097666123E+04  0.28097666123E+04  0.00000000000E+00 0. -1.
         -1   -1    0    0    0  501 -0.00000000000E+00 -0.00000000000E+00 -0.29640729583E+03  0.29640729583E+03  0.00000000000E+00 0.  1.
         24    2    1    2    0    0  0.33725451839E+03  0.54630637817E+03  0.52499736071E+03  0.83373239248E+03  0.85417823161E+02 0.  0.
        254    2    1    2    0    0 -0.33725451839E+03 -0.54630637817E+03  0.19883619557E+04  0.22724415156E+04  0.89342929543E+03 0.  0.
         23    2    4    4    0    0 -0.17671596025E+03 -0.55884972594E+03  0.20009765035E+04  0.20870198924E+04  0.90573268536E+02 0.  0.
         23    2    4    4    0    0 -0.16053855813E+03  0.12543347775E+02 -0.12614547745E+02  0.18542162323E+03  0.91060898998E+02 0.  0.
          2    1    3    3  502    0  0.30584793042E+02  0.18984132498E+02  0.44305421827E+02  0.57085876146E+02  0.00000000000E+00 0. -1.
         -1    1    3    3    0  502  0.30666972535E+03  0.52732224567E+03  0.48069193888E+03  0.77664651633E+03  0.00000000000E+00 0.  1.
         11    1    5    5    0    0  0.42131030576E+01 -0.30358248857E+02  0.61685972992E+02  0.68880568922E+02  0.00000000000E+00 0.  1.
        -11    1    5    5    0    0 -0.18092906331E+03 -0.52849147709E+03  0.19392905305E+04  0.20181393235E+04  0.00000000000E+00 0. -1.
          3    1    6    6  503    0 -0.13634583547E+03 -0.20877069562E+02  0.10136092017E+02  0.13830683007E+03  0.00000000000E+00 0. -1.
         -3    1    6    6    0  503 -0.24192722663E+02  0.33420417337E+02 -0.22750639762E+02  0.47114793159E+02  0.00000000000E+00 0.  1.
<mgrwt>
<rscale>  0 0.18251962E+04</rscale>
<asrwt>0</asrwt>
<pdfrwt beam="1">  1        2 0.43227177E+00 0.18251962E+04</pdfrwt>
<pdfrwt beam="2">  1       -1 0.45601124E-01 0.18251962E+04</pdfrwt>
<totfact> 0.11718104E+01</totfact>
</mgrwt>
</event>
<event>
12    6  0.1647231E-007  0.2543459E+04  0.7818608E-02  0.8387665E-01
          2   -1    0    0  501    0  0.00000000000E+00  0.00000000000E+00  0.24576638066E+04  0.24576638066E+04  0.00000000000E+00 0. -1.
         -1   -1    0    0    0  501 -0.00000000000E+00 -0.00000000000E+00 -0.65806214341E+03  0.65806214341E+03  0.00000000000E+00 0.  1.
         24    2    1    2    0    0  0.49231677771E+03  0.48762390022E+03 -0.27007621230E+03  0.74803264112E+03  0.80366622724E+02 0.  0.
        254    2    1    2    0    0 -0.49231677771E+03 -0.48762390022E+03  0.20696778755E+04  0.23676933089E+04  0.91774300270E+03 0.  0.
         23    2    4    4    0    0 -0.11526035637E+03 -0.65996144412E+03  0.15838544641E+04  0.17224220986E+04  0.96482458994E+02 0.  0.
         23    2    4    4    0    0 -0.37705642134E+03  0.17233754390E+03  0.48582341135E+03  0.64527121024E+03  0.92080257585E+02 0.  0.
          2    1    3    3  502    0  0.91975668421E+02  0.50902424815E+02 -0.39993093406E+02  0.11247234306E+03  0.00000000000E+00 0. -1.
         -1    1    3    3    0  502  0.40034110929E+03  0.43672147540E+03 -0.23008311890E+03  0.63556029806E+03  0.00000000000E+00 0.  1.
         11    1    5    5    0    0 -0.61932248636E+02 -0.54792329178E+03  0.13333304891E+04  0.14428533295E+04  0.00000000000E+00 0.  1.
        -11    1    5    5    0    0 -0.53328107736E+02 -0.11203815234E+03  0.25052397498E+03  0.27956876916E+03  0.00000000000E+00 0. -1.
          1    1    6    6  503    0 -0.16382533575E+03  0.61189918308E+02  0.27269864537E+03  0.32395601232E+03  0.00000000000E+00 0. -1.
         -1    1    6    6    0  503 -0.21323108558E+03  0.11114762559E+03  0.21312476599E+03  0.32131519792E+03  0.00000000000E+00 0.  1.
<mgrwt>
<rscale>  0 0.25434587E+04</rscale>
<asrwt>0</asrwt>
<pdfrwt beam="1">  1        2 0.37810212E+00 0.25434587E+04</pdfrwt>
<pdfrwt beam="2">  1       -1 0.10124033E+00 0.25434587E+04</pdfrwt>
<totfact> 0.34482597E+00</totfact>
</mgrwt>
</event>
<event>
12    6  0.1647231E-007  0.2489197E+04  0.7818608E-02  0.8406844E-01
          2   -1    0    0  501    0  0.00000000000E+00  0.00000000000E+00  0.88497659484E+03  0.88497659484E+03  0.00000000000E+00 0. -1.
         -1   -1    0    0    0  501 -0.00000000000E+00 -0.00000000000E+00 -0.17503579898E+04  0.17503579898E+04  0.00000000000E+00 0.  1.
         24    2    1    2    0    0  0.35713451721E+03 -0.64310928156E+02  0.69936628029E+03  0.79158280967E+03  0.76218053589E+02 0.  0.
        254    2    1    2    0    0 -0.35713451721E+03  0.64310928156E+02 -0.15647476753E+04  0.18437517750E+04  0.90515433027E+03 0.  0.
         23    2    4    4    0    0 -0.79249179188E+02  0.33152234325E+03 -0.16535805998E+03  0.38912174123E+03  0.88797212934E+02 0.  0.
         23    2    4    4    0    0 -0.27788533802E+03 -0.26721141509E+03 -0.13993896153E+04  0.14546300337E+04  0.95052818235E+02 0.  0.
          2    1    3    3  502    0  0.25318078495E+03 -0.45132327349E+02  0.41522044008E+03  0.48841114923E+03  0.00000000000E+00 0. -1.
         -1    1    3    3    0  502  0.10395373227E+03 -0.19178600807E+02  0.28414584022E+03  0.30317166044E+03  0.00000000000E+00 0.  1.
         11    1    5    5    0    0 -0.82646336140E+02  0.25748371528E+03 -0.94155950584E+02  0.28634528727E+03  0.00000000000E+00 0.  1.
        -11    1    5    5    0    0  0.33971569517E+01  0.74038627969E+02 -0.71202109393E+02  0.10277645396E+03  0.00000000000E+00 0. -1.
          3    1    6    6  503    0 -0.24951209501E+03 -0.21812931227E+03 -0.10620185076E+04  0.11125286481E+04  0.00000000000E+00 0. -1.
         -3    1    6    6    0  503 -0.28373243015E+02 -0.49082102822E+02 -0.33737110770E+03  0.34210138562E+03  0.00000000000E+00 0.  1.
<mgrwt>
<rscale>  0 0.24891973E+04</rscale>
<asrwt>0</asrwt>
<pdfrwt beam="1">  1        2 0.13615025E+00 0.24891973E+04</pdfrwt>
<pdfrwt beam="2">  1       -1 0.26928584E+00 0.24891973E+04</pdfrwt>
<totfact> 0.15959155E+00</totfact>
</mgrwt>
</event>
<event>
12    6  0.1647231E-007  0.1509990E+04  0.7818608E-02  0.8877837E-01
         -1   -1    0    0    0  501 -0.00000000000E+00  0.00000000000E+00  0.72176730997E+03  0.72176730997E+03  0.00000000000E+00 0.  1.
          2   -1    0    0  501    0  0.00000000000E+00 -0.00000000000E+00 -0.78975188911E+03  0.78975188911E+03  0.00000000000E+00 0. -1.
         24    2    1    2    0    0 -0.38647555316E+03 -0.28058523153E+03  0.18220092469E+02  0.48661977222E+03  0.91517242135E+02 0.  0.
        254    2    1    2    0    0  0.38647555316E+03  0.28058523153E+03 -0.86204671609E+02  0.10248994269E+04  0.90271599323E+03 0.  0.
         23    2    4    4    0    0  0.41925952828E+03 -0.20311715141E+03  0.12050546919E+03  0.49005763628E+03  0.92735050126E+02 0.  0.
         23    2    4    4    0    0 -0.32783975122E+02  0.48370238294E+03 -0.20671014080E+03  0.53484179058E+03  0.91015791826E+02 0.  0.
          2    1    3    3  502    0 -0.20324806950E+03 -0.15491147757E+03  0.55017387037E+02  0.26140821814E+03  0.00000000000E+00 0. -1.
         -1    1    3    3    0  502 -0.18322748366E+03 -0.12567375396E+03 -0.36797294568E+02  0.22521155408E+03  0.00000000000E+00 0.  1.
         11    1    5    5    0    0  0.19191915967E+02  0.87049837389E+01  0.13075863975E+02  0.24800899158E+02  0.00000000000E+00 0.  1.
        -11    1    5    5    0    0  0.40006761231E+03 -0.21182213515E+03  0.10742960521E+03  0.46525673712E+03  0.00000000000E+00 0. -1.
          2    1    6    6  503    0 -0.33984309785E+02  0.46459409405E+03 -0.21609788336E+03  0.51351816008E+03  0.00000000000E+00 0. -1.
         -2    1    6    6    0  503  0.12003346639E+01  0.19108288884E+02  0.93877425618E+01  0.21323630502E+02  0.00000000000E+00 0.  1.
<mgrwt>
<rscale>  0 0.15099895E+04</rscale>
<asrwt>0</asrwt>
<pdfrwt beam="1">  1        2 0.12150029E+00 0.15099895E+04</pdfrwt>
<pdfrwt beam="2">  1       -1 0.11104112E+00 0.15099895E+04</pdfrwt>
<totfact> 0.28837986E+01</totfact>
</mgrwt>
</event>
<event>
12    6  0.1647231E-007  0.2182804E+04  0.7818608E-02  0.8525620E-01
          2   -1    0    0  501    0  0.00000000000E+00  0.00000000000E+00  0.11719141548E+04  0.11719141548E+04  0.00000000000E+00 0. -1.
         -1   -1    0    0    0  501 -0.00000000000E+00 -0.00000000000E+00 -0.10164212767E+04  0.10164212767E+04  0.00000000000E+00 0.  1.
         24    2    1    2    0    0  0.36929699832E+03  0.61393678197E+03 -0.49328858985E+03  0.87356262072E+03  0.80494560213E+02 0.  0.
        254    2    1    2    0    0 -0.36929699832E+03 -0.61393678197E+03  0.64878146794E+03  0.13147728108E+04  0.89129765269E+03 0.  0.
         23    2    4    4    0    0  0.27307286720E+03 -0.66479213288E+02  0.17077397736E+03  0.34062622593E+03  0.88736677005E+02 0.  0.
         23    2    4    4    0    0 -0.64236986552E+03 -0.54745756868E+03  0.47800749058E+03  0.97414658489E+03  0.90119776766E+02 0.  0.
          4    1    3    3  502    0  0.47835544206E+02  0.57189810437E+02 -0.79649908810E+02  0.10910097012E+03  0.00000000000E+00 0. -1.
         -3    1    3    3    0  502  0.32146145412E+03  0.55674697153E+03 -0.41363868104E+03  0.76446165060E+03  0.00000000000E+00 0.  1.
         11    1    5    5    0    0  0.24339430016E+03 -0.34377568186E+02  0.16607892283E+03  0.29665604857E+03  0.00000000000E+00 0.  1.
        -11    1    5    5    0    0  0.29678567034E+02 -0.32101645101E+02  0.46950545314E+01  0.43970177353E+02  0.00000000000E+00 0. -1.
          1    1    6    6  503    0 -0.23008763492E+03 -0.17883763754E+03  0.21254036131E+03  0.36068909816E+03  0.00000000000E+00 0. -1.
         -1    1    6    6    0  503 -0.41228223060E+03 -0.36861993114E+03  0.26546712927E+03  0.61345748673E+03  0.00000000000E+00 0.  1.
<mgrwt>
<rscale>  0 0.21828041E+04</rscale>
<asrwt>0</asrwt>
<pdfrwt beam="1">  1        2 0.18029449E+00 0.21828041E+04</pdfrwt>
<pdfrwt beam="2">  1       -1 0.15637250E+00 0.21828041E+04</pdfrwt>
<totfact> 0.64006490E+00</totfact>
</mgrwt>
</event>
<event>
12    6  0.1647231E-007  0.2056075E+04  0.7818608E-02  0.8580843E-01
         -1   -1    0    0    0  501 -0.00000000000E+00  0.00000000000E+00  0.90526784349E+03  0.90526784349E+03  0.00000000000E+00 0.  1.
          2   -1    0    0  501    0  0.00000000000E+00 -0.00000000000E+00 -0.11674571094E+04  0.11674571094E+04  0.00000000000E+00 0. -1.
         24    2    1    2    0    0 -0.10984441948E+03 -0.17062438882E+03  0.67513031712E+03  0.70952750596E+03  0.80311008395E+02 0.  0.
        254    2    1    2    0    0  0.10984441948E+03  0.17062438882E+03 -0.93731958304E+03  0.13631974469E+04  0.96879347648E+03 0.  0.
         23    2    4    4    0    0 -0.29706499448E+03  0.16997299277E+03 -0.87196016873E+03  0.94139356158E+03  0.93642259275E+02 0.  0.
         23    2    4    4    0    0  0.40690941396E+03  0.65139605229E+00 -0.65359414309E+02  0.42180388537E+03  0.89838572924E+02 0.  0.
          2    1    3    3  502    0 -0.47735652748E+02 -0.83682602571E+02  0.19311826500E+03  0.21581504765E+03  0.00000000000E+00 0. -1.
         -1    1    3    3    0  502 -0.62108766732E+02 -0.86941786251E+02  0.48201205211E+03  0.49371245830E+03  0.00000000000E+00 0.  1.
         11    1    5    5    0    0 -0.26626538706E+03  0.14835414664E+03 -0.83395207600E+03  0.88790893353E+03  0.00000000000E+00 0.  1.
        -11    1    5    5    0    0 -0.30799607420E+02  0.21618846132E+02 -0.38008092724E+02  0.53484628051E+02  0.00000000000E+00 0. -1.
          3    1    6    6  503    0  0.90589420063E+02 -0.61194154056E+01 -0.53080341367E+02  0.10517325188E+03  0.00000000000E+00 0. -1.
         -3    1    6    6    0  503  0.31631999390E+03  0.67708114578E+01 -0.12279072942E+02  0.31663063348E+03  0.00000000000E+00 0.  1.
<mgrwt>
<rscale>  0 0.20560753E+04</rscale>
<asrwt>0</asrwt>
<pdfrwt beam="1">  1        2 0.17960879E+00 0.20560753E+04</pdfrwt>
<pdfrwt beam="2">  1       -1 0.13927198E+00 0.20560753E+04</pdfrwt>
<totfact> 0.88789267E+00</totfact>
</mgrwt>
</event>
<event>
12    6  0.1647231E-007  0.1987171E+04  0.7818608E-02  0.8612642E-01
         -1   -1    0    0    0  501 -0.00000000000E+00  0.00000000000E+00  0.41360572203E+03  0.41360572203E+03  0.00000000000E+00 0.  1.
          2   -1    0    0  501    0  0.00000000000E+00 -0.00000000000E+00 -0.23868445674E+04  0.23868445674E+04  0.00000000000E+00 0. -1.
         24    2    1    2    0    0  0.29543962015E+02  0.84288059836E+01 -0.18946034270E+04  0.18962808412E+04  0.73586635223E+02 0.  0.
        254    2    1    2    0    0 -0.29543962015E+02 -0.84288059836E+01 -0.78635418441E+02  0.90416944823E+03  0.90021940194E+03 0.  0.
         23    2    4    4    0    0  0.12628427235E+03  0.35288377062E+03  0.17811093568E+03  0.42549945240E+03  0.94082971736E+02 0.  0.
         23    2    4    4    0    0 -0.15582823437E+03 -0.36131257661E+03 -0.25674635412E+03  0.47866999584E+03  0.91526269027E+02 0.  0.
          4    1    3    3  502    0  0.32323737481E+02 -0.55062149332E+01 -0.18222670909E+04  0.18225620684E+04  0.00000000000E+00 0. -1.
         -3    1    3    3    0  502 -0.27797754657E+01  0.13935020917E+02 -0.72336336047E+02  0.73718772862E+02  0.00000000000E+00 0.  1.
         11    1    5    5    0    0  0.54783775304E+01  0.80339640257E+02  0.75029112668E+02  0.11006288277E+03  0.00000000000E+00 0.  1.
        -11    1    5    5    0    0  0.12080589482E+03  0.27254413037E+03  0.10308182301E+03  0.31543656962E+03  0.00000000000E+00 0. -1.
          2    1    6    6  503    0 -0.56854037850E+02 -0.78772092314E+02 -0.25648299495E+02  0.10047516815E+03  0.00000000000E+00 0.  1.
         -2    1    6    6    0  503 -0.98974196518E+02 -0.28254048429E+03 -0.23109805462E+03  0.37819482769E+03  0.00000000000E+00 0. -1.
<mgrwt>
<rscale>  0 0.19871714E+04</rscale>
<asrwt>0</asrwt>
<pdfrwt beam="1">  1        2 0.36720686E+00 0.19871714E+04</pdfrwt>
<pdfrwt beam="2">  1       -1 0.63631649E-01 0.19871714E+04</pdfrwt>
<totfact> 0.10730726E+01</totfact>
</mgrwt>
</event>
<event>
12    6  0.1647231E-007  0.1156441E+04  0.7818608E-02  0.9151862E-01
          2   -1    0    0  501    0  0.00000000000E+00  0.00000000000E+00  0.34531257472E+04  0.34531257472E+04  0.00000000000E+00 0. -1.
         -1   -1    0    0    0  501 -0.00000000000E+00 -0.00000000000E+00 -0.96822143812E+02  0.96822143812E+02  0.00000000000E+00 0.  1.
         24    2    1    2    0    0 -0.27684725447E+02  0.33417996690E+02  0.13427644448E+04  0.13458189676E+04  0.79555847872E+02 0.  0.
        254    2    1    2    0    0  0.27684725447E+02 -0.33417996690E+02  0.20135391586E+04  0.22041289234E+04  0.89552284232E+03 0.  0.
         23    2    4    4    0    0 -0.21141776811E+03 -0.28102931134E+03  0.35621159599E+03  0.50893670706E+03  0.91950661630E+02 0.  0.
         23    2    4    4    0    0  0.23910249355E+03  0.24761131465E+03  0.16573275626E+04  0.16951922163E+04  0.91981709568E+02 0.  0.
          2    1    3    3  502    0  0.41740886708E+01  0.52695108945E+02  0.85769136412E+03  0.85931872644E+03  0.00000000000E+00 0. -1.
         -1    1    3    3    0  502 -0.31858814118E+02 -0.19277112255E+02  0.48507308064E+03  0.48650024116E+03  0.00000000000E+00 0.  1.
         11    1    5    5    0    0 -0.57183708414E+02 -0.15052764698E+03  0.17042278591E+03  0.23446209709E+03  0.00000000000E+00 0. -1.
        -11    1    5    5    0    0 -0.15423405969E+03 -0.13050166436E+03  0.18578881007E+03  0.27447460997E+03  0.00000000000E+00 0.  1.
          1    1    6    6  503    0  0.12113655318E+03  0.18195344282E+03  0.92047420751E+03  0.94607287592E+03  0.00000000000E+00 0. -1.
         -1    1    6    6    0  503  0.11796594038E+03  0.65657871836E+02  0.73685335509E+03  0.74911934038E+03  0.00000000000E+00 0.  1.
<mgrwt>
<rscale>  0 0.11564412E+04</rscale>
<asrwt>0</asrwt>
<pdfrwt beam="1">  1        2 0.53125002E+00 0.11564412E+04</pdfrwt>
<pdfrwt beam="2">  1       -1 0.14895717E-01 0.11564412E+04</pdfrwt>
<totfact> 0.33771554E+01</totfact>
</mgrwt>
</event>
<event>
12    6  0.1647231E-007  0.1188059E+04  0.7818608E-02  0.9123374E-01
          2   -1    0    0  501    0  0.00000000000E+00  0.00000000000E+00  0.12321771882E+04  0.12321771882E+04  0.00000000000E+00 0. -1.
         -1   -1    0    0    0  501 -0.00000000000E+00 -0.00000000000E+00 -0.28637989233E+03  0.28637989233E+03  0.00000000000E+00 0.  1.
         24    2    1    2    0    0 -0.19446766476E+03  0.22685316938E+01  0.15670148120E+02  0.21191202338E+03  0.82694215251E+02 0.  0.
        254    2    1    2    0    0  0.19446766476E+03 -0.22685316938E+01  0.93012714774E+03  0.13066450571E+04  0.89686229464E+03 0.  0.
         23    2    4    4    0    0  0.47853897299E+03 -0.15031841985E+03  0.29375572478E+03  0.58848098464E+03  0.91772912272E+02 0.  0.
         23    2    4    4    0    0 -0.28407130823E+03  0.14804988816E+03  0.63637142295E+03  0.71816407250E+03  0.90419962086E+02 0.  0.
          2    1    3    3  502    0 -0.90337082649E+02  0.41603686025E+02 -0.31828764327E+00  0.99457309935E+02  0.00000000000E+00 0. -1.
         -1    1    3    3    0  502 -0.10413058211E+03 -0.39335154331E+02  0.15988435763E+02  0.11245471344E+03  0.00000000000E+00 0.  1.
         11    1    5    5    0    0  0.44857088089E+03 -0.13334409794E+03  0.24343061077E+03  0.52749876388E+03  0.00000000000E+00 0. -1.
        -11    1    5    5    0    0  0.29968092104E+02 -0.16974321906E+02  0.50325114017E+02  0.60982220764E+02  0.00000000000E+00 0.  1.
          1    1    6    6  503    0 -0.14917380275E+03  0.89625559843E+02  0.43762636752E+03  0.47095902364E+03  0.00000000000E+00 0. -1.
         -1    1    6    6    0  503 -0.13489750547E+03  0.58424328314E+02  0.19874505544E+03  0.24720504886E+03  0.00000000000E+00 0.  1.
<mgrwt>
<rscale>  0 0.11880585E+04</rscale>
<asrwt>0</asrwt>
<pdfrwt beam="1">  1        2 0.18956572E+00 0.11880585E+04</pdfrwt>
<pdfrwt beam="2">  1       -1 0.44058446E-01 0.11880585E+04</pdfrwt>
<totfact> 0.10387737E+02</totfact>
</mgrwt>
</event>
<event>
12    6  0.1647231E-007  0.1232792E+04  0.7818608E-02  0.9084628E-01
         -1   -1    0    0    0  501 -0.00000000000E+00  0.00000000000E+00  0.13024220537E+03  0.13024220537E+03  0.00000000000E+00 0.  1.
          2   -1    0    0  501    0  0.00000000000E+00 -0.00000000000E+00 -0.29172112388E+04  0.29172112388E+04  0.00000000000E+00 0. -1.
         24    2    1    2    0    0 -0.26277319024E+03 -0.32109428607E+02 -0.41871488747E+03  0.50225912599E+03  0.82833011117E+02 0.  0.
        254    2    1    2    0    0  0.26277319024E+03  0.32109428607E+02 -0.23682541460E+04  0.25451943182E+04  0.89403895474E+03 0.  0.
         23    2    4    4    0    0  0.49910810350E+03  0.44027431048E+02 -0.74344029895E+03  0.90101268792E+03  0.89850275600E+02 0.  0.
         23    2    4    4    0    0 -0.23633491326E+03 -0.11918002442E+02 -0.16248138470E+04  0.16441816303E+04  0.85539265111E+02 0.  0.
          4    1    3    3  502    0 -0.13314700339E+03 -0.53231163372E+02 -0.25300189765E+03  0.29081203806E+03  0.00000000000E+00 0. -1.
         -3    1    3    3    0  502 -0.12962618685E+03  0.21121734765E+02 -0.16571298982E+03  0.21144708793E+03  0.00000000000E+00 0.  1.
         11    1    5    5    0    0  0.41254207024E+03  0.16383226957E+02 -0.65461873616E+03  0.77394125072E+03  0.00000000000E+00 0. -1.
        -11    1    5    5    0    0  0.86566033263E+02  0.27644204091E+02 -0.88821562797E+02  0.12707143720E+03  0.00000000000E+00 0.  1.
          4    1    6    6  503    0 -0.23536539843E+03 -0.23204471863E+02 -0.15919021149E+04  0.16093749289E+04  0.00000000000E+00 0. -1.
         -4    1    6    6    0  503 -0.96951482505E+00  0.11286469421E+02 -0.32911732112E+02  0.34806701389E+02  0.00000000000E+00 0.  1.
<mgrwt>
<rscale>  0 0.12327920E+04</rscale>
<asrwt>0</asrwt>
<pdfrwt beam="1">  1        2 0.44880175E+00 0.12327920E+04</pdfrwt>
<pdfrwt beam="2">  1       -1 0.20037261E-01 0.12327920E+04</pdfrwt>
<totfact> 0.45370714E+01</totfact>
</mgrwt>
</event>
<event>
12    6  0.1647231E-007  0.2100462E+04  0.7818608E-02  0.8561040E-01
         -1   -1    0    0    0  501 -0.00000000000E+00  0.00000000000E+00  0.73797498994E+03  0.73797498994E+03  0.00000000000E+00 0.  1.
          2   -1    0    0  501    0  0.00000000000E+00 -0.00000000000E+00 -0.14946098409E+04  0.14946098409E+04  0.00000000000E+00 0. -1.
         24    2    1    2    0    0 -0.60013964659E+03  0.60180071656E+03 -0.23078733368E+03  0.88367551015E+03  0.72718058222E+02 0.  0.
        254    2    1    2    0    0  0.60013964659E+03 -0.60180071656E+03 -0.52584751732E+03  0.13489093207E+04  0.90592993450E+03 0.  0.
         23    2    4    4    0    0 -0.20867769705E+03 -0.26942399634E+03 -0.70062806498E+02  0.35874476031E+03  0.87483342084E+02 0.  0.
         23    2    4    4    0    0  0.80881734364E+03 -0.33237672022E+03 -0.45578471083E+03  0.99016456043E+03  0.89590036180E+02 0.  0.
          2    1    3    3  502    0 -0.22193323985E+02  0.18297376690E+02 -0.22168335575E+02  0.36314910511E+02  0.00000000000E+00 0. -1.
         -1    1    3    3    0  502 -0.57794632261E+03  0.58350333987E+03 -0.20861899811E+03  0.84736059964E+03  0.00000000000E+00 0.  1.
         11    1    5    5    0    0 -0.13129340434E+03 -0.99041875960E+02 -0.26108935868E+02  0.16652005209E+03  0.00000000000E+00 0. -1.
        -11    1    5    5    0    0 -0.77384292706E+02 -0.17038212038E+03 -0.43953870630E+02  0.19222470821E+03  0.00000000000E+00 0.  1.
          4    1    6    6  503    0  0.18588787348E+02  0.39927849625E+01 -0.18003871663E+02  0.26184437013E+02  0.00000000000E+00 0.  1.
         -4    1    6    6    0  503  0.79022855629E+03 -0.33636950518E+03 -0.43778083916E+03  0.96398012341E+03  0.00000000000E+00 0. -1.
<mgrwt>
<rscale>  0 0.21004616E+04</rscale>
<asrwt>0</asrwt>
<pdfrwt beam="1">  1        2 0.22993997E+00 0.21004616E+04</pdfrwt>
<pdfrwt beam="2">  1       -1 0.11353461E+00 0.21004616E+04</pdfrwt>
<totfact> 0.95001722E+00</totfact>
</mgrwt>
</event>
<event>
12    6  0.1647231E-007  0.1777459E+04  0.7818608E-02  0.8718379E-01
         -1   -1    0    0    0  501 -0.00000000000E+00  0.00000000000E+00  0.58059377941E+03  0.58059377941E+03  0.00000000000E+00 0.  1.
          2   -1    0    0  501    0  0.00000000000E+00 -0.00000000000E+00 -0.13603998706E+04  0.13603998706E+04  0.00000000000E+00 0. -1.
         24    2    1    2    0    0 -0.18681994601E+03  0.56517621340E+03  0.73081487590E+00  0.60052518661E+03  0.79398496457E+02 0.  0.
        254    2    1    2    0    0  0.18681994601E+03 -0.56517621340E+03 -0.78053690611E+03  0.13404684634E+04  0.91284828709E+03 0.  0.
         23    2    4    4    0    0 -0.15656157278E+03 -0.24345593172E+03 -0.80488198966E+03  0.86033185421E+03  0.92485487122E+02 0.  0.
         23    2    4    4    0    0  0.34338151879E+03 -0.32172028168E+03  0.24345083545E+02  0.48013660923E+03  0.92323741996E+02 0.  0.
          2    1    3    3  502    0 -0.16499949120E+02  0.12512990288E+03 -0.22019138843E+02  0.12811941067E+03  0.00000000000E+00 0. -1.
         -1    1    3    3    0  502 -0.17031999689E+03  0.44004631052E+03  0.22749953719E+02  0.47240577594E+03  0.00000000000E+00 0.  1.
         11    1    5    5    0    0 -0.15929301932E+03 -0.18130252493E+03 -0.62360959395E+03  0.66868063918E+03  0.00000000000E+00 0. -1.
        -11    1    5    5    0    0  0.27314465357E+01 -0.62153406785E+02 -0.18127239571E+03  0.19165121502E+03  0.00000000000E+00 0.  1.
          2    1    6    6  503    0  0.20378110113E+03 -0.22221707196E+03  0.53571617625E+02  0.30623044013E+03  0.00000000000E+00 0.  1.
         -2    1    6    6    0  503  0.13960041766E+03 -0.99503209727E+02 -0.29226534080E+02  0.17390616910E+03  0.00000000000E+00 0. -1.
<mgrwt>
<rscale>  0 0.17774585E+04</rscale>
<asrwt>0</asrwt>
<pdfrwt beam="1">  1        2 0.20929229E+00 0.17774585E+04</pdfrwt>
<pdfrwt beam="2">  1       -1 0.89322120E-01 0.17774585E+04</pdfrwt>
<totfact> 0.20192464E+01</totfact>
</mgrwt>
</event>
<event>
12    6  0.1647231E-007  0.2187747E+04  0.7818608E-02  0.8523545E-01
          2   -1    0    0  501    0  0.00000000000E+00  0.00000000000E+00  0.17778867226E+04  0.17778867226E+04  0.00000000000E+00 0. -1.
         -1   -1    0    0    0  501 -0.00000000000E+00 -0.00000000000E+00 -0.67302343140E+03  0.67302343140E+03  0.00000000000E+00 0.  1.
         24    2    1    2    0    0 -0.46956452248E+03  0.36135589091E+03  0.12038576901E+04  0.13440722513E+04  0.78663575199E+02 0.  0.
        254    2    1    2    0    0  0.46956452248E+03 -0.36135589091E+03 -0.98994398906E+02  0.11068379027E+04  0.92963505266E+03 0.  0.
         23    2    4    4    0    0 -0.15062616616E+02 -0.78074085083E+01  0.34284491838E+03  0.35600075682E+03  0.94371938331E+02 0.  0.
         23    2    4    4    0    0  0.48462713909E+03 -0.35354848240E+03 -0.44183931729E+03  0.75083714587E+03  0.93136694990E+02 0.  0.
          4    1    3    3  502    0  0.27989379054E+01  0.38024467556E+01  0.53308830708E+01  0.71211634612E+01  0.00000000000E+00 0. -1.
         -3    1    3    3    0  502 -0.47236346038E+03  0.35755344415E+03  0.11985268071E+04  0.13369510879E+04  0.00000000000E+00 0.  1.
         11    1    5    5    0    0  0.33462825316E+02  0.14296435073E+02  0.20494715387E+03  0.20815255130E+03  0.00000000000E+00 0. -1.
        -11    1    5    5    0    0 -0.48525441932E+02 -0.22103843581E+02  0.13789776451E+03  0.14784820551E+03  0.00000000000E+00 0.  1.
          4    1    6    6  503    0  0.33640133291E+03 -0.26987670929E+03 -0.36091035596E+03  0.56236605520E+03  0.00000000000E+00 0. -1.
         -4    1    6    6    0  503  0.14822580619E+03 -0.83671773106E+02 -0.80928961326E+02  0.18847109066E+03  0.00000000000E+00 0.  1.
<mgrwt>
<rscale>  0 0.21877472E+04</rscale>
<asrwt>0</asrwt>
<pdfrwt beam="1">  1        2 0.27352103E+00 0.21877472E+04</pdfrwt>
<pdfrwt beam="2">  1       -1 0.10354207E+00 0.21877472E+04</pdfrwt>
<totfact> 0.81328167E+00</totfact>
</mgrwt>
</event>
<event>
12    6  0.1647231E-007  0.1754043E+04  0.7818608E-02  0.8731128E-01
          2   -1    0    0  501    0  0.00000000000E+00  0.00000000000E+00  0.13414015006E+04  0.13414015006E+04  0.00000000000E+00 0. -1.
         -1   -1    0    0    0  501 -0.00000000000E+00 -0.00000000000E+00 -0.57340511277E+03  0.57340511277E+03  0.00000000000E+00 0.  1.
         24    2    1    2    0    0 -0.25113446528E+02 -0.62930104178E+03  0.10081713374E+03  0.64294192581E+03  0.80992216471E+02 0.  0.
        254    2    1    2    0    0  0.25113446528E+02  0.62930104178E+03  0.66717925409E+03  0.12718646876E+04  0.88082980193E+03 0.  0.
         23    2    4    4    0    0  0.12593217503E+03  0.76956685601E+03  0.27027742843E+03  0.83040445952E+03  0.91812959252E+02 0.  0.
         23    2    4    4    0    0 -0.10081872850E+03 -0.14026581423E+03  0.39690182566E+03  0.44146022804E+03  0.86701551714E+02 0.  0.
          4    1    3    3  502    0 -0.18467903014E+02 -0.24942195658E+03  0.79383274954E+02  0.26240061015E+03  0.00000000000E+00 0. -1.
         -3    1    3    3    0  502 -0.66455435141E+01 -0.37987908520E+03  0.21433858785E+02  0.38054131566E+03  0.00000000000E+00 0.  1.
         11    1    5    5    0    0  0.50710663342E+02  0.22262497329E+03  0.12139075976E+03  0.25859073198E+03  0.00000000000E+00 0. -1.
        -11    1    5    5    0    0  0.75221511688E+02  0.54694188272E+03  0.14888666867E+03  0.57181372754E+03  0.00000000000E+00 0.  1.
          3    1    6    6  503    0  0.15445483642E+01 -0.20396160636E+02  0.82435556275E+01  0.22053235765E+02  0.00000000000E+00 0. -1.
         -3    1    6    6    0  503 -0.10236327687E+03 -0.11986965359E+03  0.38865827003E+03  0.41940699227E+03  0.00000000000E+00 0.  1.
<mgrwt>
<rscale>  0 0.17540427E+04</rscale>
<asrwt>0</asrwt>
<pdfrwt beam="1">  1        2 0.20636946E+00 0.17540427E+04</pdfrwt>
<pdfrwt beam="2">  1       -1 0.88216171E-01 0.17540427E+04</pdfrwt>
<totfact> 0.21325958E+01</totfact>
</mgrwt>
</event>
<event>
12    6  0.1647231E-007  0.1729541E+04  0.7818608E-02  0.8744693E-01
         -1   -1    0    0    0  501 -0.00000000000E+00  0.00000000000E+00  0.80065225094E+03  0.80065225094E+03  0.00000000000E+00 0.  1.
          2   -1    0    0  501    0  0.00000000000E+00 -0.00000000000E+00 -0.93402378263E+03  0.93402378263E+03  0.00000000000E+00 0. -1.
         24    2    1    2    0    0  0.12587376825E+03 -0.11512568863E+03 -0.65761359169E+03  0.68350131020E+03  0.74968495754E+02 0.  0.
        254    2    1    2    0    0 -0.12587376825E+03  0.11512568863E+03  0.52424206000E+03  0.10511747234E+04  0.89500862112E+03 0.  0.
         23    2    4    4    0    0 -0.17898233359E+03  0.40825767674E+03  0.14429109282E+02  0.45407449134E+03  0.85243405236E+02 0.  0.
         23    2    4    4    0    0  0.53108565344E+02 -0.29313198811E+03  0.50981295071E+03  0.59710023203E+03  0.88727449040E+02 0.  0.
          4    1    3    3  502    0  0.81877770251E+02 -0.11637118331E+03 -0.49736341331E+03  0.51731671775E+03  0.00000000000E+00 0. -1.
         -3    1    3    3    0  502  0.43995997995E+02  0.12454946789E+01 -0.16025017838E+03  0.16618459245E+03  0.00000000000E+00 0.  1.
         11    1    5    5    0    0 -0.17644811766E+03  0.36393790725E+03 -0.75773053257E+01  0.40452707464E+03  0.00000000000E+00 0. -1.
        -11    1    5    5    0    0 -0.25342159331E+01  0.44319769492E+02  0.22006414608E+02  0.49547416704E+02  0.00000000000E+00 0.  1.
          2    1    6    6  503    0  0.76134512792E+02 -0.22977612407E+03  0.42062429908E+03  0.48530231012E+03  0.00000000000E+00 0. -1.
         -2    1    6    6    0  503 -0.23025947448E+02 -0.63355864039E+02  0.89188651634E+02  0.11179792191E+03  0.00000000000E+00 0.  1.
<mgrwt>
<rscale>  0 0.17295413E+04</rscale>
<asrwt>0</asrwt>
<pdfrwt beam="1">  1        2 0.14369597E+00 0.17295413E+04</pdfrwt>
<pdfrwt beam="2">  1       -1 0.12317727E+00 0.17295413E+04</pdfrwt>
<totfact> 0.17495638E+01</totfact>
</mgrwt>
</event>
<event>
12    6  0.1647231E-007  0.1557613E+04  0.7818608E-02  0.8847020E-01
          2   -1    0    0  501    0  0.00000000000E+00  0.00000000000E+00  0.14417875379E+04  0.14417875379E+04  0.00000000000E+00 0. -1.
         -1   -1    0    0    0  501 -0.00000000000E+00 -0.00000000000E+00 -0.42068562794E+03  0.42068562794E+03  0.00000000000E+00 0.  1.
         24    2    1    2    0    0 -0.22352998351E+03 -0.16525155856E+03  0.86590592599E+03  0.91289782868E+03  0.79471012374E+02 0.  0.
        254    2    1    2    0    0  0.22352998351E+03  0.16525155856E+03  0.15519598401E+03  0.94957533720E+03  0.89461376941E+03 0.  0.
         23    2    4    4    0    0  0.11520958498E+03  0.37999243714E+03  0.41686294050E+03  0.58262597189E+03  0.89503135207E+02 0.  0.
         23    2    4    4    0    0  0.10832039853E+03 -0.21474087857E+03 -0.26166695648E+03  0.36694936530E+03  0.91297792486E+02 0.  0.
          4    1    3    3  502    0 -0.18706317114E+03 -0.99708849664E+02  0.68532827604E+03  0.71736276084E+03  0.00000000000E+00 0. -1.
         -3    1    3    3    0  502 -0.36466812370E+02 -0.65542708897E+02  0.18057764996E+03  0.19553506785E+03  0.00000000000E+00 0.  1.
         11    1    5    5    0    0  0.52913902561E+02  0.28988901958E+03  0.33304148744E+03  0.44469332928E+03  0.00000000000E+00 0. -1.
        -11    1    5    5    0    0  0.62295682419E+02  0.90103417557E+02  0.83821453063E+02  0.13793264261E+03  0.00000000000E+00 0.  1.
          3    1    6    6  503    0  0.10086060577E+03 -0.99336188317E+02 -0.14045223412E+03  0.19941757740E+03  0.00000000000E+00 0. -1.
         -3    1    6    6    0  503  0.74597927602E+01 -0.11540469026E+03 -0.12121472237E+03  0.16753178791E+03  0.00000000000E+00 0.  1.
<mgrwt>
<rscale>  0 0.15576127E+04</rscale>
<asrwt>0</asrwt>
<pdfrwt beam="1">  1        2 0.22181347E+00 0.15576127E+04</pdfrwt>
<pdfrwt beam="2">  1       -1 0.64720867E-01 0.15576127E+04</pdfrwt>
<totfact> 0.36348167E+01</totfact>
</mgrwt>
</event>
<event>
12    6  0.1647231E-007  0.1888526E+04  0.7818608E-02  0.8660589E-01
          2   -1    0    0  501    0  0.00000000000E+00  0.00000000000E+00  0.21926063342E+04  0.21926063342E+04  0.00000000000E+00 0. -1.
         -1   -1    0    0    0  501 -0.00000000000E+00 -0.00000000000E+00 -0.40665403136E+03  0.40665403136E+03  0.00000000000E+00 0.  1.
         24    2    1    2    0    0  0.54040778556E+03  0.28561913526E+03  0.15029755744E+03  0.63466479097E+03  0.81186057983E+02 0.  0.
        254    2    1    2    0    0 -0.54040778556E+03 -0.28561913526E+03  0.16356547454E+04  0.19645955746E+04  0.90036129442E+03 0.  0.
         23    2    4    4    0    0 -0.89105449186E+02 -0.49122585216E+03  0.11874723442E+04  0.12913821351E+04  0.91294204172E+02 0.  0.
         23    2    4    4    0    0 -0.45130233637E+03  0.20560671689E+03  0.44818240123E+03  0.67321343953E+03  0.80005934420E+02 0.  0.
          4    1    3    3  502    0  0.35796269093E+03  0.21232792621E+03  0.13460751267E+03  0.43742384344E+03  0.00000000000E+00 0. -1.
         -3    1    3    3    0  502  0.18244509463E+03  0.73291209057E+02  0.15690044772E+02  0.19724094753E+03  0.00000000000E+00 0.  1.
         11    1    5    5    0    0 -0.27126260347E+02 -0.17585611102E+03  0.31783735173E+03  0.36425511381E+03  0.00000000000E+00 0.  1.
        -11    1    5    5    0    0 -0.61979188839E+02 -0.31536974113E+03  0.86963499248E+03  0.92712702130E+03  0.00000000000E+00 0. -1.
          1    1    6    6  503    0 -0.39476072907E+03  0.15821559716E+03  0.35243136614E+03  0.55233692275E+03  0.00000000000E+00 0. -1.
         -1    1    6    6    0  503 -0.56541607303E+02  0.47391119739E+02  0.95751035094E+02  0.12087651678E+03  0.00000000000E+00 0.  1.
<mgrwt>
<rscale>  0 0.18885256E+04</rscale>
<asrwt>0</asrwt>
<pdfrwt beam="1">  1        2 0.33732404E+00 0.18885256E+04</pdfrwt>
<pdfrwt beam="2">  1       -1 0.62562160E-01 0.18885256E+04</pdfrwt>
<totfact> 0.14422639E+01</totfact>
</mgrwt>
</event>
<event>
12    6  0.1647231E-007  0.1560125E+04  0.7818608E-02  0.8845426E-01
         -1   -1    0    0    0  501 -0.00000000000E+00  0.00000000000E+00  0.14750813039E+04  0.14750813039E+04  0.00000000000E+00 0.  1.
          2   -1    0    0  501    0  0.00000000000E+00 -0.00000000000E+00 -0.41251797758E+03  0.41251797758E+03  0.00000000000E+00 0. -1.
         24    2    1    2    0    0  0.21967412726E+03  0.48124630555E+02  0.91341006180E+03  0.94533323268E+03  0.93617720355E+02 0.  0.
        254    2    1    2    0    0 -0.21967412726E+03 -0.48124630555E+02  0.14915326458E+03  0.94226604885E+03  0.90279893012E+03 0.  0.
         23    2    4    4    0    0 -0.35963407088E+03 -0.39191099176E+03  0.26436976634E+02  0.54024599882E+03  0.90752052949E+02 0.  0.
         23    2    4    4    0    0  0.13995994362E+03  0.34378636120E+03  0.12271628794E+03  0.40202005002E+03  0.93717582801E+02 0.  0.
          4    1    3    3  502    0  0.47860715455E+02 -0.25610313733E+02  0.15548584374E+03  0.16468874842E+03  0.00000000000E+00 0. -1.
         -3    1    3    3    0  502  0.17181341180E+03  0.73734944288E+02  0.75792421806E+03  0.78064448426E+03  0.00000000000E+00 0.  1.
         11    1    5    5    0    0 -0.18035026011E+03 -0.24492287981E+03 -0.15899709386E+02  0.30457549825E+03  0.00000000000E+00 0.  1.
        -11    1    5    5    0    0 -0.17928381076E+03 -0.14698811195E+03  0.42336686020E+02  0.23567050057E+03  0.00000000000E+00 0. -1.
          2    1    6    6  503    0  0.11652127418E+03  0.17133656871E+03  0.48400033777E+02  0.21278155556E+03  0.00000000000E+00 0. -1.
         -2    1    6    6    0  503  0.23438669441E+02  0.17244979249E+03  0.74316254165E+02  0.18923849447E+03  0.00000000000E+00 0.  1.
<mgrwt>
<rscale>  0 0.15601251E+04</rscale>
<asrwt>0</asrwt>
<pdfrwt beam="1">  1        2 0.63464305E-01 0.15601251E+04</pdfrwt>
<pdfrwt beam="2">  1       -1 0.22693558E+00 0.15601251E+04</pdfrwt>
<totfact> 0.83577452E+00</totfact>
</mgrwt>
</event>
<event>
12    6  0.1647231E-007  0.1347479E+04  0.7818608E-02  0.8992739E-01
         -1   -1    0    0    0  501 -0.00000000000E+00  0.00000000000E+00  0.46917417054E+03  0.46917417054E+03  0.00000000000E+00 0.  1.
          2   -1    0    0  501    0  0.00000000000E+00 -0.00000000000E+00 -0.96749745776E+03  0.96749745776E+03  0.00000000000E+00 0. -1.
         24    2    1    2    0    0  0.61704138329E+02  0.35007053946E+03 -0.51521864005E+02  0.36843796813E+03  0.82068572570E+02 0.  0.
        254    2    1    2    0    0 -0.61704138329E+02 -0.35007053946E+03 -0.44680142321E+03  0.10682336602E+04  0.90284819191E+03 0.  0.
         23    2    4    4    0    0 -0.28717025183E+02 -0.21625650948E+03 -0.71520280074E+03  0.75311925675E+03  0.89900073776E+02 0.  0.
         23    2    4    4    0    0 -0.32987113147E+02 -0.13381402998E+03  0.26840137753E+03  0.31511440342E+03  0.90903484692E+02 0.  0.
          2    1    3    3  502    0 -0.12023675112E+02  0.16538414046E+03 -0.28479869495E+02  0.16824858289E+03  0.00000000000E+00 0. -1.
         -1    1    3    3    0  502  0.73727813442E+02  0.18468639900E+03 -0.23041994510E+02  0.20018938524E+03  0.00000000000E+00 0.  1.
         11    1    5    5    0    0  0.28856561251E+02 -0.74083854438E+02 -0.30448215895E+03  0.31469112434E+03  0.00000000000E+00 0. -1.
        -11    1    5    5    0    0 -0.57573586433E+02 -0.14217265505E+03 -0.41072064179E+03  0.43842813241E+03  0.00000000000E+00 0.  1.
          4    1    6    6  503    0 -0.63527689196E+02 -0.73291910565E+02  0.14830189862E+03  0.17720306031E+03  0.00000000000E+00 0. -1.
         -4    1    6    6    0  503  0.30540576049E+02 -0.60522119411E+02  0.12009947891E+03  0.13791134311E+03  0.00000000000E+00 0.  1.
<mgrwt>
<rscale>  0 0.13474789E+04</rscale>
<asrwt>0</asrwt>
<pdfrwt beam="1">  1        2 0.14884576E+00 0.13474789E+04</pdfrwt>
<pdfrwt beam="2">  1       -1 0.72180642E-01 0.13474789E+04</pdfrwt>
<totfact> 0.57089570E+01</totfact>
</mgrwt>
</event>
<event>
12    6  0.1647231E-007  0.1490129E+04  0.7818608E-02  0.8891043E-01
          2   -1    0    0  501    0  0.00000000000E+00  0.00000000000E+00  0.25213084056E+04  0.25213084056E+04  0.00000000000E+00 0. -1.
         -3   -1    0    0    0  501 -0.00000000000E+00 -0.00000000000E+00 -0.22017195287E+03  0.22017195287E+03  0.00000000000E+00 0.  1.
         24    2    1    2    0    0  0.46420508166E+03  0.43198212975E+02  0.79095619492E+03  0.92174541233E+03  0.81550349054E+02 0.  0.
        254    2    1    2    0    0 -0.46420508166E+03 -0.43198212975E+02  0.15101802578E+04  0.18197349461E+04  0.90190821024E+03 0.  0.
         23    2    4    4    0    0  0.59121350221E+02 -0.36941547319E+02 -0.84360849941E+02  0.13893580975E+03  0.85594358798E+02 0.  0.
         23    2    4    4    0    0 -0.52332643188E+03 -0.62566656558E+01  0.15945411077E+04  0.16807991364E+04  0.92815367357E+02 0.  0.
          2    1    3    3  502    0  0.43820089261E+03  0.29181321943E+02  0.76648011778E+03  0.88338176503E+03  0.00000000000E+00 0. -1.
         -1    1    3    3    0  502  0.26004189044E+02  0.14016891031E+02  0.24476077140E+02  0.38363647300E+02  0.00000000000E+00 0.  1.
         11    1    5    5    0    0  0.11807830350E+02  0.15938941580E+02  0.89072511965E+01  0.21744282930E+02  0.00000000000E+00 0.  1.
        -11    1    5    5    0    0  0.47313519871E+02 -0.52880488899E+02 -0.93268101138E+02  0.11719152682E+03  0.00000000000E+00 0. -1.
          1    1    6    6  503    0 -0.45186574007E+03 -0.37669605144E+02  0.13672754033E+04  0.14405011887E+04  0.00000000000E+00 0. -1.
         -1    1    6    6    0  503 -0.71460691811E+02  0.31412939488E+02  0.22726570444E+03  0.24029794768E+03  0.00000000000E+00 0.  1.
<mgrwt>
<rscale>  0 0.14901294E+04</rscale>
<asrwt>0</asrwt>
<pdfrwt beam="1">  1        2 0.38789358E+00 0.14901294E+04</pdfrwt>
<pdfrwt beam="2">  1       -3 0.33872610E-01 0.14901294E+04</pdfrwt>
<totfact> 0.18266246E+01</totfact>
</mgrwt>
</event>
<event>
12    6  0.1647231E-007  0.3101643E+04  0.7818608E-02  0.8215287E-01
          2   -1    0    0  501    0  0.00000000000E+00  0.00000000000E+00  0.17125459597E+04  0.17125459597E+04  0.00000000000E+00 0. -1.
         -1   -1    0    0    0  501 -0.00000000000E+00 -0.00000000000E+00 -0.14043692435E+04  0.14043692435E+04  0.00000000000E+00 0.  1.
         24    2    1    2    0    0 -0.11142184555E+04  0.85894826596E+03 -0.27744115198E+02  0.14093320645E+04  0.78563617682E+02 0.  0.
        254    2    1    2    0    0  0.11142184555E+04 -0.85894826596E+03  0.33592083140E+03  0.17075831386E+04  0.90759158216E+03 0.  0.
         23    2    4    4    0    0  0.18270288859E+03 -0.28185272549E+03  0.48549687759E+03  0.59794929041E+03  0.94946465897E+02 0.  0.
         23    2    4    4    0    0  0.93151556693E+03 -0.57709554046E+03 -0.14957604619E+03  0.11096338482E+04  0.90298223529E+02 0.  0.
          2    1    3    3  502    0 -0.66261361598E+03  0.50968976201E+03 -0.55055377505E+02  0.83777774629E+03  0.00000000000E+00 0. -1.
         -1    1    3    3    0  502 -0.45160483953E+03  0.34925850395E+03  0.27311262307E+02  0.57155431826E+03  0.00000000000E+00 0.  1.
         11    1    5    5    0    0  0.41093183809E+02 -0.14657820477E+03  0.19026108123E+03  0.24366595761E+03  0.00000000000E+00 0. -1.
        -11    1    5    5    0    0  0.14160970478E+03 -0.13527452072E+03  0.29523579636E+03  0.35428333280E+03  0.00000000000E+00 0.  1.
          1    1    6    6  503    0  0.45144467370E+03 -0.23149285930E+03 -0.87902244082E+02  0.51489614665E+03  0.00000000000E+00 0. -1.
         -1    1    6    6    0  503  0.48007089322E+03 -0.34560268116E+03 -0.61673802108E+02  0.59473770152E+03  0.00000000000E+00 0.  1.
<mgrwt>
<rscale>  0 0.31016427E+04</rscale>
<asrwt>0</asrwt>
<pdfrwt beam="1">  1        2 0.26346861E+00 0.31016427E+04</pdfrwt>
<pdfrwt beam="2">  1       -1 0.21605681E+00 0.31016427E+04</pdfrwt>
<totfact> 0.10907238E+00</totfact>
</mgrwt>
</event>
<event>
12    6  0.1647231E-007  0.1562987E+04  0.7818608E-02  0.8843615E-01
         -1   -1    0    0    0  501 -0.00000000000E+00  0.00000000000E+00  0.44394299877E+03  0.44394299877E+03  0.00000000000E+00 0.  1.
          2   -1    0    0  501    0  0.00000000000E+00 -0.00000000000E+00 -0.13756986563E+04  0.13756986563E+04  0.00000000000E+00 0. -1.
         24    2    1    2    0    0 -0.19736511787E+03 -0.43950915615E+03 -0.77676679008E+02  0.49317844084E+03  0.71204072634E+02 0.  0.
        254    2    1    2    0    0  0.19736511787E+03  0.43950915615E+03 -0.85407897855E+03  0.13264632143E+04  0.89327065836E+03 0.  0.
         23    2    4    4    0    0  0.26311652964E+02 -0.26019821778E+03 -0.14548969850E+03  0.31128809116E+03  0.85659837176E+02 0.  0.
         23    2    4    4    0    0  0.17105346490E+03  0.69970737393E+03 -0.70858928004E+03  0.10151751231E+04  0.98143088259E+02 0.  0.
          2    1    3    3  502    0 -0.20185400802E+03 -0.43728309833E+03 -0.74791128950E+02  0.48739641116E+03  0.00000000000E+00 0. -1.
         -1    1    3    3    0  502  0.44888901471E+01 -0.22260578188E+01 -0.28855500575E+01  0.57820296869E+01  0.00000000000E+00 0.  1.
         11    1    5    5    0    0 -0.26827595826E+02 -0.15494633347E+03 -0.85738530826E+02  0.17910662138E+03  0.00000000000E+00 0.  1.
        -11    1    5    5    0    0  0.53139248790E+02 -0.10525188432E+03 -0.59751167678E+02  0.13218146978E+03  0.00000000000E+00 0. -1.
          2    1    6    6  503    0  0.24761968174E+02  0.20529188818E+02 -0.29009357176E+02  0.43314494862E+02  0.00000000000E+00 0. -1.
         -2    1    6    6    0  503  0.14629149673E+03  0.67917818512E+03 -0.67957992287E+03  0.97186062824E+03  0.00000000000E+00 0.  1.
<mgrwt>
<rscale>  0 0.15629866E+04</rscale>
<asrwt>0</asrwt>
<pdfrwt beam="1">  1        2 0.21164595E+00 0.15629866E+04</pdfrwt>
<pdfrwt beam="2">  1       -1 0.68298922E-01 0.15629866E+04</pdfrwt>
<totfact> 0.35541521E+01</totfact>
</mgrwt>
</event>
<event>
12    6  0.1647231E-007  0.3111714E+04  0.7818608E-02  0.8212531E-01
          2   -1    0    0  501    0  0.00000000000E+00  0.00000000000E+00  0.26317985764E+04  0.26317985764E+04  0.00000000000E+00 0. -1.
         -1   -1    0    0    0  501 -0.00000000000E+00 -0.00000000000E+00 -0.91978560979E+03  0.91978560979E+03  0.00000000000E+00 0.  1.
         24    2    1    2    0    0 -0.92503684150E+03  0.98739511982E+03  0.13034822944E+04  0.18804247921E+04  0.79303381222E+02 0.  0.
        254    2    1    2    0    0  0.92503684150E+03 -0.98739511982E+03  0.40853067228E+03  0.16711593941E+04  0.89175900869E+03 0.  0.
         23    2    4    4    0    0 -0.36331853771E+02 -0.55120816900E+03  0.12629151095E+03  0.57484828501E+03  0.96698272316E+02 0.  0.
         23    2    4    4    0    0  0.96136869527E+03 -0.43618695082E+03  0.28223916133E+03  0.10963111091E+04  0.88035671541E+02 0.  0.
          4    1    3    3  502    0 -0.89683483980E+03  0.97264221819E+03  0.12801694851E+04  0.18409724401E+04  0.00000000000E+00 0. -1.
         -3    1    3    3    0  502 -0.28202001695E+02  0.14752901638E+02  0.23312809272E+02  0.39452352052E+02  0.00000000000E+00 0.  1.
         11    1    5    5    0    0 -0.49223544330E+02 -0.14079804793E+03  0.49215813003E+02  0.15706445768E+03  0.00000000000E+00 0. -1.
        -11    1    5    5    0    0  0.12891690559E+02 -0.41041012107E+03  0.77075697945E+02  0.41778382733E+03  0.00000000000E+00 0.  1.
          3    1    6    6  503    0  0.41133720080E+03 -0.23440905346E+03  0.13104520338E+03  0.49124204059E+03  0.00000000000E+00 0. -1.
         -3    1    6    6    0  503  0.55003149446E+03 -0.20177789736E+03  0.15119395794E+03  0.60506906852E+03  0.00000000000E+00 0.  1.
<mgrwt>
<rscale>  0 0.31117136E+04</rscale>
<asrwt>0</asrwt>
<pdfrwt beam="1">  1        2 0.40489208E+00 0.31117136E+04</pdfrwt>
<pdfrwt beam="2">  1       -1 0.14150548E+00 0.31117136E+04</pdfrwt>
<totfact> 0.11446161E+00</totfact>
</mgrwt>
</event>
<event>
12    6  0.1647231E-007  0.1391092E+04  0.7818608E-02  0.8960292E-01
         -1   -1    0    0    0  501 -0.00000000000E+00  0.00000000000E+00  0.10411717057E+04  0.10411717057E+04  0.00000000000E+00 0.  1.
          2   -1    0    0  501    0  0.00000000000E+00 -0.00000000000E+00 -0.46465367699E+03  0.46465367699E+03  0.00000000000E+00 0. -1.
         24    2    1    2    0    0 -0.28677418091E+03  0.11216046329E+03  0.43060393118E+03  0.53561888781E+03  0.81538009992E+02 0.  0.
        254    2    1    2    0    0  0.28677418091E+03 -0.11216046329E+03  0.14591409755E+03  0.97020649491E+03  0.90839986709E+03 0.  0.
         23    2    4    4    0    0 -0.54317617473E+02 -0.44849758401E+03  0.26796630568E+01  0.46060504479E+03  0.89718115541E+02 0.  0.
         23    2    4    4    0    0  0.34109179838E+03  0.33633712072E+03  0.14323443449E+03  0.50960145012E+03  0.98545730711E+02 0.  0.
          4    1    3    3  502    0 -0.13829010128E+03  0.56450443122E+02  0.14085169079E+03  0.20530466005E+03  0.00000000000E+00 0. -1.
         -3    1    3    3    0  502 -0.14848407963E+03  0.55710020167E+02  0.28975224039E+03  0.33031422776E+03  0.00000000000E+00 0.  1.
         11    1    5    5    0    0 -0.56194464529E+02 -0.14929916693E+03  0.20682395085E+02  0.16085962997E+03  0.00000000000E+00 0. -1.
        -11    1    5    5    0    0  0.18768470558E+01 -0.29919841708E+03 -0.18002732028E+02  0.29974541481E+03  0.00000000000E+00 0.  1.
          2    1    6    6  503    0  0.11412329133E+03  0.72124946210E+02  0.57225621924E+01  0.13512542768E+03  0.00000000000E+00 0. -1.
         -2    1    6    6    0  503  0.22696850705E+03  0.26421217451E+03  0.13751187230E+03  0.37447602243E+03  0.00000000000E+00 0.  1.
<mgrwt>
<rscale>  0 0.13910920E+04</rscale>
<asrwt>0</asrwt>
<pdfrwt beam="1">  1        2 0.71485181E-01 0.13910920E+04</pdfrwt>
<pdfrwt beam="2">  1       -1 0.16018026E+00 0.13910920E+04</pdfrwt>
<totfact> 0.21752739E+01</totfact>
</mgrwt>
</event>
<event>
12    6  0.1647231E-007  0.1692562E+04  0.7818608E-02  0.8765618E-01
         -1   -1    0    0    0  501 -0.00000000000E+00  0.00000000000E+00  0.10336362398E+04  0.10336362398E+04  0.00000000000E+00 0.  1.
          2   -1    0    0  501    0  0.00000000000E+00 -0.00000000000E+00 -0.69288517566E+03  0.69288517566E+03  0.00000000000E+00 0. -1.
         24    2    1    2    0    0 -0.12138104886E+03  0.27767528513E+03  0.66170431537E+03  0.73212795980E+03  0.79509908409E+02 0.  0.
        254    2    1    2    0    0  0.12138104886E+03 -0.27767528513E+03 -0.32095325123E+03  0.99439345566E+03  0.89105018500E+03 0.  0.
         23    2    4    4    0    0  0.35948023491E+03  0.16433029270E+03 -0.30005431878E+02  0.40706818608E+03  0.92594264325E+02 0.  0.
         23    2    4    4    0    0 -0.23809918606E+03 -0.44200557784E+03 -0.29094781936E+03  0.58732526958E+03  0.90775467242E+02 0.  0.
          4    1    3    3  502    0 -0.67665173575E+01  0.91444569105E+02  0.24370952818E+03  0.26038861170E+03  0.00000000000E+00 0. -1.
         -3    1    3    3    0  502 -0.11461453150E+03  0.18623071603E+03  0.41799478719E+03  0.47173934810E+03  0.00000000000E+00 0.  1.
         11    1    5    5    0    0  0.22425787763E+03  0.96575996853E+02  0.26516598054E+02  0.24560465960E+03  0.00000000000E+00 0. -1.
        -11    1    5    5    0    0  0.13522235729E+03  0.67754295851E+02 -0.56522029932E+02  0.16146352648E+03  0.00000000000E+00 0.  1.
          2    1    6    6  503    0 -0.66119854521E+02 -0.56742184722E+02 -0.35294026781E+02  0.94006271149E+02  0.00000000000E+00 0. -1.
         -2    1    6    6    0  503 -0.17197933154E+03 -0.38526339312E+03 -0.25565379258E+03  0.49331899843E+03  0.00000000000E+00 0.  1.
<mgrwt>
<rscale>  0 0.16925616E+04</rscale>
<asrwt>0</asrwt>
<pdfrwt beam="1">  1        2 0.10659772E+00 0.16925616E+04</pdfrwt>
<pdfrwt beam="2">  1       -1 0.15902096E+00 0.16925616E+04</pdfrwt>
<totfact> 0.13416924E+01</totfact>
</mgrwt>
</event>
<event>
12    6  0.1647231E-007  0.1384701E+04  0.7818608E-02  0.8964968E-01
          2   -1    0    0  501    0  0.00000000000E+00  0.00000000000E+00  0.13777269581E+04  0.13777269581E+04  0.00000000000E+00 0. -1.
         -1   -1    0    0    0  501 -0.00000000000E+00 -0.00000000000E+00 -0.34792760706E+03  0.34792760706E+03  0.00000000000E+00 0.  1.
         24    2    1    2    0    0  0.81426264051E+02  0.14035741493E+03  0.74259291509E+03  0.76423447450E+03  0.79244268334E+02 0.  0.
        254    2    1    2    0    0 -0.81426264051E+02 -0.14035741493E+03  0.28720643595E+03  0.96142009066E+03  0.90305626263E+03 0.  0.
         23    2    4    4    0    0 -0.14649357164E+03 -0.22344260882E+03  0.57609233954E+03  0.64156864907E+03  0.91328975817E+02 0.  0.
         23    2    4    4    0    0  0.65067307586E+02  0.83085193884E+02 -0.28888590358E+03  0.31985144160E+03  0.87823547201E+02 0.  0.
          2    1    3    3  502    0  0.79190593156E+02  0.13116165706E+03  0.73796085743E+03  0.75369805454E+03  0.00000000000E+00 0. -1.
         -1    1    3    3    0  502  0.22356708953E+01  0.91957578770E+01  0.46320576641E+01  0.10536419956E+02  0.00000000000E+00 0.  1.
         11    1    5    5    0    0 -0.15667278635E+03 -0.18451216266E+03  0.49873415251E+03  0.55437068378E+03  0.00000000000E+00 0.  1.
        -11    1    5    5    0    0  0.10179214712E+02 -0.38930446158E+02  0.77358187030E+02  0.87197965290E+02  0.00000000000E+00 0. -1.
          4    1    6    6  503    0  0.80946239843E+00 -0.13660795445E+02 -0.77148528151E+02  0.78352842689E+02  0.00000000000E+00 0. -1.
         -4    1    6    6    0  503  0.64257845188E+02  0.96745989329E+02 -0.21173737543E+03  0.24149859891E+03  0.00000000000E+00 0.  1.
<mgrwt>
<rscale>  0 0.13847010E+04</rscale>
<asrwt>0</asrwt>
<pdfrwt beam="1">  1        2 0.21195799E+00 0.13847010E+04</pdfrwt>
<pdfrwt beam="2">  1       -1 0.53527325E-01 0.13847010E+04</pdfrwt>
<totfact> 0.58274301E+01</totfact>
</mgrwt>
</event>
<event>
12    6  0.1647231E-007  0.2120220E+04  0.7818608E-02  0.8552388E-01
          2   -1    0    0  501    0  0.00000000000E+00  0.00000000000E+00  0.11565455198E+04  0.11565455198E+04  0.00000000000E+00 0. -1.
         -1   -1    0    0    0  501 -0.00000000000E+00 -0.00000000000E+00 -0.97171528247E+03  0.97171528247E+03  0.00000000000E+00 0.  1.
         24    2    1    2    0    0  0.68155538959E+02 -0.14681122789E+03 -0.77901820084E+03  0.79988267169E+03  0.82123182535E+02 0.  0.
        254    2    1    2    0    0 -0.68155538959E+02  0.14681122789E+03  0.96384843821E+03  0.13283781306E+04  0.89965878641E+03 0.  0.
         23    2    4    4    0    0 -0.45705823313E+03  0.13493988458E+03  0.35925912678E+03  0.60374152049E+03  0.91245287367E+02 0.  0.
         23    2    4    4    0    0  0.38890269417E+03  0.11871343314E+02  0.60458931143E+03  0.72463661014E+03  0.90464064309E+02 0.  0.
          2    1    3    3  502    0 -0.10462140826E+02 -0.35880185950E+02 -0.87876828427E+02  0.95494403548E+02  0.00000000000E+00 0. -1.
         -1    1    3    3    0  502  0.78617679785E+02 -0.11093104194E+03 -0.69114137241E+03  0.70438826814E+03  0.00000000000E+00 0.  1.
         11    1    5    5    0    0 -0.11129077456E+03  0.39269086552E+01  0.51625477171E+02  0.12274464146E+03  0.00000000000E+00 0.  1.
        -11    1    5    5    0    0 -0.34576745857E+03  0.13101297592E+03  0.30763364961E+03  0.48099687904E+03  0.00000000000E+00 0. -1.
          4    1    6    6  503    0  0.32662710054E+03 -0.17922657605E+02  0.46046648973E+03  0.56483260585E+03  0.00000000000E+00 0. -1.
         -4    1    6    6    0  503  0.62275593630E+02  0.29794000919E+02  0.14412282170E+03  0.15980400429E+03  0.00000000000E+00 0.  1.
<mgrwt>
<rscale>  0 0.21202198E+04</rscale>
<asrwt>0</asrwt>
<pdfrwt beam="1">  1        2 0.17793008E+00 0.21202198E+04</pdfrwt>
<pdfrwt beam="2">  1       -1 0.14949466E+00 0.21202198E+04</pdfrwt>
<totfact> 0.74307244E+00</totfact>
</mgrwt>
</event>
<event>
12    6  0.1647231E-007  0.1404698E+04  0.7818608E-02  0.8950425E-01
         -1   -1    0    0    0  501 -0.00000000000E+00  0.00000000000E+00  0.13622447240E+04  0.13622447240E+04  0.00000000000E+00 0.  1.
          2   -1    0    0  501    0  0.00000000000E+00 -0.00000000000E+00 -0.36211850783E+03  0.36211850783E+03  0.00000000000E+00 0. -1.
         24    2    1    2    0    0 -0.63507847450E+02 -0.31222916906E+03  0.60008908712E+03  0.68399906096E+03  0.78914524748E+02 0.  0.
        254    2    1    2    0    0  0.63507847450E+02  0.31222916906E+03  0.40003712907E+03  0.10403641709E+04  0.90598432807E+03 0.  0.
         23    2    4    4    0    0  0.22680571430E+02 -0.18938025694E+03 -0.17238473445E+03  0.27292726746E+03  0.91616082727E+02 0.  0.
         23    2    4    4    0    0  0.40827276020E+02  0.50160942601E+03  0.57242186352E+03  0.76743690342E+03  0.89519428986E+02 0.  0.
          2    1    3    3  502    0 -0.73906955842E+02 -0.18065811451E+03  0.33046925163E+03  0.38380922179E+03  0.00000000000E+00 0. -1.
         -1    1    3    3    0  502  0.10399108392E+02 -0.13157105455E+03  0.26961983549E+03  0.30018983917E+03  0.00000000000E+00 0.  1.
         11    1    5    5    0    0  0.23067899412E+02 -0.14073503070E+03 -0.17309233723E+03  0.22427535321E+03  0.00000000000E+00 0. -1.
        -11    1    5    5    0    0 -0.38732798160E+00 -0.48645226242E+02  0.70760277941E+00  0.48651914256E+02  0.00000000000E+00 0.  1.
          3    1    6    6  503    0  0.49992700672E+02  0.32337774438E+03  0.42222458200E+03  0.53417790419E+03  0.00000000000E+00 0. -1.
         -3    1    6    6    0  503 -0.91654246524E+01  0.17823168163E+03  0.15019728152E+03  0.23325899923E+03  0.00000000000E+00 0.  1.
<mgrwt>
<rscale>  0 0.14046979E+04</rscale>
<asrwt>0</asrwt>
<pdfrwt beam="1">  1        2 0.55710540E-01 0.14046979E+04</pdfrwt>
<pdfrwt beam="2">  1       -1 0.20957611E+00 0.14046979E+04</pdfrwt>
<totfact> 0.12819788E+01</totfact>
</mgrwt>
</event>
<event>
12    6  0.1647231E-007  0.1988650E+04  0.7818608E-02  0.8611946E-01
          2   -1    0    0  501    0  0.00000000000E+00  0.00000000000E+00  0.12166647770E+04  0.12166647770E+04  0.00000000000E+00 0. -1.
         -1   -1    0    0    0  501 -0.00000000000E+00 -0.00000000000E+00 -0.81261683457E+03  0.81261683457E+03  0.00000000000E+00 0.  1.
         24    2    1    2    0    0 -0.49087357473E+03  0.37932703184E+03 -0.36224904759E+03  0.72281995274E+03  0.79990300277E+02 0.  0.
        254    2    1    2    0    0  0.49087357473E+03 -0.37932703184E+03  0.76629699004E+03  0.13064616589E+04  0.85719608356E+03 0.  0.
         23    2    4    4    0    0  0.53094209234E+03  0.10771828808E+03  0.49985849291E+03  0.74260293168E+03  0.89988144789E+02 0.  0.
         23    2    4    4    0    0 -0.40068517602E+02 -0.48704531992E+03  0.26643849713E+03  0.56385872719E+03  0.90158536519E+02 0.  0.
          2    1    3    3  502    0 -0.27492728058E+03  0.25225926570E+03 -0.18952446003E+03  0.41849643689E+03  0.00000000000E+00 0. -1.
         -1    1    3    3    0  502 -0.21594629415E+03  0.12706776614E+03 -0.17272458756E+03  0.30432351585E+03  0.00000000000E+00 0.  1.
         11    1    5    5    0    0  0.39584789629E+02 -0.89539590111E+01  0.62526864305E+02  0.74543528973E+02  0.00000000000E+00 0.  1.
        -11    1    5    5    0    0  0.49135730271E+03  0.11667224709E+03  0.43733162860E+03  0.66805940270E+03  0.00000000000E+00 0. -1.
          3    1    6    6  503    0  0.22981244270E+02 -0.25511895611E+03  0.14933740888E+03  0.29650544860E+03  0.00000000000E+00 0. -1.
         -3    1    6    6    0  503 -0.63049761872E+02 -0.23192636381E+03  0.11710108825E+03  0.26735327859E+03  0.00000000000E+00 0.  1.
<mgrwt>
<rscale>  0 0.19886501E+04</rscale>
<asrwt>0</asrwt>
<pdfrwt beam="1">  1        2 0.18717920E+00 0.19886501E+04</pdfrwt>
<pdfrwt beam="2">  1       -1 0.12501798E+00 0.19886501E+04</pdfrwt>
<totfact> 0.10980499E+01</totfact>
</mgrwt>
</event>
<event>
12    6  0.1647231E-007  0.1650558E+04  0.7818608E-02  0.8790077E-01
         -1   -1    0    0    0  501 -0.00000000000E+00  0.00000000000E+00  0.49207434407E+03  0.49207434407E+03  0.00000000000E+00 0.  1.
          2   -1    0    0  501    0  0.00000000000E+00 -0.00000000000E+00 -0.13841102981E+04  0.13841102981E+04  0.00000000000E+00 0. -1.
         24    2    1    2    0    0  0.36702737427E+03  0.31291023871E+03  0.43608949557E+02  0.49084940821E+03  0.80059291184E+02 0.  0.
        254    2    1    2    0    0 -0.36702737427E+03 -0.31291023871E+03 -0.93564490354E+03  0.13853352339E+04  0.90061113355E+03 0.  0.
         23    2    4    4    0    0 -0.63955846725E+03 -0.31246196339E+03 -0.54934489203E+03  0.90379748149E+03  0.91665509078E+02 0.  0.
         23    2    4    4    0    0  0.27253109298E+03 -0.44827532512E+00 -0.38630001151E+03  0.48153775243E+03  0.91528741566E+02 0.  0.
          4    1    3    3  502    0  0.16950395601E+03  0.14537747229E+03 -0.19841861612E+02  0.22418719862E+03  0.00000000000E+00 0. -1.
         -3    1    3    3    0  502  0.19752341826E+03  0.16753276642E+03  0.63450811169E+02  0.26666220959E+03  0.00000000000E+00 0.  1.
         11    1    5    5    0    0 -0.50179502089E+03 -0.28055201543E+03 -0.46254289844E+03  0.73787099770E+03  0.00000000000E+00 0.  1.
        -11    1    5    5    0    0 -0.13776344636E+03 -0.31909947959E+02 -0.86801993593E+02  0.16592648379E+03  0.00000000000E+00 0. -1.
          4    1    6    6  503    0  0.90153256550E+02  0.10268529431E+02 -0.20486307165E+03  0.22405787308E+03  0.00000000000E+00 0. -1.
         -4    1    6    6    0  503  0.18237783643E+03 -0.10716804756E+02 -0.18143693986E+03  0.25747987935E+03  0.00000000000E+00 0.  1.
<mgrwt>
<rscale>  0 0.16505577E+04</rscale>
<asrwt>0</asrwt>
<pdfrwt beam="1">  1        2 0.21294005E+00 0.16505577E+04</pdfrwt>
<pdfrwt beam="2">  1       -1 0.75703745E-01 0.16505577E+04</pdfrwt>
<totfact> 0.28207909E+01</totfact>
</mgrwt>
</event>
<event>
12    6  0.1647231E-007  0.2205575E+04  0.7818608E-02  0.8516111E-01
         -1   -1    0    0    0  501 -0.00000000000E+00  0.00000000000E+00  0.12996980085E+04  0.12996980085E+04  0.00000000000E+00 0.  1.
          2   -1    0    0  501    0  0.00000000000E+00 -0.00000000000E+00 -0.93570953065E+03  0.93570953065E+03  0.00000000000E+00 0. -1.
         24    2    1    2    0    0 -0.25716893735E+03  0.85062396912E+03  0.38833471270E+03  0.97591714290E+03  0.10914862132E+03 0.  0.
        254    2    1    2    0    0  0.25716893735E+03 -0.85062396912E+03 -0.24346234802E+02  0.12594903963E+04  0.89220307108E+03 0.  0.
         23    2    4    4    0    0  0.49949421940E+03 -0.66637605135E+03 -0.24504615008E+03  0.87319956276E+03  0.94224963241E+02 0.  0.
         23    2    4    4    0    0 -0.24232528205E+03 -0.18424791776E+03  0.22069991528E+03  0.38629083354E+03  0.88562508732E+02 0.  0.
          2    1    3    3  502    0 -0.44007921945E+02  0.31353022786E+03  0.11692465759E+03  0.33750448372E+03  0.00000000000E+00 0. -1.
         -1    1    3    3    0  502 -0.21316101540E+03  0.53709374126E+03  0.27141005511E+03  0.63841265918E+03  0.00000000000E+00 0.  1.
         11    1    5    5    0    0  0.42440547012E+03 -0.55649741769E+03 -0.24051148487E+03  0.74003726482E+03  0.00000000000E+00 0.  1.
        -11    1    5    5    0    0  0.75088749281E+02 -0.10987863366E+03 -0.45346652117E+01  0.13316229794E+03  0.00000000000E+00 0. -1.
          2    1    6    6  503    0 -0.21927698485E+02 -0.28631443856E+02  0.66200484715E+02  0.75386256802E+02  0.00000000000E+00 0. -1.
         -2    1    6    6    0  503 -0.22039758356E+03 -0.15561647391E+03  0.15449943056E+03  0.31090457674E+03  0.00000000000E+00 0.  1.
<mgrwt>
<rscale>  0 0.22055746E+04</rscale>
<asrwt>0</asrwt>
<pdfrwt beam="1">  1        2 0.14395531E+00 0.22055746E+04</pdfrwt>
<pdfrwt beam="2">  1       -1 0.19995354E+00 0.22055746E+04</pdfrwt>
<totfact> 0.43548967E+00</totfact>
</mgrwt>
</event>
<event>
12    6  0.1647231E-007  0.1913490E+04  0.7818608E-02  0.8648171E-01
          2   -1    0    0  501    0  0.00000000000E+00  0.00000000000E+00  0.26019662491E+04  0.26019662491E+04  0.00000000000E+00 0. -1.
         -1   -1    0    0    0  501 -0.00000000000E+00 -0.00000000000E+00 -0.35179570267E+03  0.35179570267E+03  0.00000000000E+00 0.  1.
         24    2    1    2    0    0  0.68259832656E+03  0.47495187220E+02  0.42634609327E+03  0.81003683103E+03  0.78691855616E+02 0.  0.
        254    2    1    2    0    0 -0.68259832656E+03 -0.47495187220E+02  0.18238244531E+04  0.21437251207E+04  0.89500027325E+03 0.  0.
         23    2    4    4    0    0 -0.44506443430E+03  0.40426388006E+03  0.10294648384E+04  0.11950088713E+04  0.82077485186E+02 0.  0.
         23    2    4    4    0    0 -0.23753389226E+03 -0.45175906728E+03  0.79435961473E+03  0.94871624942E+03  0.92448469726E+02 0.  0.
          2    1    3    3  502    0  0.15665148381E+03 -0.21268169630E+01  0.62972714702E+02  0.16884837437E+03  0.00000000000E+00 0. -1.
         -1    1    3    3    0  502  0.52594684276E+03  0.49622004183E+02  0.36337337857E+03  0.64118845666E+03  0.00000000000E+00 0.  1.
         11    1    5    5    0    0 -0.17275920568E+03  0.13483854579E+03  0.30592286544E+03  0.37631898195E+03  0.00000000000E+00 0.  1.
        -11    1    5    5    0    0 -0.27230522863E+03  0.26942533427E+03  0.72354197296E+03  0.81868988935E+03  0.00000000000E+00 0. -1.
          2    1    6    6  503    0 -0.23868517182E+03 -0.42355114414E+03  0.71630497039E+03  0.86571299722E+03  0.00000000000E+00 0. -1.
         -2    1    6    6    0  503  0.11512795620E+01 -0.28207923141E+02  0.78054644341E+02  0.83003252200E+02  0.00000000000E+00 0.  1.
<mgrwt>
<rscale>  0 0.19134895E+04</rscale>
<asrwt>0</asrwt>
<pdfrwt beam="1">  1        2 0.40030249E+00 0.19134895E+04</pdfrwt>
<pdfrwt beam="2">  1       -1 0.54122417E-01 0.19134895E+04</pdfrwt>
<totfact> 0.11155284E+01</totfact>
</mgrwt>
</event>
<event>
12    6  0.1647231E-007  0.1980458E+04  0.7818608E-02  0.8615812E-01
          2   -1    0    0  501    0  0.00000000000E+00  0.00000000000E+00  0.18833537390E+04  0.18833537390E+04  0.00000000000E+00 0. -1.
         -1   -1    0    0    0  501 -0.00000000000E+00 -0.00000000000E+00 -0.52064244932E+03  0.52064244932E+03  0.00000000000E+00 0.  1.
         24    2    1    2    0    0 -0.26797647121E+03  0.51983629766E+03  0.11805664517E+04  0.13198920010E+04  0.79602649446E+02 0.  0.
        254    2    1    2    0    0  0.26797647121E+03 -0.51983629766E+03  0.18214483800E+03  0.10841041874E+04  0.89446295711E+03 0.  0.
         23    2    4    4    0    0 -0.10581649725E+03 -0.57351513608E+03 -0.10650855185E+03  0.60003333828E+03  0.92623933367E+02 0.  0.
         23    2    4    4    0    0  0.37379296846E+03  0.53678838415E+02  0.28865338985E+03  0.48407084912E+03  0.91658095856E+02 0.  0.
          2    1    3    3  502    0 -0.26214432077E+03  0.50351412162E+03  0.11040819294E+04  0.12414680916E+04  0.00000000000E+00 0. -1.
         -1    1    3    3    0  502 -0.58321504327E+01  0.16322176047E+02  0.76484522280E+02  0.78423909351E+02  0.00000000000E+00 0.  1.
         11    1    5    5    0    0  0.13270158111E+02 -0.18683201486E+02 -0.64964092189E+01  0.23819371252E+02  0.00000000000E+00 0. -1.
        -11    1    5    5    0    0 -0.11908665536E+03 -0.55483193459E+03 -0.10001214263E+03  0.57621396703E+03  0.00000000000E+00 0.  1.
          1    1    6    6  503    0  0.10438127546E+03  0.50610393766E+02  0.59508606395E+02  0.13037690309E+03  0.00000000000E+00 0. -1.
         -1    1    6    6    0  503  0.26941169299E+03  0.30684446489E+01  0.22914478345E+03  0.35369394603E+03  0.00000000000E+00 0.  1.
<mgrwt>
<rscale>  0 0.19804584E+04</rscale>
<asrwt>0</asrwt>
<pdfrwt beam="1">  1        2 0.28974672E+00 0.19804584E+04</pdfrwt>
<pdfrwt beam="2">  1       -1 0.80098840E-01 0.19804584E+04</pdfrwt>
<totfact> 0.12786381E+01</totfact>
</mgrwt>
</event>
<event>
12    6  0.1647231E-007  0.1754289E+04  0.7818608E-02  0.8730993E-01
         -1   -1    0    0    0  501 -0.00000000000E+00  0.00000000000E+00  0.51177763851E+03  0.51177763851E+03  0.00000000000E+00 0.  1.
          2   -1    0    0  501    0  0.00000000000E+00 -0.00000000000E+00 -0.15033530115E+04  0.15033530115E+04  0.00000000000E+00 0. -1.
         24    2    1    2    0    0 -0.14291335618E+03 -0.47462092630E+03 -0.83982802206E+03  0.97846414241E+03  0.79948234992E+02 0.  0.
        254    2    1    2    0    0  0.14291335618E+03  0.47462092630E+03 -0.15174735098E+03  0.10366665077E+04  0.89775327262E+03 0.  0.
         23    2    4    4    0    0  0.18219057130E+03  0.55112986381E+03 -0.43185827791E+03  0.72929885772E+03  0.91857066270E+02 0.  0.
         23    2    4    4    0    0 -0.39277215118E+02 -0.76508937504E+02  0.28011092693E+03  0.30736764993E+03  0.92824693354E+02 0.  0.
          4    1    3    3  502    0 -0.10754103565E+03 -0.43046255714E+03 -0.71611846725E+03  0.84243026215E+03  0.00000000000E+00 0. -1.
         -3    1    3    3    0  502 -0.35372320529E+02 -0.44158369167E+02 -0.12370955481E+03  0.13603388026E+03  0.00000000000E+00 0.  1.
         11    1    5    5    0    0  0.10512255786E+03  0.32418770009E+03 -0.30872596497E+03  0.45984795151E+03  0.00000000000E+00 0.  1.
        -11    1    5    5    0    0  0.77068013436E+02  0.22694216372E+03 -0.12313231294E+03  0.26945090621E+03  0.00000000000E+00 0. -1.
          3    1    6    6  503    0  0.10338213164E+02  0.15771087405E+02  0.23088796750E+02  0.29811044676E+02  0.00000000000E+00 0. -1.
         -3    1    6    6    0  503 -0.49615428281E+02 -0.92280024910E+02  0.25702213018E+03  0.27755660526E+03  0.00000000000E+00 0.  1.
<mgrwt>
<rscale>  0 0.17542890E+04</rscale>
<asrwt>0</asrwt>
<pdfrwt beam="1">  1        2 0.23128508E+00 0.17542890E+04</pdfrwt>
<pdfrwt beam="2">  1       -1 0.78735022E-01 0.17542890E+04</pdfrwt>
<totfact> 0.22019505E+01</totfact>
</mgrwt>
</event>
<event>
12    6  0.1647231E-007  0.1365023E+04  0.7818608E-02  0.8979533E-01
          2   -1    0    0  501    0  0.00000000000E+00  0.00000000000E+00  0.24697045326E+03  0.24697045326E+03  0.00000000000E+00 0. -1.
         -1   -1    0    0    0  501 -0.00000000000E+00 -0.00000000000E+00 -0.18861453166E+04  0.18861453166E+04  0.00000000000E+00 0.  1.
         24    2    1    2    0    0 -0.73941928828E+02  0.62403336020E+02 -0.10212633903E+04  0.10289747913E+04  0.80303322361E+02 0.  0.
        254    2    1    2    0    0  0.73941928828E+02 -0.62403336020E+02 -0.61791147309E+03  0.11041409786E+04  0.90991819790E+03 0.  0.
         23    2    4    4    0    0  0.35978739766E+03 -0.11080880742E+03  0.31999274916E+02  0.38614939813E+03  0.79761148199E+02 0.  0.
         23    2    4    4    0    0 -0.28584546883E+03  0.48405471403E+02 -0.64991074801E+03  0.71799158048E+03  0.95274380310E+02 0.  0.
          4    1    3    3  502    0 -0.38019174606E+02  0.76044085749E+02 -0.60552034486E+03  0.61145976863E+03  0.00000000000E+00 0. -1.
         -3    1    3    3    0  502 -0.35922754222E+02 -0.13640749728E+02 -0.41574304539E+03  0.41751502262E+03  0.00000000000E+00 0.  1.
         11    1    5    5    0    0  0.74259887135E+02 -0.41583060734E+02  0.35781567927E+02  0.92325523993E+02  0.00000000000E+00 0. -1.
        -11    1    5    5    0    0  0.28552751052E+03 -0.69225746689E+02 -0.37822930109E+01  0.29382387413E+03  0.00000000000E+00 0.  1.
          2    1    6    6  503    0 -0.11665783759E+03  0.53374975663E+02 -0.36141516105E+03  0.38350861494E+03  0.00000000000E+00 0. -1.
         -2    1    6    6    0  503 -0.16918763124E+03 -0.49695042603E+01 -0.28849558696E+03  0.33448296554E+03  0.00000000000E+00 0.  1.
<mgrwt>
<rscale>  0 0.13650233E+04</rscale>
<asrwt>0</asrwt>
<pdfrwt beam="1">  1        2 0.37995454E-01 0.13650233E+04</pdfrwt>
<pdfrwt beam="2">  1       -1 0.29017621E+00 0.13650233E+04</pdfrwt>
<totfact> 0.58540328E+00</totfact>
</mgrwt>
</event>
<event>
12    6  0.1647231E-007  0.1740709E+04  0.7818608E-02  0.8738481E-01
         -1   -1    0    0    0  501 -0.00000000000E+00  0.00000000000E+00  0.62634143673E+03  0.62634143673E+03  0.00000000000E+00 0.  1.
          2   -1    0    0  501    0  0.00000000000E+00 -0.00000000000E+00 -0.12094307388E+04  0.12094307388E+04  0.00000000000E+00 0. -1.
         24    2    1    2    0    0 -0.20114433266E+03  0.22299724151E+03  0.37742746069E+03  0.49087049636E+03  0.91189603737E+02 0.  0.
        254    2    1    2    0    0  0.20114433266E+03 -0.22299724151E+03 -0.96051676273E+03  0.13449016791E+04  0.89217782015E+03 0.  0.
         23    2    4    4    0    0  0.49182558779E+03 -0.18130202013E+03 -0.87838415625E+03  0.10263279205E+04  0.83829845842E+02 0.  0.
         23    2    4    4    0    0 -0.29068125512E+03 -0.41695221373E+02 -0.82132606483E+02  0.31857375868E+03  0.92246360931E+02 0.  0.
          2    1    3    3  502    0 -0.69473156953E+02  0.25165995888E+02  0.11637024713E+03  0.13784731156E+03  0.00000000000E+00 0. -1.
         -1    1    3    3    0  502 -0.13167117571E+03  0.19783124562E+03  0.26105721356E+03  0.35302318480E+03  0.00000000000E+00 0.  1.
         11    1    5    5    0    0  0.32612210447E+03 -0.77245134698E+02 -0.54958490325E+03  0.64371267173E+03  0.00000000000E+00 0. -1.
        -11    1    5    5    0    0  0.16570348332E+03 -0.10405688544E+03 -0.32879925300E+03  0.38261524873E+03  0.00000000000E+00 0.  1.
          4    1    6    6  503    0 -0.21219707258E+03 -0.66836276290E+02 -0.79059105719E+02  0.23610384926E+03  0.00000000000E+00 0. -1.
         -4    1    6    6    0  503 -0.78484182547E+02  0.25141054917E+02 -0.30735007632E+01  0.82469909418E+02  0.00000000000E+00 0.  1.
<mgrwt>
<rscale>  0 0.17407086E+04</rscale>
<asrwt>0</asrwt>
<pdfrwt beam="1">  1        2 0.18606627E+00 0.17407086E+04</pdfrwt>
<pdfrwt beam="2">  1       -1 0.96360221E-01 0.17407086E+04</pdfrwt>
<totfact> 0.20971193E+01</totfact>
</mgrwt>
</event>
<event>
12    6  0.1647231E-007  0.1265045E+04  0.7818608E-02  0.9057753E-01
         -1   -1    0    0    0  501 -0.00000000000E+00  0.00000000000E+00  0.78631731215E+03  0.78631731215E+03  0.00000000000E+00 0.  1.
          2   -1    0    0  501    0  0.00000000000E+00 -0.00000000000E+00 -0.50880824678E+03  0.50880824678E+03  0.00000000000E+00 0. -1.
         24    2    1    2    0    0  0.74789802575E+00 -0.50515342100E+01  0.39183450219E+03  0.39957166331E+03  0.78084311267E+02 0.  0.
        254    2    1    2    0    0 -0.74789802575E+00  0.50515342100E+01 -0.11432543682E+03  0.89555389563E+03  0.88821191003E+03 0.  0.
         23    2    4    4    0    0  0.18590172117E+03  0.36828820086E+03  0.87026028123E+02  0.43126389447E+03  0.90660731715E+02 0.  0.
         23    2    4    4    0    0 -0.18664961920E+03 -0.36323666665E+03 -0.20135146494E+03  0.46429000116E+03  0.90795574784E+02 0.  0.
          2    1    3    3  502    0 -0.20571981861E+02  0.26778915940E+02  0.10780475332E+03  0.11296982613E+03  0.00000000000E+00 0. -1.
         -1    1    3    3    0  502  0.21319879887E+02 -0.31830450150E+02  0.28402974886E+03  0.28660183718E+03  0.00000000000E+00 0.  1.
         11    1    5    5    0    0  0.32789970850E+02  0.14730756741E+03  0.54544613852E+02  0.16046749361E+03  0.00000000000E+00 0.  1.
        -11    1    5    5    0    0  0.15311175032E+03  0.22098063344E+03  0.32481414271E+02  0.27079640086E+03  0.00000000000E+00 0. -1.
          1    1    6    6  503    0 -0.16524838521E+03 -0.35899340959E+03 -0.18186971603E+03  0.43504010224E+03  0.00000000000E+00 0. -1.
         -1    1    6    6    0  503 -0.21401233982E+02 -0.42432570566E+01 -0.19481748910E+02  0.29249898923E+02  0.00000000000E+00 0.  1.
<mgrwt>
<rscale>  0 0.12650450E+04</rscale>
<asrwt>0</asrwt>
<pdfrwt beam="1">  1        2 0.78278192E-01 0.12650450E+04</pdfrwt>
<pdfrwt beam="2">  1       -1 0.12097189E+00 0.12650450E+04</pdfrwt>
<totfact> 0.41158304E+01</totfact>
</mgrwt>
</event>
<event>
12    6  0.2076981E-007  0.2805776E+04  0.7818608E-02  0.8301477E-01
          2   -1    0    0  501    0  0.00000000000E+00  0.00000000000E+00  0.19940287009E+04  0.19940287009E+04  0.00000000000E+00 0. -1.
         -3   -1    0    0    0  501 -0.00000000000E+00 -0.00000000000E+00 -0.98699431208E+03  0.98699431208E+03  0.00000000000E+00 0.  1.
         24    2    1    2    0    0  0.73752187030E+02 -0.68535017079E+03 -0.66471292464E+03  0.96089974336E+03  0.79629158685E+02 0.  0.
        254    2    1    2    0    0 -0.73752187030E+02  0.68535017079E+03  0.16717473134E+04  0.20201232696E+04  0.90056354728E+03 0.  0.
         23    2    4    4    0    0 -0.24170325494E+03  0.79136948539E+03  0.93598361332E+03  0.12526002510E+04  0.90862195497E+02 0.  0.
         23    2    4    4    0    0  0.16795106791E+03 -0.10601931459E+03  0.73576370011E+03  0.76752301859E+03  0.91080762960E+02 0.  0.
          4    1    3    3  502    0 -0.37829798504E+01 -0.62177422949E+02 -0.34432529208E+02  0.71175430654E+02  0.00000000000E+00 0. -1.
         -3    1    3    3    0  502  0.77535166880E+02 -0.62317274784E+03 -0.63028039543E+03  0.88972431271E+03  0.00000000000E+00 0.  1.
         11    1    5    5    0    0 -0.16311988820E+02  0.25555735191E+02  0.15094009758E+02  0.33867472758E+02  0.00000000000E+00 0. -1.
        -11    1    5    5    0    0 -0.22539126612E+03  0.76581375020E+03  0.92088960356E+03  0.12187327782E+04  0.00000000000E+00 0.  1.
          2    1    6    6  503    0 -0.45188679530E+01 -0.21522498637E+02  0.13579570499E+03  0.13756493597E+03  0.00000000000E+00 0. -1.
         -2    1    6    6    0  503  0.17246993586E+03 -0.84496815957E+02  0.59996799512E+03  0.62995808261E+03  0.00000000000E+00 0.  1.
<mgrwt>
<rscale>  0 0.28057762E+04</rscale>
<asrwt>0</asrwt>
<pdfrwt beam="1">  1        2 0.30677365E+00 0.28057762E+04</pdfrwt>
<pdfrwt beam="2">  1       -3 0.15184528E+00 0.28057762E+04</pdfrwt>
<totfact> 0.11614493E+00</totfact>
</mgrwt>
</event>
<event>
12    6  0.1647231E-007  0.1434886E+04  0.7818608E-02  0.8928946E-01
         -1   -1    0    0    0  501 -0.00000000000E+00  0.00000000000E+00  0.14203950481E+04  0.14203950481E+04  0.00000000000E+00 0.  1.
          2   -1    0    0  501    0  0.00000000000E+00 -0.00000000000E+00 -0.36238134012E+03  0.36238134012E+03  0.00000000000E+00 0. -1.
         24    2    1    2    0    0  0.55803958765E+02 -0.21170475080E+03 -0.13859501991E+03  0.27089224188E+03  0.79000277469E+02 0.  0.
        254    2    1    2    0    0 -0.55803958765E+02  0.21170475080E+03  0.11966087279E+04  0.15118841463E+04  0.89776847846E+03 0.  0.
         23    2    4    4    0    0  0.39583231691E+03  0.14540260279E+03  0.75807298159E+03  0.87223150048E+03  0.91038480874E+02 0.  0.
         23    2    4    4    0    0 -0.45163627568E+03  0.66302148012E+02  0.43853574627E+03  0.63965264583E+03  0.92035896341E+02 0.  0.
          2    1    3    3  502    0  0.74594312095E+02 -0.18824406827E+03 -0.11672134527E+03  0.23371780651E+03  0.00000000000E+00 0. -1.
         -1    1    3    3    0  502 -0.18790353330E+02 -0.23460682531E+02 -0.21873674636E+02  0.37174435371E+02  0.00000000000E+00 0.  1.
         11    1    5    5    0    0  0.14514642501E+03  0.98414434137E+02  0.28013867146E+03  0.33050047018E+03  0.00000000000E+00 0. -1.
        -11    1    5    5    0    0  0.25068589190E+03  0.46988168652E+02  0.47793431013E+03  0.54173103030E+03  0.00000000000E+00 0.  1.
          3    1    6    6  503    0 -0.17844516337E+03  0.67515337827E+01  0.22820680642E+03  0.28976991914E+03  0.00000000000E+00 0. -1.
         -3    1    6    6    0  503 -0.27319111230E+03  0.59550614230E+02  0.21032893985E+03  0.34988272669E+03  0.00000000000E+00 0.  1.
<mgrwt>
<rscale>  0 0.14348863E+04</rscale>
<asrwt>0</asrwt>
<pdfrwt beam="1">  1        2 0.55750976E-01 0.14348863E+04</pdfrwt>
<pdfrwt beam="2">  1       -1 0.21852231E+00 0.14348863E+04</pdfrwt>
<totfact> 0.11120170E+01</totfact>
</mgrwt>
</event>
<event>
12    6  0.1647231E-007  0.1740496E+04  0.7818608E-02  0.8738599E-01
         -1   -1    0    0    0  501 -0.00000000000E+00  0.00000000000E+00  0.31827142467E+03  0.31827142467E+03  0.00000000000E+00 0.  1.
          2   -1    0    0  501    0  0.00000000000E+00 -0.00000000000E+00 -0.23795135411E+04  0.23795135411E+04  0.00000000000E+00 0. -1.
         24    2    1    2    0    0 -0.40463125109E+03 -0.43777742654E+03 -0.40911060016E+03  0.72807090319E+03  0.85675156107E+02 0.  0.
        254    2    1    2    0    0  0.40463125109E+03  0.43777742654E+03 -0.16521315163E+04  0.19697140626E+04  0.89154888633E+03 0.  0.
         23    2    4    4    0    0 -0.16088220928E+03 -0.13573017389E+03 -0.19045147130E+03  0.29823955845E+03  0.91483910810E+02 0.  0.
         23    2    4    4    0    0  0.56551346037E+03  0.57350760043E+03 -0.14616800450E+04  0.16714745041E+04  0.92747088696E+02 0.  0.
          4    1    3    3  502    0 -0.82360076295E+02 -0.10616778265E+03 -0.53059563923E+02  0.14446486619E+03  0.00000000000E+00 0. -1.
         -3    1    3    3    0  502 -0.32227117479E+03 -0.33160964389E+03 -0.35605103624E+03  0.58360603700E+03  0.00000000000E+00 0.  1.
         11    1    5    5    0    0 -0.33438586363E+01 -0.17781509223E+02 -0.58659689453E+02  0.61386664900E+02  0.00000000000E+00 0.  1.
        -11    1    5    5    0    0 -0.15753835065E+03 -0.11794866467E+03 -0.13179178184E+03  0.23685289355E+03  0.00000000000E+00 0. -1.
          1    1    6    6  503    0  0.28930285160E+03  0.24523579335E+03 -0.75128867985E+03  0.84158862561E+03  0.00000000000E+00 0. -1.
         -1    1    6    6    0  503  0.27621060877E+03  0.32827180708E+03 -0.71039136513E+03  0.82988587852E+03  0.00000000000E+00 0.  1.
<mgrwt>
<rscale>  0 0.17404955E+04</rscale>
<asrwt>0</asrwt>
<pdfrwt beam="1">  1        2 0.36607900E+00 0.17404955E+04</pdfrwt>
<pdfrwt beam="2">  1       -1 0.48964835E-01 0.17404955E+04</pdfrwt>
<totfact> 0.18444467E+01</totfact>
</mgrwt>
</event>
<event>
12    6  0.1647231E-007  0.2857112E+04  0.7818608E-02  0.8285754E-01
          2   -1    0    0  501    0  0.00000000000E+00  0.00000000000E+00  0.29217689957E+04  0.29217689957E+04  0.00000000000E+00 0. -1.
         -1   -1    0    0    0  501 -0.00000000000E+00 -0.00000000000E+00 -0.69847132326E+03  0.69847132326E+03  0.00000000000E+00 0.  1.
         24    2    1    2    0    0 -0.77170830536E+03 -0.99381853127E+03  0.83370634192E+03  0.15115220229E+04  0.80147236151E+02 0.  0.
        254    2    1    2    0    0  0.77170830536E+03  0.99381853127E+03  0.13895913305E+04  0.21087182961E+04  0.96567065018E+03 0.  0.
         23    2    4    4    0    0  0.64546590982E+03  0.45100867239E+03  0.24037447726E+03  0.82821946945E+03  0.90180579644E+02 0.  0.
         23    2    4    4    0    0  0.12624239554E+03  0.54280985889E+03  0.11492168533E+04  0.12804988266E+04  0.91641605253E+02 0.  0.
          2    1    3    3  502    0 -0.47525595478E+03 -0.61124467639E+03  0.46588322202E+03  0.90362351316E+03  0.00000000000E+00 0. -1.
         -1    1    3    3    0  502 -0.29645235058E+03 -0.38257385488E+03  0.36782311990E+03  0.60789850973E+03  0.00000000000E+00 0.  1.
         11    1    5    5    0    0  0.41221037230E+02  0.55622096641E+02  0.82663378040E+01  0.69723194747E+02  0.00000000000E+00 0. -1.
        -11    1    5    5    0    0  0.60424487259E+03  0.39538657575E+03  0.23210813946E+03  0.75849627470E+03  0.00000000000E+00 0.  1.
          4    1    6    6  503    0  0.13464177483E+03  0.48758312251E+03  0.98949923486E+03  0.11112940406E+04  0.00000000000E+00 0.  1.
         -4    1    6    6    0  503 -0.83993792942E+01  0.55226736378E+02  0.15971761839E+03  0.16920478601E+03  0.00000000000E+00 0. -1.
<mgrwt>
<rscale>  0 0.28571117E+04</rscale>
<asrwt>0</asrwt>
<pdfrwt beam="1">  1        2 0.44950291E+00 0.28571117E+04</pdfrwt>
<pdfrwt beam="2">  1       -1 0.10745713E+00 0.28571117E+04</pdfrwt>
<totfact> 0.15455247E+00</totfact>
</mgrwt>
</event>
<event>
12    6  0.1647231E-007  0.2196672E+04  0.7818608E-02  0.8519815E-01
          4   -1    0    0  501    0  0.00000000000E+00  0.00000000000E+00  0.15896439287E+04  0.15896439287E+04  0.00000000000E+00 0. -1.
         -3   -1    0    0    0  501 -0.00000000000E+00 -0.00000000000E+00 -0.75887542953E+03  0.75887542953E+03  0.00000000000E+00 0.  1.
         24    2    1    2    0    0 -0.32778241046E+03  0.63266914945E+03  0.95792484476E+03  0.11964279359E+04  0.78155206792E+02 0.  0.
        254    2    1    2    0    0  0.32778241046E+03 -0.63266914945E+03 -0.12715634559E+03  0.11520914223E+04  0.89634499379E+03 0.  0.
         23    2    4    4    0    0  0.21079740484E+03 -0.50081987085E+03 -0.49080606905E+03  0.73790442295E+03  0.91412532366E+02 0.  0.
         23    2    4    4    0    0  0.11698500562E+03 -0.13184927859E+03  0.36364972346E+03  0.41418699937E+03  0.90774584929E+02 0.  0.
          4    1    3    3  502    0 -0.32598988655E+03  0.63032030507E+03  0.95923892546E+03  0.11931942043E+04  0.00000000000E+00 0. -1.
         -3    1    3    3    0  502 -0.17925239047E+01  0.23488443739E+01 -0.13140807024E+01  0.32337315804E+01  0.00000000000E+00 0.  1.
         11    1    5    5    0    0  0.11496857688E+03 -0.26517152160E+03 -0.32156255566E+03  0.43236117627E+03  0.00000000000E+00 0.  1.
        -11    1    5    5    0    0  0.95828827955E+02 -0.23564834926E+03 -0.16924351338E+03  0.30554324669E+03  0.00000000000E+00 0. -1.
          3    1    6    6  503    0  0.21696413250E+02 -0.60250614370E+02  0.59089182795E+02  0.87134392769E+02  0.00000000000E+00 0. -1.
         -3    1    6    6    0  503  0.95288592373E+02 -0.71598664224E+02  0.30456054066E+03  0.32705260660E+03  0.00000000000E+00 0.  1.
<mgrwt>
<rscale>  0 0.21966718E+04</rscale>
<asrwt>0</asrwt>
<pdfrwt beam="1">  1        4 0.24456060E+00 0.21966718E+04</pdfrwt>
<pdfrwt beam="2">  1       -3 0.11675007E+00 0.21966718E+04</pdfrwt>
<totfact> 0.86018652E-02</totfact>
</mgrwt>
</event>
<event>
12    6  0.1647231E-007  0.1468109E+04  0.7818608E-02  0.8905942E-01
          2   -1    0    0  501    0  0.00000000000E+00  0.00000000000E+00  0.18251870906E+04  0.18251870906E+04  0.00000000000E+00 0. -1.
         -1   -1    0    0    0  501 -0.00000000000E+00 -0.00000000000E+00 -0.29522225429E+03  0.29522225429E+03  0.00000000000E+00 0.  1.
         24    2    1    2    0    0 -0.64940531202E+02 -0.34635779689E+03  0.89449465746E+03  0.96466465209E+03  0.79222488754E+02 0.  0.
        254    2    1    2    0    0  0.64940531202E+02  0.34635779689E+03  0.63547017885E+03  0.11557446928E+04  0.89874493081E+03 0.  0.
         23    2    4    4    0    0  0.38224681659E+03 -0.10247175822E+03  0.27383786810E+03  0.49072662999E+03  0.95981026010E+02 0.  0.
         23    2    4    4    0    0 -0.31730628538E+03  0.44882955510E+03  0.36163231076E+03  0.66501806281E+03  0.96642885957E+02 0.  0.
          4    1    3    3  502    0 -0.62636380825E+02 -0.34770616440E+03  0.85555290615E+03  0.92563149697E+03  0.00000000000E+00 0. -1.
         -3    1    3    3    0  502 -0.23041503776E+01  0.13483675148E+01  0.38941751309E+02  0.39033155124E+02  0.00000000000E+00 0.  1.
         11    1    5    5    0    0  0.33855452093E+03 -0.61932838062E+02  0.20902107325E+03  0.40267188769E+03  0.00000000000E+00 0. -1.
        -11    1    5    5    0    0  0.43692295655E+02 -0.40538920154E+02  0.64816794851E+02  0.88054742300E+02  0.00000000000E+00 0.  1.
          3    1    6    6  503    0 -0.20629717802E+03  0.36345636756E+03  0.26454840328E+03  0.49461592620E+03  0.00000000000E+00 0. -1.
         -3    1    6    6    0  503 -0.11100910737E+03  0.85373187544E+02  0.97083907481E+02  0.17040213661E+03  0.00000000000E+00 0.  1.
<mgrwt>
<rscale>  0 0.14681088E+04</rscale>
<asrwt>0</asrwt>
<pdfrwt beam="1">  1        2 0.28079801E+00 0.14681088E+04</pdfrwt>
<pdfrwt beam="2">  1       -1 0.45418810E-01 0.14681088E+04</pdfrwt>
<totfact> 0.44373560E+01</totfact>
</mgrwt>
</event>
<event>
12    6  0.1647231E-007  0.1287137E+04  0.7818608E-02  0.9039828E-01
         -1   -1    0    0    0  501 -0.00000000000E+00  0.00000000000E+00  0.22282539264E+03  0.22282539264E+03  0.00000000000E+00 0.  1.
          2   -1    0    0  501    0  0.00000000000E+00 -0.00000000000E+00 -0.18587662075E+04  0.18587662075E+04  0.00000000000E+00 0. -1.
         24    2    1    2    0    0 -0.56900798439E+01  0.14467382327E+03 -0.87196140259E+03  0.88743478721E+03  0.79125986900E+02 0.  0.
        254    2    1    2    0    0  0.56900798439E+01 -0.14467382327E+03 -0.76397941226E+03  0.11941568129E+04  0.90630185883E+03 0.  0.
         23    2    4    4    0    0 -0.27405400513E+03  0.19749850103E+03 -0.58229107503E+02  0.35547505075E+03  0.94130904094E+02 0.  0.
         23    2    4    4    0    0  0.27974408497E+03 -0.34217232430E+03 -0.70575030476E+03  0.83868176217E+03  0.99824610883E+02 0.  0.
          2    1    3    3  502    0  0.12285823522E+02  0.26093540989E+01 -0.19954416085E+03  0.19993904651E+03  0.00000000000E+00 0. -1.
         -1    1    3    3    0  502 -0.17975903366E+02  0.14206446917E+03 -0.67241724173E+03  0.68749574070E+03  0.00000000000E+00 0.  1.
         11    1    5    5    0    0 -0.13140057685E+02  0.10370103075E+02  0.18913182330E+02  0.25256852924E+02  0.00000000000E+00 0. -1.
        -11    1    5    5    0    0 -0.26091394744E+03  0.18712839796E+03 -0.77142289833E+02  0.33021819782E+03  0.00000000000E+00 0.  1.
          4    1    6    6  503    0  0.12607502192E+03 -0.80890769360E+02 -0.24493044922E+03  0.28710477647E+03  0.00000000000E+00 0. -1.
         -4    1    6    6    0  503  0.15366906305E+03 -0.26128155494E+03 -0.46081985554E+03  0.55157698570E+03  0.00000000000E+00 0.  1.
<mgrwt>
<rscale>  0 0.12871368E+04</rscale>
<asrwt>0</asrwt>
<pdfrwt beam="1">  1        2 0.28596402E+00 0.12871368E+04</pdfrwt>
<pdfrwt beam="2">  1       -1 0.34280831E-01 0.12871368E+04</pdfrwt>
<totfact> 0.72071974E+01</totfact>
</mgrwt>
</event>
<event>
12    6  0.1647231E-007  0.1923226E+04  0.7818608E-02  0.8643381E-01
         -1   -1    0    0    0  501 -0.00000000000E+00  0.00000000000E+00  0.74781473542E+03  0.74781473542E+03  0.00000000000E+00 0.  1.
          2   -1    0    0  501    0  0.00000000000E+00 -0.00000000000E+00 -0.12365355055E+04  0.12365355055E+04  0.00000000000E+00 0. -1.
         24    2    1    2    0    0 -0.71059730817E+03 -0.76223444855E+02  0.31875941940E+02  0.71982132924E+03  0.79800516409E+02 0.  0.
        254    2    1    2    0    0  0.71059730817E+03  0.76223444855E+02 -0.52059671206E+03  0.12645289117E+04  0.90402095333E+03 0.  0.
         23    2    4    4    0    0  0.90852136938E+03  0.14369952162E+03 -0.42879558765E+03  0.10189177685E+04  0.90923769558E+02 0.  0.
         23    2    4    4    0    0 -0.19792406120E+03 -0.67476076765E+02 -0.91801124412E+02  0.24561114322E+03  0.90390443596E+02 0.  0.
          2    1    3    3  502    0 -0.95828874808E+02 -0.28578476583E+02  0.25402049607E+02  0.10317541711E+03  0.00000000000E+00 0. -1.
         -1    1    3    3    0  502 -0.61476843337E+03 -0.47644968273E+02  0.64738923324E+01  0.61664591213E+03  0.00000000000E+00 0.  1.
         11    1    5    5    0    0  0.46311142912E+03  0.33716369999E+02 -0.19001991679E+03  0.50171362167E+03  0.00000000000E+00 0. -1.
        -11    1    5    5    0    0  0.44540994026E+03  0.10998315162E+03 -0.23877567085E+03  0.51720414684E+03  0.00000000000E+00 0.  1.
          1    1    6    6  503    0 -0.13745195507E+03 -0.35826385728E+01 -0.72907409163E+02  0.15563214823E+03  0.00000000000E+00 0. -1.
         -1    1    6    6    0  503 -0.60472106132E+02 -0.63893438192E+02 -0.18893715249E+02  0.89978994993E+02  0.00000000000E+00 0.  1.
<mgrwt>
<rscale>  0 0.19232259E+04</rscale>
<asrwt>0</asrwt>
<pdfrwt beam="1">  1        2 0.19023623E+00 0.19232259E+04</pdfrwt>
<pdfrwt beam="2">  1       -1 0.11504842E+00 0.19232259E+04</pdfrwt>
<totfact> 0.13167103E+01</totfact>
</mgrwt>
</event>
<event>
12    6  0.1647231E-007  0.2243057E+04  0.7818608E-02  0.8500718E-01
          2   -1    0    0  501    0  0.00000000000E+00  0.00000000000E+00  0.17491457173E+04  0.17491457173E+04  0.00000000000E+00 0. -1.
         -1   -1    0    0    0  501 -0.00000000000E+00 -0.00000000000E+00 -0.71910884182E+03  0.71910884182E+03  0.00000000000E+00 0.  1.
         24    2    1    2    0    0  0.19802053384E+03  0.23764653360E+03 -0.54361243115E+03  0.63044896209E+03  0.79141719404E+02 0.  0.
        254    2    1    2    0    0 -0.19802053384E+03 -0.23764653360E+03  0.15736493066E+04  0.18378055970E+04  0.89747939557E+03 0.  0.
         23    2    4    4    0    0  0.10601789886E+03  0.24294106073E+03  0.18740507563E+03  0.33668809608E+03  0.89319974229E+02 0.  0.
         23    2    4    4    0    0 -0.30403843270E+03 -0.48058759434E+03  0.13862442310E+04  0.15011175009E+04  0.90977356161E+02 0.  0.
          4    1    3    3  502    0  0.14864031797E+02  0.46787824206E+02 -0.47985040527E+02  0.68648408937E+02  0.00000000000E+00 0. -1.
         -3    1    3    3    0  502  0.18315650204E+03  0.19085870940E+03 -0.49562739062E+03  0.56180055315E+03  0.00000000000E+00 0.  1.
         11    1    5    5    0    0  0.34892730724E+02  0.30357707598E+02  0.28737156146E+01  0.46339522111E+02  0.00000000000E+00 0. -1.
        -11    1    5    5    0    0  0.71125168138E+02  0.21258335313E+03  0.18453136002E+03  0.29034857396E+03  0.00000000000E+00 0.  1.
          3    1    6    6  503    0 -0.18759382382E+03 -0.21153807207E+03  0.68576539718E+03  0.74176409905E+03  0.00000000000E+00 0. -1.
         -3    1    6    6    0  503 -0.11644460887E+03 -0.26904952226E+03  0.70047883379E+03  0.75935340188E+03  0.00000000000E+00 0.  1.
<mgrwt>
<rscale>  0 0.22430570E+04</rscale>
<asrwt>0</asrwt>
<pdfrwt beam="1">  1        2 0.26909934E+00 0.22430570E+04</pdfrwt>
<pdfrwt beam="2">  1       -1 0.11063213E+00 0.22430570E+04</pdfrwt>
<totfact> 0.71899968E+00</totfact>
</mgrwt>
</event>
<event>
12    6  0.1647231E-007  0.2116038E+04  0.7818608E-02  0.8554211E-01
         -1   -1    0    0    0  501 -0.00000000000E+00  0.00000000000E+00  0.72845788475E+03  0.72845788475E+03  0.00000000000E+00 0.  1.
          2   -1    0    0  501    0  0.00000000000E+00 -0.00000000000E+00 -0.15366772305E+04  0.15366772305E+04  0.00000000000E+00 0. -1.
         24    2    1    2    0    0  0.80044845792E+03 -0.31836984922E+03 -0.34781433539E+03  0.93242767954E+03  0.79808965559E+02 0.  0.
        254    2    1    2    0    0 -0.80044845792E+03  0.31836984922E+03 -0.46040501041E+03  0.13327074358E+04  0.90667482651E+03 0.  0.
         23    2    4    4    0    0 -0.92629222318E+03  0.39684093338E+02 -0.30903421385E+03  0.98161868998E+03  0.92092329805E+02 0.  0.
         23    2    4    4    0    0  0.12584376526E+03  0.27868575588E+03 -0.15137079656E+03  0.35108874577E+03  0.82751347847E+02 0.  0.
          2    1    3    3  502    0  0.62454541014E+03 -0.26285115697E+03 -0.24046104824E+03  0.71900571331E+03  0.00000000000E+00 0. -1.
         -1    1    3    3    0  502  0.17590304778E+03 -0.55518692252E+02 -0.10735328715E+03  0.21342196623E+03  0.00000000000E+00 0.  1.
         11    1    5    5    0    0 -0.92680583355E+03  0.40555336389E+02 -0.31178755174E+03  0.97868547850E+03  0.00000000000E+00 0.  1.
        -11    1    5    5    0    0  0.51361036560E+00 -0.87124305119E+00  0.27533378930E+01  0.29332114849E+01  0.00000000000E+00 0. -1.
          1    1    6    6  503    0  0.51386907030E+01  0.46461104359E+02  0.36763759084E+01  0.46888763049E+02  0.00000000000E+00 0. -1.
         -1    1    6    6    0  503  0.12070507455E+03  0.23222465152E+03 -0.15504717247E+03  0.30419998272E+03  0.00000000000E+00 0.  1.
<mgrwt>
<rscale>  0 0.21160384E+04</rscale>
<asrwt>0</asrwt>
<pdfrwt beam="1">  1        2 0.23641188E+00 0.21160384E+04</pdfrwt>
<pdfrwt beam="2">  1       -1 0.11207044E+00 0.21160384E+04</pdfrwt>
<totfact> 0.92651368E+00</totfact>
</mgrwt>
</event>
<event>
12    6  0.1647231E-007  0.1150430E+04  0.7818608E-02  0.9157387E-01
         -1   -1    0    0    0  501 -0.00000000000E+00  0.00000000000E+00  0.17277563493E+03  0.17277563493E+03  0.00000000000E+00 0.  1.
          2   -1    0    0  501    0  0.00000000000E+00 -0.00000000000E+00 -0.19150404336E+04  0.19150404336E+04  0.00000000000E+00 0. -1.
         24    2    1    2    0    0  0.12644378370E+03 -0.16294968019E+03 -0.26018858868E+03  0.34133882583E+03  0.79205199504E+02 0.  0.
        254    2    1    2    0    0 -0.12644378370E+03  0.16294968019E+03 -0.14820762100E+04  0.17464772427E+04  0.90060659466E+03 0.  0.
         23    2    4    4    0    0  0.24407175530E+03  0.20394042955E+03 -0.12585156934E+04  0.13013083907E+04  0.91537186052E+02 0.  0.
         23    2    4    4    0    0 -0.37051553899E+03 -0.40990749352E+02 -0.22356051660E+03  0.44516885208E+03  0.96093684057E+02 0.  0.
          2    1    3    3  502    0  0.48984070575E+00 -0.53341990762E+02 -0.74400064734E+02  0.91547679134E+02  0.00000000000E+00 0. -1.
         -1    1    3    3    0  502  0.12595394299E+03 -0.10960768943E+03 -0.18578852395E+03  0.24979114670E+03  0.00000000000E+00 0.  1.
         11    1    5    5    0    0  0.68956264874E+02  0.11519868494E+03 -0.48024748107E+03  0.49866155512E+03  0.00000000000E+00 0.  1.
        -11    1    5    5    0    0  0.17511549042E+03  0.88741744604E+02 -0.77826821236E+03  0.80264683554E+03  0.00000000000E+00 0. -1.
          1    1    6    6  503    0 -0.93317394951E+02  0.28213798506E+02 -0.75960367629E+02  0.12358855965E+03  0.00000000000E+00 0. -1.
         -1    1    6    6    0  503 -0.27719814404E+03 -0.69204547858E+02 -0.14760014897E+03  0.32158029243E+03  0.00000000000E+00 0.  1.
<mgrwt>
<rscale>  0 0.11504301E+04</rscale>
<asrwt>0</asrwt>
<pdfrwt beam="1">  1        2 0.29462161E+00 0.11504301E+04</pdfrwt>
<pdfrwt beam="2">  1       -1 0.26580866E-01 0.11504301E+04</pdfrwt>
<totfact> 0.10596198E+02</totfact>
</mgrwt>
</event>
<event>
12    6  0.1647231E-007  0.1858846E+04  0.7818608E-02  0.8675617E-01
          2   -1    0    0  501    0  0.00000000000E+00  0.00000000000E+00  0.13875113394E+04  0.13875113394E+04  0.00000000000E+00 0. -1.
         -1   -1    0    0    0  501 -0.00000000000E+00 -0.00000000000E+00 -0.62257283204E+03  0.62257283204E+03  0.00000000000E+00 0.  1.
         24    2    1    2    0    0 -0.52794437150E+03 -0.38229718601E+02  0.80387714567E+03  0.96573241168E+03  0.78954764719E+02 0.  0.
        254    2    1    2    0    0  0.52794437150E+03  0.38229718601E+02 -0.38938638326E+02  0.10443517597E+04  0.89942626698E+03 0.  0.
         23    2    4    4    0    0 -0.17247285805E+03  0.15651448463E+03  0.16251463577E+03  0.30023714554E+03  0.97404651102E+02 0.  0.
         23    2    4    4    0    0  0.70041722955E+03 -0.11828476603E+03 -0.20145327409E+03  0.74411461420E+03  0.92452993983E+02 0.  0.
          2    1    3    3  502    0 -0.38468474558E+03 -0.55124769119E+02  0.54474443299E+03  0.66915438497E+03  0.00000000000E+00 0. -1.
         -1    1    3    3    0  502 -0.14325962592E+03  0.16895050518E+02  0.25913271267E+03  0.29657802671E+03  0.00000000000E+00 0.  1.
         11    1    5    5    0    0  0.30435502338E+01  0.37406342100E+02  0.41808895902E+02  0.56182572065E+02  0.00000000000E+00 0. -1.
        -11    1    5    5    0    0 -0.17551640829E+03  0.11910814253E+03  0.12070573987E+03  0.24405457347E+03  0.00000000000E+00 0.  1.
          1    1    6    6  503    0  0.23124485903E+03 -0.82921248388E+02 -0.61644793089E+02  0.25327889525E+03  0.00000000000E+00 0. -1.
         -1    1    6    6    0  503  0.46917237052E+03 -0.35363517640E+02 -0.13980848101E+03  0.49083571895E+03  0.00000000000E+00 0.  1.
<mgrwt>
<rscale>  0 0.18588457E+04</rscale>
<asrwt>0</asrwt>
<pdfrwt beam="1">  1        2 0.21346328E+00 0.18588457E+04</pdfrwt>
<pdfrwt beam="2">  1       -1 0.95780436E-01 0.18588457E+04</pdfrwt>
<totfact> 0.16562252E+01</totfact>
</mgrwt>
</event>
<event>
12    6  0.1647231E-007  0.1341370E+04  0.7818608E-02  0.8997386E-01
          2   -1    0    0  501    0  0.00000000000E+00  0.00000000000E+00  0.88297248318E+03  0.88297248318E+03  0.00000000000E+00 0. -1.
         -1   -1    0    0    0  501 -0.00000000000E+00 -0.00000000000E+00 -0.50943681438E+03  0.50943681438E+03  0.00000000000E+00 0.  1.
         24    2    1    2    0    0 -0.20768761973E+03 -0.28770914575E+02  0.40443718831E+03  0.46291727405E+03  0.82225606754E+02 0.  0.
        254    2    1    2    0    0  0.20768761973E+03  0.28770914575E+02 -0.30901519517E+02  0.92949202352E+03  0.90500751652E+03 0.  0.
         23    2    4    4    0    0 -0.32557982657E+02  0.24157864748E+02  0.40817613517E+03  0.42066987933E+03  0.93336838340E+02 0.  0.
         23    2    4    4    0    0  0.24024560239E+03  0.46130498267E+01 -0.43907765468E+03  0.50882214419E+03  0.91496217812E+02 0.  0.
          2    1    3    3  502    0 -0.33016811164E+02 -0.31196956305E+02  0.12891630103E+03  0.13668493909E+03  0.00000000000E+00 0. -1.
         -1    1    3    3    0  502 -0.17467080857E+03  0.24260417303E+01  0.27552088728E+03  0.32623233496E+03  0.00000000000E+00 0.  1.
         11    1    5    5    0    0 -0.15327618257E+02  0.25795260537E+02  0.40069063753E+03  0.40181254131E+03  0.00000000000E+00 0.  1.
        -11    1    5    5    0    0 -0.17230364401E+02 -0.16373957883E+01  0.74854976341E+01  0.18857338019E+02  0.00000000000E+00 0. -1.
          1    1    6    6  503    0  0.89138154842E+02  0.37498835687E+02 -0.11895703790E+03  0.15330541475E+03  0.00000000000E+00 0. -1.
         -1    1    6    6    0  503  0.15110744755E+03 -0.32885785860E+02 -0.32012061679E+03  0.35551672943E+03  0.00000000000E+00 0.  1.
<mgrwt>
<rscale>  0 0.13413705E+04</rscale>
<asrwt>0</asrwt>
<pdfrwt beam="1">  1        2 0.13584192E+00 0.13413705E+04</pdfrwt>
<pdfrwt beam="2">  1       -1 0.78374895E-01 0.13413705E+04</pdfrwt>
<totfact> 0.54758486E+01</totfact>
</mgrwt>
</event>
<event>
12    6  0.1647231E-007  0.1700689E+04  0.7818608E-02  0.8760972E-01
          2   -1    0    0  501    0  0.00000000000E+00  0.00000000000E+00  0.11567985737E+04  0.11567985737E+04  0.00000000000E+00 0. -1.
         -3   -1    0    0    0  501 -0.00000000000E+00 -0.00000000000E+00 -0.62507485278E+03  0.62507485278E+03  0.00000000000E+00 0.  1.
         24    2    1    2    0    0  0.52227432239E+03  0.18120136248E+03 -0.53731644801E+02  0.56126618391E+03  0.80797512061E+02 0.  0.
        254    2    1    2    0    0 -0.52227432239E+03 -0.18120136248E+03  0.58545536576E+03  0.12206072426E+04  0.91734380350E+03 0.  0.
         23    2    4    4    0    0 -0.18087558739E+03  0.26998630700E+03 -0.75170162687E+02  0.34575060616E+03  0.91018373000E+02 0.  0.
         23    2    4    4    0    0 -0.34139873501E+03 -0.45118766948E+03  0.66062552845E+03  0.87485663645E+03  0.93939534552E+02 0.  0.
          4    1    3    3  502    0 -0.54742688701E+00  0.38779248766E+01 -0.59561892955E+01  0.71284057452E+01  0.00000000000E+00 0. -1.
         -3    1    3    3    0  502  0.52282174928E+03  0.17732343761E+03 -0.47775455505E+02  0.55413777817E+03  0.00000000000E+00 0.  1.
         11    1    5    5    0    0 -0.16786407645E+03  0.27366008061E+03 -0.62194477938E+02  0.32701122452E+03  0.00000000000E+00 0.  1.
        -11    1    5    5    0    0 -0.13011510936E+02 -0.36737736082E+01 -0.12975684749E+02  0.18739381635E+02  0.00000000000E+00 0. -1.
          2    1    6    6  503    0 -0.12220015773E+03 -0.95923210000E+02  0.15976978733E+03  0.22284641731E+03  0.00000000000E+00 0.  1.
         -2    1    6    6    0  503 -0.21919857727E+03 -0.35526445948E+03  0.50085574112E+03  0.65201021914E+03  0.00000000000E+00 0. -1.
<mgrwt>
<rscale>  0 0.17006889E+04</rscale>
<asrwt>0</asrwt>
<pdfrwt beam="1">  1        2 0.17796901E+00 0.17006889E+04</pdfrwt>
<pdfrwt beam="2">  1       -3 0.96165362E-01 0.17006889E+04</pdfrwt>
<totfact> 0.11629925E+01</totfact>
</mgrwt>
</event>
<event>
12    6  0.1647231E-007  0.1134843E+04  0.7818608E-02  0.9171881E-01
         -1   -1    0    0    0  501 -0.00000000000E+00  0.00000000000E+00  0.12904885638E+03  0.12904885638E+03  0.00000000000E+00 0.  1.
          2   -1    0    0  501    0  0.00000000000E+00 -0.00000000000E+00 -0.24949259966E+04  0.24949259966E+04  0.00000000000E+00 0. -1.
         24    2    1    2    0    0 -0.70313291237E+02 -0.68510020544E+01 -0.83248311716E+03  0.83942660875E+03  0.81351066188E+02 0.  0.
        254    2    1    2    0    0  0.70313291237E+02  0.68510020544E+01 -0.15333940231E+04  0.17845482442E+04  0.91012323937E+03 0.  0.
         23    2    4    4    0    0  0.29308726183E+03  0.45980101079E+02 -0.15074533239E+04  0.15390115071E+04  0.90147560556E+02 0.  0.
         23    2    4    4    0    0 -0.22277397059E+03 -0.39129099024E+02 -0.25940699182E+02  0.24553673709E+03  0.91956734509E+02 0.  0.
          2    1    3    3  502    0 -0.68469894470E+02 -0.33142297641E+02 -0.71436992547E+03  0.71840860849E+03  0.00000000000E+00 0. -1.
         -1    1    3    3    0  502 -0.18433967675E+01  0.26291295586E+02 -0.11811319169E+03  0.12101800026E+03  0.00000000000E+00 0.  1.
         11    1    5    5    0    0  0.16770818318E+03 -0.73948581933E+01 -0.97804582319E+03  0.99234789812E+03  0.00000000000E+00 0.  1.
        -11    1    5    5    0    0  0.12537907865E+03  0.53374959272E+02 -0.52940750070E+03  0.54666360903E+03  0.00000000000E+00 0. -1.
          2    1    6    6  503    0 -0.99275130567E+02 -0.42902591180E+02 -0.50829853060E+02  0.11949835916E+03  0.00000000000E+00 0. -1.
         -2    1    6    6    0  503 -0.12349884003E+03  0.37734921556E+01  0.24889153877E+02  0.12603837793E+03  0.00000000000E+00 0.  1.
<mgrwt>
<rscale>  0 0.11348433E+04</rscale>
<asrwt>0</asrwt>
<pdfrwt beam="1">  1        2 0.38383474E+00 0.11348433E+04</pdfrwt>
<pdfrwt beam="2">  1       -1 0.19853672E-01 0.11348433E+04</pdfrwt>
<totfact> 0.82548294E+01</totfact>
</mgrwt>
</event>
<event>
12    6  0.1647231E-007  0.2915518E+04  0.7818608E-02  0.8268275E-01
         -1   -1    0    0    0  501 -0.00000000000E+00  0.00000000000E+00  0.10492821298E+04  0.10492821298E+04  0.00000000000E+00 0.  1.
          2   -1    0    0  501    0  0.00000000000E+00 -0.00000000000E+00 -0.20252523459E+04  0.20252523459E+04  0.00000000000E+00 0. -1.
         24    2    1    2    0    0 -0.39553898283E+03 -0.11776186731E+04  0.23101102243E+02  0.12450989696E+04  0.80628511552E+02 0.  0.
        254    2    1    2    0    0  0.39553898283E+03  0.11776186731E+04 -0.99907131834E+03  0.18294355061E+04  0.89747086048E+03 0.  0.
         23    2    4    4    0    0  0.53358780015E+03  0.27601297855E+03 -0.30784625106E+03  0.68125338870E+03  0.91857283462E+02 0.  0.
         23    2    4    4    0    0 -0.13804881731E+03  0.90160569460E+03 -0.69122506728E+03  0.11481821174E+04  0.92627082963E+02 0.  0.
          4    1    3    3  502    0 -0.93127855911E+02 -0.30918595740E+03  0.39919587873E+02  0.32536491405E+03  0.00000000000E+00 0. -1.
         -3    1    3    3    0  502 -0.30241112692E+03 -0.86843271575E+03 -0.16818485631E+02  0.91973405554E+03  0.00000000000E+00 0.  1.
         11    1    5    5    0    0  0.19697986813E+03  0.66867416902E+02 -0.72198009829E+02  0.22019280759E+03  0.00000000000E+00 0.  1.
        -11    1    5    5    0    0  0.33660793201E+03  0.20914556165E+03 -0.23564824123E+03  0.46106058110E+03  0.00000000000E+00 0. -1.
          3    1    6    6  503    0 -0.10807851340E+03  0.40242959316E+03 -0.31947324620E+03  0.52506542216E+03  0.00000000000E+00 0. -1.
         -3    1    6    6    0  503 -0.29970303916E+02  0.49917610143E+03 -0.37175182108E+03  0.62311669520E+03  0.00000000000E+00 0.  1.
<mgrwt>
<rscale>  0 0.29155179E+04</rscale>
<asrwt>0</asrwt>
<pdfrwt beam="1">  1        2 0.31157728E+00 0.29155179E+04</pdfrwt>
<pdfrwt beam="2">  1       -1 0.16142802E+00 0.29155179E+04</pdfrwt>
<totfact> 0.18078778E+00</totfact>
</mgrwt>
</event>
<event>
12    6  0.1647231E-007  0.2193426E+04  0.7818608E-02  0.8521169E-01
         -1   -1    0    0    0  501 -0.00000000000E+00  0.00000000000E+00  0.26610934405E+04  0.26610934405E+04  0.00000000000E+00 0.  1.
          2   -1    0    0  501    0  0.00000000000E+00 -0.00000000000E+00 -0.45198676018E+03  0.45198676018E+03  0.00000000000E+00 0. -1.
         24    2    1    2    0    0  0.12937116761E+03  0.29940021159E+03  0.20994188576E+04  0.21260557581E+04  0.78588556810E+02 0.  0.
        254    2    1    2    0    0 -0.12937116761E+03 -0.29940021159E+03  0.10968782272E+03  0.98702444257E+03  0.92509915472E+03 0.  0.
         23    2    4    4    0    0  0.21182353499E+03  0.17784765867E+03  0.24014057309E+03  0.37823671856E+03  0.94321369554E+02 0.  0.
         23    2    4    4    0    0 -0.34119470261E+03 -0.47724787026E+03 -0.13045275036E+03  0.60878772401E+03  0.97083562344E+02 0.  0.
          2    1    3    3  502    0  0.18516694140E+02  0.48684353210E+01  0.79775543739E+02  0.82040886168E+02  0.00000000000E+00 0. -1.
         -1    1    3    3    0  502  0.11085447347E+03  0.29453177627E+03  0.20196433138E+04  0.20440148719E+04  0.00000000000E+00 0.  1.
         11    1    5    5    0    0  0.12225706154E+03  0.75074163280E+02  0.17743958149E+03  0.22818353177E+03  0.00000000000E+00 0. -1.
        -11    1    5    5    0    0  0.89566473448E+02  0.10277349539E+03  0.62700991596E+02  0.15005318679E+03  0.00000000000E+00 0.  1.
          3    1    6    6  503    0 -0.11900596925E+03 -0.16265368236E+03 -0.92569842226E+02  0.22178326535E+03  0.00000000000E+00 0. -1.
         -3    1    6    6    0  503 -0.22218873336E+03 -0.31459418790E+03 -0.37882908137E+02  0.38700445866E+03  0.00000000000E+00 0.  1.
<mgrwt>
<rscale>  0 0.21934256E+04</rscale>
<asrwt>0</asrwt>
<pdfrwt beam="1">  1        2 0.69536426E-01 0.21934256E+04</pdfrwt>
<pdfrwt beam="2">  1       -1 0.40939898E+00 0.21934256E+04</pdfrwt>
<totfact> 0.44617328E-01</totfact>
</mgrwt>
</event>
<event>
12    6  0.2497344E-007  0.2995788E+04  0.7818608E-02  0.8244935E-01
          2   -1    0    0  501    0  0.00000000000E+00  0.00000000000E+00  0.16908684096E+04  0.16908684096E+04  0.00000000000E+00 0. -1.
         -1   -1    0    0    0  501 -0.00000000000E+00 -0.00000000000E+00 -0.13269429808E+04  0.13269429808E+04  0.00000000000E+00 0.  1.
         24    2    1    2    0    0  0.49005497069E+03 -0.45793380481E+03 -0.10159777943E+04  0.12201431447E+04  0.81738430919E+02 0.  0.
        254    2    1    2    0    0 -0.49005497069E+03  0.45793380481E+03  0.13799032231E+04  0.17976682457E+04  0.93681426785E+03 0.  0.
         23    2    4    4    0    0 -0.21176427821E+03 -0.20162783576E+03  0.84935035369E+03  0.90276981563E+03  0.89996794506E+02 0.  0.
         23    2    4    4    0    0 -0.27829069248E+03  0.65956164057E+03  0.53055286942E+03  0.89489843004E+03  0.83003527657E+02 0.  0.
          4    1    3    3  502    0  0.45858488228E+02 -0.54966195155E+02 -0.15655538555E+03  0.17214491656E+03  0.00000000000E+00 0. -1.
         -3    1    3    3    0  502  0.44419648246E+03 -0.40296760966E+03 -0.85942240876E+03  0.10479982281E+04  0.00000000000E+00 0.  1.
         11    1    5    5    0    0 -0.17554588910E+03 -0.18713203532E+03  0.63466543709E+03  0.68456918924E+03  0.00000000000E+00 0.  1.
        -11    1    5    5    0    0 -0.36218389106E+02 -0.14495800433E+02  0.21468491660E+03  0.21820062639E+03  0.00000000000E+00 0. -1.
          3    1    6    6  503    0 -0.40828078113E+02  0.77592934682E+02  0.34653976545E+02  0.94278807615E+02  0.00000000000E+00 0. -1.
         -3    1    6    6    0  503 -0.23746261437E+03  0.58196870589E+03  0.49589889287E+03  0.80061962242E+03  0.00000000000E+00 0.  1.
<mgrwt>
<rscale>  0 0.29957877E+04</rscale>
<asrwt>0</asrwt>
<pdfrwt beam="1">  1        2 0.26013360E+00 0.29957877E+04</pdfrwt>
<pdfrwt beam="2">  1       -1 0.20414507E+00 0.29957877E+04</pdfrwt>
<totfact> 0.13631053E+00</totfact>
</mgrwt>
</event>
<event>
12    6  0.1647231E-007  0.1648730E+04  0.7818608E-02  0.8791158E-01
         -1   -1    0    0    0  501 -0.00000000000E+00  0.00000000000E+00  0.17358909758E+04  0.17358909758E+04  0.00000000000E+00 0.  1.
          2   -1    0    0  501    0  0.00000000000E+00 -0.00000000000E+00 -0.39148644344E+03  0.39148644344E+03  0.00000000000E+00 0. -1.
         24    2    1    2    0    0 -0.15045985271E+03 -0.42470460783E+03  0.91196340955E+03  0.10202963830E+04  0.79468720791E+02 0.  0.
        254    2    1    2    0    0  0.15045985271E+03  0.42470460783E+03  0.43244112280E+03  0.11070810362E+04  0.91411756625E+03 0.  0.
         23    2    4    4    0    0  0.72605811851E+02 -0.26158194329E+03  0.26585670185E+03  0.39094454648E+03  0.91984430912E+02 0.  0.
         23    2    4    4    0    0  0.77854040861E+02  0.68628655112E+03  0.16658442095E+03  0.71613648976E+03  0.89725251369E+02 0.  0.
          4    1    3    3  502    0  0.28038468586E+01 -0.61609858052E+02  0.95433788950E+02  0.11362765614E+03  0.00000000000E+00 0. -1.
         -3    1    3    3    0  502 -0.15326369957E+03 -0.36309474978E+03  0.81652962060E+03  0.90666872684E+03  0.00000000000E+00 0.  1.
         11    1    5    5    0    0  0.21972664416E+02 -0.21490497997E+03  0.21922129177E+03  0.30777414310E+03  0.00000000000E+00 0.  1.
        -11    1    5    5    0    0  0.50633147435E+02 -0.46676963328E+02  0.46635410081E+02  0.83170403379E+02  0.00000000000E+00 0. -1.
          1    1    6    6  503    0  0.62924441264E+02  0.67460229049E+03  0.16169934923E+03  0.69655898184E+03  0.00000000000E+00 0. -1.
         -1    1    6    6    0  503  0.14929599597E+02  0.11684260636E+02  0.48850717269E+01  0.19577507924E+02  0.00000000000E+00 0.  1.
<mgrwt>
<rscale>  0 0.16487302E+04</rscale>
<asrwt>0</asrwt>
<pdfrwt beam="1">  1        2 0.60228684E-01 0.16487302E+04</pdfrwt>
<pdfrwt beam="2">  1       -1 0.26706015E+00 0.16487302E+04</pdfrwt>
<totfact> 0.48100735E+00</totfact>
</mgrwt>
</event>
<event>
12    6  0.1647231E-007  0.2329928E+04  0.7818608E-02  0.8466214E-01
          2   -1    0    0  501    0  0.00000000000E+00  0.00000000000E+00  0.12262024247E+04  0.12262024247E+04  0.00000000000E+00 0. -1.
         -1   -1    0    0    0  501 -0.00000000000E+00 -0.00000000000E+00 -0.11067837670E+04  0.11067837670E+04  0.00000000000E+00 0.  1.
         24    2    1    2    0    0  0.17894316179E+03 -0.35373825312E+02  0.10216677284E+04  0.10408745973E+04  0.79643062232E+02 0.  0.
        254    2    1    2    0    0 -0.17894316179E+03  0.35373825312E+02 -0.90224907074E+03  0.12921115944E+04  0.90676734844E+03 0.  0.
         23    2    4    4    0    0 -0.20341777395E+03  0.25639430243E+03  0.18021366814E+02  0.34130261505E+03  0.95109811800E+02 0.  0.
         23    2    4    4    0    0  0.24474612161E+02 -0.22102047712E+03 -0.92027043755E+03  0.95080897940E+03  0.87698227626E+02 0.  0.
          2    1    3    3  502    0  0.17661420691E+03 -0.32898397931E+02  0.83193663155E+03  0.85111306040E+03  0.00000000000E+00 0. -1.
         -1    1    3    3    0  502  0.23289548849E+01 -0.24754273810E+01  0.18973109682E+03  0.18976153686E+03  0.00000000000E+00 0.  1.
         11    1    5    5    0    0 -0.25866595452E+02  0.52868975839E+00 -0.11814513309E+02  0.28441923245E+02  0.00000000000E+00 0.  1.
        -11    1    5    5    0    0 -0.17755117850E+03  0.25586561267E+03  0.29835880124E+02  0.31286069181E+03  0.00000000000E+00 0. -1.
          1    1    6    6  503    0 -0.24751891536E+02 -0.28123321045E+02 -0.20277567675E+03  0.20620754691E+03  0.00000000000E+00 0. -1.
         -1    1    6    6    0  503  0.49226503696E+02 -0.19289715607E+03 -0.71749476080E+03  0.74460143248E+03  0.00000000000E+00 0.  1.
<mgrwt>
<rscale>  0 0.23299278E+04</rscale>
<asrwt>0</asrwt>
<pdfrwt beam="1">  1        2 0.18864653E+00 0.23299278E+04</pdfrwt>
<pdfrwt beam="2">  1       -1 0.17027442E+00 0.23299278E+04</pdfrwt>
<totfact> 0.46132429E+00</totfact>
</mgrwt>
</event>
<event>
12    6  0.1647231E-007  0.2030690E+04  0.7818608E-02  0.8592405E-01
          2   -1    0    0  501    0  0.00000000000E+00  0.00000000000E+00  0.33109568946E+04  0.33109568946E+04  0.00000000000E+00 0. -1.
         -1   -1    0    0    0  501 -0.00000000000E+00 -0.00000000000E+00 -0.31136780755E+03  0.31136780755E+03  0.00000000000E+00 0.  1.
         24    2    1    2    0    0 -0.58113442173E+03  0.40039104294E+03  0.46466020157E+03  0.84863935293E+03  0.79053431524E+02 0.  0.
        254    2    1    2    0    0  0.58113442173E+03 -0.40039104294E+03  0.25349288855E+04  0.27736853492E+04  0.87717487349E+03 0.  0.
         23    2    4    4    0    0  0.79499882563E+03 -0.38797896834E+03  0.20893871151E+04  0.22707378541E+04  0.90338655719E+02 0.  0.
         23    2    4    4    0    0 -0.21386440391E+03 -0.12412074594E+02  0.44554177040E+03  0.50294749513E+03  0.92502274747E+02 0.  0.
          2    1    3    3  502    0 -0.36240745395E+03  0.24228275789E+03  0.33167040829E+03  0.54776396119E+03  0.00000000000E+00 0. -1.
         -1    1    3    3    0  502 -0.21872696778E+03  0.15810828505E+03  0.13298979328E+03  0.30087539174E+03  0.00000000000E+00 0.  1.
         11    1    5    5    0    0  0.73958896414E+03 -0.33455023736E+03  0.19290912201E+04  0.20929186876E+04  0.00000000000E+00 0.  1.
        -11    1    5    5    0    0  0.55409861488E+02 -0.53428730983E+02  0.16029589491E+03  0.17781916649E+03  0.00000000000E+00 0. -1.
          2    1    6    6  503    0 -0.13222047019E+02 -0.11030402666E+02  0.36016266864E+01  0.17591589614E+02  0.00000000000E+00 0. -1.
         -2    1    6    6    0  503 -0.20064235689E+03 -0.13816719278E+01  0.44194014371E+03  0.48535590551E+03  0.00000000000E+00 0.  1.
<mgrwt>
<rscale>  0 0.20306899E+04</rscale>
<asrwt>0</asrwt>
<pdfrwt beam="1">  1        2 0.50937796E+00 0.20306899E+04</pdfrwt>
<pdfrwt beam="2">  1       -1 0.47902742E-01 0.20306899E+04</pdfrwt>
<totfact> 0.50499720E+00</totfact>
</mgrwt>
</event>
<event>
12    6  0.1647231E-007  0.1799434E+04  0.7818608E-02  0.8706601E-01
          4   -1    0    0  501    0  0.00000000000E+00  0.00000000000E+00  0.99425247715E+03  0.99425247715E+03  0.00000000000E+00 0. -1.
         -3   -1    0    0    0  501 -0.00000000000E+00 -0.00000000000E+00 -0.81416993718E+03  0.81416993718E+03  0.00000000000E+00 0.  1.
         24    2    1    2    0    0 -0.23204522167E+03  0.60402042457E+03 -0.13975591065E+03  0.66647572213E+03  0.77282051121E+02 0.  0.
        254    2    1    2    0    0  0.23204522167E+03 -0.60402042457E+03  0.31983845061E+03  0.11419466922E+04  0.88490674941E+03 0.  0.
         23    2    4    4    0    0  0.98949055942E+02  0.19280601493E+03  0.21974337015E+03  0.32279134348E+03  0.94562295000E+02 0.  0.
         23    2    4    4    0    0  0.13309616573E+03 -0.79682643950E+03  0.10009508046E+03  0.81915534872E+03  0.91375577618E+02 0.  0.
          4    1    3    3  502    0 -0.14515495587E+03  0.46487686290E+03 -0.92050486704E+02  0.49563469509E+03  0.00000000000E+00 0. -1.
         -1    1    3    3    0  502 -0.86890265807E+02  0.13914356167E+03 -0.47705423945E+02  0.17084102704E+03  0.00000000000E+00 0.  1.
         11    1    5    5    0    0  0.80229652703E+02  0.12861231349E+03  0.88584808938E+02  0.17557104752E+03  0.00000000000E+00 0. -1.
        -11    1    5    5    0    0  0.18719403239E+02  0.64193701444E+02  0.13115856121E+03  0.14722029596E+03  0.00000000000E+00 0.  1.
          1    1    6    6  503    0  0.19707281816E+02 -0.39452608388E+03  0.51811833641E+02  0.39840139800E+03  0.00000000000E+00 0. -1.
         -1    1    6    6    0  503  0.11338888392E+03 -0.40230035562E+03  0.48283246818E+02  0.42075395072E+03  0.00000000000E+00 0.  1.
<mgrwt>
<rscale>  0 0.17994338E+04</rscale>
<asrwt>0</asrwt>
<pdfrwt beam="1">  1        4 0.15296192E+00 0.17994338E+04</pdfrwt>
<pdfrwt beam="2">  1       -3 0.12525691E+00 0.17994338E+04</pdfrwt>
<totfact> 0.31047472E-01</totfact>
</mgrwt>
</event>
<event>
12    6  0.1647231E-007  0.1932295E+04  0.7818608E-02  0.8638946E-01
          2   -1    0    0  501    0  0.00000000000E+00  0.00000000000E+00  0.26652173656E+04  0.26652173656E+04  0.00000000000E+00 0. -1.
         -1   -1    0    0    0  501 -0.00000000000E+00 -0.00000000000E+00 -0.35023066445E+03  0.35023066445E+03  0.00000000000E+00 0.  1.
         24    2    1    2    0    0  0.11229154945E+03  0.48365172661E+03  0.17951224107E+04  0.18641571212E+04  0.78031520589E+02 0.  0.
        254    2    1    2    0    0 -0.11229154945E+03 -0.48365172661E+03  0.51986429039E+03  0.11512909088E+04  0.89926830904E+03 0.  0.
         23    2    4    4    0    0 -0.34705660970E+03  0.11493034561E+03  0.20361172966E+03  0.42979645258E+03  0.98030502976E+02 0.  0.
         23    2    4    4    0    0  0.23476506025E+03 -0.59858207222E+03  0.31625256073E+03  0.72149445627E+03  0.84400459481E+02 0.  0.
          4    1    3    3  502    0  0.10576554902E+03  0.29757617703E+03  0.11730226527E+04  0.12147921947E+04  0.00000000000E+00 0. -1.
         -3    1    3    3    0  502  0.65260004384E+01  0.18607554958E+03  0.62209975803E+03  0.64936492651E+03  0.00000000000E+00 0.  1.
         11    1    5    5    0    0 -0.30991690688E+02  0.39426964418E+02  0.48314864923E+02  0.69636890995E+02  0.00000000000E+00 0.  1.
        -11    1    5    5    0    0 -0.31606491902E+03  0.75503381192E+02  0.15529686474E+03  0.36015956159E+03  0.00000000000E+00 0. -1.
          1    1    6    6  503    0  0.17540959767E+03 -0.41120768062E+03  0.25949889239E+03  0.51691387939E+03  0.00000000000E+00 0. -1.
         -1    1    6    6    0  503  0.59355462583E+02 -0.18737439160E+03  0.56753668340E+02  0.20458057688E+03  0.00000000000E+00 0.  1.
<mgrwt>
<rscale>  0 0.19322949E+04</rscale>
<asrwt>0</asrwt>
<pdfrwt beam="1">  1        2 0.41003343E+00 0.19322949E+04</pdfrwt>
<pdfrwt beam="2">  1       -1 0.53881642E-01 0.19322949E+04</pdfrwt>
<totfact> 0.10310490E+01</totfact>
</mgrwt>
</event>
<event>
12    6  0.1647231E-007  0.1499050E+04  0.7818608E-02  0.8885085E-01
         -1   -1    0    0    0  501 -0.00000000000E+00  0.00000000000E+00  0.11960841437E+04  0.11960841437E+04  0.00000000000E+00 0.  1.
          2   -1    0    0  501    0  0.00000000000E+00 -0.00000000000E+00 -0.46968907091E+03  0.46968907091E+03  0.00000000000E+00 0. -1.
         24    2    1    2    0    0 -0.32514696071E+03 -0.19126669261E+02 -0.15710878793E+03  0.37081239822E+03  0.82050520345E+02 0.  0.
        254    2    1    2    0    0  0.32514696071E+03  0.19126669261E+02  0.88350386076E+03  0.12949608164E+04  0.88896460479E+03 0.  0.
         23    2    4    4    0    0  0.11875629253E+03  0.26100739140E+03 -0.52253894333E+02  0.30245755404E+03  0.80760059074E+02 0.  0.
         23    2    4    4    0    0  0.20639066818E+03 -0.24188072214E+03  0.93575775509E+03  0.99250326238E+03  0.91196260714E+02 0.  0.
          2    1    3    3  502    0 -0.26544344256E+03  0.17192094453E+02 -0.12380587864E+03  0.29340021284E+03  0.00000000000E+00 0. -1.
         -1    1    3    3    0  502 -0.59703518158E+02 -0.36318763714E+02 -0.33302909283E+02  0.77412185377E+02  0.00000000000E+00 0.  1.
         11    1    5    5    0    0  0.19763706504E+02  0.12813891124E+03 -0.33395844361E+01  0.12969709901E+03  0.00000000000E+00 0. -1.
        -11    1    5    5    0    0  0.98992586026E+02  0.13286848017E+03 -0.48914309897E+02  0.17276045503E+03  0.00000000000E+00 0.  1.
          1    1    6    6  503    0  0.39515828163E+02 -0.57698850278E+02  0.11173778557E+03  0.13181802124E+03  0.00000000000E+00 0. -1.
         -1    1    6    6    0  503  0.16687484002E+03 -0.18418187186E+03  0.82401996952E+03  0.86068524114E+03  0.00000000000E+00 0.  1.
<mgrwt>
<rscale>  0 0.14990499E+04</rscale>
<asrwt>0</asrwt>
<pdfrwt beam="1">  1        2 0.72259857E-01 0.14990499E+04</pdfrwt>
<pdfrwt beam="2">  1       -1 0.18401294E+00 0.14990499E+04</pdfrwt>
<totfact> 0.14247981E+01</totfact>
</mgrwt>
</event>
<event>
12    6  0.1647231E-007  0.1249828E+04  0.7818608E-02  0.9070326E-01
          2   -1    0    0  501    0  0.00000000000E+00  0.00000000000E+00  0.52261750491E+03  0.52261750491E+03  0.00000000000E+00 0. -1.
         -1   -1    0    0    0  501 -0.00000000000E+00 -0.00000000000E+00 -0.74723422349E+03  0.74723422349E+03  0.00000000000E+00 0.  1.
         24    2    1    2    0    0  0.26451198789E+03  0.13713493096E+03 -0.56659319106E+00  0.30733488875E+03  0.75377926381E+02 0.  0.
        254    2    1    2    0    0 -0.26451198789E+03 -0.13713493096E+03 -0.22405012538E+03  0.96251683966E+03  0.88739372711E+03 0.  0.
         23    2    4    4    0    0 -0.18807838450E+03  0.27133389835E+03 -0.37727453194E+03  0.51003240197E+03  0.93815859502E+02 0.  0.
         23    2    4    4    0    0 -0.76433603389E+02 -0.40846882930E+03  0.15322440656E+03  0.45248443769E+03  0.92604359227E+02 0.  0.
          2    1    3    3  502    0  0.13262160292E+03  0.87066359778E+02  0.33635358861E+02  0.16217391261E+03  0.00000000000E+00 0. -1.
         -1    1    3    3    0  502  0.13189038497E+03  0.50068571179E+02 -0.34201952052E+02  0.14516097614E+03  0.00000000000E+00 0.  1.
         11    1    5    5    0    0 -0.64985793725E+02  0.96250062000E+02 -0.70104468226E+02  0.13565347134E+03  0.00000000000E+00 0. -1.
        -11    1    5    5    0    0 -0.12309259078E+03  0.17508383635E+03 -0.30717006372E+03  0.37437893063E+03  0.00000000000E+00 0.  1.
          4    1    6    6  503    0 -0.65638087569E+01 -0.87992885601E+02 -0.48634395036E+01  0.88371288016E+02  0.00000000000E+00 0. -1.
         -4    1    6    6    0  503 -0.69869794633E+02 -0.32047594370E+03  0.15808784606E+03  0.36411314967E+03  0.00000000000E+00 0.  1.
<mgrwt>
<rscale>  0 0.12498283E+04</rscale>
<asrwt>0</asrwt>
<pdfrwt beam="1">  1        2 0.80402694E-01 0.12498283E+04</pdfrwt>
<pdfrwt beam="2">  1       -1 0.11495911E+00 0.12498283E+04</pdfrwt>
<totfact> 0.45193872E+01</totfact>
</mgrwt>
</event>
<event>
12    6  0.1647231E-007  0.1404189E+04  0.7818608E-02  0.8950792E-01
          2   -1    0    0  501    0  0.00000000000E+00  0.00000000000E+00  0.56282088370E+03  0.56282088370E+03  0.00000000000E+00 0. -1.
         -3   -1    0    0    0  501 -0.00000000000E+00 -0.00000000000E+00 -0.87583218580E+03  0.87583218580E+03  0.00000000000E+00 0.  1.
         24    2    1    2    0    0 -0.51624113739E+02  0.37812049174E+03 -0.19998089573E+03  0.43835254381E+03  0.80749232909E+02 0.  0.
        254    2    1    2    0    0  0.51624113739E+02 -0.37812049174E+03 -0.11303040637E+03  0.10003005257E+04  0.91770644192E+03 0.  0.
         23    2    4    4    0    0 -0.88659409161E+02  0.24983525348E+03  0.12656921471E+03  0.30752155068E+03  0.90948300181E+02 0.  0.
         23    2    4    4    0    0  0.14028352290E+03 -0.62795574522E+03 -0.23959962108E+03  0.69277897501E+03  0.92340917500E+02 0.  0.
          4    1    3    3  502    0  0.14106493403E+02  0.35114069771E+02 -0.37085185828E+02  0.52983979276E+02  0.00000000000E+00 0. -1.
         -3    1    3    3    0  502 -0.65730607142E+02  0.34300642197E+03 -0.16289570991E+03  0.38536856453E+03  0.00000000000E+00 0.  1.
         11    1    5    5    0    0 -0.43843109915E+02  0.37618377525E+02  0.28955815980E+01  0.57842415297E+02  0.00000000000E+00 0. -1.
        -11    1    5    5    0    0 -0.44816299246E+02  0.21221687596E+03  0.12367363311E+03  0.24967913538E+03  0.00000000000E+00 0.  1.
          1    1    6    6  503    0  0.45606424912E+02 -0.11061941065E+03 -0.13862873654E+02  0.12045239421E+03  0.00000000000E+00 0. -1.
         -1    1    6    6    0  503  0.94677097988E+02 -0.51733633457E+03 -0.22573674743E+03  0.57232658080E+03  0.00000000000E+00 0.  1.
<mgrwt>
<rscale>  0 0.14041889E+04</rscale>
<asrwt>0</asrwt>
<pdfrwt beam="1">  1        2 0.86587828E-01 0.14041889E+04</pdfrwt>
<pdfrwt beam="2">  1       -3 0.13474341E+00 0.14041889E+04</pdfrwt>
<totfact> 0.13903155E+01</totfact>
</mgrwt>
</event>
<event>
12    6  0.1647231E-007  0.1979951E+04  0.7818608E-02  0.8616052E-01
          2   -1    0    0  501    0  0.00000000000E+00  0.00000000000E+00  0.19129549156E+04  0.19129549156E+04  0.00000000000E+00 0. -1.
         -1   -1    0    0    0  501 -0.00000000000E+00 -0.00000000000E+00 -0.51232356700E+03  0.51232356700E+03  0.00000000000E+00 0.  1.
         24    2    1    2    0    0 -0.45481228280E+03 -0.38756301569E+03 -0.12537912650E+03  0.61557655727E+03  0.78455521035E+02 0.  0.
        254    2    1    2    0    0  0.45481228280E+03  0.38756301569E+03  0.15260104751E+04  0.18097019253E+04  0.76762867631E+03 0.  0.
         23    2    4    4    0    0 -0.97204240417E+01  0.48153884991E+03  0.73687455087E+03  0.88499290770E+03  0.90852585754E+02 0.  0.
         23    2    4    4    0    0  0.46453270685E+03 -0.93975834222E+02  0.78913592424E+03  0.92470901764E+03  0.87915682480E+02 0.  0.
          4    1    3    3  502    0 -0.19387164002E+03 -0.21532777136E+03 -0.69508150880E+02  0.29796584530E+03  0.00000000000E+00 0. -1.
         -3    1    3    3    0  502 -0.26094064279E+03 -0.17223524433E+03 -0.55870975621E+02  0.31761071198E+03  0.00000000000E+00 0.  1.
         11    1    5    5    0    0  0.12173064540E+02  0.28335825737E+03  0.35677841964E+03  0.45577508296E+03  0.00000000000E+00 0.  1.
        -11    1    5    5    0    0 -0.21893488582E+02  0.19818059254E+03  0.38009613123E+03  0.42921782474E+03  0.00000000000E+00 0. -1.
          4    1    6    6  503    0  0.62080648313E+02  0.76696056615E+01  0.66181851537E+02  0.91065181155E+02  0.00000000000E+00 0. -1.
         -4    1    6    6    0  503  0.40245205853E+03 -0.10164543988E+03  0.72295407271E+03  0.83364383648E+03  0.00000000000E+00 0.  1.
<mgrwt>
<rscale>  0 0.19799514E+04</rscale>
<asrwt>0</asrwt>
<pdfrwt beam="1">  1        2 0.29430075E+00 0.19799514E+04</pdfrwt>
<pdfrwt beam="2">  1       -1 0.78819011E-01 0.19799514E+04</pdfrwt>
<totfact> 0.12741193E+01</totfact>
</mgrwt>
</event>
<event>
12    6  0.1647231E-007  0.2056503E+04  0.7818608E-02  0.8580650E-01
          2   -1    0    0  501    0  0.00000000000E+00  0.00000000000E+00  0.33813631423E+04  0.33813631423E+04  0.00000000000E+00 0. -1.
         -1   -1    0    0    0  501 -0.00000000000E+00 -0.00000000000E+00 -0.31268489532E+03  0.31268489532E+03  0.00000000000E+00 0.  1.
         24    2    1    2    0    0  0.80073151713E+03  0.18614554838E+03  0.14673372648E+04  0.16838909722E+04  0.81172838861E+02 0.  0.
        254    2    1    2    0    0 -0.80073151713E+03 -0.18614554838E+03  0.16013409821E+04  0.20101570654E+04  0.89477223854E+03 0.  0.
         23    2    4    4    0    0 -0.24725782473E+03 -0.28128527483E+03  0.13210332446E+04  0.13759885520E+04  0.89206637320E+02 0.  0.
         23    2    4    4    0    0 -0.55347369240E+03  0.95139726442E+02  0.28030773754E+03  0.63416851343E+03  0.90623286063E+02 0.  0.
          2    1    3    3  502    0  0.49914270313E+03  0.12740754135E+03  0.99429836681E+03  0.11198238084E+04  0.00000000000E+00 0. -1.
         -1    1    3    3    0  502  0.30158881400E+03  0.58738007039E+02  0.47303889804E+03  0.56406716378E+03  0.00000000000E+00 0.  1.
         11    1    5    5    0    0 -0.24568097383E+02 -0.45144998764E+02  0.98526834525E+02  0.11112695192E+03  0.00000000000E+00 0.  1.
        -11    1    5    5    0    0 -0.22268972734E+03 -0.23614027606E+03  0.12225064100E+04  0.12648616000E+04  0.00000000000E+00 0. -1.
          4    1    6    6  503    0 -0.34210037925E+03  0.14155086859E+02  0.17474886298E+03  0.38440889829E+03  0.00000000000E+00 0. -1.
         -4    1    6    6    0  503 -0.21137331315E+03  0.80984639583E+02  0.10555887456E+03  0.24975961515E+03  0.00000000000E+00 0.  1.
<mgrwt>
<rscale>  0 0.20565030E+04</rscale>
<asrwt>0</asrwt>
<pdfrwt beam="1">  1        2 0.52020969E+00 0.20565030E+04</pdfrwt>
<pdfrwt beam="2">  1       -1 0.48105371E-01 0.20565030E+04</pdfrwt>
<totfact> 0.44820163E+00</totfact>
</mgrwt>
</event>
<event>
12    6  0.1647231E-007  0.1941611E+04  0.7818608E-02  0.8634417E-01
          2   -1    0    0  501    0  0.00000000000E+00  0.00000000000E+00  0.20595292407E+04  0.20595292407E+04  0.00000000000E+00 0. -1.
         -1   -1    0    0    0  501 -0.00000000000E+00 -0.00000000000E+00 -0.45761119263E+03  0.45761119263E+03  0.00000000000E+00 0.  1.
         24    2    1    2    0    0  0.23217527586E+03  0.55171258917E+03  0.21364403911E+02  0.60441166781E+03  0.81023988168E+02 0.  0.
        254    2    1    2    0    0 -0.23217527586E+03 -0.55171258917E+03  0.15805536442E+04  0.19127287655E+04  0.89559442195E+03 0.  0.
         23    2    4    4    0    0 -0.27385753812E+03 -0.54202403666E+03  0.41473233836E+03  0.74247092225E+03  0.10233352532E+03 0.  0.
         23    2    4    4    0    0  0.41682262257E+02 -0.96885525131E+01  0.11658213058E+04  0.11702578433E+04  0.92373284347E+02 0.  0.
          4    1    3    3  502    0  0.24055040242E+02  0.17573138594E+02 -0.64644766053E+01  0.30483595898E+02  0.00000000000E+00 0. -1.
         -3    1    3    3    0  502  0.20812023562E+03  0.53413945058E+03  0.27828880516E+02  0.57392807191E+03  0.00000000000E+00 0.  1.
         11    1    5    5    0    0 -0.27082409941E+03 -0.47323754056E+03  0.38497833415E+03  0.66746369218E+03  0.00000000000E+00 0. -1.
        -11    1    5    5    0    0 -0.30334387070E+01 -0.68786496099E+02  0.29754004214E+02  0.75007230070E+02  0.00000000000E+00 0.  1.
          2    1    6    6  503    0  0.49652458055E+02  0.43442984866E+01  0.28751003027E+03  0.29179831566E+03  0.00000000000E+00 0.  1.
         -2    1    6    6    0  503 -0.79701957983E+01 -0.14032851000E+02  0.87831127552E+03  0.87845952760E+03  0.00000000000E+00 0. -1.
<mgrwt>
<rscale>  0 0.19416113E+04</rscale>
<asrwt>0</asrwt>
<pdfrwt beam="1">  1        2 0.31685065E+00 0.19416113E+04</pdfrwt>
<pdfrwt beam="2">  1       -1 0.70401723E-01 0.19416113E+04</pdfrwt>
<totfact> 0.13414245E+01</totfact>
</mgrwt>
</event>
<event>
12    6  0.1647231E-007  0.1657167E+04  0.7818608E-02  0.8786178E-01
          2   -1    0    0  501    0  0.00000000000E+00  0.00000000000E+00  0.88368446651E+03  0.88368446651E+03  0.00000000000E+00 0. -1.
         -1   -1    0    0    0  501 -0.00000000000E+00 -0.00000000000E+00 -0.77691829533E+03  0.77691829533E+03  0.00000000000E+00 0.  1.
         24    2    1    2    0    0  0.19260374453E+03  0.20912465778E+03 -0.47123509867E+03  0.55600167248E+03  0.79031744808E+02 0.  0.
        254    2    1    2    0    0 -0.19260374453E+03 -0.20912465778E+03  0.57800126986E+03  0.11046010894E+04  0.89734540382E+03 0.  0.
         23    2    4    4    0    0 -0.19950167330E+03 -0.28809226366E+03 -0.13116439464E+03  0.38513537654E+03  0.91252889316E+02 0.  0.
         23    2    4    4    0    0  0.68979287622E+01  0.78967605886E+02  0.70916566450E+03  0.71946571282E+03  0.91823243353E+02 0.  0.
          4    1    3    3  502    0  0.17206801088E+02 -0.43713487428E+01 -0.41055708887E+02  0.44729787901E+02  0.00000000000E+00 0. -1.
         -3    1    3    3    0  502  0.17539694345E+03  0.21349600652E+03 -0.43017938978E+03  0.51127188458E+03  0.00000000000E+00 0.  1.
         11    1    5    5    0    0 -0.19620786690E+03 -0.24543149787E+03 -0.92722033574E+02  0.32761489998E+03  0.00000000000E+00 0. -1.
        -11    1    5    5    0    0 -0.32938063947E+01 -0.42660765796E+02 -0.38442361067E+02  0.57520476556E+02  0.00000000000E+00 0.  1.
          1    1    6    6  503    0 -0.10397877969E+02  0.14110961198E+02  0.48855990850E+03  0.48887423668E+03  0.00000000000E+00 0. -1.
         -1    1    6    6    0  503  0.17295806731E+02  0.64856644688E+02  0.22060575600E+03  0.23059147614E+03  0.00000000000E+00 0.  1.
<mgrwt>
<rscale>  0 0.16571670E+04</rscale>
<asrwt>0</asrwt>
<pdfrwt beam="1">  1        2 0.13595146E+00 0.16571670E+04</pdfrwt>
<pdfrwt beam="2">  1       -1 0.11952589E+00 0.16571670E+04</pdfrwt>
<totfact> 0.20494630E+01</totfact>
</mgrwt>
</event>
<event>
12    6  0.1931738E-007  0.2330594E+04  0.7818608E-02  0.8465955E-01
         -1   -1    0    0    0  501 -0.00000000000E+00  0.00000000000E+00  0.12502971528E+04  0.12502971528E+04  0.00000000000E+00 0.  1.
          2   -1    0    0  501    0  0.00000000000E+00 -0.00000000000E+00 -0.10860752699E+04  0.10860752699E+04  0.00000000000E+00 0. -1.
         24    2    1    2    0    0 -0.10268216853E+03 -0.46658276589E+03 -0.79651343116E+03  0.93345917885E+03  0.93109008228E+02 0.  0.
        254    2    1    2    0    0  0.10268216853E+03  0.46658276589E+03  0.96073531408E+03  0.14029132439E+04  0.90383080327E+03 0.  0.
         23    2    4    4    0    0 -0.36645650449E+03  0.11699260921E+03  0.21375054710E+03  0.44935392713E+03  0.90840602985E+02 0.  0.
         23    2    4    4    0    0  0.46913867302E+03  0.34959015668E+03  0.74698476698E+03  0.95355931673E+03  0.94787954148E+02 0.  0.
          4    1    3    3  502    0 -0.46583734329E+02 -0.25134153125E+03 -0.51248949869E+03  0.57270244971E+03  0.00000000000E+00 0. -1.
         -3    1    3    3    0  502 -0.56098434204E+02 -0.21524123464E+03 -0.28402393247E+03  0.36075672914E+03  0.00000000000E+00 0.  1.
         11    1    5    5    0    0 -0.30272139722E+03  0.13123108958E+03  0.17965146062E+03  0.37568136833E+03  0.00000000000E+00 0. -1.
        -11    1    5    5    0    0 -0.63735107269E+02 -0.14238480367E+02  0.34099086480E+02  0.73672558803E+02  0.00000000000E+00 0.  1.
          4    1    6    6  503    0  0.40627812144E+03  0.25733979467E+03  0.61434868875E+03  0.78019868832E+03  0.00000000000E+00 0. -1.
         -4    1    6    6    0  503  0.62860551582E+02  0.92250362007E+02  0.13263607823E+03  0.17336062841E+03  0.00000000000E+00 0.  1.
<mgrwt>
<rscale>  0 0.23305938E+04</rscale>
<asrwt>0</asrwt>
<pdfrwt beam="1">  1        2 0.16708850E+00 0.23305938E+04</pdfrwt>
<pdfrwt beam="2">  1       -1 0.19235341E+00 0.23305938E+04</pdfrwt>
<totfact> 0.38978355E+00</totfact>
</mgrwt>
</event>
<event>
12    6  0.1647231E-007  0.1981468E+04  0.7818608E-02  0.8615334E-01
          2   -1    0    0  501    0  0.00000000000E+00  0.00000000000E+00  0.34939074130E+04  0.34939074130E+04  0.00000000000E+00 0. -1.
         -1   -1    0    0    0  501 -0.00000000000E+00 -0.00000000000E+00 -0.28093303069E+03  0.28093303069E+03  0.00000000000E+00 0.  1.
         24    2    1    2    0    0  0.55250735902E+03 -0.30146571583E+03  0.38480391573E+03  0.74173708470E+03  0.77161451921E+02 0.  0.
        254    2    1    2    0    0 -0.55250735902E+03  0.30146571583E+03  0.28281704666E+04  0.30331033590E+04  0.89723009237E+03 0.  0.
         23    2    4    4    0    0 -0.60695740281E+03 -0.24590440965E+01  0.97434305674E+03  0.11514638621E+04  0.90118242915E+02 0.  0.
         23    2    4    4    0    0  0.54450043787E+02  0.30392475993E+03  0.18538274099E+04  0.18816394969E+04  0.92498994171E+02 0.  0.
          2    1    3    3  502    0  0.24191107822E+03 -0.17569483563E+03  0.17739878970E+03  0.34764921346E+03  0.00000000000E+00 0. -1.
         -1    1    3    3    0  502  0.31059628080E+03 -0.12577088020E+03  0.20740512602E+03  0.39408787124E+03  0.00000000000E+00 0.  1.
         11    1    5    5    0    0 -0.56230305338E+03 -0.24405240135E+02  0.91210817104E+03  0.10717843324E+04  0.00000000000E+00 0. -1.
        -11    1    5    5    0    0 -0.44654349431E+02  0.21946196038E+02  0.62234885704E+02  0.79679529631E+02  0.00000000000E+00 0.  1.
          1    1    6    6  503    0 -0.99525408489E+01  0.11661201380E+03  0.89060784304E+03  0.89826485232E+03  0.00000000000E+00 0. -1.
         -1    1    6    6    0  503  0.64402584636E+02  0.18731274612E+03  0.96321956683E+03  0.98337464463E+03  0.00000000000E+00 0.  1.
<mgrwt>
<rscale>  0 0.19814681E+04</rscale>
<asrwt>0</asrwt>
<pdfrwt beam="1">  1        2 0.53752419E+00 0.19814681E+04</pdfrwt>
<pdfrwt beam="2">  1       -1 0.43220469E-01 0.19814681E+04</pdfrwt>
<totfact> 0.46175401E+00</totfact>
</mgrwt>
</event>
<event>
12    6  0.1647231E-007  0.1565243E+04  0.7818608E-02  0.8842190E-01
          4   -1    0    0  501    0  0.00000000000E+00  0.00000000000E+00  0.36339529044E+03  0.36339529044E+03  0.00000000000E+00 0. -1.
         -3   -1    0    0    0  501 -0.00000000000E+00 -0.00000000000E+00 -0.16854823368E+04  0.16854823368E+04  0.00000000000E+00 0.  1.
         24    2    1    2    0    0  0.36276045037E+03  0.24532741196E+03 -0.45223435630E+02  0.44902076635E+03  0.88282535495E+02 0.  0.
        254    2    1    2    0    0 -0.36276045037E+03 -0.24532741196E+03 -0.12768636107E+04  0.15998568609E+04  0.85870868839E+03 0.  0.
         23    2    4    4    0    0 -0.78295197359E+02 -0.47840141324E+03 -0.36952310580E+03  0.61662323756E+03  0.93160298685E+02 0.  0.
         23    2    4    4    0    0 -0.28446525301E+03  0.23307400129E+03 -0.90734050492E+03  0.98323362333E+03  0.90761202734E+02 0.  0.
          4    1    3    3  502    0  0.22057205956E+03  0.11100746132E+03  0.53498373070E+01  0.24698848290E+03  0.00000000000E+00 0. -1.
         -3    1    3    3    0  502  0.14218839081E+03  0.13431995063E+03 -0.50573272937E+02  0.20203228345E+03  0.00000000000E+00 0.  1.
         11    1    5    5    0    0 -0.44041231946E+02 -0.93411672861E+02 -0.48091120401E+02  0.11392158092E+03  0.00000000000E+00 0. -1.
        -11    1    5    5    0    0 -0.34253965413E+02 -0.38498974038E+03 -0.32143198540E+03  0.50270165664E+03  0.00000000000E+00 0.  1.
          2    1    6    6  503    0 -0.44344832465E+02  0.46654608946E+02 -0.26332440758E+03  0.27107722208E+03  0.00000000000E+00 0. -1.
         -2    1    6    6    0  503 -0.24012042055E+03  0.18641939234E+03 -0.64401609735E+03  0.71215640125E+03  0.00000000000E+00 0.  1.
<mgrwt>
<rscale>  0 0.15652429E+04</rscale>
<asrwt>0</asrwt>
<pdfrwt beam="1">  1        4 0.55906968E-01 0.15652429E+04</pdfrwt>
<pdfrwt beam="2">  1       -3 0.25930497E+00 0.15652429E+04</pdfrwt>
<totfact> 0.43497584E-01</totfact>
</mgrwt>
</event>
<event>
12    6  0.1647231E-007  0.1270027E+04  0.7818608E-02  0.9053678E-01
         -1   -1    0    0    0  501 -0.00000000000E+00  0.00000000000E+00  0.13200497354E+03  0.13200497354E+03  0.00000000000E+00 0.  1.
          2   -1    0    0  501    0  0.00000000000E+00 -0.00000000000E+00 -0.30547494938E+04  0.30547494938E+04  0.00000000000E+00 0. -1.
         24    2    1    2    0    0  0.11331218933E+03 -0.18172223185E+03 -0.13502767767E+04  0.13694858668E+04  0.79884566360E+02 0.  0.
        254    2    1    2    0    0 -0.11331218933E+03  0.18172223185E+03 -0.15724677436E+04  0.18172686005E+04  0.88540823356E+03 0.  0.
         23    2    4    4    0    0  0.34126581462E+03  0.25672615474E+03 -0.82897433430E+03  0.93691077008E+03  0.90734058742E+02 0.  0.
         23    2    4    4    0    0 -0.45457800395E+03 -0.75003922887E+02 -0.74349340926E+03  0.88035783042E+03  0.99903502688E+02 0.  0.
          4    1    3    3  502    0  0.86378650789E+02 -0.13287981274E+03 -0.11725472990E+04  0.11832098226E+04  0.00000000000E+00 0. -1.
         -3    1    3    3    0  502  0.26933538538E+02 -0.48842419109E+02 -0.17772947771E+03  0.18627604421E+03  0.00000000000E+00 0.  1.
         11    1    5    5    0    0  0.14754131645E+03  0.15767528824E+03 -0.46834139519E+03  0.51572628305E+03  0.00000000000E+00 0. -1.
        -11    1    5    5    0    0  0.19372449817E+03  0.99050866494E+02 -0.36063293911E+03  0.42118448703E+03  0.00000000000E+00 0.  1.
          3    1    6    6  503    0 -0.42711116122E+03 -0.74432337105E+02 -0.63815546850E+03  0.77149628568E+03  0.00000000000E+00 0. -1.
         -3    1    6    6    0  503 -0.27466842732E+02 -0.57158578144E+00 -0.10533794075E+03  0.10886154474E+03  0.00000000000E+00 0.  1.
<mgrwt>
<rscale>  0 0.12700270E+04</rscale>
<asrwt>0</asrwt>
<pdfrwt beam="1">  1        2 0.46996146E+00 0.12700270E+04</pdfrwt>
<pdfrwt beam="2">  1       -1 0.20308458E-01 0.12700270E+04</pdfrwt>
<totfact> 0.36337245E+01</totfact>
</mgrwt>
</event>
<event>
12    6  0.1647231E-007  0.1818960E+04  0.7818608E-02  0.8696281E-01
          2   -1    0    0  501    0  0.00000000000E+00  0.00000000000E+00  0.25345562684E+03  0.25345562684E+03  0.00000000000E+00 0. -1.
         -1   -1    0    0    0  501 -0.00000000000E+00 -0.00000000000E+00 -0.32635049348E+04  0.32635049348E+04  0.00000000000E+00 0.  1.
         24    2    1    2    0    0  0.33198449313E+03 -0.14682596748E+03 -0.22628406249E+04  0.22931792009E+04  0.80321761816E+02 0.  0.
        254    2    1    2    0    0 -0.33198449313E+03  0.14682596748E+03 -0.74720868305E+03  0.12237813607E+04  0.89863698699E+03 0.  0.
         23    2    4    4    0    0  0.12828623901E+02  0.43432503748E+03 -0.59233570986E+03  0.74036467608E+03  0.92062199781E+02 0.  0.
         23    2    4    4    0    0 -0.34481311703E+03 -0.28749907000E+03 -0.15487297319E+03  0.48341668463E+03  0.90300898256E+02 0.  0.
          2    1    3    3  502    0  0.16522504005E+02 -0.16957581636E+02 -0.29828202993E+03  0.29922018998E+03  0.00000000000E+00 0. -1.
         -1    1    3    3    0  502  0.31546198913E+03 -0.12986838585E+03 -0.19645585949E+04  0.19939590109E+04  0.00000000000E+00 0.  1.
         11    1    5    5    0    0 -0.31389875105E+02  0.77716831949E+02 -0.93349354012E+02  0.12545649494E+03  0.00000000000E+00 0.  1.
        -11    1    5    5    0    0  0.44218499006E+02  0.35660820553E+03 -0.49898635585E+03  0.61490818114E+03  0.00000000000E+00 0. -1.
          3    1    6    6  503    0 -0.26414744310E+03 -0.18910900384E+03 -0.14514990245E+03  0.35581537517E+03  0.00000000000E+00 0. -1.
         -3    1    6    6    0  503 -0.80665673934E+02 -0.98390066167E+02 -0.97230707419E+01  0.12760130946E+03  0.00000000000E+00 0.  1.
<mgrwt>
<rscale>  0 0.18189598E+04</rscale>
<asrwt>0</asrwt>
<pdfrwt beam="1">  1        2 0.38993173E-01 0.18189598E+04</pdfrwt>
<pdfrwt beam="2">  1       -1 0.50207769E+00 0.18189598E+04</pdfrwt>
<totfact> 0.20583585E-01</totfact>
</mgrwt>
</event>
<event>
12    6  0.1647231E-007  0.1148556E+04  0.7818608E-02  0.9159117E-01
         -1   -1    0    0    0  501 -0.00000000000E+00  0.00000000000E+00  0.15054630060E+03  0.15054630060E+03  0.00000000000E+00 0.  1.
          2   -1    0    0  501    0  0.00000000000E+00 -0.00000000000E+00 -0.21906551441E+04  0.21906551441E+04  0.00000000000E+00 0. -1.
         24    2    1    2    0    0  0.15545874457E+03 -0.74418973720E+02 -0.69384169945E+03  0.71914243250E+03  0.77742712930E+02 0.  0.
        254    2    1    2    0    0 -0.15545874457E+03  0.74418973720E+02 -0.13462671441E+04  0.16220590122E+04  0.88821991140E+03 0.  0.
         23    2    4    4    0    0  0.25973375451E+03  0.17880665121E+03 -0.17709332360E+03  0.37347071139E+03  0.93192731779E+02 0.  0.
         23    2    4    4    0    0 -0.41519249908E+03 -0.10438767749E+03 -0.11691738205E+04  0.12485883009E+04  0.93400877828E+02 0.  0.
          2    1    3    3  502    0  0.15393971540E+03 -0.48514831026E+02 -0.62698458258E+03  0.64742628275E+03  0.00000000000E+00 0. -1.
         -1    1    3    3    0  502  0.15190291706E+01 -0.25904142694E+02 -0.66857116869E+02  0.71716149746E+02  0.00000000000E+00 0.  1.
         11    1    5    5    0    0  0.18629499309E+02  0.18458853260E+02 -0.51615606408E+02  0.57896099463E+02  0.00000000000E+00 0. -1.
        -11    1    5    5    0    0  0.24110425520E+03  0.16034779795E+03 -0.12547771719E+03  0.31557461193E+03  0.00000000000E+00 0.  1.
          3    1    6    6  503    0 -0.19945618739E+03 -0.67746678387E+01 -0.59178590256E+03  0.62453120120E+03  0.00000000000E+00 0. -1.
         -3    1    6    6    0  503 -0.21573631169E+03 -0.97613009651E+02 -0.57738791794E+03  0.62405709965E+03  0.00000000000E+00 0.  1.
<mgrwt>
<rscale>  0 0.11485557E+04</rscale>
<asrwt>0</asrwt>
<pdfrwt beam="1">  1        2 0.33702385E+00 0.11485557E+04</pdfrwt>
<pdfrwt beam="2">  1       -1 0.23160970E-01 0.11485557E+04</pdfrwt>
<totfact> 0.94418513E+01</totfact>
</mgrwt>
</event>
<event>
12    6  0.1647231E-007  0.1928445E+04  0.7818608E-02  0.8640826E-01
          2   -1    0    0  501    0  0.00000000000E+00  0.00000000000E+00  0.14947190790E+04  0.14947190790E+04  0.00000000000E+00 0. -1.
         -1   -1    0    0    0  501 -0.00000000000E+00 -0.00000000000E+00 -0.62200659279E+03  0.62200659279E+03  0.00000000000E+00 0.  1.
         24    2    1    2    0    0 -0.59181416186E+03  0.45310916003E+03  0.27430481890E+03  0.80006704934E+03  0.96499931052E+02 0.  0.
        254    2    1    2    0    0  0.59181416186E+03 -0.45310916003E+03  0.59840766736E+03  0.13166586225E+04  0.90550885073E+03 0.  0.
         23    2    4    4    0    0  0.20672900510E+03  0.24002215769E+03  0.34921779273E+03  0.48048463845E+03  0.92546762753E+02 0.  0.
         23    2    4    4    0    0  0.38508515675E+03 -0.69313131772E+03  0.24918987463E+03  0.83617398404E+03  0.91486263570E+02 0.  0.
          4    1    3    3  502    0 -0.54943707808E+03  0.42050315198E+03  0.27979390174E+03  0.74631670962E+03  0.00000000000E+00 0. -1.
         -3    1    3    3    0  502 -0.42377083774E+02  0.32606008047E+02 -0.54890828466E+01  0.53750339724E+02  0.00000000000E+00 0.  1.
         11    1    5    5    0    0  0.57418630125E+02  0.29353735543E+02  0.33652933782E+02  0.72739678497E+02  0.00000000000E+00 0.  1.
        -11    1    5    5    0    0  0.14931037498E+03  0.21066842214E+03  0.31556485895E+03  0.40774495995E+03  0.00000000000E+00 0. -1.
          4    1    6    6  503    0  0.19926617404E+03 -0.26891170434E+03  0.11683718437E+03  0.35450167912E+03  0.00000000000E+00 0. -1.
         -4    1    6    6    0  503  0.18581898271E+03 -0.42421961338E+03  0.13235269026E+03  0.48167230492E+03  0.00000000000E+00 0.  1.
<mgrwt>
<rscale>  0 0.19284451E+04</rscale>
<asrwt>0</asrwt>
<pdfrwt beam="1">  1        2 0.22995678E+00 0.19284451E+04</pdfrwt>
<pdfrwt beam="2">  1       -1 0.95693322E-01 0.19284451E+04</pdfrwt>
<totfact> 0.14334986E+01</totfact>
</mgrwt>
</event>
<event>
12    6  0.1647231E-007  0.1185352E+04  0.7818608E-02  0.9125775E-01
         -1   -1    0    0    0  501 -0.00000000000E+00  0.00000000000E+00  0.18436037790E+03  0.18436037790E+03  0.00000000000E+00 0.  1.
          2   -1    0    0  501    0  0.00000000000E+00 -0.00000000000E+00 -0.19053167048E+04  0.19053167048E+04  0.00000000000E+00 0. -1.
         24    2    1    2    0    0  0.15866110983E+03 -0.10331994418E+03 -0.63783954076E+03  0.67013806894E+03  0.79983704922E+02 0.  0.
        254    2    1    2    0    0 -0.15866110983E+03  0.10331994418E+03 -0.10831167861E+04  0.14195390137E+04  0.89783109799E+03 0.  0.
         23    2    4    4    0    0 -0.49892305575E+02 -0.18879594674E+03  0.65598903690E+02  0.22562297571E+03  0.92029122241E+02 0.  0.
         23    2    4    4    0    0 -0.10876880425E+03  0.29211589092E+03 -0.11487156898E+04  0.11939160380E+04  0.93409974573E+02 0.  0.
          4    1    3    3  502    0  0.15352291790E+03 -0.11563001321E+03 -0.59578691694E+03  0.62602047624E+03  0.00000000000E+00 0. -1.
         -3    1    3    3    0  502  0.51381919303E+01  0.12310069029E+02 -0.42052623815E+02  0.44117592698E+02  0.00000000000E+00 0.  1.
         11    1    5    5    0    0 -0.60915997246E+02 -0.16602082599E+03  0.82555164725E+02  0.19516410686E+03  0.00000000000E+00 0.  1.
        -11    1    5    5    0    0  0.11023691672E+02 -0.22775120751E+02 -0.16956261035E+02  0.30458868849E+02  0.00000000000E+00 0. -1.
          4    1    6    6  503    0  0.12555290155E+02  0.76280311317E+01 -0.32897823804E+02  0.36029001941E+02  0.00000000000E+00 0. -1.
         -4    1    6    6    0  503 -0.12132409441E+03  0.28448785979E+03 -0.11158178660E+04  0.11578870361E+04  0.00000000000E+00 0.  1.
<mgrwt>
<rscale>  0 0.11853521E+04</rscale>
<asrwt>0</asrwt>
<pdfrwt beam="1">  1        2 0.29312564E+00 0.11853521E+04</pdfrwt>
<pdfrwt beam="2">  1       -1 0.28363136E-01 0.11853521E+04</pdfrwt>
<totfact> 0.95609911E+01</totfact>
</mgrwt>
</event>
<event>
12    6  0.1647231E-007  0.1249326E+04  0.7818608E-02  0.9070745E-01
          2   -1    0    0  501    0  0.00000000000E+00  0.00000000000E+00  0.36569700809E+03  0.36569700809E+03  0.00000000000E+00 0. -1.
         -1   -1    0    0    0  501 -0.00000000000E+00 -0.00000000000E+00 -0.10670134746E+04  0.10670134746E+04  0.00000000000E+00 0.  1.
         24    2    1    2    0    0  0.96089656229E+01  0.22302763522E+03 -0.39726731199E+03  0.46253088365E+03  0.79245459533E+02 0.  0.
        254    2    1    2    0    0 -0.96089656229E+01 -0.22302763522E+03 -0.30404915446E+03  0.97017959900E+03  0.89385060703E+03 0.  0.
         23    2    4    4    0    0  0.33712214688E+03 -0.34428101562E+03 -0.99785598070E+01  0.49063785411E+03  0.91897620201E+02 0.  0.
         23    2    4    4    0    0 -0.34673111250E+03  0.12125338040E+03 -0.29407059466E+03  0.47954174488E+03  0.92509047175E+02 0.  0.
          2    1    3    3  502    0  0.20736945948E+02  0.16525022196E+02 -0.23806306953E+02  0.35634779873E+02  0.00000000000E+00 0. -1.
         -1    1    3    3    0  502 -0.11127980325E+02  0.20650261302E+03 -0.37346100504E+03  0.42689610377E+03  0.00000000000E+00 0.  1.
         11    1    5    5    0    0  0.19883867542E+03 -0.16457229165E+03 -0.42425901312E+02  0.26157372789E+03  0.00000000000E+00 0.  1.
        -11    1    5    5    0    0  0.13828347146E+03 -0.17970872397E+03  0.32447341505E+02  0.22906412622E+03  0.00000000000E+00 0. -1.
          4    1    6    6  503    0 -0.12215068628E+03  0.45567482036E+02 -0.16298388091E+03  0.20871255595E+03  0.00000000000E+00 0. -1.
         -4    1    6    6    0  503 -0.22458042623E+03  0.75685898366E+02 -0.13108671375E+03  0.27082918893E+03  0.00000000000E+00 0.  1.
<mgrwt>
<rscale>  0 0.12493256E+04</rscale>
<asrwt>0</asrwt>
<pdfrwt beam="1">  1        2 0.56261079E-01 0.12493256E+04</pdfrwt>
<pdfrwt beam="2">  1       -1 0.16415592E+00 0.12493256E+04</pdfrwt>
<totfact> 0.26933317E+01</totfact>
</mgrwt>
</event>
<event>
12    6  0.1647231E-007  0.1809898E+04  0.7818608E-02  0.8701054E-01
         -1   -1    0    0    0  501 -0.00000000000E+00  0.00000000000E+00  0.12435394449E+04  0.12435394449E+04  0.00000000000E+00 0.  1.
          2   -1    0    0  501    0  0.00000000000E+00 -0.00000000000E+00 -0.65854952894E+03  0.65854952894E+03  0.00000000000E+00 0. -1.
         24    2    1    2    0    0 -0.25476743135E+03  0.61003551221E+03  0.35843888723E+03  0.75608663186E+03  0.78350422807E+02 0.  0.
        254    2    1    2    0    0  0.25476743135E+03 -0.61003551221E+03  0.22655102877E+03  0.11460023420E+04  0.90826550581E+03 0.  0.
         23    2    4    4    0    0  0.53724718835E+03 -0.61653061197E+03  0.19672441960E+03  0.84721443577E+03  0.10162315692E+03 0.  0.
         23    2    4    4    0    0 -0.28247975700E+03  0.64950997566E+01  0.29826609176E+02  0.29878790625E+03  0.92453160428E+02 0.  0.
          2    1    3    3  502    0 -0.22400321697E+03  0.56011767471E+03  0.30167431017E+03  0.67447508490E+03  0.00000000000E+00 0. -1.
         -1    1    3    3    0  502 -0.30764214387E+02  0.49917837504E+02  0.56764577063E+02  0.81611546959E+02  0.00000000000E+00 0.  1.
         11    1    5    5    0    0  0.12202241177E+03 -0.20994492167E+03  0.63642810969E+02  0.25103136556E+03  0.00000000000E+00 0. -1.
        -11    1    5    5    0    0  0.41522477658E+03 -0.40658569030E+03  0.13308160863E+03  0.59618307021E+03  0.00000000000E+00 0.  1.
          3    1    6    6  503    0 -0.17580452462E+02  0.25991402763E+01  0.28819071595E+02  0.33858037842E+02  0.00000000000E+00 0. -1.
         -3    1    6    6    0  503 -0.26489930454E+03  0.38959594803E+01  0.10075375812E+01  0.26492986841E+03  0.00000000000E+00 0.  1.
<mgrwt>
<rscale>  0 0.18098976E+04</rscale>
<asrwt>0</asrwt>
<pdfrwt beam="1">  1        2 0.10131531E+00 0.18098976E+04</pdfrwt>
<pdfrwt beam="2">  1       -1 0.19131376E+00 0.18098976E+04</pdfrwt>
<totfact> 0.82429133E+00</totfact>
</mgrwt>
</event>
<event>
12    6  0.1647231E-007  0.1162076E+04  0.7818608E-02  0.9146714E-01
         -1   -1    0    0    0  501 -0.00000000000E+00  0.00000000000E+00  0.10801392515E+03  0.10801392515E+03  0.00000000000E+00 0.  1.
          2   -1    0    0  501    0  0.00000000000E+00 -0.00000000000E+00 -0.31255715790E+04  0.31255715790E+04  0.00000000000E+00 0. -1.
         24    2    1    2    0    0 -0.15384306851E+03  0.10797157879E+03 -0.29512322885E+03  0.35934791440E+03  0.81900255335E+02 0.  0.
        254    2    1    2    0    0  0.15384306851E+03 -0.10797157879E+03 -0.27224344250E+04  0.28742375898E+04  0.90236742647E+03 0.  0.
         23    2    4    4    0    0  0.29454451423E+03  0.18339484974E+03 -0.44298071718E+03  0.57001285917E+03  0.91063725232E+02 0.  0.
         23    2    4    4    0    0 -0.14070144573E+03 -0.29136642853E+03 -0.22794537078E+04  0.23042247306E+04  0.94080340158E+02 0.  0.
          2    1    3    3  502    0 -0.14697705367E+02  0.46939367590E+02 -0.10515657115E+03  0.11609147785E+03  0.00000000000E+00 0. -1.
         -3    1    3    3    0  502 -0.13914536314E+03  0.61032211201E+02 -0.18996665770E+03  0.24325643655E+03  0.00000000000E+00 0.  1.
         11    1    5    5    0    0  0.15958282134E+03  0.51558555559E+02 -0.17611007134E+03  0.24318659245E+03  0.00000000000E+00 0.  1.
        -11    1    5    5    0    0  0.13496169289E+03  0.13183629418E+03 -0.26687064583E+03  0.32682626672E+03  0.00000000000E+00 0. -1.
          3    1    6    6  503    0 -0.14552371420E+02 -0.11372756532E+03 -0.61790838528E+03  0.62845564938E+03  0.00000000000E+00 0. -1.
         -3    1    6    6    0  503 -0.12614907431E+03 -0.17763886322E+03 -0.16615453225E+04  0.16757690812E+04  0.00000000000E+00 0.  1.
<mgrwt>
<rscale>  0 0.11620762E+04</rscale>
<asrwt>0</asrwt>
<pdfrwt beam="1">  1        2 0.48085708E+00 0.11620762E+04</pdfrwt>
<pdfrwt beam="2">  1       -1 0.16617530E-01 0.11620762E+04</pdfrwt>
<totfact> 0.46280162E+01</totfact>
</mgrwt>
</event>
<event>
12    6  0.1647231E-007  0.1238917E+04  0.7818608E-02  0.9079459E-01
         -1   -1    0    0    0  501 -0.00000000000E+00  0.00000000000E+00  0.39952575600E+03  0.39952575600E+03  0.00000000000E+00 0.  1.
          2   -1    0    0  501    0  0.00000000000E+00 -0.00000000000E+00 -0.96046036574E+03  0.96046036574E+03  0.00000000000E+00 0. -1.
         24    2    1    2    0    0  0.29546716377E+02  0.45555718784E+01  0.17773305135E+03  0.19796321686E+03  0.81894053528E+02 0.  0.
        254    2    1    2    0    0 -0.29546716377E+02 -0.45555718784E+01 -0.73866766109E+03  0.11620229049E+04  0.89653419134E+03 0.  0.
         23    2    4    4    0    0 -0.42916782459E+03  0.13665363057E+03 -0.43654499661E+03  0.63397040562E+03  0.92128739920E+02 0.  0.
         23    2    4    4    0    0  0.39962110822E+03 -0.14120920245E+03 -0.30212266448E+03  0.52805249926E+03  0.89018360980E+02 0.  0.
          4    1    3    3  502    0 -0.65330545655E+01 -0.32389406804E+02  0.93437903959E+02  0.99108003568E+02  0.00000000000E+00 0. -1.
         -3    1    3    3    0  502  0.36079770942E+02  0.36944978682E+02  0.84295147396E+02  0.98855213295E+02  0.00000000000E+00 0.  1.
         11    1    5    5    0    0 -0.25494693532E+03  0.41585611881E+02 -0.21103378998E+03  0.33356043449E+03  0.00000000000E+00 0. -1.
        -11    1    5    5    0    0 -0.17422088928E+03  0.95068018693E+02 -0.22551120663E+03  0.30040997113E+03  0.00000000000E+00 0.  1.
          3    1    6    6  503    0  0.39975667915E+03 -0.14796245624E+03 -0.29620082627E+03  0.51906957190E+03  0.00000000000E+00 0. -1.
         -3    1    6    6    0  503 -0.13557093881E+00  0.67532537883E+01 -0.59218382087E+01  0.89829273613E+01  0.00000000000E+00 0.  1.
<mgrwt>
<rscale>  0 0.12389167E+04</rscale>
<asrwt>0</asrwt>
<pdfrwt beam="1">  1        2 0.14776313E+00 0.12389167E+04</pdfrwt>
<pdfrwt beam="2">  1       -1 0.61465501E-01 0.12389167E+04</pdfrwt>
<totfact> 0.80563689E+01</totfact>
</mgrwt>
</event>
<event>
12    6  0.1647231E-007  0.1622420E+04  0.7818608E-02  0.8806892E-01
         -1   -1    0    0    0  501 -0.00000000000E+00  0.00000000000E+00  0.43214612912E+03  0.43214612912E+03  0.00000000000E+00 0.  1.
          2   -1    0    0  501    0  0.00000000000E+00 -0.00000000000E+00 -0.15227763521E+04  0.15227763521E+04  0.00000000000E+00 0. -1.
         24    2    1    2    0    0 -0.43802048920E+03 -0.12218587717E+03 -0.76425319766E+03  0.89309948401E+03  0.82172992319E+02 0.  0.
        254    2    1    2    0    0  0.43802048920E+03  0.12218587717E+03 -0.32637702527E+03  0.10618229972E+04  0.90230525718E+03 0.  0.
         23    2    4    4    0    0 -0.24492172570E+03 -0.10410288444E+03 -0.49965972051E+02  0.28557923370E+03  0.90746008663E+02 0.  0.
         23    2    4    4    0    0  0.68294221490E+03  0.22628876162E+03 -0.27641105322E+03  0.77624376346E+03  0.92383101476E+02 0.  0.
          2    1    3    3  502    0 -0.42953497613E+03 -0.11462215761E+03 -0.76089089414E+03  0.88124541844E+03  0.00000000000E+00 0. -1.
         -1    1    3    3    0  502 -0.84855130657E+01 -0.75637195647E+01 -0.33623035251E+01  0.11854065574E+02  0.00000000000E+00 0.  1.
         11    1    5    5    0    0 -0.11370307323E+03 -0.61232473236E+02 -0.68684747461E+02  0.14627166224E+03  0.00000000000E+00 0. -1.
        -11    1    5    5    0    0 -0.13121865248E+03 -0.42870411209E+02  0.18718775410E+02  0.13930757147E+03  0.00000000000E+00 0.  1.
          3    1    6    6  503    0  0.54207151532E+03  0.20618123234E+03 -0.19262705320E+03  0.61111161821E+03  0.00000000000E+00 0. -1.
         -3    1    6    6    0  503  0.14087069958E+03  0.20107529283E+02 -0.83784000026E+02  0.16513214525E+03  0.00000000000E+00 0.  1.
<mgrwt>
<rscale>  0 0.16224203E+04</rscale>
<asrwt>0</asrwt>
<pdfrwt beam="1">  1        2 0.23427329E+00 0.16224203E+04</pdfrwt>
<pdfrwt beam="2">  1       -1 0.66484019E-01 0.16224203E+04</pdfrwt>
<totfact> 0.30815061E+01</totfact>
</mgrwt>
</event>
<event>
12    6  0.1647231E-007  0.1237600E+04  0.7818608E-02  0.9080568E-01
          4   -1    0    0  501    0  0.00000000000E+00  0.00000000000E+00  0.18777105069E+03  0.18777105069E+03  0.00000000000E+00 0. -1.
         -3   -1    0    0    0  501 -0.00000000000E+00 -0.00000000000E+00 -0.20392563698E+04  0.20392563698E+04  0.00000000000E+00 0.  1.
         24    2    1    2    0    0  0.95093096782E+02  0.18617504152E+03 -0.77364547848E+03  0.80522300353E+03  0.78440524615E+02 0.  0.
        254    2    1    2    0    0 -0.95093096782E+02 -0.18617504152E+03 -0.10778398406E+04  0.14218044170E+04  0.90337436032E+03 0.  0.
         23    2    4    4    0    0 -0.39658299676E+03 -0.34856076328E+03 -0.83369777088E+03  0.99096316637E+03  0.90461842370E+02 0.  0.
         23    2    4    4    0    0  0.30148989997E+03  0.16238572176E+03 -0.24414206976E+03  0.43084125058E+03  0.93560411296E+02 0.  0.
          4    1    3    3  502    0  0.58564156574E+02  0.36044237332E+02 -0.23513522904E+03  0.24498474119E+03  0.00000000000E+00 0. -1.
         -3    1    3    3    0  502  0.36528940208E+02  0.15013080419E+03 -0.53851024944E+03  0.56023826235E+03  0.00000000000E+00 0.  1.
         11    1    5    5    0    0 -0.26670688602E+03 -0.22088705152E+03 -0.46548393807E+03  0.58017148257E+03  0.00000000000E+00 0.  1.
        -11    1    5    5    0    0 -0.12987611073E+03 -0.12767371176E+03 -0.36821383280E+03  0.41079168380E+03  0.00000000000E+00 0. -1.
          4    1    6    6  503    0  0.80710449858E+02  0.26768077457E+02 -0.17976182228E+02  0.86912886355E+02  0.00000000000E+00 0. -1.
         -4    1    6    6    0  503  0.22077945012E+03  0.13561764430E+03 -0.22616588753E+03  0.34392836423E+03  0.00000000000E+00 0.  1.
<mgrwt>
<rscale>  0 0.12375998E+04</rscale>
<asrwt>0</asrwt>
<pdfrwt beam="1">  1        4 0.28887853E-01 0.12375998E+04</pdfrwt>
<pdfrwt beam="2">  1       -3 0.31373176E+00 0.12375998E+04</pdfrwt>
<totfact> 0.83982344E-01</totfact>
</mgrwt>
</event>
<event>
12    6  0.1647231E-007  0.2420899E+04  0.7818608E-02  0.8431720E-01
          2   -1    0    0  501    0  0.00000000000E+00  0.00000000000E+00  0.24193101580E+04  0.24193101580E+04  0.00000000000E+00 0. -1.
         -1   -1    0    0    0  501 -0.00000000000E+00 -0.00000000000E+00 -0.60562224808E+03  0.60562224808E+03  0.00000000000E+00 0.  1.
         24    2    1    2    0    0  0.43788066321E+03 -0.65877665607E+03 -0.64545706283E+02  0.79699294176E+03  0.72838473533E+02 0.  0.
        254    2    1    2    0    0 -0.43788066321E+03  0.65877665607E+03  0.18782336162E+04  0.22279394643E+04  0.90012586999E+03 0.  0.
         23    2    4    4    0    0 -0.22955640402E+02  0.75593003483E+03  0.11524612857E+04  0.13814831575E+04  0.91496012836E+02 0.  0.
         23    2    4    4    0    0 -0.41492502280E+03 -0.97153378764E+02  0.72577233047E+03  0.84645630682E+03  0.90228876255E+02 0.  0.
          2    1    3    3  502    0  0.19602801302E+03 -0.23120044008E+03 -0.27340594324E+02  0.30434870376E+03  0.00000000000E+00 0. -1.
         -1    1    3    3    0  502  0.24185265019E+03 -0.42757621598E+03 -0.37205111960E+02  0.49264423800E+03  0.00000000000E+00 0.  1.
         11    1    5    5    0    0  0.22159863275E+02  0.61026927092E+02  0.84898888848E+02  0.10687921546E+03  0.00000000000E+00 0. -1.
        -11    1    5    5    0    0 -0.45115503677E+02  0.69490310774E+03  0.10675623968E+04  0.12746039420E+04  0.00000000000E+00 0.  1.
          4    1    6    6  503    0 -0.81520428678E+01  0.84093971272E+01  0.44315436061E+02  0.45837011642E+02  0.00000000000E+00 0. -1.
         -4    1    6    6    0  503 -0.40677297994E+03 -0.10556277589E+03  0.68145689441E+03  0.80061929517E+03  0.00000000000E+00 0.  1.
<mgrwt>
<rscale>  0 0.24208991E+04</rscale>
<asrwt>0</asrwt>
<pdfrwt beam="1">  1        2 0.37220156E+00 0.24208991E+04</pdfrwt>
<pdfrwt beam="2">  1       -1 0.93172655E-01 0.24208991E+04</pdfrwt>
<totfact> 0.44253802E+00</totfact>
</mgrwt>
</event>
<event>
12    6  0.1647231E-007  0.1463448E+04  0.7818608E-02  0.8909130E-01
          2   -1    0    0  501    0  0.00000000000E+00  0.00000000000E+00  0.11655380212E+04  0.11655380212E+04  0.00000000000E+00 0. -1.
         -1   -1    0    0    0  501 -0.00000000000E+00 -0.00000000000E+00 -0.45937568153E+03  0.45937568153E+03  0.00000000000E+00 0.  1.
         24    2    1    2    0    0  0.33885973887E+03 -0.18561587106E+03  0.46142698703E+03  0.60767452337E+03  0.84108785369E+02 0.  0.
        254    2    1    2    0    0 -0.33885973887E+03  0.18561587106E+03  0.24473535266E+03  0.10172391794E+04  0.90862587516E+03 0.  0.
         23    2    4    4    0    0  0.67518877237E+02  0.10089444916E+03 -0.29417691144E+03  0.33137838380E+03  0.92374722572E+02 0.  0.
         23    2    4    4    0    0 -0.40637861610E+03  0.84721421903E+02  0.53891226411E+03  0.68586079558E+03  0.87506020124E+02 0.  0.
          4    1    3    3  502    0  0.32464121413E+03 -0.18506727969E+03  0.41192945672E+03  0.55617235929E+03  0.00000000000E+00 0. -1.
         -3    1    3    3    0  502  0.14218524735E+02 -0.54859137771E+00  0.49497530309E+02  0.51502164080E+02  0.00000000000E+00 0.  1.
         11    1    5    5    0    0  0.18192311573E+02  0.26726649202E+02 -0.10418034150E+02  0.33967770216E+02  0.00000000000E+00 0.  1.
        -11    1    5    5    0    0  0.49326565664E+02  0.74167799960E+02 -0.28375887729E+03  0.29741061359E+03  0.00000000000E+00 0. -1.
          4    1    6    6  503    0 -0.37233546565E+03  0.51571092900E+02  0.46402458681E+03  0.59717007105E+03  0.00000000000E+00 0. -1.
         -4    1    6    6    0  503 -0.34043150454E+02  0.33150329004E+02  0.74887677300E+02  0.88690724528E+02  0.00000000000E+00 0.  1.
<mgrwt>
<rscale>  0 0.14634477E+04</rscale>
<asrwt>0</asrwt>
<pdfrwt beam="1">  1        2 0.17931354E+00 0.14634477E+04</pdfrwt>
<pdfrwt beam="2">  1       -1 0.70673182E-01 0.14634477E+04</pdfrwt>
<totfact> 0.44405333E+01</totfact>
</mgrwt>
</event>
<event>
12    6  0.1647231E-007  0.1884286E+04  0.7818608E-02  0.8662718E-01
         -1   -1    0    0    0  501 -0.00000000000E+00  0.00000000000E+00  0.25384510303E+03  0.25384510303E+03  0.00000000000E+00 0.  1.
          2   -1    0    0  501    0  0.00000000000E+00 -0.00000000000E+00 -0.34967505332E+04  0.34967505332E+04  0.00000000000E+00 0. -1.
         24    2    1    2    0    0  0.27968148494E+03  0.65420536166E+03 -0.11145681388E+04  0.13252942328E+04  0.89085796529E+02 0.  0.
        254    2    1    2    0    0 -0.27968148494E+03 -0.65420536166E+03 -0.21283372914E+04  0.24253014035E+04  0.91981567914E+03 0.  0.
         23    2    4    4    0    0 -0.26635423004E+03 -0.19648944015E+03 -0.12149971148E+03  0.36442129896E+03  0.92130490551E+02 0.  0.
         23    2    4    4    0    0 -0.13327254898E+02 -0.45771592151E+03 -0.20068375799E+04  0.20608801045E+04  0.10073853580E+03 0.  0.
          4    1    3    3  502    0  0.11477479942E+03  0.16906659265E+03 -0.33505332326E+03  0.39245062971E+03  0.00000000000E+00 0. -1.
         -3    1    3    3    0  502  0.16490668553E+03  0.48513876901E+03 -0.77951481555E+03  0.93284360307E+03  0.00000000000E+00 0.  1.
         11    1    5    5    0    0 -0.13453148409E+03 -0.65121864441E+02 -0.15548068906E+02  0.15027082181E+03  0.00000000000E+00 0. -1.
        -11    1    5    5    0    0 -0.13182274595E+03 -0.13136757571E+03 -0.10595164257E+03  0.21415047715E+03  0.00000000000E+00 0.  1.
          1    1    6    6  503    0 -0.20444183112E+01 -0.27223184836E+03 -0.14001584423E+04  0.14263793403E+04  0.00000000000E+00 0. -1.
         -1    1    6    6    0  503 -0.11282836587E+02 -0.18548407315E+03 -0.60667913761E+03  0.63450076423E+03  0.00000000000E+00 0.  1.
<mgrwt>
<rscale>  0 0.18842855E+04</rscale>
<asrwt>0</asrwt>
<pdfrwt beam="1">  1        2 0.53796162E+00 0.18842855E+04</pdfrwt>
<pdfrwt beam="2">  1       -1 0.39053093E-01 0.18842855E+04</pdfrwt>
<totfact> 0.55907839E+00</totfact>
</mgrwt>
</event>
<event>
12    6  0.1647231E-007  0.2056779E+04  0.7818608E-02  0.8580525E-01
          2   -1    0    0  501    0  0.00000000000E+00  0.00000000000E+00  0.93092822230E+03  0.93092822230E+03  0.00000000000E+00 0. -1.
         -1   -1    0    0    0  501 -0.00000000000E+00 -0.00000000000E+00 -0.11360537070E+04  0.11360537070E+04  0.00000000000E+00 0.  1.
         24    2    1    2    0    0 -0.51087050455E+03  0.21523020026E+03 -0.70422444587E+03  0.90006071192E+03  0.82852299061E+02 0.  0.
        254    2    1    2    0    0  0.51087050455E+03 -0.21523020026E+03  0.49909896122E+03  0.11669212173E+04  0.89738099091E+03 0.  0.
         23    2    4    4    0    0  0.29909827304E+03  0.27794924252E+02 -0.21322392043E+03  0.37980259965E+03  0.92483726716E+02 0.  0.
         23    2    4    4    0    0  0.21177223151E+03 -0.24302512451E+03  0.71232288165E+03  0.78711861768E+03  0.90791747424E+02 0.  0.
          4    1    3    3  502    0 -0.25465720021E+03  0.13536687520E+03 -0.41650146325E+03  0.50660433221E+03  0.00000000000E+00 0. -1.
         -3    1    3    3    0  502 -0.25621330434E+03  0.79863325054E+02 -0.28772298262E+03  0.39345637971E+03  0.00000000000E+00 0.  1.
         11    1    5    5    0    0  0.20729058259E+02  0.11010420520E+02 -0.53508851406E+02  0.58430474883E+02  0.00000000000E+00 0. -1.
        -11    1    5    5    0    0  0.27836921478E+03  0.16784503732E+02 -0.15971506903E+03  0.32137212477E+03  0.00000000000E+00 0.  1.
          4    1    6    6  503    0  0.14251967841E+03 -0.17481919685E+03  0.39073671340E+03  0.45116381673E+03  0.00000000000E+00 0. -1.
         -4    1    6    6    0  503  0.69252553100E+02 -0.68205927658E+02  0.32158616825E+03  0.33595480096E+03  0.00000000000E+00 0.  1.
<mgrwt>
<rscale>  0 0.20567785E+04</rscale>
<asrwt>0</asrwt>
<pdfrwt beam="1">  1        2 0.14321973E+00 0.20567785E+04</pdfrwt>
<pdfrwt beam="2">  1       -1 0.17477749E+00 0.20567785E+04</pdfrwt>
<totfact> 0.66950911E+00</totfact>
</mgrwt>
</event>
<event>
12    6  0.1647231E-007  0.1648655E+04  0.7818608E-02  0.8791203E-01
          2   -1    0    0  501    0  0.00000000000E+00  0.00000000000E+00  0.28003726163E+03  0.28003726163E+03  0.00000000000E+00 0. -1.
         -1   -1    0    0    0  501 -0.00000000000E+00 -0.00000000000E+00 -0.24265179590E+04  0.24265179590E+04  0.00000000000E+00 0.  1.
         24    2    1    2    0    0  0.39709048688E+03 -0.16874990691E+03 -0.13861536755E+04  0.14539534020E+04  0.80006857900E+02 0.  0.
        254    2    1    2    0    0 -0.39709048688E+03  0.16874990691E+03 -0.76032702185E+03  0.12526018186E+04  0.89708235404E+03 0.  0.
         23    2    4    4    0    0 -0.27882302220E+03  0.37693226839E+03 -0.85495164013E+03  0.97922035965E+03  0.90055500246E+02 0.  0.
         23    2    4    4    0    0 -0.11826746468E+03 -0.20818236148E+03  0.94624618279E+02  0.27338145895E+03  0.91959310994E+02 0.  0.
          4    1    3    3  502    0  0.11293723662E+03 -0.87273234598E+02 -0.41993468148E+03  0.44352742147E+03  0.00000000000E+00 0. -1.
         -3    1    3    3    0  502  0.28415325026E+03 -0.81476672308E+02 -0.96621899404E+03  0.10104259806E+04  0.00000000000E+00 0.  1.
         11    1    5    5    0    0 -0.24124197221E+03  0.28647778743E+03 -0.61524608901E+03  0.72027422686E+03  0.00000000000E+00 0.  1.
        -11    1    5    5    0    0 -0.37581049992E+02  0.90454480953E+02 -0.23970555113E+03  0.25894613278E+03  0.00000000000E+00 0. -1.
          3    1    6    6  503    0 -0.10595958316E+02 -0.88601972002E+00 -0.12489081534E+02  0.16402332796E+02  0.00000000000E+00 0. -1.
         -3    1    6    6    0  503 -0.10767150636E+03 -0.20729634176E+03  0.10711369981E+03  0.25697912615E+03  0.00000000000E+00 0.  1.
<mgrwt>
<rscale>  0 0.16486545E+04</rscale>
<asrwt>0</asrwt>
<pdfrwt beam="1">  1        2 0.43082656E-01 0.16486545E+04</pdfrwt>
<pdfrwt beam="2">  1       -1 0.37331045E+00 0.16486545E+04</pdfrwt>
<totfact> 0.14137029E+00</totfact>
</mgrwt>
</event>
<event>
12    6  0.1647231E-007  0.2112935E+04  0.7818608E-02  0.8555567E-01
         -1   -1    0    0    0  501 -0.00000000000E+00  0.00000000000E+00  0.25961888643E+04  0.25961888643E+04  0.00000000000E+00 0.  1.
          2   -1    0    0  501    0  0.00000000000E+00 -0.00000000000E+00 -0.42990836878E+03  0.42990836878E+03  0.00000000000E+00 0. -1.
         24    2    1    2    0    0 -0.17373122694E+03 -0.17822526831E+03 -0.29524606169E+03  0.39435825240E+03  0.80008804610E+02 0.  0.
        254    2    1    2    0    0  0.17373122694E+03  0.17822526831E+03  0.24615265572E+04  0.26317389807E+04  0.89721250836E+03 0.  0.
         23    2    4    4    0    0  0.13551513205E+03  0.70955952890E+02  0.24787482464E+04  0.24848193006E+04  0.82066979889E+02 0.  0.
         23    2    4    4    0    0  0.38216094894E+02  0.10726931542E+03 -0.17221689248E+02  0.14691968007E+03  0.91222967894E+02 0.  0.
          2    1    3    3  502    0 -0.15419973650E+03 -0.17966483112E+03 -0.24632230856E+03  0.34166019664E+03  0.00000000000E+00 0. -1.
         -1    1    3    3    0  502 -0.19531490444E+02  0.14395628134E+01 -0.48923753129E+02  0.52698055755E+02  0.00000000000E+00 0.  1.
         11    1    5    5    0    0  0.10419724943E+03  0.13434704256E+02  0.17422279319E+04  0.17453927136E+04  0.00000000000E+00 0. -1.
        -11    1    5    5    0    0  0.31317882619E+02  0.57521248634E+02  0.73652031450E+03  0.73942658695E+03  0.00000000000E+00 0.  1.
          2    1    6    6  503    0  0.48916457125E+01  0.10264406545E+03 -0.35389632558E+02  0.10868375436E+03  0.00000000000E+00 0. -1.
         -2    1    6    6    0  503  0.33324449182E+02  0.46252499703E+01  0.18167943310E+02  0.38235925707E+02  0.00000000000E+00 0.  1.
<mgrwt>
<rscale>  0 0.21129348E+04</rscale>
<asrwt>0</asrwt>
<pdfrwt beam="1">  1        2 0.66139751E-01 0.21129348E+04</pdfrwt>
<pdfrwt beam="2">  1       -1 0.39941366E+00 0.21129348E+04</pdfrwt>
<totfact> 0.55711871E-01</totfact>
</mgrwt>
</event>
<event>
12    6  0.1647231E-007  0.1882339E+04  0.7818608E-02  0.8663698E-01
         -1   -1    0    0    0  501 -0.00000000000E+00  0.00000000000E+00  0.36311356201E+03  0.36311356201E+03  0.00000000000E+00 0.  1.
          2   -1    0    0  501    0  0.00000000000E+00 -0.00000000000E+00 -0.24394575336E+04  0.24394575336E+04  0.00000000000E+00 0. -1.
         24    2    1    2    0    0 -0.19158361110E+03 -0.58009073878E+03 -0.22296853521E+03  0.65523798197E+03  0.80076838402E+02 0.  0.
        254    2    1    2    0    0  0.19158361110E+03  0.58009073878E+03 -0.18533754364E+04  0.21473331136E+04  0.89600750416E+03 0.  0.
         23    2    4    4    0    0  0.75944621605E+02  0.79406187082E+03 -0.11927081548E+04  0.14374143895E+04  0.85472477346E+02 0.  0.
         23    2    4    4    0    0  0.11563898950E+03 -0.21397113203E+03 -0.66066728153E+03  0.70991872410E+03  0.91363650921E+02 0.  0.
          4    1    3    3  502    0 -0.41350243075E+02 -0.15500155674E+03 -0.95553598339E+02  0.18672390139E+03  0.00000000000E+00 0. -1.
         -3    1    3    3    0  502 -0.15023336803E+03 -0.42508918205E+03 -0.12741493688E+03  0.46851408058E+03  0.00000000000E+00 0.  1.
         11    1    5    5    0    0  0.89401361361E+02  0.60704201120E+03 -0.87991897374E+03  0.10727301651E+04  0.00000000000E+00 0. -1.
        -11    1    5    5    0    0 -0.13456739756E+02  0.18701985962E+03 -0.31278918110E+03  0.36468422443E+03  0.00000000000E+00 0.  1.
          2    1    6    6  503    0  0.11625082739E+03 -0.21806142540E+03 -0.59706841086E+03  0.64618552085E+03  0.00000000000E+00 0. -1.
         -2    1    6    6    0  503 -0.61183788826E+00  0.40902933684E+01 -0.63598870675E+02  0.63733203251E+02  0.00000000000E+00 0.  1.
<mgrwt>
<rscale>  0 0.18823391E+04</rscale>
<asrwt>0</asrwt>
<pdfrwt beam="1">  1        2 0.37530115E+00 0.18823391E+04</pdfrwt>
<pdfrwt beam="2">  1       -1 0.55863626E-01 0.18823391E+04</pdfrwt>
<totfact> 0.13068345E+01</totfact>
</mgrwt>
</event>
<event>
12    6  0.1647231E-007  0.3178182E+04  0.7818608E-02  0.8194603E-01
         -1   -1    0    0    0  501 -0.00000000000E+00  0.00000000000E+00  0.12507959535E+04  0.12507959535E+04  0.00000000000E+00 0.  1.
          2   -1    0    0  501    0  0.00000000000E+00 -0.00000000000E+00 -0.20188820705E+04  0.20188820705E+04  0.00000000000E+00 0. -1.
         24    2    1    2    0    0 -0.10286872628E+04  0.85163395476E+03 -0.97226698501E+03  0.16539733965E+04  0.82746773902E+02 0.  0.
        254    2    1    2    0    0  0.10286872628E+04 -0.85163395476E+03  0.20418086798E+03  0.16157046274E+04  0.88619057693E+03 0.  0.
         23    2    4    4    0    0  0.80747765639E+03 -0.22755555223E+03  0.37795690646E+03  0.92477262495E+03  0.92473184226E+02 0.  0.
         23    2    4    4    0    0  0.22120960645E+03 -0.62407840253E+03 -0.17377603848E+03  0.69093200248E+03  0.93709007118E+02 0.  0.
          4    1    3    3  502    0 -0.19222978953E+03  0.17060510595E+03 -0.22701007451E+03  0.34291685303E+03  0.00000000000E+00 0. -1.
         -3    1    3    3    0  502 -0.83645747331E+03  0.68102884881E+03 -0.74525691050E+03  0.13110565435E+04  0.00000000000E+00 0.  1.
         11    1    5    5    0    0  0.83321001668E+02 -0.47212620979E+01  0.15539468370E+02  0.84889072984E+02  0.00000000000E+00 0. -1.
        -11    1    5    5    0    0  0.72415665473E+03 -0.22283429013E+03  0.36241743809E+03  0.83988355197E+03  0.00000000000E+00 0.  1.
          4    1    6    6  503    0 -0.61660662328E+00 -0.30304194548E+02  0.83299599819E+01  0.31434259085E+02  0.00000000000E+00 0. -1.
         -4    1    6    6    0  503  0.22182621307E+03 -0.59377420798E+03 -0.18210599846E+03  0.65949774340E+03  0.00000000000E+00 0.  1.
<mgrwt>
<rscale>  0 0.31781816E+04</rscale>
<asrwt>0</asrwt>
<pdfrwt beam="1">  1        2 0.31059724E+00 0.31781816E+04</pdfrwt>
<pdfrwt beam="2">  1       -1 0.19243015E+00 0.31781816E+04</pdfrwt>
<totfact> 0.10631336E+00</totfact>
</mgrwt>
</event>
<event>
12    6  0.1647231E-007  0.2174875E+04  0.7818608E-02  0.8528959E-01
         -1   -1    0    0    0  501 -0.00000000000E+00  0.00000000000E+00  0.55049764608E+03  0.55049764608E+03  0.00000000000E+00 0.  1.
          2   -1    0    0  501    0  0.00000000000E+00 -0.00000000000E+00 -0.21480937807E+04  0.21480937807E+04  0.00000000000E+00 0. -1.
         24    2    1    2    0    0 -0.76759812685E+03 -0.25374805236E+03 -0.11902747444E+04  0.14409669216E+04  0.77696485125E+02 0.  0.
        254    2    1    2    0    0  0.76759812685E+03  0.25374805236E+03 -0.40732139030E+03  0.12576245052E+04  0.87299125001E+03 0.  0.
         23    2    4    4    0    0  0.12328543629E+03  0.45869725745E+03 -0.29474368945E+03  0.56619175352E+03  0.89982145399E+02 0.  0.
         23    2    4    4    0    0  0.64431269056E+03 -0.20494920509E+03 -0.11257770085E+03  0.69143275165E+03  0.90898247778E+02 0.  0.
          4    1    3    3  502    0 -0.64239630148E+02 -0.37340026403E+02 -0.14065401673E+03  0.15907407103E+03  0.00000000000E+00 0. -1.
         -3    1    3    3    0  502 -0.70335849670E+03 -0.21640802596E+03 -0.10496207276E+04  0.12818928506E+04  0.00000000000E+00 0.  1.
         11    1    5    5    0    0  0.11867239800E+03  0.28064977523E+03 -0.17221351520E+03  0.35000704165E+03  0.00000000000E+00 0.  1.
        -11    1    5    5    0    0  0.46130382912E+01  0.17804748222E+03 -0.12253017425E+03  0.21618471187E+03  0.00000000000E+00 0. -1.
          1    1    6    6  503    0  0.11641046151E+03 -0.76626039126E+01 -0.39415968141E+02  0.12314109628E+03  0.00000000000E+00 0. -1.
         -1    1    6    6    0  503  0.52790222905E+03 -0.19728660117E+03 -0.73161732705E+02  0.56829165537E+03  0.00000000000E+00 0.  1.
<mgrwt>
<rscale>  0 0.21748752E+04</rscale>
<asrwt>0</asrwt>
<pdfrwt beam="1">  1        2 0.33047597E+00 0.21748752E+04</pdfrwt>
<pdfrwt beam="2">  1       -1 0.84691945E-01 0.21748752E+04</pdfrwt>
<totfact> 0.79436503E+00</totfact>
</mgrwt>
</event>
<event>
12    6  0.1700091E-007  0.1270920E+04  0.7818608E-02  0.9052949E-01
         -1   -1    0    0    0  501 -0.00000000000E+00  0.00000000000E+00  0.34001375370E+03  0.34001375370E+03  0.00000000000E+00 0.  1.
          2   -1    0    0  501    0  0.00000000000E+00 -0.00000000000E+00 -0.11876266073E+04  0.11876266073E+04  0.00000000000E+00 0. -1.
         24    2    1    2    0    0 -0.27536379839E+02  0.12329534801E+03 -0.51890921322E+03  0.54018597845E+03  0.81080976160E+02 0.  0.
        254    2    1    2    0    0  0.27536379839E+02 -0.12329534801E+03 -0.32870364035E+03  0.98745438252E+03  0.92252917532E+03 0.  0.
         23    2    4    4    0    0 -0.27715360582E+03 -0.23631958293E+03 -0.48617714456E+03  0.61480939681E+03  0.94664206639E+02 0.  0.
         23    2    4    4    0    0  0.30468998565E+03  0.11302423491E+03  0.15747350422E+03  0.37264498571E+03  0.91956053683E+02 0.  0.
          4    1    3    3  502    0 -0.23367623640E+02  0.13373568500E+03 -0.50076097224E+03  0.51883796179E+03  0.00000000000E+00 0. -1.
         -3    1    3    3    0  502 -0.41687561989E+01 -0.10440336988E+02 -0.18148240979E+02  0.21348016660E+02  0.00000000000E+00 0.  1.
         11    1    5    5    0    0 -0.27759304180E+03 -0.22567360439E+03 -0.43833475190E+03  0.56579486326E+03  0.00000000000E+00 0. -1.
        -11    1    5    5    0    0  0.43943598047E+00 -0.10645978539E+02 -0.47842392667E+02  0.49014533550E+02  0.00000000000E+00 0.  1.
          3    1    6    6  503    0  0.30188161183E+03  0.92711625065E+02  0.15561022152E+03  0.35205467477E+03  0.00000000000E+00 0. -1.
         -3    1    6    6    0  503  0.28083738249E+01  0.20312609848E+02  0.18632826960E+01  0.20590310944E+02  0.00000000000E+00 0.  1.
<mgrwt>
<rscale>  0 0.12709200E+04</rscale>
<asrwt>0</asrwt>
<pdfrwt beam="1">  1        2 0.18271179E+00 0.12709200E+04</pdfrwt>
<pdfrwt beam="2">  1       -1 0.52309808E-01 0.12709200E+04</pdfrwt>
<totfact> 0.79404369E+01</totfact>
</mgrwt>
</event>
<event>
12    6  0.1647231E-007  0.3818952E+04  0.7818608E-02  0.8042100E-01
         -1   -1    0    0    0  501 -0.00000000000E+00  0.00000000000E+00  0.13068649843E+04  0.13068649843E+04  0.00000000000E+00 0.  1.
          2   -1    0    0  501    0  0.00000000000E+00 -0.00000000000E+00 -0.27899579379E+04  0.27899579379E+04  0.00000000000E+00 0. -1.
         24    2    1    2    0    0  0.17756477059E+04 -0.20700636944E+03 -0.47132480311E+03  0.18505196593E+04  0.80619644226E+02 0.  0.
        254    2    1    2    0    0 -0.17756477059E+04  0.20700636944E+03 -0.10117681505E+04  0.22463032629E+04  0.90908038472E+03 0.  0.
         23    2    4    4    0    0 -0.13959112301E+04  0.31073653917E+03 -0.11300243968E+04  0.18249994505E+04  0.92425635262E+02 0.  0.
         23    2    4    4    0    0 -0.37973647582E+03 -0.10373016974E+03  0.11825624621E+03  0.42130381236E+03  0.92480394482E+02 0.  0.
          4    1    3    3  502    0  0.43690558716E+03 -0.17488183532E+02 -0.12531397654E+03  0.45485813324E+03  0.00000000000E+00 0. -1.
         -3    1    3    3    0  502  0.13387421187E+04 -0.18951818590E+03 -0.34601082657E+03  0.13956615261E+04  0.00000000000E+00 0.  1.
         11    1    5    5    0    0 -0.10038068994E+04  0.22451071770E+03 -0.86465829861E+03  0.13437512147E+04  0.00000000000E+00 0.  1.
        -11    1    5    5    0    0 -0.39210433067E+03  0.86225821477E+02 -0.26536609814E+03  0.48124823581E+03  0.00000000000E+00 0. -1.
          1    1    6    6  503    0 -0.57352119324E+02 -0.35460966443E+02 -0.90505816086E+01  0.68034246961E+02  0.00000000000E+00 0. -1.
         -1    1    6    6    0  503 -0.32238435649E+03 -0.68269203294E+02  0.12730682782E+03  0.35326956540E+03  0.00000000000E+00 0.  1.
<mgrwt>
<rscale>  0 0.38189519E+04</rscale>
<asrwt>0</asrwt>
<pdfrwt beam="1">  1        2 0.42922430E+00 0.38189519E+04</pdfrwt>
<pdfrwt beam="2">  1       -1 0.20105615E+00 0.38189519E+04</pdfrwt>
<totfact> 0.31551720E-01</totfact>
</mgrwt>
</event>
<event>
12    6  0.1647231E-007  0.2944081E+04  0.7818608E-02  0.8259882E-01
          2   -1    0    0  501    0  0.00000000000E+00  0.00000000000E+00  0.14319585969E+04  0.14319585969E+04  0.00000000000E+00 0. -1.
         -1   -1    0    0    0  501 -0.00000000000E+00 -0.00000000000E+00 -0.15132444469E+04  0.15132444469E+04  0.00000000000E+00 0.  1.
         24    2    1    2    0    0  0.26753758526E+02 -0.18484611560E+03 -0.13566383253E+04  0.13717426081E+04  0.79538587964E+02 0.  0.
        254    2    1    2    0    0 -0.26753758526E+02  0.18484611560E+03  0.12753524753E+04  0.15734604357E+04  0.90242448797E+03 0.  0.
         23    2    4    4    0    0 -0.27765031042E+02  0.22833540092E+03 -0.41285768664E+02  0.25301509390E+03  0.96975103955E+02 0.  0.
         23    2    4    4    0    0  0.10112725160E+01 -0.43489285316E+02  0.13166382440E+04  0.13204453418E+04  0.90262365701E+02 0.  0.
          2    1    3    3  502    0 -0.40624783562E+01  0.70440881567E+01 -0.38107913303E+02  0.38965830732E+02  0.00000000000E+00 0. -1.
         -1    1    3    3    0  502  0.30816236882E+02 -0.19189020376E+03 -0.13185304120E+04  0.13327767773E+04  0.00000000000E+00 0.  1.
         11    1    5    5    0    0  0.49868378125E+01  0.17723199100E+02 -0.35270342813E+02  0.39786648764E+02  0.00000000000E+00 0. -1.
        -11    1    5    5    0    0 -0.32751868855E+02  0.21061220182E+03 -0.60154258516E+01  0.21322844514E+03  0.00000000000E+00 0.  1.
          3    1    6    6  503    0 -0.35747215171E+02 -0.46911569155E+01  0.84857998588E+03  0.84934554969E+03  0.00000000000E+00 0. -1.
         -3    1    6    6    0  503  0.36758487687E+02 -0.38798128401E+02  0.46805825810E+03  0.47109979214E+03  0.00000000000E+00 0.  1.
<mgrwt>
<rscale>  0 0.29440811E+04</rscale>
<asrwt>0</asrwt>
<pdfrwt beam="1">  1        2 0.22030132E+00 0.29440811E+04</pdfrwt>
<pdfrwt beam="2">  1       -1 0.23280684E+00 0.29440811E+04</pdfrwt>
<totfact> 0.12288042E+00</totfact>
</mgrwt>
</event>
<event>
12    6  0.1647231E-007  0.1352438E+04  0.7818608E-02  0.8988985E-01
         -1   -1    0    0    0  501 -0.00000000000E+00  0.00000000000E+00  0.26800017599E+03  0.26800017599E+03  0.00000000000E+00 0.  1.
          2   -1    0    0  501    0  0.00000000000E+00 -0.00000000000E+00 -0.17062382247E+04  0.17062382247E+04  0.00000000000E+00 0. -1.
         24    2    1    2    0    0  0.17471748404E+02  0.21420450762E+03 -0.90336657883E+03  0.93173521093E+03  0.76619152083E+02 0.  0.
        254    2    1    2    0    0 -0.17471748404E+02 -0.21420450762E+03 -0.53487146985E+03  0.10425031897E+04  0.86864064966E+03 0.  0.
         23    2    4    4    0    0 -0.27573444236E+03 -0.28697737670E+03  0.31392897682E+02  0.40940253076E+03  0.90771254956E+02 0.  0.
         23    2    4    4    0    0  0.25826269396E+03  0.72772869078E+02 -0.56626436753E+03  0.63310065896E+03  0.90363714371E+02 0.  0.
          2    1    3    3  502    0  0.20850157016E+02  0.15167593699E+03 -0.48173469299E+03  0.50547861808E+03  0.00000000000E+00 0. -1.
         -1    1    3    3    0  502 -0.33784086121E+01  0.62528570631E+02 -0.42163188584E+03  0.42625659285E+03  0.00000000000E+00 0.  1.
         11    1    5    5    0    0 -0.15826314961E+03 -0.20139367064E+03 -0.15709758291E+02  0.25661923468E+03  0.00000000000E+00 0. -1.
        -11    1    5    5    0    0 -0.11747129275E+03 -0.85583706055E+02  0.47102655972E+02  0.15278329608E+03  0.00000000000E+00 0.  1.
          3    1    6    6  503    0  0.11910023496E+02  0.30569006155E+02 -0.76786106472E+02  0.83501011635E+02  0.00000000000E+00 0. -1.
         -3    1    6    6    0  503  0.24635267046E+03  0.42203862924E+02 -0.48947826106E+03  0.54959964733E+03  0.00000000000E+00 0.  1.
<mgrwt>
<rscale>  0 0.13524380E+04</rscale>
<asrwt>0</asrwt>
<pdfrwt beam="1">  1        2 0.26249819E+00 0.13524380E+04</pdfrwt>
<pdfrwt beam="2">  1       -1 0.41230795E-01 0.13524380E+04</pdfrwt>
<totfact> 0.62355046E+01</totfact>
</mgrwt>
</event>
<event>
12    6  0.1647231E-007  0.2708536E+04  0.7818608E-02  0.8332241E-01
         -1   -1    0    0    0  501 -0.00000000000E+00  0.00000000000E+00  0.94559174298E+03  0.94559174298E+03  0.00000000000E+00 0.  1.
          2   -1    0    0  501    0  0.00000000000E+00 -0.00000000000E+00 -0.19395703636E+04  0.19395703636E+04  0.00000000000E+00 0. -1.
         24    2    1    2    0    0  0.46053656703E+03 -0.99172819549E+03 -0.98059573340E+03  0.14709234729E+04  0.80181839942E+02 0.  0.
        254    2    1    2    0    0 -0.46053656703E+03  0.99172819549E+03 -0.13382887206E+02  0.14142386337E+04  0.89681272739E+03 0.  0.
         23    2    4    4    0    0 -0.59376200925E+02 -0.15434953426E+03 -0.51631403833E+02  0.19602259602E+03  0.91704658152E+02 0.  0.
         23    2    4    4    0    0 -0.40116036610E+03  0.11460777298E+04  0.38248516626E+02  0.12182160377E+04  0.90352439989E+02 0.  0.
          4    1    3    3  502    0  0.31222212781E+03 -0.57917425310E+03 -0.58633885498E+03  0.88131647290E+03  0.00000000000E+00 0. -1.
         -3    1    3    3    0  502  0.14831443922E+03 -0.41255394239E+03 -0.39425687842E+03  0.58960700000E+03  0.00000000000E+00 0.  1.
         11    1    5    5    0    0 -0.47913014442E+01 -0.23775486312E+02 -0.48771914035E+02  0.54469532011E+02  0.00000000000E+00 0.  1.
        -11    1    5    5    0    0 -0.54584899481E+02 -0.13057404795E+03 -0.28594897983E+01  0.14155306401E+03  0.00000000000E+00 0. -1.
          3    1    6    6  503    0 -0.31994069147E+03  0.78865824299E+03  0.26847831688E+02  0.85150729671E+03  0.00000000000E+00 0. -1.
         -3    1    6    6    0  503 -0.81219674635E+02  0.35741948676E+03  0.11400684938E+02  0.36670874094E+03  0.00000000000E+00 0.  1.
<mgrwt>
<rscale>  0 0.27085359E+04</rscale>
<asrwt>0</asrwt>
<pdfrwt beam="1">  1        2 0.29839544E+00 0.27085359E+04</pdfrwt>
<pdfrwt beam="2">  1       -1 0.14547565E+00 0.27085359E+04</pdfrwt>
<totfact> 0.27273608E+00</totfact>
</mgrwt>
</event>
<event>
12    6  0.1647231E-007  0.1939777E+04  0.7818608E-02  0.8635306E-01
          2   -1    0    0  501    0  0.00000000000E+00  0.00000000000E+00  0.39762488675E+04  0.39762488675E+04  0.00000000000E+00 0. -1.
         -1   -1    0    0    0  501 -0.00000000000E+00 -0.00000000000E+00 -0.23657557593E+03  0.23657557593E+03  0.00000000000E+00 0.  1.
         24    2    1    2    0    0  0.27704916545E+03 -0.78189852449E+02  0.30404385173E+04  0.30551053296E+04  0.80822672374E+02 0.  0.
        254    2    1    2    0    0 -0.27704916545E+03  0.78189852449E+02  0.69923477428E+03  0.11577191138E+04  0.87664952170E+03 0.  0.
         23    2    4    4    0    0 -0.40526322928E+03  0.25368874636E+03  0.77117647353E+03  0.91203986866E+03  0.92235045669E+02 0.  0.
         23    2    4    4    0    0  0.12821406383E+03 -0.17549889391E+03 -0.71941699250E+02  0.24567924519E+03  0.89128982375E+02 0.  0.
          4    1    3    3  502    0  0.25648158628E+03 -0.88162651250E+02  0.29159702971E+04  0.29285556561E+04  0.00000000000E+00 0. -1.
         -3    1    3    3    0  502  0.20567579169E+02  0.99727988013E+01  0.12446822016E+03  0.12654967349E+03  0.00000000000E+00 0.  1.
         11    1    5    5    0    0 -0.34557184031E+03  0.17517933480E+03  0.63583160458E+03  0.74457338492E+03  0.00000000000E+00 0. -1.
        -11    1    5    5    0    0 -0.59691388970E+02  0.78509411565E+02  0.13534486895E+03  0.16746648373E+03  0.00000000000E+00 0.  1.
          4    1    6    6  503    0  0.13525920242E+03 -0.14426157492E+03 -0.78896024822E+02  0.21291086531E+03  0.00000000000E+00 0. -1.
         -4    1    6    6    0  503 -0.70451385865E+01 -0.31237318996E+02  0.69543255722E+01  0.32768379880E+02  0.00000000000E+00 0.  1.
<mgrwt>
<rscale>  0 0.19397767E+04</rscale>
<asrwt>0</asrwt>
<pdfrwt beam="1">  1        2 0.61173054E+00 0.19397767E+04</pdfrwt>
<pdfrwt beam="2">  1       -1 0.36396245E-01 0.19397767E+04</pdfrwt>
<totfact> 0.27794365E+00</totfact>
</mgrwt>
</event>
<event>
12    6  0.1647231E-007  0.1821277E+04  0.7818608E-02  0.8695066E-01
          2   -1    0    0  501    0  0.00000000000E+00  0.00000000000E+00  0.11697197236E+04  0.11697197236E+04  0.00000000000E+00 0. -1.
         -1   -1    0    0    0  501 -0.00000000000E+00 -0.00000000000E+00 -0.70894130679E+03  0.70894130679E+03  0.00000000000E+00 0.  1.
         24    2    1    2    0    0 -0.39460200210E+03  0.21129875947E+03  0.65041858855E+03  0.79306517195E+03  0.74499132915E+02 0.  0.
        254    2    1    2    0    0  0.39460200210E+03 -0.21129875947E+03 -0.18964017170E+03  0.10855958585E+04  0.97066836119E+03 0.  0.
         23    2    4    4    0    0  0.59022144060E+02  0.36770812513E+03 -0.13561420389E+03  0.40742813834E+03  0.94411846905E+02 0.  0.
         23    2    4    4    0    0  0.33557985804E+03 -0.57900688460E+03 -0.54025967813E+02  0.67816772014E+03  0.95550185225E+02 0.  0.
          4    1    3    3  502    0 -0.38340791094E+03  0.18607709125E+03  0.61064535752E+03  0.74465701012E+03  0.00000000000E+00 0. -1.
         -3    1    3    3    0  502 -0.11194091161E+02  0.25221668221E+02  0.39773231033E+02  0.48408161828E+02  0.00000000000E+00 0.  1.
         11    1    5    5    0    0  0.70786960174E+02  0.14919285359E+03 -0.51357845776E+02  0.17293620100E+03  0.00000000000E+00 0. -1.
        -11    1    5    5    0    0 -0.11764816113E+02  0.21851527154E+03 -0.84256358115E+02  0.23449193734E+03  0.00000000000E+00 0.  1.
          1    1    6    6  503    0  0.13728919311E+03 -0.15711808013E+03 -0.35403940031E+02  0.21163140745E+03  0.00000000000E+00 0. -1.
         -1    1    6    6    0  503  0.19829066493E+03 -0.42188880447E+03 -0.18622027782E+02  0.46653631269E+03  0.00000000000E+00 0.  1.
<mgrwt>
<rscale>  0 0.18212772E+04</rscale>
<asrwt>0</asrwt>
<pdfrwt beam="1">  1        2 0.17995688E+00 0.18212772E+04</pdfrwt>
<pdfrwt beam="2">  1       -1 0.10906789E+00 0.18212772E+04</pdfrwt>
<totfact> 0.16531728E+01</totfact>
</mgrwt>
</event>
<event>
12    6  0.1647231E-007  0.1864691E+04  0.7818608E-02  0.8672634E-01
          2   -1    0    0  501    0  0.00000000000E+00  0.00000000000E+00  0.13845015101E+04  0.13845015101E+04  0.00000000000E+00 0. -1.
         -1   -1    0    0    0  501 -0.00000000000E+00 -0.00000000000E+00 -0.62785633956E+03  0.62785633956E+03  0.00000000000E+00 0.  1.
         24    2    1    2    0    0 -0.30675836883E+03  0.16941833990E+03  0.96069608003E+03  0.10258486105E+04  0.81394980407E+02 0.  0.
        254    2    1    2    0    0  0.30675836883E+03 -0.16941833990E+03 -0.20405090953E+03  0.98650923906E+03  0.89931108874E+03 0.  0.
         23    2    4    4    0    0  0.45789435965E+03 -0.13634637264E+03 -0.46115999342E+03  0.67019594033E+03  0.90755060311E+02 0.  0.
         23    2    4    4    0    0 -0.15113599082E+03 -0.33071967258E+02  0.25710908389E+03  0.31631329873E+03  0.10006587429E+03 0.  0.
          2    1    3    3  502    0 -0.26858593344E+03  0.16925134952E+03  0.89779025394E+03  0.95226664492E+03  0.00000000000E+00 0. -1.
         -1    1    3    3    0  502 -0.38172435398E+02  0.16699037992E+00  0.62905826089E+02  0.73581965630E+02  0.00000000000E+00 0.  1.
         11    1    5    5    0    0  0.43116597730E+03 -0.14500463802E+03 -0.41284438137E+03  0.61430524030E+03  0.00000000000E+00 0.  1.
        -11    1    5    5    0    0  0.26728382355E+02  0.86582653807E+01 -0.48315612049E+02  0.55890700034E+02  0.00000000000E+00 0. -1.
          3    1    6    6  503    0 -0.72249695565E+02  0.25358416457E+02  0.64447256806E+02  0.10008254945E+03  0.00000000000E+00 0. -1.
         -3    1    6    6    0  503 -0.78886295256E+02 -0.58430383715E+02  0.19266182708E+03  0.21623074928E+03  0.00000000000E+00 0.  1.
<mgrwt>
<rscale>  0 0.18646909E+04</rscale>
<asrwt>0</asrwt>
<pdfrwt beam="1">  1        2 0.21300023E+00 0.18646909E+04</pdfrwt>
<pdfrwt beam="2">  1       -1 0.96593283E-01 0.18646909E+04</pdfrwt>
<totfact> 0.16306461E+01</totfact>
</mgrwt>
</event>
<event>
12    6  0.1647231E-007  0.1824813E+04  0.7818608E-02  0.8693214E-01
         -1   -1    0    0    0  501 -0.00000000000E+00  0.00000000000E+00  0.10879589363E+04  0.10879589363E+04  0.00000000000E+00 0.  1.
          2   -1    0    0  501    0  0.00000000000E+00 -0.00000000000E+00 -0.76518141106E+03  0.76518141106E+03  0.00000000000E+00 0. -1.
         24    2    1    2    0    0 -0.35313788400E+02  0.47699024393E+03 -0.37928394214E+03  0.61474967102E+03  0.72760516746E+02 0.  0.
        254    2    1    2    0    0  0.35313788400E+02 -0.47699024393E+03  0.70206146739E+03  0.12383906763E+04  0.90108512740E+03 0.  0.
         23    2    4    4    0    0  0.13279113975E+03 -0.68958785520E+03  0.30740000211E+03  0.77185353349E+03  0.89990105172E+02 0.  0.
         23    2    4    4    0    0 -0.97477351348E+02  0.21259761126E+03  0.39466146528E+03  0.46653714286E+03  0.84850781698E+02 0.  0.
          2    1    3    3  502    0 -0.30585924823E+02  0.35335312919E+03 -0.31938871834E+03  0.47728721553E+03  0.00000000000E+00 0. -1.
         -1    1    3    3    0  502 -0.47278635774E+01  0.12363711474E+03 -0.59895223804E+02  0.13746245549E+03  0.00000000000E+00 0.  1.
         11    1    5    5    0    0  0.14464987923E+03 -0.62333335718E+03  0.28861831683E+03  0.70197478198E+03  0.00000000000E+00 0. -1.
        -11    1    5    5    0    0 -0.11858739479E+02 -0.66254498018E+02  0.18781685280E+02  0.69878751503E+02  0.00000000000E+00 0.  1.
          2    1    6    6  503    0 -0.95118992419E+02  0.13249921952E+03  0.21545441006E+03  0.27023002925E+03  0.00000000000E+00 0. -1.
         -2    1    6    6    0  503 -0.23583589288E+01  0.80098391744E+02  0.17920705521E+03  0.19630711361E+03  0.00000000000E+00 0.  1.
<mgrwt>
<rscale>  0 0.18248134E+04</rscale>
<asrwt>0</asrwt>
<pdfrwt beam="1">  1        2 0.11772022E+00 0.18248134E+04</pdfrwt>
<pdfrwt beam="2">  1       -1 0.16737830E+00 0.18248134E+04</pdfrwt>
<totfact> 0.10109550E+01</totfact>
</mgrwt>
</event>
<event>
12    6  0.1647231E-007  0.1097664E+04  0.7818608E-02  0.9207471E-01
         -1   -1    0    0    0  501 -0.00000000000E+00  0.00000000000E+00  0.40728629759E+03  0.40728629759E+03  0.00000000000E+00 0.  1.
          2   -1    0    0  501    0  0.00000000000E+00 -0.00000000000E+00 -0.73956996690E+03  0.73956996690E+03  0.00000000000E+00 0. -1.
         24    2    1    2    0    0 -0.14673268967E+03  0.94396665807E+02 -0.22378766496E+02  0.18755710335E+03  0.65081833824E+02 0.  0.
        254    2    1    2    0    0  0.14673268967E+03 -0.94396665807E+02 -0.30990490282E+03  0.95929916114E+03  0.89093917808E+03 0.  0.
         23    2    4    4    0    0  0.17873530356E+03  0.29827379437E+03 -0.40792006092E+03  0.54355275165E+03  0.90206721340E+02 0.  0.
         23    2    4    4    0    0 -0.32002613887E+02 -0.39267046018E+03  0.98015158102E+02  0.41574640949E+03  0.89575935351E+02 0.  0.
          4    1    3    3  502    0 -0.29740841644E+02  0.38028999565E+02 -0.31057129219E+02  0.57404422695E+02  0.00000000000E+00 0. -1.
         -3    1    3    3    0  502 -0.11699184803E+03  0.56367666242E+02  0.86783627229E+01  0.13015268066E+03  0.00000000000E+00 0.  1.
         11    1    5    5    0    0  0.87506547985E+02  0.18401743646E+03 -0.17526822888E+03  0.26877270121E+03  0.00000000000E+00 0. -1.
        -11    1    5    5    0    0  0.91228755574E+02  0.11425635791E+03 -0.23265183203E+03  0.27478005043E+03  0.00000000000E+00 0.  1.
          3    1    6    6  503    0  0.12142863829E+02 -0.30942285622E+03  0.70535016249E+02  0.31759272915E+03  0.00000000000E+00 0. -1.
         -3    1    6    6    0  503 -0.44145477716E+02 -0.83247603961E+02  0.27480141853E+02  0.98153680340E+02  0.00000000000E+00 0.  1.
<mgrwt>
<rscale>  0 0.10976643E+04</rscale>
<asrwt>0</asrwt>
<pdfrwt beam="1">  1        2 0.11377999E+00 0.10976643E+04</pdfrwt>
<pdfrwt beam="2">  1       -1 0.62659431E-01 0.10976643E+04</pdfrwt>
<totfact> 0.11187597E+02</totfact>
</mgrwt>
</event>
<event>
12    6  0.1647231E-007  0.1523689E+04  0.7818608E-02  0.8868851E-01
         -1   -1    0    0    0  501 -0.00000000000E+00  0.00000000000E+00  0.63018830535E+03  0.63018830535E+03  0.00000000000E+00 0.  1.
          2   -1    0    0  501    0  0.00000000000E+00 -0.00000000000E+00 -0.92100569946E+03  0.92100569946E+03  0.00000000000E+00 0. -1.
         24    2    1    2    0    0  0.28155172946E+03  0.34189833709E+03  0.15826484917E+03  0.47644296243E+03  0.76054485039E+02 0.  0.
        254    2    1    2    0    0 -0.28155172946E+03 -0.34189833709E+03 -0.44908224328E+03  0.10747510424E+04  0.87020060480E+03 0.  0.
         23    2    4    4    0    0 -0.16300114489E+03 -0.63916639333E+02 -0.66355503776E+03  0.69231693354E+03  0.91338591562E+02 0.  0.
         23    2    4    4    0    0 -0.11855058457E+03 -0.27798169776E+03  0.21447279448E+03  0.38243410884E+03  0.94494458279E+02 0.  0.
          4    1    3    3  502    0  0.39538339742E+02  0.65941113016E+02  0.39847626627E+00  0.76887381791E+02  0.00000000000E+00 0. -1.
         -3    1    3    3    0  502  0.24201338972E+03  0.27595722407E+03  0.15786637291E+03  0.39955558064E+03  0.00000000000E+00 0.  1.
         11    1    5    5    0    0 -0.82698549779E+02 -0.54075696150E+02 -0.50205370700E+03  0.51168462530E+03  0.00000000000E+00 0.  1.
        -11    1    5    5    0    0 -0.80302595114E+02 -0.98409431831E+01 -0.16150133076E+03  0.18063230824E+03  0.00000000000E+00 0. -1.
          3    1    6    6  503    0 -0.26898870763E+02 -0.18178335250E+03  0.12370618535E+03  0.22152191041E+03  0.00000000000E+00 0. -1.
         -3    1    6    6    0  503 -0.91651713809E+02 -0.96198345253E+02  0.90766609124E+02  0.16091219844E+03  0.00000000000E+00 0.  1.
<mgrwt>
<rscale>  0 0.15236890E+04</rscale>
<asrwt>0</asrwt>
<pdfrwt beam="1">  1        2 0.14169318E+00 0.15236890E+04</pdfrwt>
<pdfrwt beam="2">  1       -1 0.96952047E-01 0.15236890E+04</pdfrwt>
<totfact> 0.31957830E+01</totfact>
</mgrwt>
</event>
<event>
12    6  0.1647231E-007  0.1545520E+04  0.7818608E-02  0.8854735E-01
         -1   -1    0    0    0  501 -0.00000000000E+00  0.00000000000E+00  0.35412042462E+03  0.35412042462E+03  0.00000000000E+00 0.  1.
          2   -1    0    0  501    0  0.00000000000E+00 -0.00000000000E+00 -0.16863125821E+04  0.16863125821E+04  0.00000000000E+00 0. -1.
         24    2    1    2    0    0  0.41080831321E+03  0.48773289593E+00 -0.50387764944E+02  0.42054554479E+03  0.74538045961E+02 0.  0.
        254    2    1    2    0    0 -0.41080831321E+03 -0.48773289593E+00 -0.12818043925E+04  0.16198874619E+04  0.90124867851E+03 0.  0.
         23    2    4    4    0    0 -0.18205760461E+03 -0.36856868912E+03 -0.10249050098E+04  0.11080595101E+04  0.91530042284E+02 0.  0.
         23    2    4    4    0    0 -0.22875070861E+03  0.36808095622E+03 -0.25689938269E+03  0.51182795187E+03  0.90333174785E+02 0.  0.
          4    1    3    3  502    0  0.29276744520E+03 -0.19197686470E+02 -0.63403235499E+02  0.30016878320E+03  0.00000000000E+00 0. -1.
         -3    1    3    3    0  502  0.11804086801E+03  0.19685419366E+02  0.13015470555E+02  0.12037676159E+03  0.00000000000E+00 0.  1.
         11    1    5    5    0    0 -0.45627969985E+02 -0.26496743349E+02 -0.13701520649E+03  0.14682355350E+03  0.00000000000E+00 0. -1.
        -11    1    5    5    0    0 -0.13642963462E+03 -0.34207194577E+03 -0.88788980336E+03  0.96123595656E+03  0.00000000000E+00 0.  1.
          2    1    6    6  503    0 -0.42241510719E+01 -0.40945218443E+01 -0.10898917566E+02  0.12385272121E+02  0.00000000000E+00 0. -1.
         -2    1    6    6    0  503 -0.22452655753E+03  0.37217547807E+03 -0.24600046513E+03  0.49944267975E+03  0.00000000000E+00 0.  1.
<mgrwt>
<rscale>  0 0.15455196E+04</rscale>
<asrwt>0</asrwt>
<pdfrwt beam="1">  1        2 0.25943270E+00 0.15455196E+04</pdfrwt>
<pdfrwt beam="2">  1       -1 0.54480065E-01 0.15455196E+04</pdfrwt>
<totfact> 0.37258785E+01</totfact>
</mgrwt>
</event>
<event>
12    6  0.1647231E-007  0.1362755E+04  0.7818608E-02  0.8981228E-01
         -1   -1    0    0    0  501 -0.00000000000E+00  0.00000000000E+00  0.26413544182E+03  0.26413544182E+03  0.00000000000E+00 0.  1.
          2   -1    0    0  501    0  0.00000000000E+00 -0.00000000000E+00 -0.17577171044E+04  0.17577171044E+04  0.00000000000E+00 0. -1.
         24    2    1    2    0    0  0.17210928014E+03 -0.41070958283E+02  0.71932692847E+02  0.20657638290E+03  0.78683300316E+02 0.  0.
        254    2    1    2    0    0 -0.17210928014E+03  0.41070958283E+02 -0.15655143554E+04  0.18152761633E+04  0.90171166351E+03 0.  0.
         23    2    4    4    0    0 -0.37662376195E+03  0.35837275267E+03 -0.84512171667E+03  0.99669947071E+03  0.94353754606E+02 0.  0.
         23    2    4    4    0    0  0.20451448181E+03 -0.31730179438E+03 -0.72039263874E+03  0.81857669258E+03  0.92712705152E+02 0.  0.
          4    1    3    3  502    0  0.37929045736E+02  0.50651790977E+01  0.50059922308E+02  0.63010033893E+02  0.00000000000E+00 0. -1.
         -3    1    3    3    0  502  0.13418023440E+03 -0.46136137381E+02  0.21872770540E+02  0.14356634901E+03  0.00000000000E+00 0.  1.
         11    1    5    5    0    0 -0.20431559694E+03  0.18394988797E+03 -0.53366705446E+03  0.60031903972E+03  0.00000000000E+00 0.  1.
        -11    1    5    5    0    0 -0.17230816501E+03  0.17442286470E+03 -0.31145466221E+03  0.39638043099E+03  0.00000000000E+00 0. -1.
          1    1    6    6  503    0  0.70727330014E+02 -0.43420621199E+02 -0.13208605229E+03  0.15599497032E+03  0.00000000000E+00 0. -1.
         -1    1    6    6    0  503  0.13378715180E+03 -0.27388117319E+03 -0.58830658645E+03  0.66258172226E+03  0.00000000000E+00 0.  1.
<mgrwt>
<rscale>  0 0.13627551E+04</rscale>
<asrwt>0</asrwt>
<pdfrwt beam="1">  1        2 0.27041801E+00 0.13627551E+04</pdfrwt>
<pdfrwt beam="2">  1       -1 0.40636223E-01 0.13627551E+04</pdfrwt>
<totfact> 0.59918757E+01</totfact>
</mgrwt>
</event>
<event>
12    6  0.1647231E-007  0.2021496E+04  0.7818608E-02  0.8596636E-01
          2   -1    0    0  501    0  0.00000000000E+00  0.00000000000E+00  0.97683443896E+03  0.97683443896E+03  0.00000000000E+00 0. -1.
         -1   -1    0    0    0  501 -0.00000000000E+00 -0.00000000000E+00 -0.10458385186E+04  0.10458385186E+04  0.00000000000E+00 0.  1.
         24    2    1    2    0    0  0.34177964034E+03 -0.44000549214E+03  0.56313857007E+03  0.79617228666E+03  0.79668722096E+02 0.  0.
        254    2    1    2    0    0 -0.34177964034E+03  0.44000549214E+03 -0.63214264976E+03  0.12265006709E+04  0.89122466893E+03 0.  0.
         23    2    4    4    0    0 -0.47394574443E+03  0.50517975199E+03 -0.74348264391E+03  0.10201616669E+04  0.90178901974E+02 0.  0.
         23    2    4    4    0    0  0.13216610409E+03 -0.65174259851E+02  0.11133999414E+03  0.20633900403E+03  0.91997973178E+02 0.  0.
          4    1    3    3  502    0  0.34521566155E+03 -0.43301365811E+03  0.56054146291E+03  0.78796028627E+03  0.00000000000E+00 0. -1.
         -3    1    3    3    0  502 -0.34360212154E+01 -0.69918340269E+01  0.25971071648E+01  0.82120003944E+01  0.00000000000E+00 0.  1.
         11    1    5    5    0    0 -0.14237279278E+03  0.16244685176E+03 -0.17390266606E+03  0.27731052817E+03  0.00000000000E+00 0. -1.
        -11    1    5    5    0    0 -0.33157295165E+03  0.34273290023E+03 -0.56957997785E+03  0.74285113874E+03  0.00000000000E+00 0.  1.
          2    1    6    6  503    0  0.53519803030E+02 -0.43955736955E+02  0.10345943382E+03  0.12450032359E+03  0.00000000000E+00 0.  1.
         -2    1    6    6    0  503  0.78646301063E+02 -0.21218522896E+02  0.78805603236E+01  0.81838680437E+02  0.00000000000E+00 0. -1.
<mgrwt>
<rscale>  0 0.20214956E+04</rscale>
<asrwt>0</asrwt>
<pdfrwt beam="1">  1        2 0.15028222E+00 0.20214956E+04</pdfrwt>
<pdfrwt beam="2">  1       -1 0.16089823E+00 0.20214956E+04</pdfrwt>
<totfact> 0.79362919E+00</totfact>
</mgrwt>
</event>
<event>
12    6  0.1647231E-007  0.2793309E+04  0.7818608E-02  0.8305349E-01
         -1   -1    0    0    0  501 -0.00000000000E+00  0.00000000000E+00  0.13109591020E+04  0.13109591020E+04  0.00000000000E+00 0.  1.
          2   -1    0    0  501    0  0.00000000000E+00 -0.00000000000E+00 -0.14879518425E+04  0.14879518425E+04  0.00000000000E+00 0. -1.
         24    2    1    2    0    0 -0.36627737807E+03  0.73554961676E+03  0.86675930353E+03  0.11968573490E+04  0.77482043670E+02 0.  0.
        254    2    1    2    0    0  0.36627737807E+03 -0.73554961676E+03 -0.10437520440E+04  0.16020535955E+04  0.89552500647E+03 0.  0.
         23    2    4    4    0    0  0.11280123173E+02  0.12606560773E+03 -0.48993450103E+03  0.51388512937E+03  0.89567473173E+02 0.  0.
         23    2    4    4    0    0  0.35499725489E+03 -0.86161522449E+03 -0.55381754297E+03  0.10881684662E+04  0.94830869517E+02 0.  0.
          4    1    3    3  502    0 -0.27351712078E+03  0.47929004681E+03  0.55255621069E+03  0.78092824914E+03  0.00000000000E+00 0. -1.
         -3    1    3    3    0  502 -0.92760257284E+02  0.25625956995E+03  0.31420309285E+03  0.41592909982E+03  0.00000000000E+00 0.  1.
         11    1    5    5    0    0  0.26238316021E+02  0.40060619605E+01 -0.15136774391E+03  0.15367723207E+03  0.00000000000E+00 0.  1.
        -11    1    5    5    0    0 -0.14958192848E+02  0.12205954577E+03 -0.33856675712E+03  0.36020789729E+03  0.00000000000E+00 0. -1.
          2    1    6    6  503    0  0.22055013682E+03 -0.41136192205E+03 -0.27089963551E+03  0.53967361089E+03  0.00000000000E+00 0. -1.
         -2    1    6    6    0  503  0.13444711807E+03 -0.45025330244E+03 -0.28291790746E+03  0.54849485529E+03  0.00000000000E+00 0.  1.
<mgrwt>
<rscale>  0 0.27933092E+04</rscale>
<asrwt>0</asrwt>
<pdfrwt beam="1">  1        2 0.22891567E+00 0.27933092E+04</pdfrwt>
<pdfrwt beam="2">  1       -1 0.20168602E+00 0.27933092E+04</pdfrwt>
<totfact> 0.18733957E+00</totfact>
</mgrwt>
</event>
<event>
12    6  0.1647231E-007  0.2420046E+04  0.7818608E-02  0.8432037E-01
          2   -1    0    0  501    0  0.00000000000E+00  0.00000000000E+00  0.10914235157E+04  0.10914235157E+04  0.00000000000E+00 0. -1.
         -1   -1    0    0    0  501 -0.00000000000E+00 -0.00000000000E+00 -0.13415098126E+04  0.13415098126E+04  0.00000000000E+00 0.  1.
         24    2    1    2    0    0 -0.90559112458E+03  0.42172225708E+03 -0.39300011847E+03  0.10768543876E+04  0.84978420068E+02 0.  0.
        254    2    1    2    0    0  0.90559112458E+03 -0.42172225708E+03  0.14291382152E+03  0.13560789408E+04  0.90585914258E+03 0.  0.
         23    2    4    4    0    0  0.92223284218E+03 -0.42757987158E+02 -0.31048342060E+02  0.92865914315E+03  0.95405156882E+02 0.  0.
         23    2    4    4    0    0 -0.16641717601E+02 -0.37896426993E+03  0.17396216358E+03  0.42741979762E+03  0.92379566965E+02 0.  0.
          2    1    3    3  502    0 -0.11167706890E+03  0.80576240935E+02 -0.68708144897E+02  0.15389966698E+03  0.00000000000E+00 0. -1.
         -1    1    3    3    0  502 -0.79391405567E+03  0.34114601615E+03 -0.32429197358E+03  0.92295472059E+03  0.00000000000E+00 0.  1.
         11    1    5    5    0    0  0.42016737590E+03 -0.66818132947E+02 -0.19091631180E+02  0.42587530691E+03  0.00000000000E+00 0. -1.
        -11    1    5    5    0    0  0.50206546628E+03  0.24060145789E+02 -0.11956710881E+02  0.50278383624E+03  0.00000000000E+00 0.  1.
          2    1    6    6  503    0 -0.39536356814E+02 -0.29445076611E+03  0.16384380853E+03  0.33927742449E+03  0.00000000000E+00 0. -1.
         -2    1    6    6    0  503  0.22894639213E+02 -0.84513503814E+02  0.10118355046E+02  0.88142373127E+02  0.00000000000E+00 0.  1.
<mgrwt>
<rscale>  0 0.24200457E+04</rscale>
<asrwt>0</asrwt>
<pdfrwt beam="1">  1        2 0.16791131E+00 0.24200457E+04</pdfrwt>
<pdfrwt beam="2">  1       -1 0.20638612E+00 0.24200457E+04</pdfrwt>
<totfact> 0.30707972E+00</totfact>
</mgrwt>
</event>
<event>
12    6  0.1647231E-007  0.1669948E+04  0.7818608E-02  0.8778692E-01
         -1   -1    0    0    0  501 -0.00000000000E+00  0.00000000000E+00  0.84263870488E+03  0.84263870488E+03  0.00000000000E+00 0.  1.
          2   -1    0    0  501    0  0.00000000000E+00 -0.00000000000E+00 -0.82737905183E+03  0.82737905183E+03  0.00000000000E+00 0. -1.
         24    2    1    2    0    0  0.19674363221E+03 -0.47984434210E+03 -0.27555743068E+03  0.59248111154E+03  0.78379336985E+02 0.  0.
        254    2    1    2    0    0 -0.19674363221E+03  0.47984434210E+03  0.29081708373E+03  0.10775366452E+04  0.89863896869E+03 0.  0.
         23    2    4    4    0    0 -0.49940376749E+03  0.51119091336E+03  0.17289074009E+03  0.74000968301E+03  0.83683033301E+02 0.  0.
         23    2    4    4    0    0  0.30266013527E+03 -0.31346571261E+02  0.11792634364E+03  0.33752696216E+03  0.86209411605E+02 0.  0.
          4    1    3    3  502    0  0.17459342430E+02 -0.78799544116E+02 -0.16143580070E+02  0.82309245948E+02  0.00000000000E+00 0. -1.
         -3    1    3    3    0  502  0.17928428978E+03 -0.40104479798E+03 -0.25941385061E+03  0.51017186559E+03  0.00000000000E+00 0.  1.
         11    1    5    5    0    0 -0.33893853938E+03  0.29510875079E+03  0.89452302798E+02  0.45822507870E+03  0.00000000000E+00 0.  1.
        -11    1    5    5    0    0 -0.16046522810E+03  0.21608216257E+03  0.83438437291E+02  0.28178460431E+03  0.00000000000E+00 0. -1.
          4    1    6    6  503    0  0.13575013004E+03 -0.53964891943E+02  0.72438859321E+02  0.16305733871E+03  0.00000000000E+00 0. -1.
         -4    1    6    6    0  503  0.16691000523E+03  0.22618320682E+02  0.45487484320E+02  0.17446962345E+03  0.00000000000E+00 0.  1.
<mgrwt>
<rscale>  0 0.16699480E+04</rscale>
<asrwt>0</asrwt>
<pdfrwt beam="1">  1        2 0.12728909E+00 0.16699480E+04</pdfrwt>
<pdfrwt beam="2">  1       -1 0.12963672E+00 0.16699480E+04</pdfrwt>
<totfact> 0.18311895E+01</totfact>
</mgrwt>
</event>
<event>
12    6  0.1647231E-007  0.1358686E+04  0.7818608E-02  0.8984278E-01
         -1   -1    0    0    0  501 -0.00000000000E+00  0.00000000000E+00  0.17780948606E+03  0.17780948606E+03  0.00000000000E+00 0.  1.
          2   -1    0    0  501    0  0.00000000000E+00 -0.00000000000E+00 -0.25955153308E+04  0.25955153308E+04  0.00000000000E+00 0. -1.
         24    2    1    2    0    0  0.24819326546E+03 -0.45148636000E+02 -0.10203212679E+03  0.28353469646E+03  0.79643410576E+02 0.  0.
        254    2    1    2    0    0 -0.24819326546E+03  0.45148636000E+02 -0.23156737180E+04  0.24897901204E+04  0.87924500524E+03 0.  0.
         23    2    4    4    0    0  0.44841006230E+02  0.39392796214E+03 -0.71509937206E+03  0.82281780661E+03  0.92043879541E+02 0.  0.
         23    2    4    4    0    0 -0.29303427169E+03 -0.34877932614E+03 -0.16005743459E+04  0.16669723138E+04  0.97171783208E+02 0.  0.
          2    1    3    3  502    0  0.90713636337E+01  0.68059165059E+01 -0.24247123759E+02  0.26768136810E+02  0.00000000000E+00 0. -1.
         -1    1    3    3    0  502  0.23912190183E+03 -0.51954552506E+02 -0.77785003027E+02  0.25676655965E+03  0.00000000000E+00 0.  1.
         11    1    5    5    0    0  0.49931250184E+02  0.22270066512E+03 -0.32888098569E+03  0.40031415006E+03  0.00000000000E+00 0.  1.
        -11    1    5    5    0    0 -0.50902439540E+01  0.17122729702E+03 -0.38621838638E+03  0.42250365655E+03  0.00000000000E+00 0. -1.
          3    1    6    6  503    0 -0.48699616129E+02 -0.42486541780E+02 -0.13115781646E+03  0.14621604448E+03  0.00000000000E+00 0. -1.
         -3    1    6    6    0  503 -0.24433465556E+03 -0.30629278436E+03 -0.14694165295E+04  0.15207562693E+04  0.00000000000E+00 0.  1.
<mgrwt>
<rscale>  0 0.13586865E+04</rscale>
<asrwt>0</asrwt>
<pdfrwt beam="1">  1        2 0.39931007E+00 0.13586865E+04</pdfrwt>
<pdfrwt beam="2">  1       -1 0.27355304E-01 0.13586865E+04</pdfrwt>
<totfact> 0.41019058E+01</totfact>
</mgrwt>
</event>
<event>
12    6  0.1647231E-007  0.1987350E+04  0.7818608E-02  0.8612558E-01
          2   -1    0    0  501    0  0.00000000000E+00  0.00000000000E+00  0.13855463201E+04  0.13855463201E+04  0.00000000000E+00 0. -1.
         -1   -1    0    0    0  501 -0.00000000000E+00 -0.00000000000E+00 -0.71263619477E+03  0.71263619477E+03  0.00000000000E+00 0.  1.
         24    2    1    2    0    0 -0.60183693222E+02  0.45702781615E+03 -0.40504109934E+03  0.61870815172E+03  0.79025206036E+02 0.  0.
        254    2    1    2    0    0  0.60183693222E+02 -0.45702781615E+03  0.10779512246E+04  0.14794743631E+04  0.90242398393E+03 0.  0.
         23    2    4    4    0    0 -0.21288897144E+03 -0.63227190149E+03  0.78425123737E+03  0.10326902293E+04  0.79433210081E+02 0.  0.
         23    2    4    4    0    0  0.27307266466E+03  0.17524408534E+03  0.29369998726E+03  0.44678413379E+03  0.89873300036E+02 0.  0.
          2    1    3    3  502    0 -0.39602922526E+02  0.26103021524E+03 -0.28237345818E+03  0.38657461715E+03  0.00000000000E+00 0. -1.
         -1    1    3    3    0  502 -0.20580770696E+02  0.19599760091E+03 -0.12266764115E+03  0.23213353457E+03  0.00000000000E+00 0.  1.
         11    1    5    5    0    0 -0.20645179733E+03 -0.61107034099E+03  0.77596398327E+03  0.10090338991E+04  0.00000000000E+00 0.  1.
        -11    1    5    5    0    0 -0.64371741017E+01 -0.21201560492E+02  0.82872540957E+01  0.23656330192E+02  0.00000000000E+00 0. -1.
          1    1    6    6  503    0  0.22378774149E+02 -0.48305906068E+01  0.44634245470E+02  0.50163333290E+02  0.00000000000E+00 0. -1.
         -1    1    6    6    0  503  0.25069389051E+03  0.18007467594E+03  0.24906574179E+03  0.39662080050E+03  0.00000000000E+00 0.  1.
<mgrwt>
<rscale>  0 0.19873505E+04</rscale>
<asrwt>0</asrwt>
<pdfrwt beam="1">  1        2 0.21316097E+00 0.19873505E+04</pdfrwt>
<pdfrwt beam="2">  1       -1 0.10963634E+00 0.19873505E+04</pdfrwt>
<totfact> 0.12025365E+01</totfact>
</mgrwt>
</event>
<event>
12    6  0.1647231E-007  0.1479502E+04  0.7818608E-02  0.8898199E-01
         -1   -1    0    0    0  501 -0.00000000000E+00  0.00000000000E+00  0.12373796656E+04  0.12373796656E+04  0.00000000000E+00 0.  1.
          2   -1    0    0  501    0  0.00000000000E+00 -0.00000000000E+00 -0.44225041882E+03  0.44225041882E+03  0.00000000000E+00 0. -1.
         24    2    1    2    0    0  0.39211173251E+03  0.22960737741E+03  0.46201648651E+03  0.65270238486E+03  0.78038521731E+02 0.  0.
        254    2    1    2    0    0 -0.39211173251E+03 -0.22960737741E+03  0.33311276030E+03  0.10269276996E+04  0.85857162226E+03 0.  0.
         23    2    4    4    0    0 -0.38077667054E+03 -0.35991041511E+03  0.54444659863E+03  0.76076393496E+03  0.88392795160E+02 0.  0.
         23    2    4    4    0    0 -0.11335061963E+02  0.13030303770E+03 -0.21133383833E+03  0.26616376462E+03  0.95256459667E+02 0.  0.
          2    1    3    3  502    0  0.55134077363E+02  0.10838290817E+02  0.83990030572E+02  0.10105226504E+03  0.00000000000E+00 0. -1.
         -1    1    3    3    0  502  0.33697765514E+03  0.21876908659E+03  0.37802645593E+03  0.55165011982E+03  0.00000000000E+00 0.  1.
         11    1    5    5    0    0 -0.43365702527E+02 -0.23669888562E+02  0.22992054862E+02  0.54492957040E+02  0.00000000000E+00 0.  1.
        -11    1    5    5    0    0 -0.33741096802E+03 -0.33624052655E+03  0.52145454377E+03  0.70627097792E+03  0.00000000000E+00 0. -1.
          2    1    6    6  503    0 -0.75028013994E+01  0.12825702475E+03 -0.22096361205E+03  0.25559944108E+03  0.00000000000E+00 0. -1.
         -2    1    6    6    0  503 -0.38322605639E+01  0.20460129525E+01  0.96297737211E+01  0.10564323544E+02  0.00000000000E+00 0.  1.
<mgrwt>
<rscale>  0 0.14795022E+04</rscale>
<asrwt>0</asrwt>
<pdfrwt beam="1">  1        2 0.68038526E-01 0.14795022E+04</pdfrwt>
<pdfrwt beam="2">  1       -1 0.19036610E+00 0.14795022E+04</pdfrwt>
<totfact> 0.13790059E+01</totfact>
</mgrwt>
</event>
<event>
12    6  0.1647231E-007  0.2883884E+04  0.7818608E-02  0.8277689E-01
         -1   -1    0    0    0  501 -0.00000000000E+00  0.00000000000E+00  0.12882948960E+04  0.12882948960E+04  0.00000000000E+00 0.  1.
          2   -1    0    0  501    0  0.00000000000E+00 -0.00000000000E+00 -0.16139140115E+04  0.16139140115E+04  0.00000000000E+00 0. -1.
         24    2    1    2    0    0  0.84346978833E+03 -0.53957295996E+03 -0.97932182379E+03  0.14045511078E+04  0.10541497556E+03 0.  0.
        254    2    1    2    0    0 -0.84346978833E+03  0.53957295996E+03  0.65370270824E+03  0.14976577997E+04  0.90170471399E+03 0.  0.
         23    2    4    4    0    0 -0.69460918698E+03 -0.61885502117E+02  0.46541998616E+03  0.84340707247E+03  0.91695083700E+02 0.  0.
         23    2    4    4    0    0 -0.14886060135E+03  0.60145846208E+03  0.18828272208E+03  0.65425072720E+03  0.93176554854E+02 0.  0.
          4    1    3    3  502    0  0.69848573175E+03 -0.43212464602E+03 -0.74580888395E+03  0.11094345039E+04  0.00000000000E+00 0. -1.
         -3    1    3    3    0  502  0.14498405657E+03 -0.10744831394E+03 -0.23351293984E+03  0.29511660390E+03  0.00000000000E+00 0.  1.
         11    1    5    5    0    0 -0.20645720505E+03  0.22671281595E+01  0.95010185790E+02  0.22728099963E+03  0.00000000000E+00 0. -1.
        -11    1    5    5    0    0 -0.48815198192E+03 -0.64152630276E+02  0.37040980037E+03  0.61612607284E+03  0.00000000000E+00 0.  1.
          2    1    6    6  503    0 -0.13899258048E+02  0.13596642877E+02 -0.63753527064E+01  0.20462238244E+02  0.00000000000E+00 0. -1.
         -2    1    6    6    0  503 -0.13496134330E+03  0.58786181920E+03  0.19465807478E+03  0.63378848896E+03  0.00000000000E+00 0.  1.
<mgrwt>
<rscale>  0 0.28838843E+04</rscale>
<asrwt>0</asrwt>
<pdfrwt beam="1">  1        2 0.24829446E+00 0.28838843E+04</pdfrwt>
<pdfrwt beam="2">  1       -1 0.19819921E+00 0.28838843E+04</pdfrwt>
<totfact> 0.16692277E+00</totfact>
</mgrwt>
</event>
<event>
12    6  0.1647231E-007  0.1623034E+04  0.7818608E-02  0.8806521E-01
          2   -1    0    0  501    0  0.00000000000E+00  0.00000000000E+00  0.43103840464E+03  0.43103840464E+03  0.00000000000E+00 0. -1.
         -1   -1    0    0    0  501 -0.00000000000E+00 -0.00000000000E+00 -0.15278445190E+04  0.15278445190E+04  0.00000000000E+00 0.  1.
         24    2    1    2    0    0  0.17567871825E+03  0.17837530281E+03 -0.98180994700E+03  0.10163168319E+04  0.79173038761E+02 0.  0.
        254    2    1    2    0    0 -0.17567871825E+03 -0.17837530281E+03 -0.11499616737E+03  0.94256609175E+03  0.90140221772E+03 0.  0.
         23    2    4    4    0    0  0.20095552394E+03 -0.39382979237E+03 -0.19326785998E+03  0.49114066409E+03  0.91551396823E+02 0.  0.
         23    2    4    4    0    0 -0.37663424219E+03  0.21545448957E+03  0.78271692616E+02  0.45142542766E+03  0.96873471099E+02 0.  0.
          2    1    3    3  502    0  0.91811451587E+01 -0.75313635926E+01 -0.68583159529E+02  0.69603625157E+02  0.00000000000E+00 0. -1.
         -1    1    3    3    0  502  0.16649757310E+03  0.18590666640E+03 -0.91322678747E+03  0.94671320674E+03  0.00000000000E+00 0.  1.
         11    1    5    5    0    0  0.75193490081E+02 -0.24667042258E+03 -0.11444011633E+03  0.28212922314E+03  0.00000000000E+00 0.  1.
        -11    1    5    5    0    0  0.12576203386E+03 -0.14715936980E+03 -0.78827743652E+02  0.20901144095E+03  0.00000000000E+00 0. -1.
          3    1    6    6  503    0 -0.76626490404E+02  0.93072629325E+02  0.19269498328E+02  0.12208786560E+03  0.00000000000E+00 0. -1.
         -3    1    6    6    0  503 -0.30000775179E+03  0.12238186024E+03  0.59002194288E+02  0.32933756206E+03  0.00000000000E+00 0.  1.
<mgrwt>
<rscale>  0 0.16230338E+04</rscale>
<asrwt>0</asrwt>
<pdfrwt beam="1">  1        2 0.66313600E-01 0.16230338E+04</pdfrwt>
<pdfrwt beam="2">  1       -1 0.23505300E+00 0.16230338E+04</pdfrwt>
<totfact> 0.69894451E+00</totfact>
</mgrwt>
</event>
<event>
12    6  0.1647231E-007  0.1629075E+04  0.7818608E-02  0.8802883E-01
          2   -1    0    0  501    0  0.00000000000E+00  0.00000000000E+00  0.12226383209E+04  0.12226383209E+04  0.00000000000E+00 0. -1.
         -1   -1    0    0    0  501 -0.00000000000E+00 -0.00000000000E+00 -0.54265520664E+03  0.54265520664E+03  0.00000000000E+00 0.  1.
         24    2    1    2    0    0  0.25401711639E+03  0.45734541403E+03  0.45023790016E+03  0.69491834616E+03  0.80671047697E+02 0.  0.
        254    2    1    2    0    0 -0.25401711639E+03 -0.45734541403E+03  0.22974521410E+03  0.10703751814E+04  0.90511360741E+03 0.  0.
         23    2    4    4    0    0 -0.33028493926E+03  0.71742923749E+02 -0.17694480681E+03  0.39272320466E+03  0.93203340132E+02 0.  0.
         23    2    4    4    0    0  0.76267822868E+02 -0.52908833778E+03  0.40669002091E+03  0.67765197670E+03  0.89800770789E+02 0.  0.
          2    1    3    3  502    0  0.24553535560E+03  0.38651656613E+03  0.38510423818E+03  0.59832093479E+03  0.00000000000E+00 0. -1.
         -1    1    3    3    0  502  0.84817607951E+01  0.70828847906E+02  0.65133661982E+02  0.96597411378E+02  0.00000000000E+00 0.  1.
         11    1    5    5    0    0 -0.24741554670E+03  0.18183302512E+02 -0.99513520145E+02  0.26729763548E+03  0.00000000000E+00 0. -1.
        -11    1    5    5    0    0 -0.82869392556E+02  0.53559621237E+02 -0.77431286670E+02  0.12542556918E+03  0.00000000000E+00 0.  1.
          2    1    6    6  503    0  0.25793097013E+02 -0.23994536142E+03  0.23882935728E+03  0.33952690941E+03  0.00000000000E+00 0. -1.
         -2    1    6    6    0  503  0.50474725855E+02 -0.28914297637E+03  0.16786066364E+03  0.33812506729E+03  0.00000000000E+00 0.  1.
<mgrwt>
<rscale>  0 0.16290746E+04</rscale>
<asrwt>0</asrwt>
<pdfrwt beam="1">  1        2 0.18809820E+00 0.16290746E+04</pdfrwt>
<pdfrwt beam="2">  1       -1 0.83485417E-01 0.16290746E+04</pdfrwt>
<totfact> 0.28515902E+01</totfact>
</mgrwt>
</event>
<event>
12    6  0.1647231E-007  0.1701435E+04  0.7818608E-02  0.8760546E-01
         -1   -1    0    0    0  501 -0.00000000000E+00  0.00000000000E+00  0.19554078346E+03  0.19554078346E+03  0.00000000000E+00 0.  1.
          2   -1    0    0  501    0  0.00000000000E+00 -0.00000000000E+00 -0.37011234720E+04  0.37011234720E+04  0.00000000000E+00 0. -1.
         24    2    1    2    0    0 -0.61515826451E+03 -0.45890519304E+02 -0.13220045114E+04  0.14608078340E+04  0.75749387356E+02 0.  0.
        254    2    1    2    0    0  0.61515826451E+03  0.45890519304E+02 -0.21835781771E+04  0.24358564214E+04  0.88592167819E+03 0.  0.
         23    2    4    4    0    0  0.10347254180E+03 -0.33808320720E+03 -0.41240619791E+03  0.55047797534E+03  0.89108402291E+02 0.  0.
         23    2    4    4    0    0  0.51168572271E+03  0.38397372651E+03 -0.17711719792E+04  0.18853784461E+04  0.91343327309E+02 0.  0.
          4    1    3    3  502    0 -0.37680769656E+03 -0.12675844631E+02 -0.72618924868E+03  0.81822707247E+03  0.00000000000E+00 0. -1.
         -3    1    3    3    0  502 -0.23835056795E+03 -0.33214674673E+02 -0.59581526270E+03  0.64258076155E+03  0.00000000000E+00 0.  1.
         11    1    5    5    0    0  0.10504577004E+03 -0.19536847913E+03 -0.24539429015E+03  0.33078968255E+03  0.00000000000E+00 0. -1.
        -11    1    5    5    0    0 -0.15732282398E+01 -0.14271472807E+03 -0.16701190777E+03  0.21968829280E+03  0.00000000000E+00 0.  1.
          1    1    6    6  503    0  0.31454677941E+03  0.27043734715E+03 -0.12397801649E+04  0.13073373293E+04  0.00000000000E+00 0. -1.
         -1    1    6    6    0  503  0.19713894329E+03  0.11353637935E+03 -0.53139181427E+03  0.57804111677E+03  0.00000000000E+00 0.  1.
<mgrwt>
<rscale>  0 0.17014354E+04</rscale>
<asrwt>0</asrwt>
<pdfrwt beam="1">  1        2 0.56940360E+00 0.17014354E+04</pdfrwt>
<pdfrwt beam="2">  1       -1 0.30083198E-01 0.17014354E+04</pdfrwt>
<totfact> 0.64893537E+00</totfact>
</mgrwt>
</event>
<event>
12    6  0.1647231E-007  0.2987141E+04  0.7818608E-02  0.8247412E-01
          2   -1    0    0  501    0  0.00000000000E+00  0.00000000000E+00  0.24066608817E+04  0.24066608817E+04  0.00000000000E+00 0. -1.
         -1   -1    0    0    0  501 -0.00000000000E+00 -0.00000000000E+00 -0.92690800701E+03  0.92690800701E+03  0.00000000000E+00 0.  1.
         24    2    1    2    0    0 -0.69949691946E+03  0.39873882269E+03  0.18940349319E+04  0.20598038494E+04  0.84468844473E+02 0.  0.
        254    2    1    2    0    0  0.69949691946E+03 -0.39873882269E+03 -0.41428205726E+03  0.12737650393E+04  0.89585666444E+03 0.  0.
         23    2    4    4    0    0  0.89081715373E+03 -0.39503067417E+03 -0.41603687938E+03  0.10636712841E+04  0.93303165604E+02 0.  0.
         23    2    4    4    0    0 -0.19132023427E+03 -0.37081485176E+01  0.17548221258E+01  0.21009375515E+03  0.86712883410E+02 0.  0.
          2    1    3    3  502    0 -0.68786073036E+03  0.40224857466E+03  0.18738970292E+04  0.20362824893E+04  0.00000000000E+00 0. -1.
         -1    1    3    3    0  502 -0.11636189102E+02 -0.35097519714E+01  0.20137902692E+02  0.23521360092E+02  0.00000000000E+00 0.  1.
         11    1    5    5    0    0  0.61018055694E+03 -0.23703652634E+03 -0.24444133813E+03  0.69875474573E+03  0.00000000000E+00 0. -1.
        -11    1    5    5    0    0  0.28063659679E+03 -0.15799414783E+03 -0.17159554125E+03  0.36491653838E+03  0.00000000000E+00 0.  1.
          2    1    6    6  503    0 -0.13312852005E+03 -0.25140292240E+02  0.34725131273E+02  0.13986090192E+03  0.00000000000E+00 0. -1.
         -2    1    6    6    0  503 -0.58191714217E+02  0.21432143722E+02 -0.32970309147E+02  0.70232853233E+02  0.00000000000E+00 0.  1.
<mgrwt>
<rscale>  0 0.29871413E+04</rscale>
<asrwt>0</asrwt>
<pdfrwt beam="1">  1        2 0.37025552E+00 0.29871413E+04</pdfrwt>
<pdfrwt beam="2">  1       -1 0.14260123E+00 0.29871413E+04</pdfrwt>
<totfact> 0.15327097E+00</totfact>
</mgrwt>
</event>
<event>
12    6  0.1647231E-007  0.1329915E+04  0.7818608E-02  0.9006173E-01
          2   -1    0    0  501    0  0.00000000000E+00  0.00000000000E+00  0.35696377538E+03  0.35696377538E+03  0.00000000000E+00 0. -1.
         -1   -1    0    0    0  501 -0.00000000000E+00 -0.00000000000E+00 -0.12386937563E+04  0.12386937563E+04  0.00000000000E+00 0.  1.
         24    2    1    2    0    0 -0.13167627636E+03 -0.22655751688E+03 -0.53690636555E+03  0.60273797816E+03  0.79735028282E+02 0.  0.
        254    2    1    2    0    0  0.13167627636E+03  0.22655751688E+03 -0.34482361536E+03  0.99291955351E+03  0.89348696903E+03 0.  0.
         23    2    4    4    0    0 -0.14661515938E+03  0.49028171438E+03 -0.28883272903E+03  0.59460020848E+03  0.90845463010E+02 0.  0.
         23    2    4    4    0    0  0.27829143574E+03 -0.26372419750E+03 -0.55990886330E+02  0.39831934503E+03  0.92340379691E+02 0.  0.
          4    1    3    3  502    0 -0.11312313735E+02 -0.18557476562E+02 -0.10639328192E+02  0.24198009892E+02  0.00000000000E+00 0. -1.
         -3    1    3    3    0  502 -0.12036396263E+03 -0.20800004032E+03 -0.52626703736E+03  0.57853996827E+03  0.00000000000E+00 0.  1.
         11    1    5    5    0    0  0.19361330951E+01  0.32063251530E+02  0.15284169700E+01  0.32157996960E+02  0.00000000000E+00 0.  1.
        -11    1    5    5    0    0 -0.14855129247E+03  0.45821846285E+03 -0.29036114600E+03  0.56244221152E+03  0.00000000000E+00 0. -1.
          3    1    6    6  503    0  0.19403719419E+03 -0.22857837842E+03 -0.21044741809E+02  0.30056844307E+03  0.00000000000E+00 0. -1.
         -3    1    6    6    0  503  0.84254241543E+02 -0.35145819077E+02 -0.34946144521E+02  0.97750901957E+02  0.00000000000E+00 0.  1.
<mgrwt>
<rscale>  0 0.13299155E+04</rscale>
<asrwt>0</asrwt>
<pdfrwt beam="1">  1        2 0.54917504E-01 0.13299155E+04</pdfrwt>
<pdfrwt beam="2">  1       -1 0.19056827E+00 0.13299155E+04</pdfrwt>
<totfact> 0.17720529E+01</totfact>
</mgrwt>
</event>
<event>
12    6  0.1647231E-007  0.1930201E+04  0.7818608E-02  0.8639968E-01
          2   -1    0    0  501    0  0.00000000000E+00  0.00000000000E+00  0.18240368637E+04  0.18240368637E+04  0.00000000000E+00 0. -1.
         -1   -1    0    0    0  501 -0.00000000000E+00 -0.00000000000E+00 -0.51063580318E+03  0.51063580318E+03  0.00000000000E+00 0.  1.
         24    2    1    2    0    0  0.30411119676E+02 -0.48156883229E+03 -0.17953408519E+03  0.52389804918E+03  0.96970623156E+02 0.  0.
        254    2    1    2    0    0 -0.30411119676E+02  0.48156883229E+03  0.14929351457E+04  0.18107746177E+04  0.90399999467E+03 0.  0.
         23    2    4    4    0    0  0.31812790858E+03  0.26349423321E+03  0.23524734029E+03  0.48438088691E+03  0.92999759885E+02 0.  0.
         23    2    4    4    0    0 -0.34853902826E+03  0.21807459908E+03  0.12576878054E+04  0.13263937308E+04  0.92226504738E+02 0.  0.
          2    1    3    3  502    0 -0.72698073513E+01 -0.10401888488E+01 -0.11105871281E+02  0.13314370758E+02  0.00000000000E+00 0. -1.
         -1    1    3    3    0  502  0.37680927027E+02 -0.48052864345E+03 -0.16842821391E+03  0.51058367842E+03  0.00000000000E+00 0.  1.
         11    1    5    5    0    0  0.91007738131E+02  0.64234277480E+02  0.19420891590E+02  0.11307352402E+03  0.00000000000E+00 0.  1.
        -11    1    5    5    0    0  0.22712017045E+03  0.19925995573E+03  0.21582644870E+03  0.37130736290E+03  0.00000000000E+00 0. -1.
          1    1    6    6  503    0 -0.32466817362E+03  0.16727105490E+03  0.10905980088E+04  0.11501274041E+04  0.00000000000E+00 0. -1.
         -1    1    6    6    0  503 -0.23870854636E+02  0.50803544178E+02  0.16708979658E+03  0.17626632668E+03  0.00000000000E+00 0.  1.
<mgrwt>
<rscale>  0 0.19302005E+04</rscale>
<asrwt>0</asrwt>
<pdfrwt beam="1">  1        2 0.28062105E+00 0.19302005E+04</pdfrwt>
<pdfrwt beam="2">  1       -1 0.78559355E-01 0.19302005E+04</pdfrwt>
<totfact> 0.14434867E+01</totfact>
</mgrwt>
</event>
<event>
12    6  0.1647231E-007  0.1211797E+04  0.7818608E-02  0.9102593E-01
         -1   -1    0    0    0  501 -0.00000000000E+00  0.00000000000E+00  0.22933789628E+03  0.22933789628E+03  0.00000000000E+00 0.  1.
          2   -1    0    0  501    0  0.00000000000E+00 -0.00000000000E+00 -0.16007510930E+04  0.16007510930E+04  0.00000000000E+00 0. -1.
         24    2    1    2    0    0 -0.78295989892E+02 -0.19603770340E+03 -0.77845329371E+02  0.23892463666E+03  0.80399275573E+02 0.  0.
        254    2    1    2    0    0  0.78295989892E+02  0.19603770340E+03 -0.12935678673E+04  0.15911643526E+04  0.90217799043E+03 0.  0.
         23    2    4    4    0    0  0.19222782231E+03  0.24574474783E+03 -0.40556300238E+02  0.32871810651E+03  0.95230054587E+02 0.  0.
         23    2    4    4    0    0 -0.11393183242E+03 -0.49707044434E+02 -0.12530115671E+04  0.12624462461E+04  0.91001562093E+02 0.  0.
          4    1    3    3  502    0 -0.88318780124E+01 -0.95991586250E+02 -0.65411172787E+02  0.11649467037E+03  0.00000000000E+00 0. -1.
         -1    1    3    3    0  502 -0.69464111880E+02 -0.10004611715E+03 -0.12434156585E+02  0.12242996629E+03  0.00000000000E+00 0.  1.
         11    1    5    5    0    0  0.49357866167E+02  0.15497741850E+02 -0.24579974854E+02  0.57276121716E+02  0.00000000000E+00 0. -1.
        -11    1    5    5    0    0  0.14286995615E+03  0.23024700598E+03 -0.15976325384E+02  0.27144198479E+03  0.00000000000E+00 0.  1.
          2    1    6    6  503    0 -0.78660985526E+02 -0.30200052086E+02 -0.41507430067E+03  0.42354016205E+03  0.00000000000E+00 0. -1.
         -2    1    6    6    0  503 -0.35270846894E+02 -0.19506992348E+02 -0.83793726643E+03  0.83890608405E+03  0.00000000000E+00 0.  1.
<mgrwt>
<rscale>  0 0.12117968E+04</rscale>
<asrwt>0</asrwt>
<pdfrwt beam="1">  1        2 0.24626941E+00 0.12117968E+04</pdfrwt>
<pdfrwt beam="2">  1       -1 0.35282752E-01 0.12117968E+04</pdfrwt>
<totfact> 0.95692452E+01</totfact>
</mgrwt>
</event>
<event>
12    6  0.1647231E-007  0.1274481E+04  0.7818608E-02  0.9050051E-01
          2   -1    0    0  501    0  0.00000000000E+00  0.00000000000E+00  0.15384481533E+04  0.15384481533E+04  0.00000000000E+00 0. -1.
         -1   -1    0    0    0  501 -0.00000000000E+00 -0.00000000000E+00 -0.26395118019E+03  0.26395118019E+03  0.00000000000E+00 0.  1.
         24    2    1    2    0    0 -0.52905918399E+02  0.28224346667E+03  0.48606355376E+03  0.57022912289E+03  0.80268696339E+02 0.  0.
        254    2    1    2    0    0  0.52905918399E+02 -0.28224346667E+03  0.78843341935E+03  0.12321702106E+04  0.90230580209E+03 0.  0.
         23    2    4    4    0    0  0.45951294083E+03 -0.19860106520E+03  0.32618919441E+03  0.60425783604E+03  0.90186562107E+02 0.  0.
         23    2    4    4    0    0 -0.40660702243E+03 -0.83642401472E+02  0.46224422494E+03  0.62791237457E+03  0.90988486291E+02 0.  0.
          2    1    3    3  502    0 -0.26393541728E+02  0.90946442037E+02  0.23585747347E+03  0.25415865549E+03  0.00000000000E+00 0. -1.
         -1    1    3    3    0  502 -0.26512376671E+02  0.19129702463E+03  0.25020608029E+03  0.31607046740E+03  0.00000000000E+00 0.  1.
         11    1    5    5    0    0  0.32947496305E+03 -0.14991371859E+03  0.28096871458E+03  0.45822624637E+03  0.00000000000E+00 0.  1.
        -11    1    5    5    0    0  0.13003797778E+03 -0.48687346613E+02  0.45220479837E+02  0.14603158967E+03  0.00000000000E+00 0. -1.
          2    1    6    6  503    0 -0.79035917387E+02 -0.35400811780E+02  0.14771713588E+03  0.17123155651E+03  0.00000000000E+00 0. -1.
         -2    1    6    6    0  503 -0.32757110504E+03 -0.48241589692E+02  0.31452708906E+03  0.45668081806E+03  0.00000000000E+00 0.  1.
<mgrwt>
<rscale>  0 0.12744806E+04</rscale>
<asrwt>0</asrwt>
<pdfrwt beam="1">  1        2 0.23668433E+00 0.12744806E+04</pdfrwt>
<pdfrwt beam="2">  1       -1 0.40607875E-01 0.12744806E+04</pdfrwt>
<totfact> 0.80013082E+01</totfact>
</mgrwt>
</event>
<event>
12    6  0.1647231E-007  0.1330729E+04  0.7818608E-02  0.9005546E-01
         -1   -1    0    0    0  501 -0.00000000000E+00  0.00000000000E+00  0.24316742039E+03  0.24316742039E+03  0.00000000000E+00 0.  1.
          2   -1    0    0  501    0  0.00000000000E+00 -0.00000000000E+00 -0.18205967195E+04  0.18205967195E+04  0.00000000000E+00 0. -1.
         24    2    1    2    0    0 -0.31334089579E+02  0.16101312727E+03  0.54462391792E+02  0.18974267181E+03  0.78288422278E+02 0.  0.
        254    2    1    2    0    0  0.31334089579E+02 -0.16101312727E+03 -0.16318916909E+04  0.18740214681E+04  0.90663053095E+03 0.  0.
         23    2    4    4    0    0 -0.35584721297E+01  0.17921460591E+03 -0.14716954617E+04  0.14852616240E+04  0.89353353843E+02 0.  0.
         23    2    4    4    0    0  0.34892561709E+02 -0.34022773318E+03 -0.16019622916E+03  0.38875984410E+03  0.92189930375E+02 0.  0.
          4    1    3    3  502    0 -0.39384683927E+02  0.69939616287E+02  0.56722602753E+02  0.98286097275E+02  0.00000000000E+00 0. -1.
         -3    1    3    3    0  502  0.80505943485E+01  0.91073510981E+02 -0.22602109608E+01  0.91456574533E+02  0.00000000000E+00 0.  1.
         11    1    5    5    0    0 -0.31463386889E+02  0.42441483585E+02 -0.61532340699E+03  0.61758733750E+03  0.00000000000E+00 0. -1.
        -11    1    5    5    0    0  0.27904914759E+02  0.13677312233E+03 -0.85637205475E+03  0.86767428648E+03  0.00000000000E+00 0.  1.
          1    1    6    6  503    0  0.21298078027E+02 -0.16518410265E+03 -0.27779194864E+02  0.16885224181E+03  0.00000000000E+00 0. -1.
         -1    1    6    6    0  503  0.13594483681E+02 -0.17504363052E+03 -0.13241703429E+03  0.21990760229E+03  0.00000000000E+00 0.  1.
<mgrwt>
<rscale>  0 0.13307288E+04</rscale>
<asrwt>0</asrwt>
<pdfrwt beam="1">  1        2 0.28009181E+00 0.13307288E+04</pdfrwt>
<pdfrwt beam="2">  1       -1 0.37410372E-01 0.13307288E+04</pdfrwt>
<totfact> 0.64452520E+01</totfact>
</mgrwt>
</event>
<event>
12    6  0.1647231E-007  0.1529988E+04  0.7818608E-02  0.8864753E-01
         -1   -1    0    0    0  501 -0.00000000000E+00  0.00000000000E+00  0.59655765641E+03  0.59655765641E+03  0.00000000000E+00 0.  1.
          2   -1    0    0  501    0  0.00000000000E+00 -0.00000000000E+00 -0.98098787120E+03  0.98098787120E+03  0.00000000000E+00 0. -1.
         24    2    1    2    0    0 -0.18507161436E+03  0.18299943387E+03 -0.56423566209E+03  0.62803784302E+03  0.91265298194E+02 0.  0.
        254    2    1    2    0    0  0.18507161436E+03 -0.18299943387E+03  0.17980544729E+03  0.94950768459E+03  0.89526227944E+03 0.  0.
         23    2    4    4    0    0 -0.68968847030E+02 -0.51873200842E+02  0.49733466121E+03  0.51305423567E+03  0.91844176037E+02 0.  0.
         23    2    4    4    0    0  0.25404046139E+03 -0.13112623303E+03 -0.31752921392E+03  0.43645344893E+03  0.89085163629E+02 0.  0.
          2    1    3    3  502    0 -0.17492191719E+03  0.14534071044E+03 -0.40899597496E+03  0.46797361759E+03  0.00000000000E+00 0. -1.
         -1    1    3    3    0  502 -0.10149697165E+02  0.37658723429E+02 -0.15523968713E+03  0.16006422543E+03  0.00000000000E+00 0.  1.
         11    1    5    5    0    0 -0.64660160781E+02 -0.76624911582E+02  0.41693091589E+03  0.42881662992E+03  0.00000000000E+00 0. -1.
        -11    1    5    5    0    0 -0.43086862491E+01  0.24751710740E+02  0.80403745313E+02  0.84237605747E+02  0.00000000000E+00 0.  1.
          1    1    6    6  503    0  0.26057596984E+03 -0.13097468347E+03 -0.31541653040E+03  0.42958327646E+03  0.00000000000E+00 0. -1.
         -1    1    6    6    0  503 -0.65355084539E+01 -0.15154955834E+00 -0.21126835196E+01  0.68701724632E+01  0.00000000000E+00 0.  1.
<mgrwt>
<rscale>  0 0.15299880E+04</rscale>
<asrwt>0</asrwt>
<pdfrwt beam="1">  1        2 0.15092121E+00 0.15299880E+04</pdfrwt>
<pdfrwt beam="2">  1       -1 0.91778102E-01 0.15299880E+04</pdfrwt>
<totfact> 0.32974581E+01</totfact>
</mgrwt>
</event>
<event>
12    6  0.2019489E-007  0.3083908E+04  0.7818608E-02  0.8220168E-01
          2   -1    0    0  501    0  0.00000000000E+00  0.00000000000E+00  0.18232202262E+04  0.18232202262E+04  0.00000000000E+00 0. -1.
         -1   -1    0    0    0  501 -0.00000000000E+00 -0.00000000000E+00 -0.13040785312E+04  0.13040785312E+04  0.00000000000E+00 0.  1.
         24    2    1    2    0    0 -0.10703840177E+04 -0.71622166104E+03  0.80368282154E+03  0.15200948702E+04  0.78018738919E+02 0.  0.
        254    2    1    2    0    0  0.10703840177E+04  0.71622166104E+03 -0.28454112663E+03  0.16072038872E+04  0.91839276412E+03 0.  0.
         23    2    4    4    0    0  0.82449797008E+03  0.91969417338E+03 -0.30138855492E+03  0.12747108209E+04  0.91751515587E+02 0.  0.
         23    2    4    4    0    0  0.24588604763E+03 -0.20347251234E+03  0.16847428292E+02  0.33249306633E+03  0.91688557734E+02 0.  0.
          2    1    3    3  502    0 -0.10084042901E+04 -0.69488779079E+03  0.75924050459E+03  0.14409005510E+04  0.00000000000E+00 0. -1.
         -1    1    3    3    0  502 -0.61979727634E+02 -0.21333870251E+02  0.44442316954E+02  0.79194319201E+02  0.00000000000E+00 0.  1.
         11    1    5    5    0    0  0.76878101031E+01  0.24531350894E+02 -0.14046391610E+02  0.29294892356E+02  0.00000000000E+00 0. -1.
        -11    1    5    5    0    0  0.81681015998E+03  0.89516282248E+03 -0.28734216331E+03  0.12454159285E+04  0.00000000000E+00 0.  1.
          4    1    6    6  503    0  0.10335534027E+03 -0.30689193630E+02 -0.75391228350E+00  0.10781800106E+03  0.00000000000E+00 0. -1.
         -4    1    6    6    0  503  0.14253070736E+03 -0.17278331871E+03  0.17601340576E+02  0.22467506527E+03  0.00000000000E+00 0.  1.
<mgrwt>
<rscale>  0 0.30839081E+04</rscale>
<asrwt>0</asrwt>
<pdfrwt beam="1">  1        2 0.28049542E+00 0.30839081E+04</pdfrwt>
<pdfrwt beam="2">  1       -1 0.20062747E+00 0.30839081E+04</pdfrwt>
<totfact> 0.12074907E+00</totfact>
</mgrwt>
</event>
<event>
12    6  0.1647231E-007  0.2989922E+04  0.7818608E-02  0.8246614E-01
          2   -1    0    0  501    0  0.00000000000E+00  0.00000000000E+00  0.19856545656E+04  0.19856545656E+04  0.00000000000E+00 0. -1.
         -3   -1    0    0    0  501 -0.00000000000E+00 -0.00000000000E+00 -0.11255275575E+04  0.11255275575E+04  0.00000000000E+00 0.  1.
         24    2    1    2    0    0 -0.13171708199E+04 -0.22736252032E+03  0.72359998060E+01  0.13390286690E+04  0.79452704364E+02 0.  0.
        254    2    1    2    0    0  0.13171708199E+04  0.22736252032E+03  0.85289100831E+03  0.17721534541E+04  0.79149991060E+03 0.  0.
         23    2    4    4    0    0  0.71814173166E+03  0.44087026628E+03  0.72838967198E+03  0.11176527627E+04  0.92206535986E+02 0.  0.
         23    2    4    4    0    0  0.59902908822E+03 -0.21350774596E+03  0.12450133633E+03  0.65450069141E+03  0.91919346163E+02 0.  0.
          2    1    3    3  502    0 -0.26163943745E+03 -0.74895408495E+02 -0.11282634746E+02  0.27238174551E+03  0.00000000000E+00 0. -1.
         -1    1    3    3    0  502 -0.10555313824E+04 -0.15246711182E+03  0.18518634552E+02  0.10666469234E+04  0.00000000000E+00 0.  1.
         11    1    5    5    0    0  0.18486459948E+03  0.14742844224E+03  0.16572158323E+03  0.28874505862E+03  0.00000000000E+00 0.  1.
        -11    1    5    5    0    0  0.53327713218E+03  0.29344182403E+03  0.56266808875E+03  0.82890770408E+03  0.00000000000E+00 0. -1.
          3    1    6    6  503    0  0.52860876362E+03 -0.20892277558E+03  0.13203084508E+03  0.58353071486E+03  0.00000000000E+00 0. -1.
         -3    1    6    6    0  503  0.70420324598E+02 -0.45849703731E+01 -0.75295087534E+01  0.70969976553E+02  0.00000000000E+00 0.  1.
<mgrwt>
<rscale>  0 0.29899224E+04</rscale>
<asrwt>0</asrwt>
<pdfrwt beam="1">  1        2 0.30548532E+00 0.29899224E+04</pdfrwt>
<pdfrwt beam="2">  1       -3 0.17315809E+00 0.29899224E+04</pdfrwt>
<totfact> 0.81288352E-01</totfact>
</mgrwt>
</event>
<event>
12    6  0.1647231E-007  0.1903663E+04  0.7818608E-02  0.8653035E-01
          2   -1    0    0  501    0  0.00000000000E+00  0.00000000000E+00  0.19129267902E+04  0.19129267902E+04  0.00000000000E+00 0. -1.
         -1   -1    0    0    0  501 -0.00000000000E+00 -0.00000000000E+00 -0.47361123098E+03  0.47361123098E+03  0.00000000000E+00 0.  1.
         24    2    1    2    0    0  0.40034044515E+03  0.62166644801E+03  0.55568874131E+03  0.92809554729E+03  0.76352623243E+02 0.  0.
        254    2    1    2    0    0 -0.40034044515E+03 -0.62166644801E+03  0.88362681794E+03  0.14584424739E+04  0.89415683846E+03 0.  0.
         23    2    4    4    0    0 -0.18341043859E+03 -0.17594344716E+03 -0.14947468004E+03  0.30911958013E+03  0.92826447036E+02 0.  0.
         23    2    4    4    0    0 -0.21693000657E+03 -0.44572300085E+03  0.10331014980E+04  0.11493228938E+04  0.88976332961E+02 0.  0.
          2    1    3    3  502    0  0.12888664181E+03  0.14082510588E+03  0.15391576759E+03  0.24522141097E+03  0.00000000000E+00 0. -1.
         -1    1    3    3    0  502  0.27145380334E+03  0.48084134213E+03  0.40177297372E+03  0.68287413632E+03  0.00000000000E+00 0.  1.
         11    1    5    5    0    0 -0.15271493975E+02 -0.60206244716E+02 -0.59618157184E+02  0.86094919113E+02  0.00000000000E+00 0. -1.
        -11    1    5    5    0    0 -0.16813894461E+03 -0.11573720244E+03 -0.89856522856E+02  0.22302466102E+03  0.00000000000E+00 0.  1.
          4    1    6    6  503    0 -0.83930723132E+02 -0.24670436505E+03  0.60736753882E+03  0.66091053649E+03  0.00000000000E+00 0. -1.
         -4    1    6    6    0  503 -0.13299928344E+03 -0.19901863580E+03  0.42573395916E+03  0.48841235731E+03  0.00000000000E+00 0.  1.
<mgrwt>
<rscale>  0 0.19036634E+04</rscale>
<asrwt>0</asrwt>
<pdfrwt beam="1">  1        2 0.29429643E+00 0.19036634E+04</pdfrwt>
<pdfrwt beam="2">  1       -1 0.72863267E-01 0.19036634E+04</pdfrwt>
<totfact> 0.15122470E+01</totfact>
</mgrwt>
</event>
<event>
12    6  0.1647231E-007  0.1954142E+04  0.7818608E-02  0.8628366E-01
          2   -1    0    0  501    0  0.00000000000E+00  0.00000000000E+00  0.34087024578E+04  0.34087024578E+04  0.00000000000E+00 0. -1.
         -1   -1    0    0    0  501 -0.00000000000E+00 -0.00000000000E+00 -0.28006768527E+03  0.28006768527E+03  0.00000000000E+00 0.  1.
         24    2    1    2    0    0  0.13273836409E+03  0.50161990967E+03  0.18671721926E+03  0.55767874932E+03  0.83067806024E+02 0.  0.
        254    2    1    2    0    0 -0.13273836409E+03 -0.50161990967E+03  0.29419175532E+04  0.31310913937E+04  0.93787654768E+03 0.  0.
         23    2    4    4    0    0  0.32811625295E+03 -0.17518004136E+03  0.19396297933E+04  0.19770082435E+04  0.89719215124E+02 0.  0.
         23    2    4    4    0    0 -0.46085461703E+03 -0.32643986831E+03  0.10022877599E+04  0.11540831502E+04  0.91527035222E+02 0.  0.
          2    1    3    3  502    0  0.92822436414E+00  0.15366380151E+02  0.23507879068E+02  0.28099957610E+02  0.00000000000E+00 0. -1.
         -1    1    3    3    0  502  0.13181013972E+03  0.48625352952E+03  0.16320934019E+03  0.52957879171E+03  0.00000000000E+00 0.  1.
         11    1    5    5    0    0  0.82367240312E+02 -0.89071033164E+02  0.55487612224E+03  0.56798373414E+03  0.00000000000E+00 0. -1.
        -11    1    5    5    0    0  0.24574901263E+03 -0.86109008200E+02  0.13847536711E+04  0.14090245094E+04  0.00000000000E+00 0.  1.
          1    1    6    6  503    0 -0.18727931645E+03 -0.79109269025E+02  0.35161448747E+03  0.40615830241E+03  0.00000000000E+00 0. -1.
         -1    1    6    6    0  503 -0.27357530058E+03 -0.24733059928E+03  0.65067327245E+03  0.74792484777E+03  0.00000000000E+00 0.  1.
<mgrwt>
<rscale>  0 0.19541417E+04</rscale>
<asrwt>0</asrwt>
<pdfrwt beam="1">  1        2 0.52441573E+00 0.19541417E+04</pdfrwt>
<pdfrwt beam="2">  1       -1 0.43087339E-01 0.19541417E+04</pdfrwt>
<totfact> 0.53294353E+00</totfact>
</mgrwt>
</event>
<event>
12    6  0.1647231E-007  0.1165379E+04  0.7818608E-02  0.9143712E-01
          2   -1    0    0  501    0  0.00000000000E+00  0.00000000000E+00  0.15522191245E+04  0.15522191245E+04  0.00000000000E+00 0. -1.
         -1   -1    0    0    0  501 -0.00000000000E+00 -0.00000000000E+00 -0.21873650081E+03  0.21873650081E+03  0.00000000000E+00 0.  1.
         24    2    1    2    0    0  0.14058458526E+03 -0.15078570368E+03  0.28286598506E+03  0.35931014714E+03  0.81180430433E+02 0.  0.
        254    2    1    2    0    0 -0.14058458526E+03  0.15078570368E+03  0.10506166386E+04  0.14116454782E+04  0.92002569563E+03 0.  0.
         23    2    4    4    0    0  0.25712733478E+03 -0.24695499274E+03  0.33892589123E+03  0.50015522682E+03  0.90461353266E+02 0.  0.
         23    2    4    4    0    0 -0.39771192003E+03  0.39774069643E+03  0.71169074741E+03  0.91149025136E+03  0.89097280817E+02 0.  0.
          2    1    3    3  502    0  0.11554482952E+02  0.39525836782E+01  0.49595147149E+02  0.51076487886E+02  0.00000000000E+00 0. -1.
         -1    1    3    3    0  502  0.12903010230E+03 -0.15473828736E+03  0.23327083791E+03  0.30823365925E+03  0.00000000000E+00 0.  1.
         11    1    5    5    0    0  0.18150928069E+02 -0.52270815469E+02  0.81768166370E+02  0.98730579716E+02  0.00000000000E+00 0. -1.
        -11    1    5    5    0    0  0.23897640671E+03 -0.19468417727E+03  0.25715772486E+03  0.40142464710E+03  0.00000000000E+00 0.  1.
          3    1    6    6  503    0 -0.56672337679E+00  0.78360296314E+01 -0.20745968001E+00  0.78592350321E+01  0.00000000000E+00 0. -1.
         -3    1    6    6    0  503 -0.39714519666E+03  0.38990466679E+03  0.71189820709E+03  0.90363101633E+03  0.00000000000E+00 0.  1.
<mgrwt>
<rscale>  0 0.11653789E+04</rscale>
<asrwt>0</asrwt>
<pdfrwt beam="1">  1        2 0.23880294E+00 0.11653789E+04</pdfrwt>
<pdfrwt beam="2">  1       -1 0.33651770E-01 0.11653789E+04</pdfrwt>
<totfact> 0.11121483E+02</totfact>
</mgrwt>
</event>
<event>
12    6  0.1647231E-007  0.1463032E+04  0.7818608E-02  0.8909415E-01
          2   -1    0    0  501    0  0.00000000000E+00  0.00000000000E+00  0.20294006740E+04  0.20294006740E+04  0.00000000000E+00 0. -1.
         -1   -1    0    0    0  501 -0.00000000000E+00 -0.00000000000E+00 -0.26368159870E+03  0.26368159870E+03  0.00000000000E+00 0.  1.
         24    2    1    2    0    0  0.57296433885E+02 -0.21786805980E+03 -0.56739220160E+02  0.24537222004E+03  0.78986166173E+02 0.  0.
        254    2    1    2    0    0 -0.57296433885E+02  0.21786805980E+03  0.18224582955E+04  0.20477100527E+04  0.90609759313E+03 0.  0.
         23    2    4    4    0    0 -0.23981777869E+03  0.26727359606E+03  0.17992844432E+04  0.18369655054E+04  0.89833282339E+02 0.  0.
         23    2    4    4    0    0  0.18252134481E+03 -0.49405536255E+02  0.23173852298E+02  0.21074454723E+03  0.90118191480E+02 0.  0.
          4    1    3    3  502    0  0.32384930878E+02 -0.90067806270E+02 -0.63713494346E+02  0.11498001059E+03  0.00000000000E+00 0. -1.
         -3    1    3    3    0  502  0.24911503007E+02 -0.12780025353E+03  0.69742741854E+01  0.13039220945E+03  0.00000000000E+00 0.  1.
         11    1    5    5    0    0 -0.51721338659E+02  0.75216740337E+02  0.29331721205E+03  0.30719316689E+03  0.00000000000E+00 0.  1.
        -11    1    5    5    0    0 -0.18809644003E+03  0.19205685572E+03  0.15059672311E+04  0.15297723385E+04  0.00000000000E+00 0. -1.
          2    1    6    6  503    0  0.12769719089E+03 -0.11863066556E+02 -0.22376132953E+02  0.13018447003E+03  0.00000000000E+00 0. -1.
         -2    1    6    6    0  503  0.54824153916E+02 -0.37542469699E+02  0.45549985250E+02  0.80560077209E+02  0.00000000000E+00 0.  1.
<mgrwt>
<rscale>  0 0.14630319E+04</rscale>
<asrwt>0</asrwt>
<pdfrwt beam="1">  1        2 0.31221548E+00 0.14630319E+04</pdfrwt>
<pdfrwt beam="2">  1       -1 0.40566401E-01 0.14630319E+04</pdfrwt>
<totfact> 0.42170370E+01</totfact>
</mgrwt>
</event>
<event>
12    6  0.1647231E-007  0.1518834E+04  0.7818608E-02  0.8872024E-01
         -1   -1    0    0    0  501 -0.00000000000E+00  0.00000000000E+00  0.26278577874E+03  0.26278577874E+03  0.00000000000E+00 0.  1.
          2   -1    0    0  501    0  0.00000000000E+00 -0.00000000000E+00 -0.21946183637E+04  0.21946183637E+04  0.00000000000E+00 0. -1.
         24    2    1    2    0    0 -0.32822863266E+03 -0.25355904837E+03 -0.16803835525E+03  0.45334229035E+03  0.72499083265E+02 0.  0.
        254    2    1    2    0    0  0.32822863266E+03  0.25355904837E+03 -0.17637942297E+04  0.20040618521E+04  0.85631045536E+03 0.  0.
         23    2    4    4    0    0  0.57577882280E+03  0.20551157384E+03 -0.84677832982E+03  0.10488849451E+04  0.96797873542E+02 0.  0.
         23    2    4    4    0    0 -0.24755019015E+03  0.48047474533E+02 -0.91701589988E+03  0.95517690704E+03  0.88629039598E+02 0.  0.
          4    1    3    3  502    0 -0.90562633311E+02 -0.85925870415E+02 -0.18144602001E+02  0.12615099025E+03  0.00000000000E+00 0. -1.
         -3    1    3    3    0  502 -0.23766599934E+03 -0.16763317796E+03 -0.14989375325E+03  0.32719130010E+03  0.00000000000E+00 0.  1.
         11    1    5    5    0    0  0.50362015869E+03  0.14325315543E+03 -0.72198063499E+03  0.89185804256E+03  0.00000000000E+00 0. -1.
        -11    1    5    5    0    0  0.72158664109E+02  0.62258418409E+02 -0.12479769483E+03  0.15702690249E+03  0.00000000000E+00 0.  1.
          2    1    6    6  503    0 -0.14728073497E+03 -0.25590360805E+01 -0.62942768806E+03  0.64643435711E+03  0.00000000000E+00 0. -1.
         -2    1    6    6    0  503 -0.10026945518E+03  0.50606510613E+02 -0.28758821182E+03  0.30874254993E+03  0.00000000000E+00 0.  1.
<mgrwt>
<rscale>  0 0.15188344E+04</rscale>
<asrwt>0</asrwt>
<pdfrwt beam="1">  1        2 0.33763361E+00 0.15188344E+04</pdfrwt>
<pdfrwt beam="2">  1       -1 0.40428579E-01 0.15188344E+04</pdfrwt>
<totfact> 0.34164897E+01</totfact>
</mgrwt>
</event>
<event>
12    6  0.1647231E-007  0.1946487E+04  0.7818608E-02  0.8632056E-01
         -1   -1    0    0    0  501 -0.00000000000E+00  0.00000000000E+00  0.67374447524E+03  0.67374447524E+03  0.00000000000E+00 0.  1.
          2   -1    0    0  501    0  0.00000000000E+00 -0.00000000000E+00 -0.14058790898E+04  0.14058790898E+04  0.00000000000E+00 0. -1.
         24    2    1    2    0    0 -0.45160059676E+03 -0.30773840175E+03 -0.85926298864E+03  0.10212077642E+04  0.76722820290E+02 0.  0.
        254    2    1    2    0    0  0.45160059676E+03  0.30773840175E+03  0.12712837408E+03  0.10584158008E+04  0.89746106380E+03 0.  0.
         23    2    4    4    0    0 -0.38299967431E+02  0.38478014633E+03 -0.21348804319E+03  0.44994606859E+03  0.85741889016E+02 0.  0.
         23    2    4    4    0    0  0.48990056419E+03 -0.77041744588E+02  0.34061641727E+03  0.60846973223E+03  0.90982845216E+02 0.  0.
          4    1    3    3  502    0 -0.31893115734E+03 -0.24403743618E+03 -0.67446632531E+03  0.78496890216E+03  0.00000000000E+00 0. -1.
         -3    1    3    3    0  502 -0.13266943942E+03 -0.63700965565E+02 -0.18479666333E+03  0.23623886206E+03  0.00000000000E+00 0.  1.
         11    1    5    5    0    0 -0.62607905268E+02  0.32115464700E+03 -0.18698932802E+03  0.37686213114E+03  0.00000000000E+00 0.  1.
        -11    1    5    5    0    0  0.24307937837E+02  0.63625499334E+02 -0.26498715177E+02  0.73083937451E+02  0.00000000000E+00 0. -1.
          1    1    6    6  503    0  0.81291014496E+02 -0.27501390727E+02  0.23794860321E+02  0.89054763530E+02  0.00000000000E+00 0. -1.
         -1    1    6    6    0  503  0.40860954970E+03 -0.49540353860E+02  0.31682155695E+03  0.51941496870E+03  0.00000000000E+00 0.  1.
<mgrwt>
<rscale>  0 0.19464874E+04</rscale>
<asrwt>0</asrwt>
<pdfrwt beam="1">  1        2 0.21628909E+00 0.19464874E+04</pdfrwt>
<pdfrwt beam="2">  1       -1 0.10365300E+00 0.19464874E+04</pdfrwt>
<totfact> 0.13396440E+01</totfact>
</mgrwt>
</event>
<event>
12    6  0.1647231E-007  0.2319200E+04  0.7818608E-02  0.8470389E-01
         -1   -1    0    0    0  501 -0.00000000000E+00  0.00000000000E+00  0.10962626393E+04  0.10962626393E+04  0.00000000000E+00 0.  1.
          2   -1    0    0  501    0  0.00000000000E+00 -0.00000000000E+00 -0.12265965588E+04  0.12265965588E+04  0.00000000000E+00 0. -1.
         24    2    1    2    0    0  0.23540345198E+02  0.98346521386E+03 -0.10858769514E+03  0.99288015763E+03  0.79131189473E+02 0.  0.
        254    2    1    2    0    0 -0.23540345198E+02 -0.98346521386E+03 -0.21746224346E+02  0.13299790405E+04  0.89477001243E+03 0.  0.
         23    2    4    4    0    0 -0.22692271543E+03 -0.45141811699E+03 -0.39061218259E+03  0.64506234167E+03  0.90858749380E+02 0.  0.
         23    2    4    4    0    0  0.20338237023E+03 -0.53204709688E+03  0.36886595824E+03  0.68491669882E+03  0.92791634073E+02 0.  0.
          2    1    3    3  502    0 -0.14253173064E+02  0.40301403971E+02 -0.11990309833E+00  0.42747754107E+02  0.00000000000E+00 0. -1.
         -1    1    3    3    0  502  0.37793518263E+02  0.94316380989E+03 -0.10846779204E+03  0.95013240352E+03  0.00000000000E+00 0.  1.
         11    1    5    5    0    0 -0.20020700603E+02 -0.12681744864E+03 -0.10059758675E+03  0.16310538984E+03  0.00000000000E+00 0. -1.
        -11    1    5    5    0    0 -0.20690201483E+03 -0.32460066834E+03 -0.29001459583E+03  0.48195695184E+03  0.00000000000E+00 0.  1.
          3    1    6    6  503    0  0.72355603684E+01 -0.11445414444E+03  0.57283906414E+02  0.12819341031E+03  0.00000000000E+00 0. -1.
         -3    1    6    6    0  503  0.19614680986E+03 -0.41759295244E+03  0.31158205183E+03  0.55672328851E+03  0.00000000000E+00 0.  1.
<mgrwt>
<rscale>  0 0.23191998E+04</rscale>
<asrwt>0</asrwt>
<pdfrwt beam="1">  1        2 0.18870716E+00 0.23191998E+04</pdfrwt>
<pdfrwt beam="2">  1       -1 0.16865579E+00 0.23191998E+04</pdfrwt>
<totfact> 0.47433761E+00</totfact>
</mgrwt>
</event>
<event>
12    6  0.1647231E-007  0.3241316E+04  0.7818608E-02  0.8177990E-01
         -1   -1    0    0    0  501 -0.00000000000E+00  0.00000000000E+00  0.13119601747E+04  0.13119601747E+04  0.00000000000E+00 0.  1.
          2   -1    0    0  501    0  0.00000000000E+00 -0.00000000000E+00 -0.20019905880E+04  0.20019905880E+04  0.00000000000E+00 0. -1.
         24    2    1    2    0    0 -0.99131700247E+03 -0.74553707174E+03  0.56322305902E+03  0.13645295475E+04  0.78649520986E+02 0.  0.
        254    2    1    2    0    0  0.99131700247E+03  0.74553707174E+03 -0.12532534723E+04  0.19494212151E+04  0.83130252216E+03 0.  0.
         23    2    4    4    0    0  0.72462263524E+02  0.37334864504E+03 -0.72215042479E+03  0.82123835340E+03  0.91056063375E+02 0.  0.
         23    2    4    4    0    0  0.91885473895E+03  0.37218842671E+03 -0.53110304752E+03  0.11281828617E+04  0.88926183593E+02 0.  0.
          4    1    3    3  502    0 -0.35153406911E+03 -0.24704768692E+03  0.15717058202E+03  0.45750557725E+03  0.00000000000E+00 0. -1.
         -3    1    3    3    0  502 -0.63978293336E+03 -0.49848938483E+03  0.40605247700E+03  0.90702397029E+03  0.00000000000E+00 0.  1.
         11    1    5    5    0    0  0.66427700249E+02  0.37114169980E+03 -0.72232767098E+03  0.81481044725E+03  0.00000000000E+00 0.  1.
        -11    1    5    5    0    0  0.60345632749E+01  0.22069452365E+01  0.17724618613E+00  0.64279061448E+01  0.00000000000E+00 0. -1.
          2    1    6    6  503    0  0.15201753786E+03  0.98187376632E+02 -0.10149089830E+03  0.20748613251E+03  0.00000000000E+00 0. -1.
         -2    1    6    6    0  503  0.76683720109E+03  0.27400105007E+03 -0.42961214922E+03  0.92069672920E+03  0.00000000000E+00 0.  1.
<mgrwt>
<rscale>  0 0.32413157E+04</rscale>
<asrwt>0</asrwt>
<pdfrwt beam="1">  1        2 0.30799855E+00 0.32413157E+04</pdfrwt>
<pdfrwt beam="2">  1       -1 0.20184003E+00 0.32413157E+04</pdfrwt>
<totfact> 0.92986373E-01</totfact>
</mgrwt>
</event>
<event>
12    6  0.1647231E-007  0.1908475E+04  0.7818608E-02  0.8650649E-01
          2   -1    0    0  501    0  0.00000000000E+00  0.00000000000E+00  0.30145211540E+04  0.30145211540E+04  0.00000000000E+00 0. -1.
         -1   -1    0    0    0  501 -0.00000000000E+00 -0.00000000000E+00 -0.30206106796E+03  0.30206106796E+03  0.00000000000E+00 0.  1.
         24    2    1    2    0    0  0.51004303707E+03  0.15038591034E+03  0.19136220333E+04  0.19873529853E+04  0.69733638785E+02 0.  0.
        254    2    1    2    0    0 -0.51004303707E+03 -0.15038591034E+03  0.79883805283E+03  0.13292292367E+04  0.91975448210E+03 0.  0.
         23    2    4    4    0    0 -0.15573041294E+03 -0.40540846629E+03  0.34889804733E+02  0.44488166720E+03  0.89968957329E+02 0.  0.
         23    2    4    4    0    0 -0.35431262412E+03  0.25502255595E+03  0.76394824809E+03  0.88434756949E+03  0.88768002338E+02 0.  0.
          2    1    3    3  502    0  0.48930315816E+03  0.15262955322E+03  0.18704319868E+04  0.19393888672E+04  0.00000000000E+00 0. -1.
         -1    1    3    3    0  502  0.20739878910E+02 -0.22436428741E+01  0.43190046478E+02  0.47964118103E+02  0.00000000000E+00 0.  1.
         11    1    5    5    0    0 -0.45519636528E+02 -0.82124651772E+02  0.42904312158E+02  0.10323408226E+03  0.00000000000E+00 0. -1.
        -11    1    5    5    0    0 -0.11021077642E+03 -0.32328381452E+03 -0.80145074251E+01  0.34164758494E+03  0.00000000000E+00 0.  1.
          4    1    6    6  503    0 -0.13167667646E+03  0.50094234018E+02  0.20489498751E+03  0.24865666151E+03  0.00000000000E+00 0. -1.
         -4    1    6    6    0  503 -0.22263594766E+03  0.20492832193E+03  0.55905326058E+03  0.63569090798E+03  0.00000000000E+00 0.  1.
<mgrwt>
<rscale>  0 0.19084753E+04</rscale>
<asrwt>0</asrwt>
<pdfrwt beam="1">  1        2 0.46377247E+00 0.19084753E+04</pdfrwt>
<pdfrwt beam="2">  1       -1 0.46470936E-01 0.19084753E+04</pdfrwt>
<totfact> 0.84012064E+00</totfact>
</mgrwt>
</event>
<event>
12    6  0.1647231E-007  0.3277383E+04  0.7818608E-02  0.8168674E-01
         -1   -1    0    0    0  501 -0.00000000000E+00  0.00000000000E+00  0.14319346537E+04  0.14319346537E+04  0.00000000000E+00 0.  1.
          2   -1    0    0  501    0  0.00000000000E+00 -0.00000000000E+00 -0.18753015939E+04  0.18753015939E+04  0.00000000000E+00 0. -1.
         24    2    1    2    0    0  0.14287392699E+04 -0.41988396091E+03 -0.42881690209E+03  0.15517312983E+04  0.79922741042E+02 0.  0.
        254    2    1    2    0    0 -0.14287392699E+04  0.41988396091E+03 -0.14550038104E+02  0.17555049494E+04  0.92950926923E+03 0.  0.
         23    2    4    4    0    0 -0.38164785018E+03  0.42123462639E+03  0.31063164551E+03  0.65488219766E+03  0.96358609432E+02 0.  0.
         23    2    4    4    0    0 -0.10470914197E+04 -0.13506654772E+01 -0.32518168361E+03  0.11006227517E+04  0.96047116622E+02 0.  0.
          2    1    3    3  502    0  0.19505963185E+02 -0.15392814414E+02 -0.11366929231E+02  0.27324502110E+02  0.00000000000E+00 0. -1.
         -1    1    3    3    0  502  0.14092333067E+04 -0.40449114649E+03 -0.41744997286E+03  0.15244067962E+04  0.00000000000E+00 0.  1.
         11    1    5    5    0    0 -0.31660991618E+02  0.82846747549E+02  0.62250569403E+02  0.10835651970E+03  0.00000000000E+00 0. -1.
        -11    1    5    5    0    0 -0.34998685857E+03  0.33838787884E+03  0.24838107610E+03  0.54652567797E+03  0.00000000000E+00 0.  1.
          3    1    6    6  503    0 -0.18377157234E+03  0.34398215073E+02 -0.45414432531E+02  0.19239984065E+03  0.00000000000E+00 0. -1.
         -3    1    6    6    0  503 -0.86331984739E+03 -0.35748880550E+02 -0.27976725108E+03  0.90822291104E+03  0.00000000000E+00 0.  1.
<mgrwt>
<rscale>  0 0.32773827E+04</rscale>
<asrwt>0</asrwt>
<pdfrwt beam="1">  1        2 0.28850794E+00 0.32773827E+04</pdfrwt>
<pdfrwt beam="2">  1       -1 0.22029764E+00 0.32773827E+04</pdfrwt>
<totfact> 0.81731984E-01</totfact>
</mgrwt>
</event>
<event>
12    6  0.1647231E-007  0.1724091E+04  0.7818608E-02  0.8747743E-01
         -1   -1    0    0    0  501 -0.00000000000E+00  0.00000000000E+00  0.13247157037E+04  0.13247157037E+04  0.00000000000E+00 0.  1.
          2   -1    0    0  501    0  0.00000000000E+00 -0.00000000000E+00 -0.56096728511E+03  0.56096728511E+03  0.00000000000E+00 0. -1.
         24    2    1    2    0    0 -0.21817072654E+03 -0.51642837654E+03 -0.85074028558E+02  0.57267978730E+03  0.80173651739E+02 0.  0.
        254    2    1    2    0    0  0.21817072654E+03  0.51642837654E+03  0.84882244715E+03  0.13130032015E+04  0.83016933596E+03 0.  0.
         23    2    4    4    0    0  0.12851681509E+03  0.27142030560E+03  0.96239228550E+03  0.10134429144E+04  0.10335412705E+03 0.  0.
         23    2    4    4    0    0  0.89653911447E+02  0.24500807094E+03 -0.11356983834E+03  0.29956028708E+03  0.93656173055E+02 0.  0.
          2    1    3    3  502    0 -0.19972278116E+03 -0.50649377734E+03 -0.88027773544E+02  0.55151974100E+03  0.00000000000E+00 0. -1.
         -1    1    3    3    0  502 -0.18447945381E+02 -0.99345992029E+01  0.29537449858E+01  0.21160046303E+02  0.00000000000E+00 0.  1.
         11    1    5    5    0    0  0.14341100121E+03  0.24383129340E+03  0.81333103878E+03  0.86112008080E+03  0.00000000000E+00 0.  1.
        -11    1    5    5    0    0 -0.14894186118E+02  0.27589012203E+02  0.14906124671E+03  0.15232283363E+03  0.00000000000E+00 0. -1.
          4    1    6    6  503    0 -0.43044711619E+00  0.46562012110E+01 -0.28901321830E+02  0.29277156589E+02  0.00000000000E+00 0. -1.
         -4    1    6    6    0  503  0.90084358563E+02  0.24035186973E+03 -0.84668516511E+02  0.27028313049E+03  0.00000000000E+00 0.  1.
<mgrwt>
<rscale>  0 0.17240907E+04</rscale>
<asrwt>0</asrwt>
<pdfrwt beam="1">  1        2 0.86302659E-01 0.17240907E+04</pdfrwt>
<pdfrwt beam="2">  1       -1 0.20380242E+00 0.17240907E+04</pdfrwt>
<totfact> 0.82674415E+00</totfact>
</mgrwt>
</event>
<event>
12    6  0.1647231E-007  0.1539406E+04  0.7818608E-02  0.8858663E-01
         -1   -1    0    0    0  501 -0.00000000000E+00  0.00000000000E+00  0.36823098322E+03  0.36823098322E+03  0.00000000000E+00 0.  1.
          2   -1    0    0  501    0  0.00000000000E+00 -0.00000000000E+00 -0.16088886644E+04  0.16088886644E+04  0.00000000000E+00 0. -1.
         24    2    1    2    0    0  0.20070568434E+03 -0.24093872898E+03 -0.92898121639E+03  0.98373857337E+03  0.80007733901E+02 0.  0.
        254    2    1    2    0    0 -0.20070568434E+03  0.24093872898E+03 -0.31167646480E+03  0.99338107427E+03  0.88956702792E+03 0.  0.
         23    2    4    4    0    0 -0.33474103968E+03  0.13735274762E+03  0.21597027825E+03  0.43126988456E+03  0.91832517771E+02 0.  0.
         23    2    4    4    0    0  0.13403535533E+03  0.10358598136E+03 -0.52764674305E+03  0.56211118971E+03  0.94140172779E+02 0.  0.
          4    1    3    3  502    0  0.19675459853E+03 -0.24637008591E+03 -0.91997083510E+03  0.97250034895E+03  0.00000000000E+00 0. -1.
         -3    1    3    3    0  502  0.39510858146E+01  0.54313569258E+01 -0.90103812854E+01  0.11238224418E+02  0.00000000000E+00 0.  1.
         11    1    5    5    0    0 -0.33279087550E+03  0.13266625714E+03  0.19140306403E+03  0.40618374601E+03  0.00000000000E+00 0. -1.
        -11    1    5    5    0    0 -0.19501641776E+01  0.46864904786E+01  0.24567214212E+02  0.25086138552E+02  0.00000000000E+00 0.  1.
          3    1    6    6  503    0  0.12770768054E+03  0.45896291448E+02 -0.37584547352E+03  0.39959422068E+03  0.00000000000E+00 0. -1.
         -3    1    6    6    0  503  0.63276747925E+01  0.57689689912E+02 -0.15180126953E+03  0.16251696903E+03  0.00000000000E+00 0.  1.
<mgrwt>
<rscale>  0 0.15394059E+04</rscale>
<asrwt>0</asrwt>
<pdfrwt beam="1">  1        2 0.24752133E+00 0.15394059E+04</pdfrwt>
<pdfrwt beam="2">  1       -1 0.56650920E-01 0.15394059E+04</pdfrwt>
<totfact> 0.38161403E+01</totfact>
</mgrwt>
</event>
<event>
12    6  0.1647231E-007  0.1975805E+04  0.7818608E-02  0.8618017E-01
          2   -1    0    0  501    0  0.00000000000E+00  0.00000000000E+00  0.28860016797E+04  0.28860016797E+04  0.00000000000E+00 0. -1.
         -1   -1    0    0    0  501 -0.00000000000E+00 -0.00000000000E+00 -0.33816741147E+03  0.33816741147E+03  0.00000000000E+00 0.  1.
         24    2    1    2    0    0  0.11669442844E+03  0.75715826466E+03  0.12537363973E+04  0.14713790268E+04  0.78708698557E+02 0.  0.
        254    2    1    2    0    0 -0.11669442844E+03 -0.75715826466E+03  0.12940978709E+04  0.17527900644E+04  0.90037630068E+03 0.  0.
         23    2    4    4    0    0  0.31410499962E+03 -0.35692891477E+03  0.23806342352E+03  0.54111144303E+03  0.10033543330E+03 0.  0.
         23    2    4    4    0    0 -0.43079942806E+03 -0.40022934990E+03  0.10560344474E+04  0.12116786213E+04  0.84762300408E+02 0.  0.
          4    1    3    3  502    0  0.94005390703E+02  0.71457126076E+03  0.11538550167E+04  0.13604523144E+04  0.00000000000E+00 0. -1.
         -3    1    3    3    0  502  0.22689037735E+02  0.42587003901E+02  0.99881380597E+02  0.11092671240E+03  0.00000000000E+00 0.  1.
         11    1    5    5    0    0  0.13568596790E+02 -0.63625473695E+02  0.43720665106E+02  0.78382423279E+02  0.00000000000E+00 0. -1.
        -11    1    5    5    0    0  0.30053640283E+03 -0.29330344107E+03  0.19434275842E+03  0.46272901975E+03  0.00000000000E+00 0.  1.
          3    1    6    6  503    0 -0.11154639314E+03 -0.56777193811E+02  0.21838411883E+03  0.25170989436E+03  0.00000000000E+00 0. -1.
         -3    1    6    6    0  503 -0.31925303492E+03 -0.34345215609E+03  0.83765032856E+03  0.95996872697E+03  0.00000000000E+00 0.  1.
<mgrwt>
<rscale>  0 0.19758054E+04</rscale>
<asrwt>0</asrwt>
<pdfrwt beam="1">  1        2 0.44400024E+00 0.19758054E+04</pdfrwt>
<pdfrwt beam="2">  1       -1 0.52025757E-01 0.19758054E+04</pdfrwt>
<totfact> 0.80938837E+00</totfact>
</mgrwt>
</event>
<event>
12    6  0.1647231E-007  0.1326882E+04  0.7818608E-02  0.9008515E-01
          2   -1    0    0  501    0  0.00000000000E+00  0.00000000000E+00  0.48701960560E+04  0.48701960560E+04  0.00000000000E+00 0. -1.
         -1   -1    0    0    0  501 -0.00000000000E+00 -0.00000000000E+00 -0.90377046091E+02  0.90377046091E+02  0.00000000000E+00 0.  1.
         24    2    1    2    0    0  0.30810605457E+02  0.26783409027E+03  0.21891520795E+04  0.22067181140E+04  0.67332115797E+02 0.  0.
        254    2    1    2    0    0 -0.30810605457E+02 -0.26783409027E+03  0.25906669304E+04  0.27538549882E+04  0.89413520131E+03 0.  0.
         23    2    4    4    0    0  0.26679011677E+02 -0.31383284870E+03  0.26128811059E+04  0.26333758852E+04  0.91203358079E+02 0.  0.
         23    2    4    4    0    0 -0.57489617133E+02  0.45998758429E+02 -0.22214175522E+02  0.12047910295E+03  0.92740513254E+02 0.  0.
          2    1    3    3  502    0  0.23133379336E+02  0.26903357104E+03  0.21182892453E+04  0.21354305286E+04  0.00000000000E+00 0. -1.
         -1    1    3    3    0  502  0.76772261210E+01 -0.11994807641E+01  0.70862834221E+02  0.71287585377E+02  0.00000000000E+00 0.  1.
         11    1    5    5    0    0 -0.19655808103E+02 -0.20460468718E+02  0.33784354103E+03  0.33903280046E+03  0.00000000000E+00 0. -1.
        -11    1    5    5    0    0  0.46334819780E+02 -0.29337237998E+03  0.22750375649E+04  0.22943430847E+04  0.00000000000E+00 0.  1.
          4    1    6    6  503    0  0.20736257107E+02 -0.90032825110E+01 -0.16540211192E+01  0.22666875406E+02  0.00000000000E+00 0. -1.
         -4    1    6    6    0  503 -0.78225874241E+02  0.55002040940E+02 -0.20560154403E+02  0.97812227545E+02  0.00000000000E+00 0.  1.
<mgrwt>
<rscale>  0 0.13268820E+04</rscale>
<asrwt>0</asrwt>
<pdfrwt beam="1">  1        2 0.74926073E+00 0.13268820E+04</pdfrwt>
<pdfrwt beam="2">  1       -1 0.13904165E-01 0.13268820E+04</pdfrwt>
<totfact> 0.21779182E+00</totfact>
</mgrwt>
</event>
<event>
12    6  0.1647231E-007  0.1600502E+04  0.7818608E-02  0.8820240E-01
         -1   -1    0    0    0  501 -0.00000000000E+00  0.00000000000E+00  0.68377355416E+03  0.68377355416E+03  0.00000000000E+00 0.  1.
          2   -1    0    0  501    0  0.00000000000E+00 -0.00000000000E+00 -0.93656924133E+03  0.93656924133E+03  0.00000000000E+00 0. -1.
         24    2    1    2    0    0  0.21980701477E+03 -0.41331223222E+03 -0.35640892123E+03  0.59663292682E+03  0.99002046375E+02 0.  0.
        254    2    1    2    0    0 -0.21980701477E+03  0.41331223222E+03  0.10361323406E+03  0.10237098687E+04  0.90449105463E+03 0.  0.
         23    2    4    4    0    0 -0.13496141190E+03  0.30912760646E+02 -0.36799262077E+03  0.40391837311E+03  0.92527302555E+02 0.  0.
         23    2    4    4    0    0 -0.84845602865E+02  0.38239947157E+03  0.47160585483E+03  0.61979149557E+03  0.91111379564E+02 0.  0.
          4    1    3    3  502    0  0.16251525863E+03 -0.33897325084E+03 -0.32710877279E+03  0.49831137184E+03  0.00000000000E+00 0. -1.
         -3    1    3    3    0  502  0.57291756136E+02 -0.74338981380E+02 -0.29300148441E+02  0.98321554973E+02  0.00000000000E+00 0.  1.
         11    1    5    5    0    0 -0.13146140336E+03  0.93681636330E+01 -0.23754207176E+03  0.27165437401E+03  0.00000000000E+00 0.  1.
        -11    1    5    5    0    0 -0.35000085468E+01  0.21544597013E+02 -0.13045054901E+03  0.13226399909E+03  0.00000000000E+00 0. -1.
          1    1    6    6  503    0 -0.70151497748E+02  0.33722357135E+03  0.45228037832E+03  0.56850550598E+03  0.00000000000E+00 0. -1.
         -1    1    6    6    0  503 -0.14694105117E+02  0.45175900224E+02  0.19325476504E+02  0.51285989591E+02  0.00000000000E+00 0.  1.
<mgrwt>
<rscale>  0 0.16005015E+04</rscale>
<asrwt>0</asrwt>
<pdfrwt beam="1">  1        2 0.14408758E+00 0.16005015E+04</pdfrwt>
<pdfrwt beam="2">  1       -1 0.10519593E+00 0.16005015E+04</pdfrwt>
<totfact> 0.25710054E+01</totfact>
</mgrwt>
</event>
<event>
12    6  0.1647231E-007  0.1261414E+04  0.7818608E-02  0.9060737E-01
          2   -1    0    0  501    0  0.00000000000E+00  0.00000000000E+00  0.59535818186E+03  0.59535818186E+03  0.00000000000E+00 0. -1.
         -1   -1    0    0    0  501 -0.00000000000E+00 -0.00000000000E+00 -0.66815417547E+03  0.66815417547E+03  0.00000000000E+00 0.  1.
         24    2    1    2    0    0  0.23706143583E+03 -0.12386521519E+03  0.82153712146E+02  0.28985803737E+03  0.75681791193E+02 0.  0.
        254    2    1    2    0    0 -0.23706143583E+03  0.12386521519E+03 -0.15494970576E+03  0.97365431996E+03  0.92328360084E+03 0.  0.
         23    2    4    4    0    0 -0.43131014522E+03 -0.14356474227E+03  0.17590658562E+03  0.49624960745E+03  0.93173330091E+02 0.  0.
         23    2    4    4    0    0  0.19424870939E+03  0.26742995746E+03 -0.33085629138E+03  0.47740471251E+03  0.95906364423E+02 0.  0.
          4    1    3    3  502    0  0.83719952121E+02 -0.72995318170E+02  0.59605736071E+01  0.11123342706E+03  0.00000000000E+00 0. -1.
         -3    1    3    3    0  502  0.15334148371E+03 -0.50869897022E+02  0.76193138539E+02  0.17862461031E+03  0.00000000000E+00 0.  1.
         11    1    5    5    0    0 -0.35993582705E+03 -0.12859050287E+03  0.10943728405E+03  0.39757494409E+03  0.00000000000E+00 0.  1.
        -11    1    5    5    0    0 -0.71374318163E+02 -0.14974239399E+02  0.66469301569E+02  0.98674663363E+02  0.00000000000E+00 0. -1.
          4    1    6    6  503    0 -0.84951312987E+01  0.42628643401E+01 -0.15336332516E+01  0.96276320617E+01  0.00000000000E+00 0. -1.
         -4    1    6    6    0  503  0.20274384069E+03  0.26316709312E+03 -0.32932265813E+03  0.46777708045E+03  0.00000000000E+00 0.  1.
<mgrwt>
<rscale>  0 0.12614136E+04</rscale>
<asrwt>0</asrwt>
<pdfrwt beam="1">  1        2 0.91593566E-01 0.12614136E+04</pdfrwt>
<pdfrwt beam="2">  1       -1 0.10279295E+00 0.12614136E+04</pdfrwt>
<totfact> 0.50322171E+01</totfact>
</mgrwt>
</event>
<event>
12    6  0.1647231E-007  0.3390847E+04  0.7818608E-02  0.8140156E-01
         -1   -1    0    0    0  501 -0.00000000000E+00  0.00000000000E+00  0.69247062769E+03  0.69247062769E+03  0.00000000000E+00 0.  1.
          2   -1    0    0  501    0  0.00000000000E+00 -0.00000000000E+00 -0.41510222428E+04  0.41510222428E+04  0.00000000000E+00 0. -1.
         24    2    1    2    0    0  0.92107248306E+03  0.54729181278E+03  0.47243059790E+02  0.10753641311E+04  0.79203916591E+02 0.  0.
        254    2    1    2    0    0 -0.92107248306E+03 -0.54729181278E+03 -0.35057946749E+04  0.37681287393E+04  0.87194899309E+03 0.  0.
         23    2    4    4    0    0 -0.14224943571E+01  0.16237799927E+03 -0.81115716995E+03  0.83222781815E+03  0.90876558045E+02 0.  0.
         23    2    4    4    0    0 -0.91964998870E+03 -0.70966981205E+03 -0.26946375049E+04  0.29359009212E+04  0.95160875929E+02 0.  0.
          2    1    3    3  502    0  0.36663066871E+03  0.21254189888E+03 -0.19787786185E+02  0.42424481435E+03  0.00000000000E+00 0. -1.
         -1    1    3    3    0  502  0.55444181435E+03  0.33474991390E+03  0.67030845975E+02  0.65111931677E+03  0.00000000000E+00 0.  1.
         11    1    5    5    0    0  0.40988242418E+01  0.10153293486E+03 -0.67986195573E+03  0.68741400631E+03  0.00000000000E+00 0.  1.
        -11    1    5    5    0    0 -0.55213185989E+01  0.60845064412E+02 -0.13129521422E+03  0.14481381184E+03  0.00000000000E+00 0. -1.
          4    1    6    6  503    0 -0.19050879038E+03 -0.15976230966E+03 -0.67651971056E+03  0.72076106552E+03  0.00000000000E+00 0. -1.
         -4    1    6    6    0  503 -0.72914119832E+03 -0.54990750239E+03 -0.20181177944E+04  0.22151398557E+04  0.00000000000E+00 0.  1.
<mgrwt>
<rscale>  0 0.33908471E+04</rscale>
<asrwt>0</asrwt>
<pdfrwt beam="1">  1        2 0.63861880E+00 0.33908471E+04</pdfrwt>
<pdfrwt beam="2">  1       -1 0.10653394E+00 0.33908471E+04</pdfrwt>
<totfact> 0.19790006E-01</totfact>
</mgrwt>
</event>
<event>
12    6  0.1647231E-007  0.3202868E+04  0.7818608E-02  0.8188060E-01
          2   -1    0    0  501    0  0.00000000000E+00  0.00000000000E+00  0.21911859558E+04  0.21911859558E+04  0.00000000000E+00 0. -1.
         -1   -1    0    0    0  501 -0.00000000000E+00 -0.00000000000E+00 -0.11704121473E+04  0.11704121473E+04  0.00000000000E+00 0.  1.
         24    2    1    2    0    0 -0.17685606313E+02  0.11968282737E+04 -0.43081911599E+03  0.12746615974E+04  0.80289350280E+02 0.  0.
        254    2    1    2    0    0  0.17685606313E+02 -0.11968282737E+04  0.14515929245E+04  0.20869365057E+04  0.90303447497E+03 0.  0.
         23    2    4    4    0    0  0.40501139898E+03 -0.76993513981E+03  0.62628037928E+03  0.10760914563E+04  0.94399979532E+02 0.  0.
         23    2    4    4    0    0 -0.38732579267E+03 -0.42689313390E+03  0.82531254520E+03  0.10108450493E+04  0.91694596837E+02 0.  0.
          4    1    3    3  502    0 -0.20415313988E+02  0.63382814596E+03 -0.18722918050E+03  0.66121832225E+03  0.00000000000E+00 0. -1.
         -3    1    3    3    0  502  0.27297076750E+01  0.56300012775E+03 -0.24358993549E+03  0.61344327515E+03  0.00000000000E+00 0.  1.
         11    1    5    5    0    0  0.26605657901E+03 -0.42562644237E+03  0.39425700767E+03  0.63826527383E+03  0.00000000000E+00 0.  1.
        -11    1    5    5    0    0  0.13895481997E+03 -0.34430869744E+03  0.23202337161E+03  0.43782618252E+03  0.00000000000E+00 0. -1.
          4    1    6    6  503    0 -0.17251738190E+03 -0.12633568343E+03  0.28449034108E+03  0.35589001972E+03  0.00000000000E+00 0. -1.
         -4    1    6    6    0  503 -0.21480841076E+03 -0.30055745047E+03  0.54082220412E+03  0.65495502963E+03  0.00000000000E+00 0.  1.
<mgrwt>
<rscale>  0 0.32028679E+04</rscale>
<asrwt>0</asrwt>
<pdfrwt beam="1">  1        2 0.33710553E+00 0.32028679E+04</pdfrwt>
<pdfrwt beam="2">  1       -1 0.18006341E+00 0.32028679E+04</pdfrwt>
<totfact> 0.10393709E+00</totfact>
</mgrwt>
</event>
<event>
12    6  0.1647231E-007  0.1727604E+04  0.7818608E-02  0.8745775E-01
         -1   -1    0    0    0  501 -0.00000000000E+00  0.00000000000E+00  0.16204121117E+04  0.16204121117E+04  0.00000000000E+00 0.  1.
          2   -1    0    0  501    0  0.00000000000E+00 -0.00000000000E+00 -0.46047174398E+03  0.46047174398E+03  0.00000000000E+00 0. -1.
         24    2    1    2    0    0 -0.11475416121E+03  0.58868770853E+03  0.64712674394E+03  0.88596967799E+03  0.80296400239E+02 0.  0.
        254    2    1    2    0    0  0.11475416121E+03 -0.58868770853E+03  0.51281362376E+03  0.11949141777E+04  0.89728498461E+03 0.  0.
         23    2    4    4    0    0  0.19952358100E+03 -0.66236335248E+03  0.37939302969E+02  0.69903158515E+03  0.93117647367E+02 0.  0.
         23    2    4    4    0    0 -0.84769419787E+02  0.73675643942E+02  0.47487432079E+03  0.49588259252E+03  0.88204138127E+02 0.  0.
          2    1    3    3  502    0 -0.79618483944E+02  0.22332059183E+03  0.22960029018E+03  0.33004163824E+03  0.00000000000E+00 0. -1.
         -1    1    3    3    0  502 -0.35135677267E+02  0.36536711670E+03  0.41752645376E+03  0.55592803975E+03  0.00000000000E+00 0.  1.
         11    1    5    5    0    0  0.61705875027E+02 -0.36582276343E+03  0.21958974423E+02  0.37163975274E+03  0.00000000000E+00 0.  1.
        -11    1    5    5    0    0  0.13781770597E+03 -0.29654058904E+03  0.15980328546E+02  0.32739183241E+03  0.00000000000E+00 0. -1.
          3    1    6    6  503    0 -0.77396252075E+02  0.51234277226E+02  0.45681306444E+03  0.46614730165E+03  0.00000000000E+00 0. -1.
         -3    1    6    6    0  503 -0.73731677113E+01  0.22441366715E+02  0.18061256350E+02  0.29735290870E+02  0.00000000000E+00 0.  1.
<mgrwt>
<rscale>  0 0.17276041E+04</rscale>
<asrwt>0</asrwt>
<pdfrwt beam="1">  1        2 0.70841807E-01 0.17276041E+04</pdfrwt>
<pdfrwt beam="2">  1       -1 0.24929417E+00 0.17276041E+04</pdfrwt>
<totfact> 0.51815491E+00</totfact>
</mgrwt>
</event>
<event>
12    6  0.1647231E-007  0.1434634E+04  0.7818608E-02  0.8929123E-01
         -1   -1    0    0    0  501 -0.00000000000E+00  0.00000000000E+00  0.48566644726E+03  0.48566644726E+03  0.00000000000E+00 0.  1.
          2   -1    0    0  501    0  0.00000000000E+00 -0.00000000000E+00 -0.10594595079E+04  0.10594595079E+04  0.00000000000E+00 0. -1.
         24    2    1    2    0    0  0.11698385842E+03 -0.13171008711E+03 -0.60911712423E+03  0.63974604672E+03  0.84962127330E+02 0.  0.
        254    2    1    2    0    0 -0.11698385842E+03  0.13171008711E+03  0.35324063569E+02  0.90537990848E+03  0.88737377639E+03 0.  0.
         23    2    4    4    0    0  0.21664986916E+03  0.39624906045E+03 -0.50098818404E+02  0.46353641836E+03  0.91682254704E+02 0.  0.
         23    2    4    4    0    0 -0.33363372758E+03 -0.26453897333E+03  0.85422881973E+02  0.44184349012E+03  0.81463294821E+02 0.  0.
          2    1    3    3  502    0  0.11511081674E+03 -0.14245928128E+03 -0.55187438677E+03  0.58147268700E+03  0.00000000000E+00 0. -1.
         -1    1    3    3    0  502  0.18730416752E+01  0.10749194173E+02 -0.57242737469E+02  0.58273359724E+02  0.00000000000E+00 0.  1.
         11    1    5    5    0    0  0.67330871571E+02  0.78472584938E+02 -0.44005446585E+02  0.11237380559E+03  0.00000000000E+00 0.  1.
        -11    1    5    5    0    0  0.14931899759E+03  0.31777647551E+03 -0.60933718198E+01  0.35116261277E+03  0.00000000000E+00 0. -1.
          4    1    6    6  503    0 -0.17745564685E+03 -0.19063877114E+03  0.59099932523E+02  0.26707012129E+03  0.00000000000E+00 0. -1.
         -4    1    6    6    0  503 -0.15617808073E+03 -0.73900202199E+02  0.26322949451E+02  0.17477336883E+03  0.00000000000E+00 0.  1.
<mgrwt>
<rscale>  0 0.14346344E+04</rscale>
<asrwt>0</asrwt>
<pdfrwt beam="1">  1        2 0.16299377E+00 0.14346344E+04</pdfrwt>
<pdfrwt beam="2">  1       -1 0.74717915E-01 0.14346344E+04</pdfrwt>
<totfact> 0.46089135E+01</totfact>
</mgrwt>
</event>
<event>
12    6  0.1647231E-007  0.1754525E+04  0.7818608E-02  0.8730864E-01
          2   -1    0    0  501    0  0.00000000000E+00  0.00000000000E+00  0.12117769979E+04  0.12117769979E+04  0.00000000000E+00 0. -1.
         -1   -1    0    0    0  501 -0.00000000000E+00 -0.00000000000E+00 -0.63509136675E+03  0.63509136675E+03  0.00000000000E+00 0.  1.
         24    2    1    2    0    0 -0.11206102045E+03  0.20486382453E+03 -0.41554355964E+03  0.48365263485E+03  0.81954635847E+02 0.  0.
        254    2    1    2    0    0  0.11206102045E+03 -0.20486382453E+03  0.99222919074E+03  0.13632157297E+04  0.90515827343E+03 0.  0.
         23    2    4    4    0    0 -0.34800829714E+01 -0.48606594263E+02 -0.16056633288E+03  0.19056872248E+03  0.90333707720E+02 0.  0.
         23    2    4    4    0    0  0.11554110342E+03 -0.15625723027E+03  0.11527955236E+04  0.11726470073E+04  0.91637414630E+02 0.  0.
          2    1    3    3  502    0 -0.69463159791E+02  0.76477873972E+02 -0.24560780602E+03  0.26645297926E+03  0.00000000000E+00 0. -1.
         -1    1    3    3    0  502 -0.42597860656E+02  0.12838595056E+03 -0.16993575361E+03  0.21719965559E+03  0.00000000000E+00 0.  1.
         11    1    5    5    0    0 -0.25685628950E+02 -0.48752641929E+02 -0.15903343747E+03  0.16830985076E+03  0.00000000000E+00 0. -1.
        -11    1    5    5    0    0  0.22205545978E+02  0.14604766639E+00 -0.15328954149E+01  0.22258871725E+02  0.00000000000E+00 0.  1.
          3    1    6    6  503    0  0.99250871918E+02 -0.10177276369E+03  0.58558653483E+03  0.60259440819E+03  0.00000000000E+00 0. -1.
         -3    1    6    6    0  503  0.16290231500E+02 -0.54484466581E+02  0.56720898880E+03  0.57005259908E+03  0.00000000000E+00 0.  1.
<mgrwt>
<rscale>  0 0.17545246E+04</rscale>
<asrwt>0</asrwt>
<pdfrwt beam="1">  1        2 0.18642723E+00 0.17545246E+04</pdfrwt>
<pdfrwt beam="2">  1       -1 0.97706364E-01 0.17545246E+04</pdfrwt>
<totfact> 0.20234690E+01</totfact>
</mgrwt>
</event>
<event>
12    6  0.1647231E-007  0.2009097E+04  0.7818608E-02  0.8602379E-01
         -1   -1    0    0    0  501 -0.00000000000E+00  0.00000000000E+00  0.25229745005E+03  0.25229745005E+03  0.00000000000E+00 0.  1.
          2   -1    0    0  501    0  0.00000000000E+00 -0.00000000000E+00 -0.39997157594E+04  0.39997157594E+04  0.00000000000E+00 0. -1.
         24    2    1    2    0    0 -0.13477385886E+03 -0.77995188625E+03 -0.16450396503E+04  0.18273606708E+04  0.81256582789E+02 0.  0.
        254    2    1    2    0    0  0.13477385886E+03  0.77995188625E+03 -0.21023786591E+04  0.24246525387E+04  0.91238970251E+03 0.  0.
         23    2    4    4    0    0 -0.31147132393E+03  0.50149955480E+03 -0.67758671589E+03  0.90309759944E+03  0.89136566443E+02 0.  0.
         23    2    4    4    0    0  0.44624518278E+03  0.27845233145E+03 -0.14247919432E+04  0.15215549392E+04  0.91798080993E+02 0.  0.
          4    1    3    3  502    0 -0.49816092631E+02 -0.19676511751E+03 -0.49806490684E+03  0.53783529634E+03  0.00000000000E+00 0. -1.
         -3    1    3    3    0  502 -0.84957766226E+02 -0.58318676874E+03 -0.11469747435E+04  0.12895253745E+04  0.00000000000E+00 0.  1.
         11    1    5    5    0    0 -0.25323743929E+03  0.37602377841E+03 -0.46462711875E+03  0.64915440541E+03  0.00000000000E+00 0. -1.
        -11    1    5    5    0    0 -0.58233884635E+02  0.12547577639E+03 -0.21295959714E+03  0.25394319403E+03  0.00000000000E+00 0.  1.
          2    1    6    6  503    0  0.10237862738E+03  0.21583562609E+02 -0.26767618849E+03  0.28739828705E+03  0.00000000000E+00 0.  1.
         -2    1    6    6    0  503  0.34386655541E+03  0.25686876885E+03 -0.11571157547E+04  0.12341566522E+04  0.00000000000E+00 0. -1.
<mgrwt>
<rscale>  0 0.20090974E+04</rscale>
<asrwt>0</asrwt>
<pdfrwt beam="1">  1        2 0.61534082E+00 0.20090974E+04</pdfrwt>
<pdfrwt beam="2">  1       -1 0.38814996E-01 0.20090974E+04</pdfrwt>
<totfact> 0.23519003E+00</totfact>
</mgrwt>
</event>
<event>
12    6  0.1647231E-007  0.1621371E+04  0.7818608E-02  0.8807525E-01
          2   -1    0    0  501    0  0.00000000000E+00  0.00000000000E+00  0.12099010637E+04  0.12099010637E+04  0.00000000000E+00 0. -1.
         -3   -1    0    0    0  501 -0.00000000000E+00 -0.00000000000E+00 -0.54319414019E+03  0.54319414019E+03  0.00000000000E+00 0.  1.
         24    2    1    2    0    0  0.46276912789E+03  0.18846166123E+03  0.49883983498E+03  0.71065117809E+03  0.80689853609E+02 0.  0.
        254    2    1    2    0    0 -0.46276912789E+03 -0.18846166123E+03  0.16786708850E+03  0.10424440258E+04  0.89935372573E+03 0.  0.
         23    2    4    4    0    0  0.25597631213E+03 -0.47620312096E+02 -0.32305214520E+02  0.27806956702E+03  0.92127578500E+02 0.  0.
         23    2    4    4    0    0 -0.71874544003E+03 -0.14084134914E+03  0.20017230302E+03  0.76437445876E+03  0.88136650264E+02 0.  0.
          4    1    3    3  502    0  0.39838917690E+03  0.13413121741E+03  0.43527095809E+03  0.60511645715E+03  0.00000000000E+00 0. -1.
         -3    1    3    3    0  502  0.64379950995E+02  0.54330443819E+02  0.63568876886E+02  0.10553472094E+03  0.00000000000E+00 0.  1.
         11    1    5    5    0    0  0.24008525805E+03 -0.53760050525E+02 -0.52367192289E+01  0.24608636166E+03  0.00000000000E+00 0. -1.
        -11    1    5    5    0    0  0.15891054079E+02  0.61397384289E+01 -0.27068495291E+02  0.31983205359E+02  0.00000000000E+00 0.  1.
          1    1    6    6  503    0 -0.49188280197E+03 -0.94754849114E+02  0.93904248377E+02  0.50965201870E+03  0.00000000000E+00 0. -1.
         -1    1    6    6    0  503 -0.22686263806E+03 -0.46086500022E+02  0.10626805464E+03  0.25472244006E+03  0.00000000000E+00 0.  1.
<mgrwt>
<rscale>  0 0.16213712E+04</rscale>
<asrwt>0</asrwt>
<pdfrwt beam="1">  1        2 0.18613862E+00 0.16213712E+04</pdfrwt>
<pdfrwt beam="2">  1       -3 0.83568329E-01 0.16213712E+04</pdfrwt>
<totfact> 0.15003905E+01</totfact>
</mgrwt>
</event>
<event>
12    6  0.1647231E-007  0.1986760E+04  0.7818608E-02  0.8612836E-01
          2   -1    0    0  501    0  0.00000000000E+00  0.00000000000E+00  0.21848411962E+04  0.21848411962E+04  0.00000000000E+00 0. -1.
         -1   -1    0    0    0  501 -0.00000000000E+00 -0.00000000000E+00 -0.45165927684E+03  0.45165927684E+03  0.00000000000E+00 0.  1.
         24    2    1    2    0    0  0.82513350655E+02 -0.49358058139E+03 -0.10736321900E+03  0.51816349831E+03  0.80847429341E+02 0.  0.
        254    2    1    2    0    0 -0.82513350655E+02  0.49358058139E+03  0.18405451384E+04  0.21183369747E+04  0.92158281710E+03 0.  0.
         23    2    4    4    0    0 -0.11505448503E+03 -0.15331913537E+03  0.11411726830E+04  0.11607446640E+04  0.91152568357E+02 0.  0.
         23    2    4    4    0    0  0.32541134373E+02  0.64689971676E+03  0.69937245533E+03  0.95759231072E+03  0.91230659918E+02 0.  0.
          4    1    3    3  502    0  0.57036702808E+02 -0.19660229376E+03 -0.11393177599E+02  0.20502549079E+03  0.00000000000E+00 0. -1.
         -3    1    3    3    0  502  0.25476647847E+02 -0.29697828763E+03 -0.95970041400E+02  0.31313800752E+03  0.00000000000E+00 0.  1.
         11    1    5    5    0    0 -0.23956367580E+02 -0.23219147956E+02  0.66502148218E+02  0.74401425369E+02  0.00000000000E+00 0. -1.
        -11    1    5    5    0    0 -0.91098117448E+02 -0.13009998741E+03  0.10746705348E+04  0.10863432386E+04  0.00000000000E+00 0.  1.
          2    1    6    6  503    0 -0.30433480780E+02  0.23404038842E+03  0.23530716588E+03  0.33327250483E+03  0.00000000000E+00 0. -1.
         -2    1    6    6    0  503  0.62974615153E+02  0.41285932834E+03  0.46406528945E+03  0.62431980589E+03  0.00000000000E+00 0.  1.
<mgrwt>
<rscale>  0 0.19867600E+04</rscale>
<asrwt>0</asrwt>
<pdfrwt beam="1">  1        2 0.33612941E+00 0.19867600E+04</pdfrwt>
<pdfrwt beam="2">  1       -1 0.69486044E-01 0.19867600E+04</pdfrwt>
<totfact> 0.11680878E+01</totfact>
</mgrwt>
</event>
<event>
12    6  0.1647231E-007  0.1287607E+04  0.7818608E-02  0.9039451E-01
          2   -1    0    0  501    0  0.00000000000E+00  0.00000000000E+00  0.21323716272E+04  0.21323716272E+04  0.00000000000E+00 0. -1.
         -1   -1    0    0    0  501 -0.00000000000E+00 -0.00000000000E+00 -0.19437642062E+03  0.19437642062E+03  0.00000000000E+00 0.  1.
         24    2    1    2    0    0  0.28033552293E+02  0.26564397175E+03  0.17162629339E+03  0.32584397388E+03  0.73253743572E+02 0.  0.
        254    2    1    2    0    0 -0.28033552293E+02 -0.26564397175E+03  0.17663689132E+04  0.20009040740E+04  0.90122437599E+03 0.  0.
         23    2    4    4    0    0  0.38959385376E+03 -0.31436067984E+03  0.91997365978E+03  0.10515302893E+04  0.93586359044E+02 0.  0.
         23    2    4    4    0    0 -0.41762740606E+03  0.48716708089E+02  0.84639525342E+03  0.94937378471E+03  0.90220231339E+02 0.  0.
          4    1    3    3  502    0  0.25049395474E+02  0.22957063420E+02  0.16247067393E+02  0.37662530098E+02  0.00000000000E+00 0. -1.
         -3    1    3    3    0  502  0.29841568188E+01  0.24268690833E+03  0.15537922600E+03  0.28818144378E+03  0.00000000000E+00 0.  1.
         11    1    5    5    0    0  0.39321062109E+02 -0.76069239853E+02  0.15318099816E+03  0.17549100654E+03  0.00000000000E+00 0. -1.
        -11    1    5    5    0    0  0.35027279165E+03 -0.23829143999E+03  0.76679266162E+03  0.87603928271E+03  0.00000000000E+00 0.  1.
          4    1    6    6  503    0 -0.12130285058E+02  0.19104466380E+02  0.32855570918E+02  0.39895024647E+02  0.00000000000E+00 0. -1.
         -4    1    6    6    0  503 -0.40549712100E+03  0.29612241710E+02  0.81353968251E+03  0.90947876006E+03  0.00000000000E+00 0.  1.
<mgrwt>
<rscale>  0 0.12876067E+04</rscale>
<asrwt>0</asrwt>
<pdfrwt beam="1">  1        2 0.32805716E+00 0.12876067E+04</pdfrwt>
<pdfrwt beam="2">  1       -1 0.29904066E-01 0.12876067E+04</pdfrwt>
<totfact> 0.64733716E+01</totfact>
</mgrwt>
</event>
<event>
12    6  0.1647231E-007  0.1397815E+04  0.7818608E-02  0.8955402E-01
         -1   -1    0    0    0  501 -0.00000000000E+00  0.00000000000E+00  0.98657801142E+03  0.98657801142E+03  0.00000000000E+00 0.  1.
          2   -1    0    0  501    0  0.00000000000E+00 -0.00000000000E+00 -0.49511722256E+03  0.49511722256E+03  0.00000000000E+00 0. -1.
         24    2    1    2    0    0 -0.96093647196E+02 -0.27316446495E+03 -0.12186212262E+03  0.32674008601E+03  0.89754626222E+02 0.  0.
        254    2    1    2    0    0  0.96093647196E+02  0.27316446495E+03  0.61332291149E+03  0.11549551480E+04  0.93482810512E+03 0.  0.
         23    2    4    4    0    0 -0.25135720908E+03 -0.56582431260E+02  0.60863760758E+03  0.66718566732E+03  0.91186398334E+02 0.  0.
         23    2    4    4    0    0  0.34745085627E+03  0.32974689621E+03  0.46853039125E+01  0.48776948065E+03  0.91880362928E+02 0.  0.
          4    1    3    3  502    0 -0.65738159715E+02 -0.14349489384E+03 -0.11132935576E+03  0.19314894682E+03  0.00000000000E+00 0. -1.
         -1    1    3    3    0  502 -0.30355487481E+02 -0.12966957111E+03 -0.10532766859E+02  0.13359113919E+03  0.00000000000E+00 0.  1.
         11    1    5    5    0    0 -0.19226178823E+03 -0.50019134413E+02  0.35633922375E+03  0.40797567502E+03  0.00000000000E+00 0. -1.
        -11    1    5    5    0    0 -0.59095420846E+02 -0.65632968469E+01  0.25229838382E+03  0.25920999230E+03  0.00000000000E+00 0.  1.
          3    1    6    6  503    0  0.90046027007E+02  0.11708923587E+03  0.37144148244E+02  0.15230844981E+03  0.00000000000E+00 0. -1.
         -3    1    6    6    0  503  0.25740482927E+03  0.21265766035E+03 -0.32458844332E+02  0.33546103083E+03  0.00000000000E+00 0.  1.
<mgrwt>
<rscale>  0 0.13978151E+04</rscale>
<asrwt>0</asrwt>
<pdfrwt beam="1">  1        2 0.76171880E-01 0.13978151E+04</pdfrwt>
<pdfrwt beam="2">  1       -1 0.15178123E+00 0.13978151E+04</pdfrwt>
<totfact> 0.23430900E+01</totfact>
</mgrwt>
</event>
<event>
12    6  0.1647231E-007  0.2257839E+04  0.7818608E-02  0.8494733E-01
         -1   -1    0    0    0  501 -0.00000000000E+00  0.00000000000E+00  0.14086046368E+04  0.14086046368E+04  0.00000000000E+00 0.  1.
          2   -1    0    0  501    0  0.00000000000E+00 -0.00000000000E+00 -0.90476727393E+03  0.90476727393E+03  0.00000000000E+00 0. -1.
         24    2    1    2    0    0 -0.10393544114E+03  0.71880562454E+03  0.83343946326E+03  0.11082001576E+04  0.77473534038E+02 0.  0.
        254    2    1    2    0    0  0.10393544114E+03 -0.71880562454E+03 -0.32960210034E+03  0.12051717532E+04  0.90350279934E+03 0.  0.
         23    2    4    4    0    0  0.18008556324E+03  0.16786719844E+03 -0.46675796611E+02  0.26693156465E+03  0.91997955512E+02 0.  0.
         23    2    4    4    0    0 -0.76150122106E+02 -0.88667282298E+03 -0.28292630373E+03  0.93824018857E+03  0.90883562864E+02 0.  0.
          4    1    3    3  502    0 -0.94517286777E+02  0.53024742655E+03  0.57141856249E+03  0.78524838390E+03  0.00000000000E+00 0. -1.
         -3    1    3    3    0  502 -0.94181543619E+01  0.18855819799E+03  0.26202090078E+03  0.32295177365E+03  0.00000000000E+00 0.  1.
         11    1    5    5    0    0 -0.52884320668E+01  0.31666031893E+02  0.52008205140E+00  0.32108808369E+02  0.00000000000E+00 0.  1.
        -11    1    5    5    0    0  0.18537399531E+03  0.13620116654E+03 -0.47195878662E+02  0.23482275628E+03  0.00000000000E+00 0. -1.
          3    1    6    6  503    0 -0.66171474774E+02 -0.87953599268E+03 -0.28168376204E+03  0.92590926568E+03  0.00000000000E+00 0. -1.
         -3    1    6    6    0  503 -0.99786473317E+01 -0.71368303031E+01 -0.12425416964E+01  0.12330922886E+02  0.00000000000E+00 0.  1.
<mgrwt>
<rscale>  0 0.22578391E+04</rscale>
<asrwt>0</asrwt>
<pdfrwt beam="1">  1        2 0.13919497E+00 0.22578391E+04</pdfrwt>
<pdfrwt beam="2">  1       -1 0.21670841E+00 0.22578391E+04</pdfrwt>
<totfact> 0.34969955E+00</totfact>
</mgrwt>
</event>
<event>
12    6  0.1647231E-007  0.1231078E+04  0.7818608E-02  0.9086080E-01
          2   -1    0    0  501    0  0.00000000000E+00  0.00000000000E+00  0.83992607224E+03  0.83992607224E+03  0.00000000000E+00 0. -1.
         -1   -1    0    0    0  501 -0.00000000000E+00 -0.00000000000E+00 -0.45109738888E+03  0.45109738888E+03  0.00000000000E+00 0.  1.
         24    2    1    2    0    0  0.20428362367E+03  0.11638122970E+03 -0.61265365917E+02  0.24966665351E+03  0.57476980519E+02 0.  0.
        254    2    1    2    0    0 -0.20428362367E+03 -0.11638122970E+03  0.45009404928E+03  0.10413568076E+04  0.90915507920E+03 0.  0.
         23    2    4    4    0    0 -0.41458901695E+03 -0.12697720770E+03 -0.92105244103E+02  0.45251450316E+03  0.90987555862E+02 0.  0.
         23    2    4    4    0    0  0.21030539329E+03  0.10595977999E+02  0.54219929339E+03  0.58884230445E+03  0.91730870315E+02 0.  0.
          2    1    3    3  502    0  0.12250943264E+02  0.40896284055E+01 -0.19401611876E+02  0.23307363960E+02  0.00000000000E+00 0. -1.
         -1    1    3    3    0  502  0.19203268040E+03  0.11229160129E+03 -0.41863754041E+02  0.22635928955E+03  0.00000000000E+00 0.  1.
         11    1    5    5    0    0 -0.13650245652E+03 -0.40459924060E+02  0.12836642995E+02  0.14295001048E+03  0.00000000000E+00 0.  1.
        -11    1    5    5    0    0 -0.27808656043E+03 -0.86517283637E+02 -0.10494188710E+03  0.30956449268E+03  0.00000000000E+00 0. -1.
          1    1    6    6  503    0  0.20307488236E+03  0.13364540038E+02  0.54406117949E+03  0.58087914905E+03  0.00000000000E+00 0. -1.
         -1    1    6    6    0  503  0.72305109305E+01 -0.27685620381E+01 -0.18618861039E+01  0.79631554009E+01  0.00000000000E+00 0.  1.
<mgrwt>
<rscale>  0 0.12310783E+04</rscale>
<asrwt>0</asrwt>
<pdfrwt beam="1">  1        2 0.12921940E+00 0.12310783E+04</pdfrwt>
<pdfrwt beam="2">  1       -1 0.69399599E-01 0.12310783E+04</pdfrwt>
<totfact> 0.76170834E+01</totfact>
</mgrwt>
</event>
<event>
12    6  0.1647231E-007  0.1252924E+04  0.7818608E-02  0.9067753E-01
         -1   -1    0    0    0  501 -0.00000000000E+00  0.00000000000E+00  0.21983544566E+03  0.21983544566E+03  0.00000000000E+00 0.  1.
          2   -1    0    0  501    0  0.00000000000E+00 -0.00000000000E+00 -0.17852188286E+04  0.17852188286E+04  0.00000000000E+00 0. -1.
         24    2    1    2    0    0 -0.11888735153E+03  0.25264928030E+03 -0.52146892282E+03  0.59678765243E+03  0.79118919654E+02 0.  0.
        254    2    1    2    0    0  0.11888735153E+03 -0.25264928030E+03 -0.10439144601E+04  0.14082666218E+04  0.90304574461E+03 0.  0.
         23    2    4    4    0    0 -0.38410328998E+03 -0.15862420532E+03 -0.46618786198E+03  0.63119680026E+03  0.91549451782E+02 0.  0.
         23    2    4    4    0    0  0.50299064151E+03 -0.94025074972E+02 -0.57772659811E+03  0.77706982152E+03  0.90714856496E+02 0.  0.
          2    1    3    3  502    0 -0.86066857002E+02  0.18577218212E+03 -0.44597266247E+03  0.49072438618E+03  0.00000000000E+00 0. -1.
         -1    1    3    3    0  502 -0.32820494528E+02  0.66877098178E+02 -0.75496260343E+02  0.10606326625E+03  0.00000000000E+00 0.  1.
         11    1    5    5    0    0 -0.40893863163E+02 -0.36911456014E+02 -0.29133648351E+02  0.62317999773E+02  0.00000000000E+00 0. -1.
        -11    1    5    5    0    0 -0.34320942681E+03 -0.12171274931E+03 -0.43705421363E+03  0.56887880049E+03  0.00000000000E+00 0.  1.
          2    1    6    6  503    0  0.16863943028E+03 -0.57566276643E+02 -0.14983397745E+03  0.23281613873E+03  0.00000000000E+00 0. -1.
         -2    1    6    6    0  503  0.33435121123E+03 -0.36458798329E+02 -0.42789262066E+03  0.54425368280E+03  0.00000000000E+00 0.  1.
<mgrwt>
<rscale>  0 0.12529236E+04</rscale>
<asrwt>0</asrwt>
<pdfrwt beam="1">  1        2 0.27464905E+00 0.12529236E+04</pdfrwt>
<pdfrwt beam="2">  1       -1 0.33820837E-01 0.12529236E+04</pdfrwt>
<totfact> 0.81285636E+01</totfact>
</mgrwt>
</event>
<event>
12    6  0.1647231E-007  0.1866869E+04  0.7818608E-02  0.8671526E-01
         -1   -1    0    0    0  501 -0.00000000000E+00  0.00000000000E+00  0.70308466744E+03  0.70308466744E+03  0.00000000000E+00 0.  1.
          2   -1    0    0  501    0  0.00000000000E+00 -0.00000000000E+00 -0.12392537707E+04  0.12392537707E+04  0.00000000000E+00 0. -1.
         24    2    1    2    0    0 -0.21789221207E+03 -0.16567378340E+03 -0.88393155330E+03  0.92886129329E+03  0.80768141435E+02 0.  0.
        254    2    1    2    0    0  0.21789221207E+03  0.16567378340E+03  0.34776245003E+03  0.10134771448E+04  0.91174140133E+03 0.  0.
         23    2    4    4    0    0  0.36209033739E+03  0.40365191890E+03 -0.97374675696E+01  0.55133385389E+03  0.99145933376E+02 0.  0.
         23    2    4    4    0    0 -0.14419812532E+03 -0.23797813549E+03  0.35749991760E+03  0.46214329096E+03  0.91342968944E+02 0.  0.
          4    1    3    3  502    0 -0.22489852535E+03 -0.15836726553E+03 -0.84540848207E+03  0.88903039265E+03  0.00000000000E+00 0. -1.
         -3    1    3    3    0  502  0.70063132803E+01 -0.73065178709E+01 -0.38523071224E+02  0.39830900639E+02  0.00000000000E+00 0.  1.
         11    1    5    5    0    0  0.42874918368E+01 -0.59723951665E+01 -0.45130462242E+00  0.73658513519E+01  0.00000000000E+00 0. -1.
        -11    1    5    5    0    0  0.35780284555E+03  0.40962431406E+03 -0.92861629472E+01  0.54396800254E+03  0.00000000000E+00 0.  1.
          2    1    6    6  503    0 -0.33800492708E+01 -0.56283097953E+02  0.35933019895E+02  0.66861003335E+02  0.00000000000E+00 0. -1.
         -2    1    6    6    0  503 -0.14081807605E+03 -0.18169503754E+03  0.32156689770E+03  0.39528228763E+03  0.00000000000E+00 0.  1.
<mgrwt>
<rscale>  0 0.18668694E+04</rscale>
<asrwt>0</asrwt>
<pdfrwt beam="1">  1        2 0.19065443E+00 0.18668694E+04</pdfrwt>
<pdfrwt beam="2">  1       -1 0.10816687E+00 0.18668694E+04</pdfrwt>
<totfact> 0.15260428E+01</totfact>
</mgrwt>
</event>
<event>
12    6  0.1647231E-007  0.1494609E+04  0.7818608E-02  0.8888046E-01
         -1   -1    0    0    0  501 -0.00000000000E+00  0.00000000000E+00  0.10501760789E+03  0.10501760789E+03  0.00000000000E+00 0.  1.
          2   -1    0    0  501    0  0.00000000000E+00 -0.00000000000E+00 -0.53178142180E+04  0.53178142180E+04  0.00000000000E+00 0. -1.
         24    2    1    2    0    0  0.21606426443E+03  0.13914134298E+03 -0.31050791323E+04  0.31167064532E+04  0.79363831077E+02 0.  0.
        254    2    1    2    0    0 -0.21606426443E+03 -0.13914134298E+03 -0.21077174778E+04  0.23061253727E+04  0.89983175582E+03 0.  0.
         23    2    4    4    0    0 -0.21385810930E+03 -0.50500519824E+03 -0.13349182690E+04  0.14460503502E+04  0.91045534030E+02 0.  0.
         23    2    4    4    0    0 -0.22061551294E+01  0.36586385527E+03 -0.77279920883E+03  0.86007502254E+03  0.93001072660E+02 0.  0.
          4    1    3    3  502    0  0.18681303112E+03  0.14744869766E+03 -0.28124928215E+04  0.28225442597E+04  0.00000000000E+00 0. -1.
         -3    1    3    3    0  502  0.29251233303E+02 -0.83073546809E+01 -0.29258631079E+03  0.29416219345E+03  0.00000000000E+00 0.  1.
         11    1    5    5    0    0 -0.12394395072E+03 -0.36487626923E+03 -0.10086616523E+04  0.10797662356E+04  0.00000000000E+00 0.  1.
        -11    1    5    5    0    0 -0.89914158575E+02 -0.14012892901E+03 -0.32625661667E+03  0.36628411456E+03  0.00000000000E+00 0. -1.
          3    1    6    6  503    0  0.38524539519E+02  0.80430841795E+02 -0.18245280812E+03  0.20308197273E+03  0.00000000000E+00 0. -1.
         -3    1    6    6    0  503 -0.40730694648E+02  0.28543301347E+03 -0.59034640071E+03  0.65699304981E+03  0.00000000000E+00 0.  1.
<mgrwt>
<rscale>  0 0.14946092E+04</rscale>
<asrwt>0</asrwt>
<pdfrwt beam="1">  1        2 0.81812514E+00 0.14946092E+04</pdfrwt>
<pdfrwt beam="2">  1       -1 0.16156558E-01 0.14946092E+04</pdfrwt>
<totfact> 0.41912139E-01</totfact>
</mgrwt>
</event>
<event>
12    6  0.1647231E-007  0.3341747E+04  0.7818608E-02  0.8152353E-01
         -1   -1    0    0    0  501 -0.00000000000E+00  0.00000000000E+00  0.10484443545E+04  0.10484443545E+04  0.00000000000E+00 0.  1.
          2   -1    0    0  501    0  0.00000000000E+00 -0.00000000000E+00 -0.26628199537E+04  0.26628199537E+04  0.00000000000E+00 0. -1.
         24    2    1    2    0    0 -0.77633305357E+03 -0.11971318710E+04 -0.13296136470E+03  0.14352992008E+04  0.81162458649E+02 0.  0.
        254    2    1    2    0    0  0.77633305357E+03  0.11971318710E+04 -0.14814142345E+04  0.22759651073E+04  0.97448001977E+03 0.  0.
         23    2    4    4    0    0  0.14443745646E+03  0.71031867300E+03 -0.12373982306E+04  0.14369594445E+04  0.91012460991E+02 0.  0.
         23    2    4    4    0    0  0.63189559710E+03  0.48681319805E+03 -0.24401600389E+03  0.83900566282E+03  0.90041971676E+02 0.  0.
          2    1    3    3  502    0 -0.69278513575E+03 -0.10543106669E+04 -0.14239952455E+03  0.12695667967E+04  0.00000000000E+00 0. -1.
         -1    1    3    3    0  502 -0.83547917820E+02 -0.14282120417E+03  0.94381598477E+01  0.16573240417E+03  0.00000000000E+00 0.  1.
         11    1    5    5    0    0  0.79982189174E+02  0.57570279398E+03 -0.99212352461E+03  0.11498434440E+04  0.00000000000E+00 0. -1.
        -11    1    5    5    0    0  0.64455267291E+02  0.13461587902E+03 -0.24527470596E+03  0.28711600051E+03  0.00000000000E+00 0.  1.
          4    1    6    6  503    0  0.56021307117E+03  0.41026759361E+03 -0.18468981679E+03  0.71851827527E+03  0.00000000000E+00 0. -1.
         -4    1    6    6    0  503  0.71682525937E+02  0.76545604432E+02 -0.59326187100E+02  0.12048738755E+03  0.00000000000E+00 0.  1.
<mgrwt>
<rscale>  0 0.33417472E+04</rscale>
<asrwt>0</asrwt>
<pdfrwt beam="1">  1        2 0.40966460E+00 0.33417472E+04</pdfrwt>
<pdfrwt beam="2">  1       -1 0.16129914E+00 0.33417472E+04</pdfrwt>
<totfact> 0.75470904E-01</totfact>
</mgrwt>
</event>
<event>
12    6  0.1647231E-007  0.1114409E+04  0.7818608E-02  0.9191261E-01
         -1   -1    0    0    0  501 -0.00000000000E+00  0.00000000000E+00  0.10005443141E+04  0.10005443141E+04  0.00000000000E+00 0.  1.
          4   -1    0    0  501    0  0.00000000000E+00 -0.00000000000E+00 -0.31030783023E+03  0.31030783023E+03  0.00000000000E+00 0. -1.
         24    2    1    2    0    0 -0.15021118161E+03 -0.82294320425E+02  0.14647983449E+03  0.23920483349E+03  0.80167675520E+02 0.  0.
        254    2    1    2    0    0  0.15021118161E+03  0.82294320425E+02  0.54375664935E+03  0.10716473108E+04  0.90742542988E+03 0.  0.
         23    2    4    4    0    0  0.44818996858E+02 -0.19674825423E+03  0.69193516701E+03  0.72644850107E+03  0.90744318446E+02 0.  0.
         23    2    4    4    0    0  0.10539218475E+03  0.27904257465E+03 -0.14817851766E+03  0.34519880974E+03  0.90736288635E+02 0.  0.
          2    1    3    3  502    0 -0.99336836569E+02 -0.45053272023E+02  0.41414127387E+02  0.11667362327E+03  0.00000000000E+00 0. -1.
         -1    1    3    3    0  502 -0.50874345038E+02 -0.37241048402E+02  0.10506570710E+03  0.12253121022E+03  0.00000000000E+00 0.  1.
         11    1    5    5    0    0 -0.94017352905E+01 -0.19894483061E+02  0.20768160058E+02  0.30257223186E+02  0.00000000000E+00 0.  1.
        -11    1    5    5    0    0  0.54220732148E+02 -0.17685377117E+03  0.67116700695E+03  0.69619127788E+03  0.00000000000E+00 0. -1.
          1    1    6    6  503    0 -0.79629896206E+01  0.82069625152E+02 -0.22358064485E+02  0.85432520879E+02  0.00000000000E+00 0. -1.
         -1    1    6    6    0  503  0.11335517437E+03  0.19697294950E+03 -0.12582045318E+03  0.25976628886E+03  0.00000000000E+00 0.  1.
<mgrwt>
<rscale>  0 0.11144088E+04</rscale>
<asrwt>0</asrwt>
<pdfrwt beam="1">  1        4 0.47739667E-01 0.11144088E+04</pdfrwt>
<pdfrwt beam="2">  1       -1 0.15392989E+00 0.11144088E+04</pdfrwt>
<totfact> 0.57507445E+00</totfact>
</mgrwt>
</event>
<event>
12    6  0.1647231E-007  0.2690011E+04  0.7818608E-02  0.8338253E-01
          2   -1    0    0  501    0  0.00000000000E+00  0.00000000000E+00  0.18136557296E+04  0.18136557296E+04  0.00000000000E+00 0. -1.
         -1   -1    0    0    0  501 -0.00000000000E+00 -0.00000000000E+00 -0.99745497262E+03  0.99745497262E+03  0.00000000000E+00 0.  1.
         24    2    1    2    0    0  0.40293920885E+03 -0.11182213198E+04  0.26982916207E+03  0.12212845772E+04  0.77131807223E+02 0.  0.
        254    2    1    2    0    0 -0.40293920885E+03  0.11182213198E+04  0.54637159486E+03  0.15898261250E+04  0.90346348134E+03 0.  0.
         23    2    4    4    0    0  0.10548497070E+03  0.77854235365E+03  0.40895316833E+02  0.79185961498E+03  0.90077452347E+02 0.  0.
         23    2    4    4    0    0 -0.50842417955E+03  0.33967896612E+03  0.50547627803E+03  0.79796651004E+03  0.85833193638E+02 0.  0.
          2    1    3    3  502    0  0.38514157396E+03 -0.10189808316E+04  0.23324273824E+03  0.11140278911E+04  0.00000000000E+00 0. -1.
         -1    1    3    3    0  502  0.17797634888E+02 -0.99240488186E+02  0.36586423833E+02  0.10725668609E+03  0.00000000000E+00 0.  1.
         11    1    5    5    0    0  0.56043181432E+02  0.64906683948E+03  0.46613643700E+02  0.65314732800E+03  0.00000000000E+00 0.  1.
        -11    1    5    5    0    0  0.49441789267E+02  0.12947551417E+03 -0.57183268672E+01  0.13871228698E+03  0.00000000000E+00 0. -1.
          3    1    6    6  503    0 -0.53089399621E+02  0.48709721528E+02  0.95753387752E+02  0.11983251891E+03  0.00000000000E+00 0. -1.
         -3    1    6    6    0  503 -0.45533477993E+03  0.29096924459E+03  0.40972289028E+03  0.67813399113E+03  0.00000000000E+00 0.  1.
<mgrwt>
<rscale>  0 0.26900111E+04</rscale>
<asrwt>0</asrwt>
<pdfrwt beam="1">  1        2 0.27902396E+00 0.26900111E+04</pdfrwt>
<pdfrwt beam="2">  1       -1 0.15345461E+00 0.26900111E+04</pdfrwt>
<totfact> 0.27792454E+00</totfact>
</mgrwt>
</event>
<event>
12    6  0.1647231E-007  0.3019408E+04  0.7818608E-02  0.8238210E-01
          2   -1    0    0  501    0  0.00000000000E+00  0.00000000000E+00  0.32622029338E+04  0.32622029338E+04  0.00000000000E+00 0. -1.
         -1   -1    0    0    0  501 -0.00000000000E+00 -0.00000000000E+00 -0.69867097244E+03  0.69867097244E+03  0.00000000000E+00 0.  1.
         24    2    1    2    0    0 -0.11087943754E+04  0.10438746956E+03  0.11819508071E+03  0.11227796076E+04  0.79638304503E+02 0.  0.
        254    2    1    2    0    0  0.11087943754E+04 -0.10438746956E+03  0.24453368807E+04  0.28380942986E+04  0.91366573614E+03 0.  0.
         23    2    4    4    0    0  0.50603001148E+03 -0.49671501325E+03  0.11684498506E+04  0.13698169766E+04  0.91276059953E+02 0.  0.
         23    2    4    4    0    0  0.60276436388E+03  0.39232754369E+03  0.12768870300E+04  0.14682773220E+04  0.90288575976E+02 0.  0.
          2    1    3    3  502    0 -0.95688281717E+03  0.89742505906E+02  0.74164801374E+02  0.96393924130E+03  0.00000000000E+00 0. -1.
         -1    1    3    3    0  502 -0.15191155819E+03  0.14644963650E+02  0.44030279336E+02  0.15884036632E+03  0.00000000000E+00 0.  1.
         11    1    5    5    0    0  0.43825339098E+03 -0.40122594306E+03  0.10235928877E+04  0.11835500378E+04  0.00000000000E+00 0.  1.
        -11    1    5    5    0    0  0.67776620498E+02 -0.95489070187E+02  0.14485696289E+03  0.18626693885E+03  0.00000000000E+00 0. -1.
          2    1    6    6  503    0  0.11014060709E+03  0.63396101402E+02  0.16302186821E+03  0.20670304428E+03  0.00000000000E+00 0. -1.
         -2    1    6    6    0  503  0.49262375679E+03  0.32893144229E+03  0.11138651618E+04  0.12615742777E+04  0.00000000000E+00 0.  1.
<mgrwt>
<rscale>  0 0.30194082E+04</rscale>
<asrwt>0</asrwt>
<pdfrwt beam="1">  1        2 0.50187737E+00 0.30194082E+04</pdfrwt>
<pdfrwt beam="2">  1       -1 0.10748784E+00 0.30194082E+04</pdfrwt>
<totfact> 0.92278486E-01</totfact>
</mgrwt>
</event>
<event>
12    6  0.1647231E-007  0.1940504E+04  0.7818608E-02  0.8634954E-01
          2   -1    0    0  501    0  0.00000000000E+00  0.00000000000E+00  0.17889044960E+04  0.17889044960E+04  0.00000000000E+00 0. -1.
         -1   -1    0    0    0  501 -0.00000000000E+00 -0.00000000000E+00 -0.52623741535E+03  0.52623741535E+03  0.00000000000E+00 0.  1.
         24    2    1    2    0    0  0.73720009104E+03 -0.90658850271E+02  0.31055961246E+03  0.80942823035E+03  0.83927265146E+02 0.  0.
        254    2    1    2    0    0 -0.73720009104E+03  0.90658850271E+02  0.95210746818E+03  0.15057136810E+04  0.89943429820E+03 0.  0.
         23    2    4    4    0    0 -0.13112099106E+03 -0.30783569757E+03  0.60327789410E+03  0.69579451110E+03  0.90720742789E+02 0.  0.
         23    2    4    4    0    0 -0.60607909998E+03  0.39849454784E+03  0.34882957408E+03  0.80991916988E+03  0.90317273588E+02 0.  0.
          4    1    3    3  502    0  0.29033042821E+03 -0.46976105409E+02  0.80519499610E+02  0.30492933910E+03  0.00000000000E+00 0. -1.
         -3    1    3    3    0  502  0.44686966283E+03 -0.43682744862E+02  0.23004011285E+03  0.50449889125E+03  0.00000000000E+00 0.  1.
         11    1    5    5    0    0 -0.13906063549E+03 -0.29945764592E+03  0.55178380816E+03  0.64302263801E+03  0.00000000000E+00 0.  1.
        -11    1    5    5    0    0  0.79396444267E+01 -0.83780516531E+01  0.51494085937E+02  0.52771873092E+02  0.00000000000E+00 0. -1.
          3    1    6    6  503    0 -0.11487649929E+03  0.54558695787E+02  0.29505609502E+02  0.13055206765E+03  0.00000000000E+00 0. -1.
         -3    1    6    6    0  503 -0.49120260069E+03  0.34393585205E+03  0.31932396458E+03  0.67936710224E+03  0.00000000000E+00 0.  1.
<mgrwt>
<rscale>  0 0.19405035E+04</rscale>
<asrwt>0</asrwt>
<pdfrwt beam="1">  1        2 0.27521607E+00 0.19405035E+04</pdfrwt>
<pdfrwt beam="2">  1       -1 0.80959603E-01 0.19405035E+04</pdfrwt>
<totfact> 0.14148758E+01</totfact>
</mgrwt>
</event>
<event>
12    6  0.1647231E-007  0.1789788E+04  0.7818608E-02  0.8711749E-01
         -1   -1    0    0    0  501 -0.00000000000E+00  0.00000000000E+00  0.20942381947E+04  0.20942381947E+04  0.00000000000E+00 0.  1.
          2   -1    0    0  501    0  0.00000000000E+00 -0.00000000000E+00 -0.38239927917E+03  0.38239927917E+03  0.00000000000E+00 0. -1.
         24    2    1    2    0    0  0.66270279930E+03 -0.24909092970E+03  0.52008496006E+03  0.88203286685E+03  0.79197986485E+02 0.  0.
        254    2    1    2    0    0 -0.66270279930E+03  0.24909092970E+03  0.11917539555E+04  0.15946046070E+04  0.78820369887E+03 0.  0.
         23    2    4    4    0    0 -0.64957550908E+03 -0.12930245223E+03  0.77341394196E+03  0.10223017834E+04  0.90908440484E+02 0.  0.
         23    2    4    4    0    0 -0.13127290225E+02  0.37839338193E+03  0.41834001350E+03  0.57230282363E+03  0.95751124296E+02 0.  0.
          4    1    3    3  502    0  0.44856949597E+03 -0.14561758300E+03  0.30715976248E+03  0.56281985829E+03  0.00000000000E+00 0. -1.
         -3    1    3    3    0  502  0.21413330333E+03 -0.10347334669E+03  0.21292519758E+03  0.31921300856E+03  0.00000000000E+00 0.  1.
         11    1    5    5    0    0 -0.47037436754E+03 -0.13153581993E+03  0.58876648578E+03  0.76498345887E+03  0.00000000000E+00 0. -1.
        -11    1    5    5    0    0 -0.17920114154E+03  0.22333676960E+01  0.18464745617E+03  0.25731832451E+03  0.00000000000E+00 0.  1.
          4    1    6    6  503    0  0.38257690813E+02  0.20569398198E+03  0.24644115153E+03  0.32327527944E+03  0.00000000000E+00 0.  1.
         -4    1    6    6    0  503 -0.51384981039E+02  0.17269939995E+03  0.17189886196E+03  0.24902754419E+03  0.00000000000E+00 0. -1.
<mgrwt>
<rscale>  0 0.17897879E+04</rscale>
<asrwt>0</asrwt>
<pdfrwt beam="1">  1        2 0.58830660E-01 0.17897879E+04</pdfrwt>
<pdfrwt beam="2">  1       -1 0.32219048E+00 0.17897879E+04</pdfrwt>
<totfact> 0.21445106E+00</totfact>
</mgrwt>
</event>
<event>
12    6  0.1647231E-007  0.2927838E+04  0.7818608E-02  0.8264643E-01
          2   -1    0    0  501    0  0.00000000000E+00  0.00000000000E+00  0.22018287847E+04  0.22018287847E+04  0.00000000000E+00 0. -1.
         -1   -1    0    0    0  501 -0.00000000000E+00 -0.00000000000E+00 -0.97330864774E+03  0.97330864774E+03  0.00000000000E+00 0.  1.
         24    2    1    2    0    0 -0.63610263646E+03  0.10497245235E+04  0.10775970726E+04  0.16352110232E+04  0.78431499696E+02 0.  0.
        254    2    1    2    0    0  0.63610263646E+03 -0.10497245235E+04  0.15092306434E+03  0.15399264092E+04  0.91763142659E+03 0.  0.
         23    2    4    4    0    0  0.27012422326E+03 -0.10054326534E+04  0.36148453179E+03  0.11057067624E+04  0.89746649728E+02 0.  0.
         23    2    4    4    0    0  0.36597841319E+03 -0.44291870153E+02 -0.21056146744E+03  0.43421964686E+03  0.91151530225E+02 0.  0.
          2    1    3    3  502    0 -0.57964953024E+03  0.95601984071E+03  0.94991931482E+03  0.14670767595E+04  0.00000000000E+00 0. -1.
         -1    1    3    3    0  502 -0.56453106218E+02  0.93704682821E+02  0.12767775782E+03  0.16813426369E+03  0.00000000000E+00 0.  1.
         11    1    5    5    0    0  0.19298483582E+03 -0.55463830655E+03  0.18905444701E+03  0.61693466582E+03  0.00000000000E+00 0. -1.
        -11    1    5    5    0    0  0.77139387446E+02 -0.45079434683E+03  0.17243008477E+03  0.48877209654E+03  0.00000000000E+00 0.  1.
          2    1    6    6  503    0  0.24376418481E+03  0.13821560899E+02 -0.12762311357E+03  0.27549895183E+03  0.00000000000E+00 0. -1.
         -2    1    6    6    0  503  0.12221422839E+03 -0.58113431053E+02 -0.82938353872E+02  0.15872069503E+03  0.00000000000E+00 0.  1.
<mgrwt>
<rscale>  0 0.29278381E+04</rscale>
<asrwt>0</asrwt>
<pdfrwt beam="1">  1        2 0.33874289E+00 0.29278381E+04</pdfrwt>
<pdfrwt beam="2">  1       -1 0.14973979E+00 0.29278381E+04</pdfrwt>
<totfact> 0.17681293E+00</totfact>
</mgrwt>
</event>
<event>
12    6  0.1647231E-007  0.2167861E+04  0.7818608E-02  0.8531925E-01
          2   -1    0    0  501    0  0.00000000000E+00  0.00000000000E+00  0.19791183530E+04  0.19791183530E+04  0.00000000000E+00 0. -1.
         -1   -1    0    0    0  501 -0.00000000000E+00 -0.00000000000E+00 -0.59365072455E+03  0.59365072455E+03  0.00000000000E+00 0.  1.
         24    2    1    2    0    0 -0.68205040017E+03 -0.19908645456E+03  0.12431575860E+04  0.14339585720E+04  0.77254371520E+02 0.  0.
        254    2    1    2    0    0  0.68205040017E+03  0.19908645456E+03  0.14231004241E+03  0.11388105055E+04  0.87852663845E+03 0.  0.
         23    2    4    4    0    0  0.11151423557E+03 -0.11142217146E+03  0.39725497461E+03  0.43493352949E+03  0.80655658168E+02 0.  0.
         23    2    4    4    0    0  0.57053616459E+03  0.31050862602E+03 -0.25494493220E+03  0.70387697599E+03  0.92297112252E+02 0.  0.
          2    1    3    3  502    0 -0.58413560889E+03 -0.15540523690E+03  0.10995642753E+04  0.12547536781E+04  0.00000000000E+00 0. -1.
         -1    1    3    3    0  502 -0.97914791280E+02 -0.43681217653E+02  0.14359331074E+03  0.17920489395E+03  0.00000000000E+00 0.  1.
         11    1    5    5    0    0 -0.63413770614E+01 -0.33077991384E+02  0.10398218060E+03  0.10930077977E+03  0.00000000000E+00 0. -1.
        -11    1    5    5    0    0  0.11785561264E+03 -0.78344180080E+02  0.29327279401E+03  0.32563274972E+03  0.00000000000E+00 0.  1.
          4    1    6    6  503    0  0.22833156055E+03  0.79893480335E+02 -0.11748598144E+03  0.26892605969E+03  0.00000000000E+00 0. -1.
         -4    1    6    6    0  503  0.34220460404E+03  0.23061514569E+03 -0.13745895076E+03  0.43495091630E+03  0.00000000000E+00 0.  1.
<mgrwt>
<rscale>  0 0.21678607E+04</rscale>
<asrwt>0</asrwt>
<pdfrwt beam="1">  1        2 0.30447974E+00 0.21678607E+04</pdfrwt>
<pdfrwt beam="2">  1       -1 0.91330882E-01 0.21678607E+04</pdfrwt>
<totfact> 0.83703383E+00</totfact>
</mgrwt>
</event>
<event>
12    6  0.1647231E-007  0.1695870E+04  0.7818608E-02  0.8763724E-01
         -1   -1    0    0    0  501 -0.00000000000E+00  0.00000000000E+00  0.53001218663E+03  0.53001218663E+03  0.00000000000E+00 0.  1.
          2   -1    0    0  501    0  0.00000000000E+00 -0.00000000000E+00 -0.13565603691E+04  0.13565603691E+04  0.00000000000E+00 0. -1.
         24    2    1    2    0    0 -0.31911493146E+03  0.38803032716E+03  0.78459186805E+02  0.51562445022E+03  0.85503540241E+02 0.  0.
        254    2    1    2    0    0  0.31911493146E+03 -0.38803032716E+03 -0.90500736926E+03  0.13709481055E+04  0.89892073913E+03 0.  0.
         23    2    4    4    0    0  0.10096369482E+03 -0.10244345011E+03 -0.97889697040E+03  0.99338118779E+03  0.88761351186E+02 0.  0.
         23    2    4    4    0    0  0.21815123664E+03 -0.28558687705E+03  0.73889601138E+02  0.37756691770E+03  0.89147505798E+02 0.  0.
          2    1    3    3  502    0 -0.85712775900E+02  0.74706754240E+02  0.49011644390E+02  0.12381405561E+03  0.00000000000E+00 0. -1.
         -1    1    3    3    0  502 -0.23340215556E+03  0.31332357293E+03  0.29447542415E+02  0.39181039461E+03  0.00000000000E+00 0.  1.
         11    1    5    5    0    0  0.58353876375E+02 -0.11103377042E+03 -0.74276745415E+03  0.75328425180E+03  0.00000000000E+00 0. -1.
        -11    1    5    5    0    0  0.42609818444E+02  0.85903203083E+01 -0.23612951625E+03  0.24009693599E+03  0.00000000000E+00 0.  1.
          3    1    6    6  503    0  0.13925343423E+03 -0.12034561947E+03  0.61435070603E+02  0.19403312854E+03  0.00000000000E+00 0. -1.
         -3    1    6    6    0  503  0.78897802417E+02 -0.16524125758E+03  0.12454530535E+02  0.18353378916E+03  0.00000000000E+00 0.  1.
<mgrwt>
<rscale>  0 0.16958697E+04</rscale>
<asrwt>0</asrwt>
<pdfrwt beam="1">  1        2 0.20870159E+00 0.16958697E+04</pdfrwt>
<pdfrwt beam="2">  1       -1 0.81540337E-01 0.16958697E+04</pdfrwt>
<totfact> 0.24905122E+01</totfact>
</mgrwt>
</event>
<event>
12    6  0.1647231E-007  0.1701762E+04  0.7818608E-02  0.8760360E-01
          2   -1    0    0  501    0  0.00000000000E+00  0.00000000000E+00  0.36033504225E+03  0.36033504225E+03  0.00000000000E+00 0. -1.
         -1   -1    0    0    0  501 -0.00000000000E+00 -0.00000000000E+00 -0.20092366868E+04  0.20092366868E+04  0.00000000000E+00 0.  1.
         24    2    1    2    0    0 -0.25748622288E+03 -0.54891826122E+03 -0.51574078095E+03  0.80057989842E+03  0.85610794633E+02 0.  0.
        254    2    1    2    0    0  0.25748622288E+03  0.54891826122E+03 -0.11331608636E+04  0.15689918306E+04  0.90003967093E+03 0.  0.
         23    2    4    4    0    0  0.95127707139E+01  0.28616920442E+03 -0.11577390101E+04  0.11961163766E+04  0.91386348117E+02 0.  0.
         23    2    4    4    0    0  0.24797345216E+03  0.26274905679E+03  0.24578146487E+02  0.37287545398E+03  0.88905112718E+02 0.  0.
          2    1    3    3  502    0 -0.72392949442E+02 -0.18822547317E+03 -0.12350318627E+03  0.23647960779E+03  0.00000000000E+00 0. -1.
         -3    1    3    3    0  502 -0.18509327344E+03 -0.36069278805E+03 -0.39223759468E+03  0.56410029064E+03  0.00000000000E+00 0.  1.
         11    1    5    5    0    0  0.39830111776E+01  0.29228123824E+03 -0.11272766062E+04  0.11645586003E+04  0.00000000000E+00 0. -1.
        -11    1    5    5    0    0  0.55297595363E+01 -0.61120338228E+01 -0.30462403857E+02  0.31557776328E+02  0.00000000000E+00 0.  1.
          4    1    6    6  503    0  0.11180094809E+03  0.18234981776E+03  0.11640995805E+02  0.21421115940E+03  0.00000000000E+00 0. -1.
         -4    1    6    6    0  503  0.13617250408E+03  0.80399239038E+02  0.12937150682E+02  0.15866429457E+03  0.00000000000E+00 0.  1.
<mgrwt>
<rscale>  0 0.17017619E+04</rscale>
<asrwt>0</asrwt>
<pdfrwt beam="1">  1        2 0.55436161E-01 0.17017619E+04</pdfrwt>
<pdfrwt beam="2">  1       -1 0.30911333E+00 0.17017619E+04</pdfrwt>
<totfact> 0.28102557E+00</totfact>
</mgrwt>
</event>
<event>
12    6  0.1647231E-007  0.1535750E+04  0.7818608E-02  0.8861022E-01
         -1   -1    0    0    0  501 -0.00000000000E+00  0.00000000000E+00  0.49695065339E+03  0.49695065339E+03  0.00000000000E+00 0.  1.
          2   -1    0    0  501    0  0.00000000000E+00 -0.00000000000E+00 -0.11864996997E+04  0.11864996997E+04  0.00000000000E+00 0. -1.
         24    2    1    2    0    0  0.27014170184E+03 -0.41108341135E+03 -0.30105599949E+03  0.58199775187E+03  0.78233996391E+02 0.  0.
        254    2    1    2    0    0 -0.27014170184E+03  0.41108341135E+03 -0.38849304685E+03  0.11014526013E+04  0.90570683734E+03 0.  0.
         23    2    4    4    0    0 -0.17085603823E+03  0.38282793772E+03 -0.66486703634E+03  0.79130617016E+03  0.91478211765E+02 0.  0.
         23    2    4    4    0    0 -0.99285663614E+02  0.28255473623E+02  0.27637398949E+03  0.31014643110E+03  0.95667193267E+02 0.  0.
          4    1    3    3  502    0  0.18401918851E+03 -0.29961819379E+03 -0.25295335811E+03  0.43315069569E+03  0.00000000000E+00 0. -1.
         -3    1    3    3    0  502  0.86122513331E+02 -0.11146521755E+03 -0.48102641378E+02  0.14884705618E+03  0.00000000000E+00 0.  1.
         11    1    5    5    0    0 -0.18612788356E+02  0.99597380856E+02 -0.10670755599E+03  0.14714814531E+03  0.00000000000E+00 0.  1.
        -11    1    5    5    0    0 -0.15224324987E+03  0.28323055687E+03 -0.55815948035E+03  0.64415802485E+03  0.00000000000E+00 0. -1.
          1    1    6    6  503    0 -0.50246829878E+02  0.62478983641E+02  0.17405632482E+03  0.19163499555E+03  0.00000000000E+00 0. -1.
         -1    1    6    6    0  503 -0.49038833737E+02 -0.34223510019E+02  0.10231766467E+03  0.11851143555E+03  0.00000000000E+00 0.  1.
<mgrwt>
<rscale>  0 0.15357497E+04</rscale>
<asrwt>0</asrwt>
<pdfrwt beam="1">  1        2 0.18253841E+00 0.15357497E+04</pdfrwt>
<pdfrwt beam="2">  1       -1 0.76453948E-01 0.15357497E+04</pdfrwt>
<totfact> 0.36415848E+01</totfact>
</mgrwt>
</event>
<event>
12    6  0.1647231E-007  0.1694640E+04  0.7818608E-02  0.8764427E-01
         -1   -1    0    0    0  501 -0.00000000000E+00  0.00000000000E+00  0.87477893768E+03  0.87477893768E+03  0.00000000000E+00 0.  1.
          2   -1    0    0  501    0  0.00000000000E+00 -0.00000000000E+00 -0.82072328613E+03  0.82072328613E+03  0.00000000000E+00 0. -1.
         24    2    1    2    0    0  0.57117686569E+03 -0.11866574878E+03 -0.13807352415E+03  0.60529840860E+03  0.83649826980E+02 0.  0.
        254    2    1    2    0    0 -0.57117686569E+03  0.11866574878E+03  0.19212917570E+03  0.10902038152E+04  0.90072535587E+03 0.  0.
         23    2    4    4    0    0  0.21937002184E+03 -0.37225501593E+02  0.13986915428E+03  0.27805712499E+03  0.90793391747E+02 0.  0.
         23    2    4    4    0    0 -0.79054688753E+03  0.15589125037E+03  0.52260021415E+02  0.81214669022E+03  0.87090029698E+02 0.  0.
          2    1    3    3  502    0  0.47282111502E+03 -0.11363654139E+03 -0.14244094767E+03  0.50671737085E+03  0.00000000000E+00 0. -1.
         -1    1    3    3    0  502  0.98355750667E+02 -0.50292073876E+01  0.43674235116E+01  0.98581037752E+02  0.00000000000E+00 0.  1.
         11    1    5    5    0    0 -0.84232761431E+01 -0.35329177351E+01  0.10561604126E+02  0.13963544336E+02  0.00000000000E+00 0.  1.
        -11    1    5    5    0    0  0.22779329798E+03 -0.33692583858E+02  0.12930755016E+03  0.26409358065E+03  0.00000000000E+00 0. -1.
          1    1    6    6  503    0 -0.40928480004E+03  0.58352439977E+02 -0.10912135758E+02  0.41356756341E+03  0.00000000000E+00 0. -1.
         -1    1    6    6    0  503 -0.38126208749E+03  0.97538810396E+02  0.63172157172E+02  0.39857912681E+03  0.00000000000E+00 0.  1.
<mgrwt>
<rscale>  0 0.16946403E+04</rscale>
<asrwt>0</asrwt>
<pdfrwt beam="1">  1        2 0.12626512E+00 0.16946403E+04</pdfrwt>
<pdfrwt beam="2">  1       -1 0.13458138E+00 0.16946403E+04</pdfrwt>
<totfact> 0.16797396E+01</totfact>
</mgrwt>
</event>
<event>
12    6  0.1647231E-007  0.2111991E+04  0.7818608E-02  0.8555980E-01
          2   -1    0    0  501    0  0.00000000000E+00  0.00000000000E+00  0.10294437088E+04  0.10294437088E+04  0.00000000000E+00 0. -1.
         -1   -1    0    0    0  501 -0.00000000000E+00 -0.00000000000E+00 -0.10832321286E+04  0.10832321286E+04  0.00000000000E+00 0.  1.
         24    2    1    2    0    0 -0.36350761105E+03 -0.18749013005E+03  0.73496498373E+03  0.84487068937E+03  0.79640581887E+02 0.  0.
        254    2    1    2    0    0  0.36350761105E+03  0.18749013005E+03 -0.78875340350E+03  0.12678051480E+04  0.90438245758E+03 0.  0.
         23    2    4    4    0    0 -0.26148277350E+03  0.55243465282E+02 -0.50566163565E+02  0.28728498059E+03  0.92469680878E+02 0.  0.
         23    2    4    4    0    0  0.62499038454E+03  0.13224666477E+03 -0.73818723993E+03  0.98052016740E+03  0.91636435772E+02 0.  0.
          4    1    3    3  502    0 -0.30699852645E+03 -0.14576486757E+03  0.54436723467E+03  0.64174074052E+03  0.00000000000E+00 0. -1.
         -3    1    3    3    0  502 -0.56509084594E+02 -0.41725262476E+02  0.19059774906E+03  0.20312994884E+03  0.00000000000E+00 0.  1.
         11    1    5    5    0    0 -0.21995956919E+02  0.36262031201E+02 -0.10951055907E+02  0.43802769925E+02  0.00000000000E+00 0. -1.
        -11    1    5    5    0    0 -0.23948681658E+03  0.18981434080E+02 -0.39615107658E+02  0.24348221067E+03  0.00000000000E+00 0.  1.
          2    1    6    6  503    0  0.38877612283E+02 -0.88916702478E+01 -0.69995657713E+02  0.80560056078E+02  0.00000000000E+00 0. -1.
         -2    1    6    6    0  503  0.58611277226E+03  0.14113833502E+03 -0.66819158222E+03  0.89996011132E+03  0.00000000000E+00 0.  1.
<mgrwt>
<rscale>  0 0.21119910E+04</rscale>
<asrwt>0</asrwt>
<pdfrwt beam="1">  1        2 0.15837596E+00 0.21119910E+04</pdfrwt>
<pdfrwt beam="2">  1       -1 0.16665110E+00 0.21119910E+04</pdfrwt>
<totfact> 0.65976322E+00</totfact>
</mgrwt>
</event>
<event>
12    6  0.1647231E-007  0.2898617E+04  0.7818608E-02  0.8273289E-01
          2   -1    0    0  501    0  0.00000000000E+00  0.00000000000E+00  0.15925318456E+04  0.15925318456E+04  0.00000000000E+00 0. -1.
         -1   -1    0    0    0  501 -0.00000000000E+00 -0.00000000000E+00 -0.13189656197E+04  0.13189656197E+04  0.00000000000E+00 0.  1.
         24    2    1    2    0    0  0.71295082968E+03 -0.48220516042E+03 -0.86894468924E+03  0.12257035648E+04  0.80396849591E+02 0.  0.
        254    2    1    2    0    0 -0.71295082968E+03  0.48220516042E+03  0.11425109151E+04  0.16857939005E+04  0.89204774630E+03 0.  0.
         23    2    4    4    0    0 -0.79092839345E+03  0.64851387516E+03  0.10245235676E+04  0.14504961177E+04  0.90291069002E+02 0.  0.
         23    2    4    4    0    0  0.77977563773E+02 -0.16630871474E+03  0.11798734747E+03  0.23529778278E+03  0.87777806806E+02 0.  0.
          4    1    3    3  502    0  0.40835933202E+03 -0.23904885006E+03 -0.51259590074E+03  0.69760752162E+03  0.00000000000E+00 0. -1.
         -3    1    3    3    0  502  0.30459149766E+03 -0.24315631035E+03 -0.35634878850E+03  0.52809604313E+03  0.00000000000E+00 0.  1.
         11    1    5    5    0    0 -0.37584457429E+03  0.26164140454E+03  0.49563417633E+03  0.67481005131E+03  0.00000000000E+00 0. -1.
        -11    1    5    5    0    0 -0.41508381916E+03  0.38687247062E+03  0.52888939129E+03  0.77568606644E+03  0.00000000000E+00 0.  1.
          1    1    6    6  503    0  0.12574776429E+02  0.96355142459E+01  0.10264321941E+02  0.18876558000E+02  0.00000000000E+00 0. -1.
         -1    1    6    6    0  503  0.65402787343E+02 -0.17594422899E+03  0.10772302553E+03  0.21642122478E+03  0.00000000000E+00 0.  1.
<mgrwt>
<rscale>  0 0.28986167E+04</rscale>
<asrwt>0</asrwt>
<pdfrwt beam="1">  1        2 0.24500490E+00 0.28986167E+04</pdfrwt>
<pdfrwt beam="2">  1       -1 0.20291779E+00 0.28986167E+04</pdfrwt>
<totfact> 0.15901136E+00</totfact>
</mgrwt>
</event>
<event>
12    6  0.1647231E-007  0.3314134E+04  0.7818608E-02  0.8159308E-01
          2   -1    0    0  501    0  0.00000000000E+00  0.00000000000E+00  0.24172639346E+04  0.24172639346E+04  0.00000000000E+00 0. -1.
         -1   -1    0    0    0  501 -0.00000000000E+00 -0.00000000000E+00 -0.11359417306E+04  0.11359417306E+04  0.00000000000E+00 0.  1.
         24    2    1    2    0    0  0.93358873119E+03 -0.30588579996E+02  0.18998064709E+04  0.21184811102E+04  0.78574850441E+02 0.  0.
        254    2    1    2    0    0 -0.93358873119E+03  0.30588579996E+02 -0.61848426696E+03  0.14347245550E+04  0.89631923996E+03 0.  0.
         23    2    4    4    0    0 -0.65252246139E+03 -0.15994100848E+02 -0.83620155579E+03  0.10648148184E+04  0.92499630408E+02 0.  0.
         23    2    4    4    0    0 -0.28106626980E+03  0.46582680843E+02  0.21771728883E+03  0.36990973660E+03  0.90907652062E+02 0.  0.
          2    1    3    3  502    0  0.75977881996E+03  0.72242599274E+00  0.15785605658E+04  0.17518897902E+04  0.00000000000E+00 0. -1.
         -1    1    3    3    0  502  0.17380991123E+03 -0.31311005989E+02  0.32124590515E+03  0.36659132002E+03  0.00000000000E+00 0.  1.
         11    1    5    5    0    0 -0.14455114862E+03  0.23336339098E+02 -0.23357949176E+03  0.27567915819E+03  0.00000000000E+00 0.  1.
        -11    1    5    5    0    0 -0.50797131277E+03 -0.39330439945E+02 -0.60262206403E+03  0.78913566018E+03  0.00000000000E+00 0. -1.
          1    1    6    6  503    0 -0.27786633691E+03  0.33351358658E+02  0.22016035329E+03  0.35607947915E+03  0.00000000000E+00 0. -1.
         -1    1    6    6    0  503 -0.31999328944E+01  0.13231322185E+02 -0.24430644589E+01  0.13830257454E+02  0.00000000000E+00 0.  1.
<mgrwt>
<rscale>  0 0.33141340E+04</rscale>
<asrwt>0</asrwt>
<pdfrwt beam="1">  1        2 0.37188676E+00 0.33141340E+04</pdfrwt>
<pdfrwt beam="2">  1       -1 0.17476027E+00 0.33141340E+04</pdfrwt>
<totfact> 0.83663759E-01</totfact>
</mgrwt>
</event>
<event>
12    6  0.1647231E-007  0.2018140E+04  0.7818608E-02  0.8598186E-01
          2   -1    0    0  501    0  0.00000000000E+00  0.00000000000E+00  0.13869071223E+04  0.13869071223E+04  0.00000000000E+00 0. -1.
         -1   -1    0    0    0  501 -0.00000000000E+00 -0.00000000000E+00 -0.73416729730E+03  0.73416729730E+03  0.00000000000E+00 0.  1.
         24    2    1    2    0    0 -0.19430398401E+03  0.47477387721E+03  0.91621701513E+03  0.10532034993E+04  0.81361658303E+02 0.  0.
        254    2    1    2    0    0  0.19430398401E+03 -0.47477387721E+03 -0.26347719017E+03  0.10678709203E+04  0.89875680801E+03 0.  0.
         23    2    4    4    0    0  0.36190777893E+03 -0.86208802766E+02 -0.45430470218E+03  0.59403668614E+03  0.89875602542E+02 0.  0.
         23    2    4    4    0    0 -0.16760379492E+03 -0.38856507444E+03  0.19082751201E+03  0.47383423413E+03  0.95025748846E+02 0.  0.
          4    1    3    3  502    0 -0.11983986717E+03  0.24919318850E+03  0.41699564644E+03  0.50034408971E+03  0.00000000000E+00 0. -1.
         -3    1    3    3    0  502 -0.74464116837E+02  0.22558068871E+03  0.49922136869E+03  0.55285940959E+03  0.00000000000E+00 0.  1.
         11    1    5    5    0    0  0.16738175462E+03  0.63744536001E+00 -0.23265156884E+03  0.28660741547E+03  0.00000000000E+00 0. -1.
        -11    1    5    5    0    0  0.19452602431E+03 -0.86846248126E+02 -0.22165313334E+03  0.30742927067E+03  0.00000000000E+00 0.  1.
          2    1    6    6  503    0 -0.10952717394E+02 -0.14030508523E+00 -0.43242204255E+01  0.11776272165E+02  0.00000000000E+00 0. -1.
         -2    1    6    6    0  503 -0.15665107752E+03 -0.38842476936E+03  0.19515173244E+03  0.46205796197E+03  0.00000000000E+00 0.  1.
<mgrwt>
<rscale>  0 0.20181396E+04</rscale>
<asrwt>0</asrwt>
<pdfrwt beam="1">  1        2 0.21337033E+00 0.20181396E+04</pdfrwt>
<pdfrwt beam="2">  1       -1 0.11294882E+00 0.20181396E+04</pdfrwt>
<totfact> 0.11155806E+01</totfact>
</mgrwt>
</event>
<event>
12    6  0.1647231E-007  0.1584405E+04  0.7818608E-02  0.8830186E-01
          2   -1    0    0  501    0  0.00000000000E+00  0.00000000000E+00  0.23731234836E+04  0.23731234836E+04  0.00000000000E+00 0. -1.
         -1   -1    0    0    0  501 -0.00000000000E+00 -0.00000000000E+00 -0.26445506888E+03  0.26445506888E+03  0.00000000000E+00 0.  1.
         24    2    1    2    0    0  0.35007116783E+03  0.32400648598E+03  0.10586873958E+04  0.11640840602E+04  0.82113773866E+02 0.  0.
        254    2    1    2    0    0 -0.35007116783E+03 -0.32400648598E+03  0.10499810189E+04  0.14734944922E+04  0.91716729822E+03 0.  0.
         23    2    4    4    0    0  0.23992284701E+03 -0.56001292988E+02  0.31778681009E+02  0.26305042796E+03  0.86524711790E+02 0.  0.
         23    2    4    4    0    0 -0.58999401484E+03 -0.26800519299E+03  0.10182023379E+04  0.12104440642E+04  0.92299028587E+02 0.  0.
          2    1    3    3  502    0  0.28173409166E+03  0.26790946857E+03  0.92958108711E+03  0.10076063613E+04  0.00000000000E+00 0. -1.
         -1    1    3    3    0  502  0.68337076178E+02  0.56097017417E+02  0.12910630865E+03  0.15647769897E+03  0.00000000000E+00 0.  1.
         11    1    5    5    0    0  0.22578722376E+02 -0.32824445166E+02  0.18897330319E+02  0.44094806925E+02  0.00000000000E+00 0. -1.
        -11    1    5    5    0    0  0.21734412463E+03 -0.23176847823E+02  0.12881350690E+02  0.21895562104E+03  0.00000000000E+00 0.  1.
          2    1    6    6  503    0 -0.27275222371E+03 -0.97032608598E+02  0.38258986055E+03  0.47977505569E+03  0.00000000000E+00 0. -1.
         -2    1    6    6    0  503 -0.31724179113E+03 -0.17097258440E+03  0.63561247738E+03  0.73066900855E+03  0.00000000000E+00 0.  1.
<mgrwt>
<rscale>  0 0.15844047E+04</rscale>
<asrwt>0</asrwt>
<pdfrwt beam="1">  1        2 0.36509591E+00 0.15844047E+04</pdfrwt>
<pdfrwt beam="2">  1       -1 0.40685397E-01 0.15844047E+04</pdfrwt>
<totfact> 0.26629440E+01</totfact>
</mgrwt>
</event>
<event>
12    6  0.1647231E-007  0.1124569E+04  0.7818608E-02  0.9181570E-01
          2   -1    0    0  501    0  0.00000000000E+00  0.00000000000E+00  0.54244359479E+03  0.54244359479E+03  0.00000000000E+00 0. -1.
         -1   -1    0    0    0  501 -0.00000000000E+00 -0.00000000000E+00 -0.58285146062E+03  0.58285146062E+03  0.00000000000E+00 0.  1.
         24    2    1    2    0    0 -0.85599419147E+02  0.34419056942E+02  0.15747165679E+03  0.20011959337E+03  0.82088957340E+02 0.  0.
        254    2    1    2    0    0  0.85599419147E+02 -0.34419056942E+02 -0.19787952262E+03  0.92517546205E+03  0.89904471416E+03 0.  0.
         23    2    4    4    0    0 -0.17362854826E+03  0.26744003838E+03 -0.35721109451E+03  0.48756702484E+03  0.91928182650E+02 0.  0.
         23    2    4    4    0    0  0.25922796740E+03 -0.30185909532E+03  0.15933157189E+03  0.43760843721E+03  0.88298029450E+02 0.  0.
          4    1    3    3  502    0 -0.45631988730E+02 -0.24285434064E+02  0.55383171609E+02  0.75758540116E+02  0.00000000000E+00 0. -1.
         -3    1    3    3    0  502 -0.39967430417E+02  0.58704491006E+02  0.10208848518E+03  0.12436105325E+03  0.00000000000E+00 0.  1.
         11    1    5    5    0    0 -0.13459466902E+03  0.15134263221E+03 -0.26854855427E+03  0.33636088246E+03  0.00000000000E+00 0. -1.
        -11    1    5    5    0    0 -0.39033879238E+02  0.11609740617E+03 -0.88662540244E+02  0.15120614237E+03  0.00000000000E+00 0.  1.
          4    1    6    6  503    0  0.14101294144E+03 -0.10575243608E+03  0.92576788949E+02  0.19909467407E+03  0.00000000000E+00 0. -1.
         -4    1    6    6    0  503  0.11821502596E+03 -0.19610665924E+03  0.66754782945E+02  0.23851376314E+03  0.00000000000E+00 0.  1.
<mgrwt>
<rscale>  0 0.11245693E+04</rscale>
<asrwt>0</asrwt>
<pdfrwt beam="1">  1        2 0.83452861E-01 0.11245693E+04</pdfrwt>
<pdfrwt beam="2">  1       -1 0.89669455E-01 0.11245693E+04</pdfrwt>
<totfact> 0.77290350E+01</totfact>
</mgrwt>
</event>
<event>
12    6  0.1647231E-007  0.1485737E+04  0.7818608E-02  0.8893994E-01
         -1   -1    0    0    0  501 -0.00000000000E+00  0.00000000000E+00  0.37035776411E+03  0.37035776411E+03  0.00000000000E+00 0.  1.
          2   -1    0    0  501    0  0.00000000000E+00 -0.00000000000E+00 -0.14900547979E+04  0.14900547979E+04  0.00000000000E+00 0. -1.
         24    2    1    2    0    0 -0.83546375001E+02  0.17536918072E+03  0.17109770036E+03  0.27093100289E+03  0.79967736852E+02 0.  0.
        254    2    1    2    0    0  0.83546375001E+02 -0.17536918072E+03 -0.12907947342E+04  0.15894815591E+04  0.90695437304E+03 0.  0.
         23    2    4    4    0    0 -0.34934207793E+03 -0.27921131986E+03 -0.80242359602E+03  0.92225253268E+03  0.81653279413E+02 0.  0.
         23    2    4    4    0    0  0.43288845294E+03  0.10384213914E+03 -0.48837113814E+03  0.66722902646E+03  0.92263766611E+02 0.  0.
          4    1    3    3  502    0 -0.50942521751E+02  0.26022650364E+02  0.47018180161E+02  0.74047472070E+02  0.00000000000E+00 0. -1.
         -3    1    3    3    0  502 -0.32603853250E+02  0.14934653036E+03  0.12407952020E+03  0.19688353082E+03  0.00000000000E+00 0.  1.
         11    1    5    5    0    0 -0.65851273699E+02 -0.39477978327E+02 -0.85596978684E+02  0.11498584165E+03  0.00000000000E+00 0. -1.
        -11    1    5    5    0    0 -0.28349080424E+03 -0.23973334153E+03 -0.71682661733E+03  0.80726669103E+03  0.00000000000E+00 0.  1.
          3    1    6    6  503    0  0.22940791221E+03  0.78153882100E+01 -0.24007107182E+03  0.33214934894E+03  0.00000000000E+00 0. -1.
         -3    1    6    6    0  503  0.20348054073E+03  0.96026750926E+02 -0.24830006633E+03  0.33507967752E+03  0.00000000000E+00 0.  1.
<mgrwt>
<rscale>  0 0.14857367E+04</rscale>
<asrwt>0</asrwt>
<pdfrwt beam="1">  1        2 0.22923920E+00 0.14857367E+04</pdfrwt>
<pdfrwt beam="2">  1       -1 0.56978118E-01 0.14857367E+04</pdfrwt>
<totfact> 0.44196339E+01</totfact>
</mgrwt>
</event>
<event>
12    6  0.1647231E-007  0.2849806E+04  0.7818608E-02  0.8287970E-01
          2   -1    0    0  501    0  0.00000000000E+00  0.00000000000E+00  0.19029309846E+04  0.19029309846E+04  0.00000000000E+00 0. -1.
         -1   -1    0    0    0  501 -0.00000000000E+00 -0.00000000000E+00 -0.10669583983E+04  0.10669583983E+04  0.00000000000E+00 0.  1.
         24    2    1    2    0    0  0.10443226063E+04  0.53001156123E+03  0.74886462476E+03  0.13923440449E+04  0.79383574681E+02 0.  0.
        254    2    1    2    0    0 -0.10443226063E+04 -0.53001156123E+03  0.87107961566E+02  0.15775453380E+04  0.10533468258E+04 0.  0.
         23    2    4    4    0    0 -0.76606494513E+03 -0.75024215946E+03 -0.22171963206E+03  0.10989068389E+04  0.93369413693E+02 0.  0.
         23    2    4    4    0    0 -0.27825766120E+03  0.22023059823E+03  0.30882759362E+03  0.47863849910E+03  0.88269404814E+02 0.  0.
          4    1    3    3  502    0  0.87218057228E+03  0.41245704511E+03  0.59904843164E+03  0.11356402547E+04  0.00000000000E+00 0. -1.
         -3    1    3    3    0  502  0.17214203406E+03  0.11755451613E+03  0.14981619312E+03  0.25670379014E+03  0.00000000000E+00 0.  1.
         11    1    5    5    0    0 -0.61328870796E+03 -0.58976177454E+03 -0.21328738960E+03  0.87717358635E+03  0.00000000000E+00 0. -1.
        -11    1    5    5    0    0 -0.15277623717E+03 -0.16048038492E+03 -0.84322424588E+01  0.22173325258E+03  0.00000000000E+00 0.  1.
          2    1    6    6  503    0 -0.27668514019E+03  0.22728447158E+03  0.30549344386E+03  0.47067944725E+03  0.00000000000E+00 0. -1.
         -2    1    6    6    0  503 -0.15725210107E+01 -0.70538733579E+01  0.33341497672E+01  0.79590518498E+01  0.00000000000E+00 0.  1.
<mgrwt>
<rscale>  0 0.28498057E+04</rscale>
<asrwt>0</asrwt>
<pdfrwt beam="1">  1        2 0.29275861E+00 0.28498057E+04</pdfrwt>
<pdfrwt beam="2">  1       -1 0.16414745E+00 0.28498057E+04</pdfrwt>
<totfact> 0.20286435E+00</totfact>
</mgrwt>
</event>
<event>
12    6  0.1647231E-007  0.1137732E+04  0.7818608E-02  0.9169177E-01
         -1   -1    0    0    0  501 -0.00000000000E+00  0.00000000000E+00  0.10914479520E+04  0.10914479520E+04  0.00000000000E+00 0.  1.
          2   -1    0    0  501    0  0.00000000000E+00 -0.00000000000E+00 -0.29649463065E+03  0.29649463065E+03  0.00000000000E+00 0. -1.
         24    2    1    2    0    0  0.13465341618E+03 -0.60171597156E+02 -0.16219982469E+02  0.16911911598E+03  0.81154321919E+02 0.  0.
        254    2    1    2    0    0 -0.13465341618E+03  0.60171597156E+02  0.81117330385E+03  0.12188234667E+04  0.89765046122E+03 0.  0.
         23    2    4    4    0    0 -0.40799854334E+03  0.28746972579E+03  0.63304476030E+03  0.81094538556E+03  0.88233186458E+02 0.  0.
         23    2    4    4    0    0  0.27334512716E+03 -0.22729812864E+03  0.17812854354E+03  0.40787808115E+03  0.90844665397E+02 0.  0.
          2    1    3    3  502    0  0.12189660096E+03 -0.44787532457E+02 -0.42011710590E+02  0.13649061585E+03  0.00000000000E+00 0. -1.
         -1    1    3    3    0  502  0.12756815218E+02 -0.15384064700E+02  0.25791728121E+02  0.32628500128E+02  0.00000000000E+00 0.  1.
         11    1    5    5    0    0 -0.13314354050E+03  0.11149481458E+03  0.28563748321E+03  0.33428590738E+03  0.00000000000E+00 0. -1.
        -11    1    5    5    0    0 -0.27485500284E+03  0.17597491121E+03  0.34740727709E+03  0.47665947818E+03  0.00000000000E+00 0.  1.
          3    1    6    6  503    0  0.53172866313E+02 -0.79102844931E+02  0.15367545136E+02  0.96544162080E+02  0.00000000000E+00 0. -1.
         -3    1    6    6    0  503  0.22017226085E+03 -0.14819528370E+03  0.16276099841E+03  0.31133391907E+03  0.00000000000E+00 0.  1.
<mgrwt>
<rscale>  0 0.11377319E+04</rscale>
<asrwt>0</asrwt>
<pdfrwt beam="1">  1        2 0.45614559E-01 0.11377319E+04</pdfrwt>
<pdfrwt beam="2">  1       -1 0.16791507E+00 0.11377319E+04</pdfrwt>
<totfact> 0.32197023E+01</totfact>
</mgrwt>
</event>
<event>
12    6  0.1647231E-007  0.1427431E+04  0.7818608E-02  0.8934198E-01
          2   -1    0    0  501    0  0.00000000000E+00  0.00000000000E+00  0.63685337616E+03  0.63685337616E+03  0.00000000000E+00 0. -1.
         -1   -1    0    0    0  501 -0.00000000000E+00 -0.00000000000E+00 -0.79985418088E+03  0.79985418088E+03  0.00000000000E+00 0.  1.
         24    2    1    2    0    0  0.23305348736E+03  0.30197579259E+03  0.13652709461E+03  0.41253598291E+03  0.77736621665E+02 0.  0.
        254    2    1    2    0    0 -0.23305348736E+03 -0.30197579259E+03 -0.29952789933E+03  0.10241715741E+04  0.90205717307E+03 0.  0.
         23    2    4    4    0    0  0.13542805493E+03 -0.13424211262E+03  0.25519825323E+03  0.33133416366E+03  0.91074017671E+02 0.  0.
         23    2    4    4    0    0 -0.36848154229E+03 -0.16773367998E+03 -0.55472615256E+03  0.69283741046E+03  0.91593332684E+02 0.  0.
          4    1    3    3  502    0  0.20481400593E+03  0.26491163260E+03  0.14547388147E+03  0.36508848284E+03  0.00000000000E+00 0. -1.
         -3    1    3    3    0  502  0.28239481434E+02  0.37064159987E+02 -0.89467868635E+01  0.47447500064E+02  0.00000000000E+00 0.  1.
         11    1    5    5    0    0 -0.59479952455E+01 -0.34872761955E+02  0.24238996621E+02  0.42883763023E+02  0.00000000000E+00 0. -1.
        -11    1    5    5    0    0  0.14137605018E+03 -0.99369350661E+02  0.23095925661E+03  0.28845040064E+03  0.00000000000E+00 0.  1.
          1    1    6    6  503    0 -0.10832218828E+03 -0.14496857720E+02 -0.19164718706E+03  0.22061844816E+03  0.00000000000E+00 0. -1.
         -1    1    6    6    0  503 -0.26015935401E+03 -0.15323682226E+03 -0.36307896550E+03  0.47221896231E+03  0.00000000000E+00 0.  1.
<mgrwt>
<rscale>  0 0.14274310E+04</rscale>
<asrwt>0</asrwt>
<pdfrwt beam="1">  1        2 0.97977442E-01 0.14274310E+04</pdfrwt>
<pdfrwt beam="2">  1       -1 0.12305449E+00 0.14274310E+04</pdfrwt>
<totfact> 0.29788194E+01</totfact>
</mgrwt>
</event>
<event>
12    6  0.1647231E-007  0.2538405E+04  0.7818608E-02  0.8389430E-01
         -1   -1    0    0    0  501 -0.00000000000E+00  0.00000000000E+00  0.10306404186E+04  0.10306404186E+04  0.00000000000E+00 0.  1.
          2   -1    0    0  501    0  0.00000000000E+00 -0.00000000000E+00 -0.15629848237E+04  0.15629848237E+04  0.00000000000E+00 0. -1.
         24    2    1    2    0    0 -0.30421696143E+02 -0.11122290486E+04 -0.13882017883E+03  0.11241758157E+04  0.80754481632E+02 0.  0.
        254    2    1    2    0    0  0.30421696143E+02  0.11122290486E+04 -0.39352422629E+03  0.14694494266E+04  0.87546636965E+03 0.  0.
         23    2    4    4    0    0 -0.21331000491E+03  0.67941339598E+03  0.14337837876E+03  0.73210303628E+03  0.91179906811E+02 0.  0.
         23    2    4    4    0    0  0.24373170105E+03  0.43281565264E+03 -0.53690260505E+03  0.73734639029E+03  0.93170599994E+02 0.  0.
          4    1    3    3  502    0  0.94951188111E+01 -0.77398717123E+03 -0.75131200779E+02  0.77768309474E+03  0.00000000000E+00 0. -1.
         -3    1    3    3    0  502 -0.39916814954E+02 -0.33824187739E+03 -0.63688978048E+02  0.34649272093E+03  0.00000000000E+00 0.  1.
         11    1    5    5    0    0 -0.10839761475E+03  0.20604291186E+03  0.55610710629E+02  0.23936640438E+03  0.00000000000E+00 0.  1.
        -11    1    5    5    0    0 -0.10491239016E+03  0.47337048412E+03  0.87767668129E+02  0.49273663190E+03  0.00000000000E+00 0. -1.
          3    1    6    6  503    0  0.15536157465E+03  0.35368978473E+03 -0.42386285885E+03  0.57349228924E+03  0.00000000000E+00 0. -1.
         -3    1    6    6    0  503  0.88370126402E+02  0.79125867908E+02 -0.11303974620E+03  0.16385410106E+03  0.00000000000E+00 0.  1.
<mgrwt>
<rscale>  0 0.25384053E+04</rscale>
<asrwt>0</asrwt>
<pdfrwt beam="1">  1        2 0.24045920E+00 0.25384053E+04</pdfrwt>
<pdfrwt beam="2">  1       -1 0.15856007E+00 0.25384053E+04</pdfrwt>
<totfact> 0.35497401E+00</totfact>
</mgrwt>
</event>
<event>
12    6  0.1647231E-007  0.2242013E+04  0.7818608E-02  0.8501142E-01
          2   -1    0    0  501    0  0.00000000000E+00  0.00000000000E+00  0.11653966552E+04  0.11653966552E+04  0.00000000000E+00 0. -1.
         -1   -1    0    0    0  501 -0.00000000000E+00 -0.00000000000E+00 -0.10783073947E+04  0.10783073947E+04  0.00000000000E+00 0.  1.
         24    2    1    2    0    0 -0.24150030314E+03  0.85956936380E+03  0.39835753858E+03  0.98072546036E+03  0.77147990601E+02 0.  0.
        254    2    1    2    0    0  0.24150030314E+03 -0.85956936380E+03 -0.31126827808E+03  0.12629785895E+04  0.83728435379E+03 0.  0.
         23    2    4    4    0    0  0.18531725958E+03 -0.18433992302E+03 -0.48449325837E+03  0.55790131972E+03  0.90534364840E+02 0.  0.
         23    2    4    4    0    0  0.56183043559E+02 -0.67522944078E+03  0.17322498029E+03  0.70507726983E+03  0.89642236408E+02 0.  0.
          2    1    3    3  502    0 -0.23317125842E+03  0.85367217511E+03  0.38826334041E+03  0.96637127431E+03  0.00000000000E+00 0. -1.
         -3    1    3    3    0  502 -0.83290447214E+01  0.58971886947E+01  0.10094198174E+02  0.14354186053E+02  0.00000000000E+00 0.  1.
         11    1    5    5    0    0  0.32157011161E+02 -0.89005586223E+02 -0.19586156492E+03  0.21752659690E+03  0.00000000000E+00 0.  1.
        -11    1    5    5    0    0  0.15316024842E+03 -0.95334336797E+02 -0.28863169345E+03  0.34037472282E+03  0.00000000000E+00 0. -1.
          4    1    6    6  503    0 -0.23683261777E+02 -0.12502549311E+03  0.39694355307E+02  0.13329633400E+03  0.00000000000E+00 0. -1.
         -4    1    6    6    0  503  0.79866305336E+02 -0.55020394767E+03  0.13353062499E+03  0.57178093583E+03  0.00000000000E+00 0.  1.
<mgrwt>
<rscale>  0 0.22420132E+04</rscale>
<asrwt>0</asrwt>
<pdfrwt beam="1">  1        2 0.17929179E+00 0.22420132E+04</pdfrwt>
<pdfrwt beam="2">  1       -1 0.16589344E+00 0.22420132E+04</pdfrwt>
<totfact> 0.54459250E+00</totfact>
</mgrwt>
</event>
<event>
12    6  0.1647231E-007  0.2108453E+04  0.7818608E-02  0.8557529E-01
         -1   -1    0    0    0  501 -0.00000000000E+00  0.00000000000E+00  0.35719996586E+03  0.35719996586E+03  0.00000000000E+00 0.  1.
          2   -1    0    0  501    0  0.00000000000E+00 -0.00000000000E+00 -0.31114030724E+04  0.31114030724E+04  0.00000000000E+00 0. -1.
         24    2    1    2    0    0 -0.80402039902E+03  0.25058950081E+03 -0.12699702671E+04  0.15259076921E+04  0.79535561478E+02 0.  0.
        254    2    1    2    0    0  0.80402039902E+03 -0.25058950081E+03 -0.14842328395E+04  0.19426953462E+04  0.92837179320E+03 0.  0.
         23    2    4    4    0    0 -0.13449159740E+03 -0.17517275095E+03 -0.60648622063E+03  0.65250274681E+03  0.95712153502E+02 0.  0.
         23    2    4    4    0    0  0.93851199641E+03 -0.75416749864E+02 -0.87774661883E+03  0.12901925994E+04  0.87552059138E+02 0.  0.
          4    1    3    3  502    0 -0.26901928692E+03  0.54830136987E+02 -0.36893581176E+03  0.45988189120E+03  0.00000000000E+00 0. -1.
         -3    1    3    3    0  502 -0.53500111210E+03  0.19575936383E+03 -0.90103445536E+03  0.10660258009E+04  0.00000000000E+00 0.  1.
         11    1    5    5    0    0 -0.38245504019E+01 -0.14006570427E+02 -0.15437512329E+03  0.15505640874E+03  0.00000000000E+00 0. -1.
        -11    1    5    5    0    0 -0.13066704699E+03 -0.16116618052E+03 -0.45211109734E+03  0.49744633806E+03  0.00000000000E+00 0.  1.
          3    1    6    6  503    0  0.50394892409E+03 -0.14093092296E+02 -0.51663720268E+03  0.72185672577E+03  0.00000000000E+00 0. -1.
         -3    1    6    6    0  503  0.43456307232E+03 -0.61323657568E+02 -0.36110941615E+03  0.56833587361E+03  0.00000000000E+00 0.  1.
<mgrwt>
<rscale>  0 0.21084526E+04</rscale>
<asrwt>0</asrwt>
<pdfrwt beam="1">  1        2 0.47867739E+00 0.21084526E+04</pdfrwt>
<pdfrwt beam="2">  1       -1 0.54953841E-01 0.21084526E+04</pdfrwt>
<totfact> 0.52014539E+00</totfact>
</mgrwt>
</event>
<event>
12    6  0.1647231E-007  0.3163591E+04  0.7818608E-02  0.8198499E-01
          2   -1    0    0  501    0  0.00000000000E+00  0.00000000000E+00  0.24680129881E+04  0.24680129881E+04  0.00000000000E+00 0. -1.
         -1   -1    0    0    0  501 -0.00000000000E+00 -0.00000000000E+00 -0.10138021932E+04  0.10138021932E+04  0.00000000000E+00 0.  1.
         24    2    1    2    0    0  0.17816623447E+03  0.64667558200E+03 -0.75155811627E+03  0.10105065228E+04  0.79695137798E+02 0.  0.
        254    2    1    2    0    0 -0.17816623447E+03 -0.64667558200E+03  0.22057689112E+04  0.24713086585E+04  0.88995363969E+03 0.  0.
         23    2    4    4    0    0  0.30975983444E+03 -0.46757707711E+03  0.92062678015E+03  0.10820308252E+04  0.93046011211E+02 0.  0.
         23    2    4    4    0    0 -0.48792606892E+03 -0.17909850489E+03  0.12851421310E+04  0.13892778334E+04  0.91402834662E+02 0.  0.
          2    1    3    3  502    0  0.15883049451E+02  0.14238702438E+03 -0.19689204011E+03  0.24350115283E+03  0.00000000000E+00 0. -1.
         -1    1    3    3    0  502  0.16228318502E+03  0.50428855762E+03 -0.55466607616E+03  0.76700536995E+03  0.00000000000E+00 0.  1.
         11    1    5    5    0    0  0.15721885780E+03 -0.16807885328E+03  0.42246635931E+03  0.48108844812E+03  0.00000000000E+00 0.  1.
        -11    1    5    5    0    0  0.15254097664E+03 -0.29949822383E+03  0.49816042084E+03  0.60094237704E+03  0.00000000000E+00 0. -1.
          1    1    6    6  503    0 -0.34834396458E+03 -0.82728720357E+02  0.88341982664E+03  0.95321463948E+03  0.00000000000E+00 0. -1.
         -1    1    6    6    0  503 -0.13958210433E+03 -0.96369784532E+02  0.40172230440E+03  0.43606319389E+03  0.00000000000E+00 0.  1.
<mgrwt>
<rscale>  0 0.31635910E+04</rscale>
<asrwt>0</asrwt>
<pdfrwt beam="1">  1        2 0.37969430E+00 0.31635910E+04</pdfrwt>
<pdfrwt beam="2">  1       -1 0.15596957E+00 0.31635910E+04</pdfrwt>
<totfact> 0.10936885E+00</totfact>
</mgrwt>
</event>
<event>
12    6  0.1647231E-007  0.2185741E+04  0.7818608E-02  0.8524386E-01
         -1   -1    0    0    0  501 -0.00000000000E+00  0.00000000000E+00  0.44539360602E+03  0.44539360602E+03  0.00000000000E+00 0.  1.
          2   -1    0    0  501    0  0.00000000000E+00 -0.00000000000E+00 -0.26815972251E+04  0.26815972251E+04  0.00000000000E+00 0. -1.
         24    2    1    2    0    0  0.23081727284E+03  0.15064412911E+03  0.30392372925E+03  0.41855650019E+03  0.82762573504E+02 0.  0.
        254    2    1    2    0    0 -0.23081727284E+03 -0.15064412911E+03 -0.25401273483E+04  0.27084343309E+04  0.89855401178E+03 0.  0.
         23    2    4    4    0    0 -0.45400682131E+03  0.13431341488E+03 -0.84743758139E+03  0.97500561346E+03  0.91231599295E+02 0.  0.
         23    2    4    4    0    0  0.22318954848E+03 -0.28495754398E+03 -0.16926897669E+04  0.17334287174E+04  0.92531589162E+02 0.  0.
          4    1    3    3  502    0  0.13371333797E+03  0.11191105196E+03  0.13766208931E+03  0.22215803190E+03  0.00000000000E+00 0. -1.
         -3    1    3    3    0  502  0.97103934864E+02  0.38733077146E+02  0.16626163994E+03  0.19639846829E+03  0.00000000000E+00 0.  1.
         11    1    5    5    0    0 -0.45711777980E+03  0.13715170314E+03 -0.84391571071E+03  0.96951584880E+03  0.00000000000E+00 0.  1.
        -11    1    5    5    0    0  0.31109584841E+01 -0.28382882681E+01 -0.35218706827E+01  0.54897646660E+01  0.00000000000E+00 0. -1.
          4    1    6    6  503    0  0.97968306093E+02 -0.77466071780E+02 -0.73590508358E+03  0.74642821042E+03  0.00000000000E+00 0. -1.
         -4    1    6    6    0  503  0.12522124238E+03 -0.20749147220E+03 -0.95678468332E+03  0.98700050700E+03  0.00000000000E+00 0.  1.
<mgrwt>
<rscale>  0 0.21857413E+04</rscale>
<asrwt>0</asrwt>
<pdfrwt beam="1">  1        2 0.41255342E+00 0.21857413E+04</pdfrwt>
<pdfrwt beam="2">  1       -1 0.68522093E-01 0.21857413E+04</pdfrwt>
<totfact> 0.61157860E+00</totfact>
</mgrwt>
</event>
<event>
12    6  0.1647231E-007  0.3361840E+04  0.7818608E-02  0.8147336E-01
         -1   -1    0    0    0  501 -0.00000000000E+00  0.00000000000E+00  0.80128387531E+03  0.80128387531E+03  0.00000000000E+00 0.  1.
          2   -1    0    0  501    0  0.00000000000E+00 -0.00000000000E+00 -0.35262059596E+04  0.35262059596E+04  0.00000000000E+00 0. -1.
         24    2    1    2    0    0  0.98895800719E+03  0.10765490149E+04 -0.19690007407E+04  0.24537047545E+04  0.81898618362E+02 0.  0.
        254    2    1    2    0    0 -0.98895800719E+03 -0.10765490149E+04 -0.75592134354E+03  0.18737850804E+04  0.89591167459E+03 0.  0.
         23    2    4    4    0    0 -0.98357686238E+03 -0.10705811069E+04 -0.89319125591E+03  0.17090990368E+04  0.98293169808E+02 0.  0.
         23    2    4    4    0    0 -0.53811448129E+01 -0.59679079515E+01  0.13726991237E+03  0.16468604365E+03  0.90630521841E+02 0.  0.
          4    1    3    3  502    0  0.87357661857E+03  0.92454018532E+03 -0.16755637658E+04  0.21036693172E+04  0.00000000000E+00 0. -1.
         -3    1    3    3    0  502  0.11538138862E+03  0.15200882953E+03 -0.29343697487E+03  0.35003543723E+03  0.00000000000E+00 0.  1.
         11    1    5    5    0    0 -0.30211240271E+03 -0.33635499718E+03 -0.33157208378E+03  0.56066624184E+03  0.00000000000E+00 0. -1.
        -11    1    5    5    0    0 -0.68146445966E+03 -0.73422610972E+03 -0.56161917213E+03  0.11484327949E+04  0.00000000000E+00 0.  1.
          1    1    6    6  503    0 -0.40421651949E+02 -0.10257044987E+02  0.28970009615E+02  0.50777735035E+02  0.00000000000E+00 0. -1.
         -1    1    6    6    0  503  0.35040507137E+02  0.42891370358E+01  0.10829990275E+03  0.11390830862E+03  0.00000000000E+00 0.  1.
<mgrwt>
<rscale>  0 0.33618400E+04</rscale>
<asrwt>0</asrwt>
<pdfrwt beam="1">  1        2 0.54249321E+00 0.33618400E+04</pdfrwt>
<pdfrwt beam="2">  1       -1 0.12327445E+00 0.33618400E+04</pdfrwt>
<totfact> 0.42523547E-01</totfact>
</mgrwt>
</event>
<event>
12    6  0.1647231E-007  0.1969210E+04  0.7818608E-02  0.8621153E-01
          2   -1    0    0  501    0  0.00000000000E+00  0.00000000000E+00  0.15445380267E+04  0.15445380267E+04  0.00000000000E+00 0. -1.
         -1   -1    0    0    0  501 -0.00000000000E+00 -0.00000000000E+00 -0.62766150419E+03  0.62766150419E+03  0.00000000000E+00 0.  1.
         24    2    1    2    0    0  0.24423165983E+03 -0.20445701558E+03 -0.41716705821E+03  0.53092243945E+03  0.79990670587E+02 0.  0.
        254    2    1    2    0    0 -0.24423165983E+03  0.20445701558E+03  0.13340435807E+04  0.16412770915E+04  0.90148013886E+03 0.  0.
         23    2    4    4    0    0 -0.54431859038E+03  0.53786339132E+02  0.53878080417E+03  0.77316690098E+03  0.91250225909E+02 0.  0.
         23    2    4    4    0    0  0.30008693055E+03  0.15067067644E+03  0.79526277658E+03  0.86811019048E+03  0.91752931171E+02 0.  0.
          2    1    3    3  502    0  0.28411204413E+02 -0.55121918170E+02 -0.11529812488E+03  0.13091707299E+03  0.00000000000E+00 0. -1.
         -1    1    3    3    0  502  0.21582045541E+03 -0.14933509741E+03 -0.30186893333E+03  0.40000536646E+03  0.00000000000E+00 0.  1.
         11    1    5    5    0    0 -0.28964328836E+03 -0.16966382503E+02  0.28799568168E+03  0.40880631758E+03  0.00000000000E+00 0.  1.
        -11    1    5    5    0    0 -0.25467530202E+03  0.70752721635E+02  0.25078512249E+03  0.36436058340E+03  0.00000000000E+00 0. -1.
          3    1    6    6  503    0  0.46680230541E+01 -0.83609888551E+01  0.48578967629E+02  0.49513762428E+02  0.00000000000E+00 0. -1.
         -3    1    6    6    0  503  0.29541890750E+03  0.15903166530E+03  0.74668380895E+03  0.81859642805E+03  0.00000000000E+00 0.  1.
<mgrwt>
<rscale>  0 0.19692101E+04</rscale>
<asrwt>0</asrwt>
<pdfrwt beam="1">  1        2 0.23762123E+00 0.19692101E+04</pdfrwt>
<pdfrwt beam="2">  1       -1 0.96563309E-01 0.19692101E+04</pdfrwt>
<totfact> 0.13120188E+01</totfact>
</mgrwt>
</event>
<event>
12    6  0.1676982E-007  0.1905886E+04  0.7818608E-02  0.8651932E-01
          2   -1    0    0  501    0  0.00000000000E+00  0.00000000000E+00  0.22964370411E+04  0.22964370411E+04  0.00000000000E+00 0. -1.
         -1   -1    0    0    0  501 -0.00000000000E+00 -0.00000000000E+00 -0.39543899765E+03  0.39543899765E+03  0.00000000000E+00 0.  1.
         24    2    1    2    0    0 -0.55229041288E+03 -0.38099769131E+03  0.11439489432E+04  0.13284518811E+04  0.77338701771E+02 0.  0.
        254    2    1    2    0    0  0.55229041288E+03  0.38099769131E+03  0.75704910024E+03  0.13634241576E+04  0.91412151957E+03 0.  0.
         23    2    4    4    0    0  0.48580404647E+03  0.63609441116E+03  0.36977475013E+03  0.88600175868E+03  0.87430424277E+02 0.  0.
         23    2    4    4    0    0  0.66486366410E+02 -0.25509671985E+03  0.38727435011E+03  0.47742239896E+03  0.91956247107E+02 0.  0.
          2    1    3    3  502    0 -0.43499346890E+03 -0.32207806332E+03  0.86896390839E+03  0.10237440456E+04  0.00000000000E+00 0. -1.
         -1    1    3    3    0  502 -0.11729694398E+03 -0.58919627981E+02  0.27498503481E+03  0.30470783547E+03  0.00000000000E+00 0.  1.
         11    1    5    5    0    0  0.23099973551E+02  0.61596053660E+02  0.15058421889E+02  0.67486581439E+02  0.00000000000E+00 0. -1.
        -11    1    5    5    0    0  0.46270407292E+03  0.57449835749E+03  0.35471632824E+03  0.81851517724E+03  0.00000000000E+00 0.  1.
          2    1    6    6  503    0  0.14675051326E+01  0.17287944771E+01 -0.41742367811E+01  0.47504267559E+01  0.00000000000E+00 0. -1.
         -2    1    6    6    0  503  0.65018861277E+02 -0.25682551433E+03  0.39144858689E+03  0.47267197221E+03  0.00000000000E+00 0.  1.
<mgrwt>
<rscale>  0 0.19058864E+04</rscale>
<asrwt>0</asrwt>
<pdfrwt beam="1">  1        2 0.35329800E+00 0.19058864E+04</pdfrwt>
<pdfrwt beam="2">  1       -1 0.60836770E-01 0.19058864E+04</pdfrwt>
<totfact> 0.13306031E+01</totfact>
</mgrwt>
</event>
<event>
12    6  0.1647231E-007  0.2339423E+04  0.7818608E-02  0.8462538E-01
         -1   -1    0    0    0  501 -0.00000000000E+00  0.00000000000E+00  0.12619146702E+04  0.12619146702E+04  0.00000000000E+00 0.  1.
          2   -1    0    0  501    0  0.00000000000E+00 -0.00000000000E+00 -0.10842449279E+04  0.10842449279E+04  0.00000000000E+00 0. -1.
         24    2    1    2    0    0 -0.63147807512E+03  0.51837653296E+03 -0.52483783051E+03  0.97436125601E+03  0.80288975656E+02 0.  0.
        254    2    1    2    0    0  0.63147807512E+03 -0.51837653296E+03  0.70250757277E+03  0.13717983421E+04  0.84902003059E+03 0.  0.
         23    2    4    4    0    0  0.67586541232E+03 -0.56030669332E+03  0.26615997983E+03  0.92185133090E+03  0.90725383809E+02 0.  0.
         23    2    4    4    0    0 -0.44387337206E+02  0.41930160361E+02  0.43634759294E+03  0.44994701121E+03  0.91239887015E+02 0.  0.
          2    1    3    3  502    0 -0.51498370156E+03  0.45971597462E+03 -0.43398926921E+03  0.81541012747E+03  0.00000000000E+00 0. -1.
         -1    1    3    3    0  502 -0.11649437355E+03  0.58660558339E+02 -0.90848561299E+02  0.15895112854E+03  0.00000000000E+00 0.  1.
         11    1    5    5    0    0  0.64962536496E+03 -0.52543692188E+03  0.23409152420E+03  0.86769575046E+03  0.00000000000E+00 0.  1.
        -11    1    5    5    0    0  0.26240047366E+02 -0.34869771446E+02  0.32068455629E+02  0.54155580440E+02  0.00000000000E+00 0. -1.
          2    1    6    6  503    0  0.40811926486E+01  0.49106961935E+01  0.30568281552E+03  0.30574949676E+03  0.00000000000E+00 0. -1.
         -2    1    6    6    0  503 -0.48468529855E+02  0.37019464167E+02  0.13066477742E+03  0.14419751445E+03  0.00000000000E+00 0.  1.
<mgrwt>
<rscale>  0 0.23394226E+04</rscale>
<asrwt>0</asrwt>
<pdfrwt beam="1">  1        2 0.16680691E+00 0.23394226E+04</pdfrwt>
<pdfrwt beam="2">  1       -1 0.19414072E+00 0.23394226E+04</pdfrwt>
<totfact> 0.37943944E+00</totfact>
</mgrwt>
</event>
<event>
12    6  0.1647231E-007  0.1290006E+04  0.7818608E-02  0.9037528E-01
          2   -1    0    0  501    0  0.00000000000E+00  0.00000000000E+00  0.21900696147E+04  0.21900696147E+04  0.00000000000E+00 0. -1.
         -1   -1    0    0    0  501 -0.00000000000E+00 -0.00000000000E+00 -0.18996154149E+03  0.18996154149E+03  0.00000000000E+00 0.  1.
         24    2    1    2    0    0 -0.88580947932E+01 -0.14979674885E+03  0.10277219739E+04  0.10436570030E+04  0.10242046886E+03 0.  0.
        254    2    1    2    0    0  0.88580947932E+01  0.14979674885E+03  0.97238609930E+03  0.13363741532E+04  0.90434706800E+03 0.  0.
         23    2    4    4    0    0 -0.20731770749E+03  0.14047940736E+03 -0.63170970882E+02  0.27480885995E+03  0.93884195762E+02 0.  0.
         23    2    4    4    0    0  0.21617580228E+03  0.93173414889E+01  0.10355570702E+04  0.10615652932E+04  0.87884218611E+02 0.  0.
          4    1    3    3  502    0  0.27728848980E+02 -0.10285918022E+03  0.83997479391E+03  0.84670334500E+03  0.00000000000E+00 0. -1.
         -3    1    3    3    0  502 -0.36586943773E+02 -0.46937568626E+02  0.18774718003E+03  0.19695365803E+03  0.00000000000E+00 0.  1.
         11    1    5    5    0    0 -0.15986838612E+03  0.59943615382E+02 -0.61008182898E+02  0.18130950412E+03  0.00000000000E+00 0.  1.
        -11    1    5    5    0    0 -0.47449321371E+02  0.80535791977E+02 -0.21627879831E+01  0.93499355825E+02  0.00000000000E+00 0. -1.
          1    1    6    6  503    0  0.73057153834E+02 -0.22844417450E+02  0.22036950382E+03  0.23328509029E+03  0.00000000000E+00 0. -1.
         -1    1    6    6    0  503  0.14311864845E+03  0.32161758939E+02  0.81518756636E+03  0.82828020296E+03  0.00000000000E+00 0.  1.
<mgrwt>
<rscale>  0 0.12900062E+04</rscale>
<asrwt>0</asrwt>
<pdfrwt beam="1">  1        2 0.33693377E+00 0.12900062E+04</pdfrwt>
<pdfrwt beam="2">  1       -1 0.29224854E-01 0.12900062E+04</pdfrwt>
<totfact> 0.62565407E+01</totfact>
</mgrwt>
</event>
<event>
12    6  0.1723427E-007  0.1798093E+04  0.7818608E-02  0.8707314E-01
          2   -1    0    0  501    0  0.00000000000E+00  0.00000000000E+00  0.11911905205E+04  0.11911905205E+04  0.00000000000E+00 0. -1.
         -1   -1    0    0    0  501 -0.00000000000E+00 -0.00000000000E+00 -0.67855184304E+03  0.67855184304E+03  0.00000000000E+00 0.  1.
         24    2    1    2    0    0 -0.32298711256E+02 -0.15140083999E+01 -0.50230697005E+03  0.50962425708E+03  0.79743916879E+02 0.  0.
        254    2    1    2    0    0  0.32298711256E+02  0.15140083999E+01  0.10149456475E+04  0.13601181065E+04  0.90485418557E+03 0.  0.
         23    2    4    4    0    0 -0.29858980407E+02 -0.11722546119E+03  0.11435310648E+04  0.11537355346E+04  0.93856381385E+02 0.  0.
         23    2    4    4    0    0  0.62157691663E+02  0.11873946959E+03 -0.12858541726E+03  0.20638257181E+03  0.89982865836E+02 0.  0.
          4    1    3    3  502    0  0.12209416989E+02  0.49688714989E+00 -0.11438091458E+02  0.16737583346E+02  0.00000000000E+00 0. -1.
         -3    1    3    3    0  502 -0.44508128245E+02 -0.20108955498E+01 -0.49086887859E+03  0.49288667374E+03  0.00000000000E+00 0.  1.
         11    1    5    5    0    0  0.19751533720E+02 -0.81019436710E+02  0.83478917501E+03  0.83894412146E+03  0.00000000000E+00 0. -1.
        -11    1    5    5    0    0 -0.49610514127E+02 -0.36206024485E+02  0.30874188977E+03  0.31479141319E+03  0.00000000000E+00 0.  1.
          3    1    6    6  503    0  0.54904134089E+02  0.12850461631E+03 -0.13350098395E+03  0.19326254957E+03  0.00000000000E+00 0. -1.
         -3    1    6    6    0  503  0.72535575744E+01 -0.97651467126E+01  0.49155666855E+01  0.13120022242E+02  0.00000000000E+00 0.  1.
<mgrwt>
<rscale>  0 0.17980929E+04</rscale>
<asrwt>0</asrwt>
<pdfrwt beam="1">  1        2 0.18326008E+00 0.17980929E+04</pdfrwt>
<pdfrwt beam="2">  1       -1 0.10439259E+00 0.17980929E+04</pdfrwt>
<totfact> 0.17815366E+01</totfact>
</mgrwt>
</event>
<event>
12    6  0.1647231E-007  0.1162355E+04  0.7818608E-02  0.9146461E-01
          2   -1    0    0  501    0  0.00000000000E+00  0.00000000000E+00  0.63192900429E+03  0.63192900429E+03  0.00000000000E+00 0. -1.
         -1   -1    0    0    0  501 -0.00000000000E+00 -0.00000000000E+00 -0.53450161462E+03  0.53450161462E+03  0.00000000000E+00 0.  1.
         24    2    1    2    0    0  0.21100613494E+03  0.10548434159E+02 -0.88908045219E+02  0.24269914757E+03  0.79770779602E+02 0.  0.
        254    2    1    2    0    0 -0.21100613494E+03 -0.10548434159E+02  0.18633543489E+03  0.92373147134E+03  0.87972954844E+03 0.  0.
         23    2    4    4    0    0 -0.32492106703E+03  0.34542869585E+03  0.23323454062E+03  0.53613178907E+03  0.90245557226E+02 0.  0.
         23    2    4    4    0    0  0.11391493209E+03 -0.35597713001E+03 -0.46899105738E+02  0.38759968227E+03  0.91310781047E+02 0.  0.
          4    1    3    3  502    0  0.93106406316E+02 -0.34285740154E+02 -0.31374456110E+02  0.10406090222E+03  0.00000000000E+00 0. -1.
         -3    1    3    3    0  502  0.11789972863E+03  0.44834174313E+02 -0.57533589109E+02  0.13863824535E+03  0.00000000000E+00 0.  1.
         11    1    5    5    0    0 -0.44303790704E+02  0.10215166456E+03  0.54992356912E+02  0.12418513502E+03  0.00000000000E+00 0. -1.
        -11    1    5    5    0    0 -0.28061727633E+03  0.24327703129E+03  0.17824218371E+03  0.41194665405E+03  0.00000000000E+00 0.  1.
          4    1    6    6  503    0  0.29204215505E+02 -0.21860801673E+02  0.10957527945E+02  0.38090002254E+02  0.00000000000E+00 0. -1.
         -4    1    6    6    0  503  0.84710716585E+02 -0.33411632833E+03 -0.57856633683E+02  0.34950968001E+03  0.00000000000E+00 0.  1.
<mgrwt>
<rscale>  0 0.11623546E+04</rscale>
<asrwt>0</asrwt>
<pdfrwt beam="1">  1        2 0.97219847E-01 0.11623546E+04</pdfrwt>
<pdfrwt beam="2">  1       -1 0.82231017E-01 0.11623546E+04</pdfrwt>
<totfact> 0.77420070E+01</totfact>
</mgrwt>
</event>
<event>
12    6  0.1647231E-007  0.2003034E+04  0.7818608E-02  0.8605203E-01
         -1   -1    0    0    0  501 -0.00000000000E+00  0.00000000000E+00  0.43011178153E+03  0.43011178153E+03  0.00000000000E+00 0.  1.
          2   -1    0    0  501    0  0.00000000000E+00 -0.00000000000E+00 -0.23320367201E+04  0.23320367201E+04  0.00000000000E+00 0. -1.
         24    2    1    2    0    0 -0.34443407675E+03  0.12986289887E+03 -0.17044037573E+04  0.17454815296E+04  0.78831444915E+02 0.  0.
        254    2    1    2    0    0  0.34443407675E+03 -0.12986289887E+03 -0.19752118133E+03  0.10166669720E+04  0.92687534719E+03 0.  0.
         23    2    4    4    0    0  0.35727391141E+03  0.34639108331E+03 -0.15524331484E+03  0.52989473538E+03  0.95165715504E+02 0.  0.
         23    2    4    4    0    0 -0.12839834658E+02 -0.47625398218E+03 -0.42277866486E+02  0.48677223666E+03  0.90427183326E+02 0.  0.
          4    1    3    3  502    0 -0.29546922162E+03  0.13905288736E+03 -0.14667786811E+04  0.15026900764E+04  0.00000000000E+00 0. -1.
         -3    1    3    3    0  502 -0.48964855132E+02 -0.91899884847E+01 -0.23762507614E+03  0.24279145318E+03  0.00000000000E+00 0.  1.
         11    1    5    5    0    0  0.10285628446E+03  0.14097517204E+03 -0.90404320276E+02  0.19653588860E+03  0.00000000000E+00 0. -1.
        -11    1    5    5    0    0  0.25441762695E+03  0.20541591127E+03 -0.64838994563E+02  0.33335884678E+03  0.00000000000E+00 0.  1.
          4    1    6    6  503    0 -0.44456013784E+02 -0.18063885471E+03  0.29407064268E+01  0.18605209149E+03  0.00000000000E+00 0.  1.
         -4    1    6    6    0  503  0.31616179126E+02 -0.29561512748E+03 -0.45218572913E+02  0.30072014517E+03  0.00000000000E+00 0. -1.
<mgrwt>
<rscale>  0 0.20030342E+04</rscale>
<asrwt>0</asrwt>
<pdfrwt beam="1">  1        2 0.35877488E+00 0.20030342E+04</pdfrwt>
<pdfrwt beam="2">  1       -1 0.66171044E-01 0.20030342E+04</pdfrwt>
<totfact> 0.10641396E+01</totfact>
</mgrwt>
</event>
<event>
12    6  0.1647231E-007  0.1498915E+04  0.7818608E-02  0.8885175E-01
          2   -1    0    0  501    0  0.00000000000E+00  0.00000000000E+00  0.16212865196E+04  0.16212865196E+04  0.00000000000E+00 0. -1.
         -1   -1    0    0    0  501 -0.00000000000E+00 -0.00000000000E+00 -0.34644482450E+03  0.34644482450E+03  0.00000000000E+00 0.  1.
         24    2    1    2    0    0  0.14356188191E+03 -0.83489067956E+02 -0.17408392430E+03  0.25334535135E+03  0.79361300051E+02 0.  0.
        254    2    1    2    0    0 -0.14356188191E+03  0.83489067956E+02  0.14489256194E+04  0.17143859927E+04  0.90119556322E+03 0.  0.
         23    2    4    4    0    0 -0.17057958284E+03 -0.35500257138E+03  0.37848253003E+03  0.55367679010E+03  0.90469567184E+02 0.  0.
         23    2    4    4    0    0  0.27017700925E+02  0.43849163934E+03  0.10704430893E+04  0.11607092026E+04  0.91610979753E+02 0.  0.
          2    1    3    3  502    0  0.22865067040E+02  0.82062537194E+01 -0.25358611490E+01  0.24425078969E+02  0.00000000000E+00 0. -1.
         -1    1    3    3    0  502  0.12069681487E+03 -0.91695321675E+02 -0.17154806315E+03  0.22892027238E+03  0.00000000000E+00 0.  1.
         11    1    5    5    0    0 -0.17845804656E+03 -0.34337105908E+03  0.37570498837E+03  0.53935628010E+03  0.00000000000E+00 0. -1.
        -11    1    5    5    0    0  0.78784637221E+01 -0.11631512296E+02  0.27775416636E+01  0.14320509998E+02  0.00000000000E+00 0.  1.
          4    1    6    6  503    0  0.32121570000E+02  0.45327954675E+02  0.13624886654E+03  0.14713997543E+03  0.00000000000E+00 0. -1.
         -4    1    6    6    0  503 -0.51038690747E+01  0.39316368466E+03  0.93419422280E+03  0.10135692272E+04  0.00000000000E+00 0.  1.
<mgrwt>
<rscale>  0 0.14989147E+04</rscale>
<asrwt>0</asrwt>
<pdfrwt beam="1">  1        2 0.24942869E+00 0.14989147E+04</pdfrwt>
<pdfrwt beam="2">  1       -1 0.53299204E-01 0.14989147E+04</pdfrwt>
<totfact> 0.42410386E+01</totfact>
</mgrwt>
</event>
<event>
12    6  0.1647231E-007  0.1844480E+04  0.7818608E-02  0.8682997E-01
          2   -1    0    0  501    0  0.00000000000E+00  0.00000000000E+00  0.14118207498E+04  0.14118207498E+04  0.00000000000E+00 0. -1.
         -1   -1    0    0    0  501 -0.00000000000E+00 -0.00000000000E+00 -0.60243265718E+03  0.60243265718E+03  0.00000000000E+00 0.  1.
         24    2    1    2    0    0 -0.84764410576E+02  0.18784917391E+02  0.10679817304E+04  0.10745671488E+04  0.81066036880E+02 0.  0.
        254    2    1    2    0    0  0.84764410576E+02 -0.18784917391E+02 -0.25859363780E+03  0.93968625819E+03  0.89922283995E+03 0.  0.
         23    2    4    4    0    0  0.44953680754E+03 -0.12881626764E+03 -0.26875982609E+03  0.54705871181E+03  0.91457191661E+02 0.  0.
         23    2    4    4    0    0 -0.36477239696E+03  0.11003135025E+03  0.10166188290E+02  0.39262754638E+03  0.94272154780E+02 0.  0.
          2    1    3    3  502    0 -0.93032485163E+02  0.34324906360E+02  0.96611536260E+03  0.97119109157E+03  0.00000000000E+00 0. -1.
         -1    1    3    3    0  502  0.82680745875E+01 -0.15539988969E+02  0.10186636784E+03  0.10337605725E+03  0.00000000000E+00 0.  1.
         11    1    5    5    0    0  0.12631263984E+03  0.42657245763E+01 -0.59858020204E+02  0.13984299043E+03  0.00000000000E+00 0.  1.
        -11    1    5    5    0    0  0.32322416769E+03 -0.13308199221E+03 -0.20890180589E+03  0.40721572138E+03  0.00000000000E+00 0. -1.
          3    1    6    6  503    0 -0.28126926072E+03  0.11396728783E+03 -0.19036348983E+02  0.30407782277E+03  0.00000000000E+00 0. -1.
         -3    1    6    6    0  503 -0.83503136244E+02 -0.39359375798E+01  0.29202537273E+02  0.88549723604E+02  0.00000000000E+00 0.  1.
<mgrwt>
<rscale>  0 0.18444803E+04</rscale>
<asrwt>0</asrwt>
<pdfrwt beam="1">  1        2 0.21720319E+00 0.18444803E+04</pdfrwt>
<pdfrwt beam="2">  1       -1 0.92681948E-01 0.18444803E+04</pdfrwt>
<totfact> 0.17285992E+01</totfact>
</mgrwt>
</event>
<event>
12    6  0.1647231E-007  0.1664109E+04  0.7818608E-02  0.8782103E-01
         -1   -1    0    0    0  501 -0.00000000000E+00  0.00000000000E+00  0.22221862486E+03  0.22221862486E+03  0.00000000000E+00 0.  1.
          2   -1    0    0  501    0  0.00000000000E+00 -0.00000000000E+00 -0.31154657289E+04  0.31154657289E+04  0.00000000000E+00 0. -1.
         24    2    1    2    0    0  0.15812030496E+03 -0.85997441545E+02 -0.21031671977E+04  0.21123879987E+04  0.80456226934E+02 0.  0.
        254    2    1    2    0    0 -0.15812030496E+03  0.85997441545E+02 -0.79007990633E+03  0.12252963551E+04  0.91909047906E+03 0.  0.
         23    2    4    4    0    0 -0.35938615213E+03 -0.17792030061E+03 -0.56644890140E+02  0.41532350847E+03  0.92037673792E+02 0.  0.
         23    2    4    4    0    0  0.20126584717E+03  0.26391774216E+03 -0.73343501619E+03  0.80997284665E+03  0.89266866644E+02 0.  0.
          2    1    3    3  502    0  0.82850744611E+02 -0.16711999400E+02 -0.12977827287E+04  0.13005320249E+04  0.00000000000E+00 0. -1.
         -1    1    3    3    0  502  0.75269560350E+02 -0.69285442144E+02 -0.80538446902E+03  0.81185597377E+03  0.00000000000E+00 0.  1.
         11    1    5    5    0    0 -0.10095193280E+03 -0.60492697401E+02 -0.58564753290E+02  0.13145527568E+03  0.00000000000E+00 0. -1.
        -11    1    5    5    0    0 -0.25843421933E+03 -0.11742760321E+03  0.19198631500E+01  0.28386823279E+03  0.00000000000E+00 0.  1.
          3    1    6    6  503    0  0.14995980259E+00  0.44168549014E+02 -0.70624851812E+02  0.83299177087E+02  0.00000000000E+00 0. -1.
         -3    1    6    6    0  503  0.20111588737E+03  0.21974919315E+03 -0.66281016437E+03  0.72667366956E+03  0.00000000000E+00 0.  1.
<mgrwt>
<rscale>  0 0.16641088E+04</rscale>
<asrwt>0</asrwt>
<pdfrwt beam="1">  1        2 0.47930240E+00 0.16641088E+04</pdfrwt>
<pdfrwt beam="2">  1       -1 0.34187482E-01 0.16641088E+04</pdfrwt>
<totfact> 0.13015820E+01</totfact>
</mgrwt>
</event>
<event>
12    6  0.1647231E-007  0.1708706E+04  0.7818608E-02  0.8756414E-01
          2   -1    0    0  501    0  0.00000000000E+00  0.00000000000E+00  0.27677036929E+04  0.27677036929E+04  0.00000000000E+00 0. -1.
         -1   -1    0    0    0  501 -0.00000000000E+00 -0.00000000000E+00 -0.26372734235E+03  0.26372734235E+03  0.00000000000E+00 0.  1.
         24    2    1    2    0    0  0.29590787861E+03 -0.25282219281E+03  0.17313943742E+04  0.17763208256E+04  0.78157934076E+02 0.  0.
        254    2    1    2    0    0 -0.29590787861E+03  0.25282219281E+03  0.77258197634E+03  0.12551102096E+04  0.90936142120E+03 0.  0.
         23    2    4    4    0    0 -0.21252669500E+02 -0.27914205861E+03  0.28242635884E+02  0.29562433645E+03  0.90687027618E+02 0.  0.
         23    2    4    4    0    0 -0.27465520911E+03  0.53196425142E+03  0.74433934046E+03  0.95948587318E+03  0.90280886120E+02 0.  0.
          4    1    3    3  502    0  0.29246784831E+03 -0.22654493144E+03  0.16366192722E+04  0.16779102153E+04  0.00000000000E+00 0. -1.
         -3    1    3    3    0  502  0.34400303065E+01 -0.26277261379E+02  0.94775101951E+02  0.98410610322E+02  0.00000000000E+00 0.  1.
         11    1    5    5    0    0 -0.26710740856E+02 -0.26355700933E+03  0.48687005855E+02  0.26934399081E+03  0.00000000000E+00 0. -1.
        -11    1    5    5    0    0  0.54580713559E+01 -0.15585049276E+02 -0.20444369971E+02  0.26280345648E+02  0.00000000000E+00 0.  1.
          1    1    6    6  503    0 -0.26800276682E+03  0.53238912176E+03  0.74326101260E+03  0.95273322228E+03  0.00000000000E+00 0. -1.
         -1    1    6    6    0  503 -0.66524422904E+01 -0.42487033672E+00  0.10783278630E+01  0.67526509024E+01  0.00000000000E+00 0.  1.
<mgrwt>
<rscale>  0 0.17087061E+04</rscale>
<asrwt>0</asrwt>
<pdfrwt beam="1">  1        2 0.42580055E+00 0.17087061E+04</pdfrwt>
<pdfrwt beam="2">  1       -1 0.40573439E-01 0.17087061E+04</pdfrwt>
<totfact> 0.15586930E+01</totfact>
</mgrwt>
</event>
<event>
12    6  0.1647231E-007  0.1132654E+04  0.7818608E-02  0.9173936E-01
          2   -1    0    0  501    0  0.00000000000E+00  0.00000000000E+00  0.11478654169E+04  0.11478654169E+04  0.00000000000E+00 0. -1.
         -1   -1    0    0    0  501 -0.00000000000E+00 -0.00000000000E+00 -0.27941123505E+03  0.27941123505E+03  0.00000000000E+00 0.  1.
         24    2    1    2    0    0  0.24554951394E+03 -0.97491883119E+02  0.36190409187E+03  0.45514395908E+03  0.79888802121E+02 0.  0.
        254    2    1    2    0    0 -0.24554951394E+03  0.97491883119E+02  0.50655009001E+03  0.97213269290E+03  0.78654290910E+03 0.  0.
         23    2    4    4    0    0 -0.43868914141E+03 -0.15597119095E+03  0.41248502916E+03  0.62884227368E+03  0.92322969441E+02 0.  0.
         23    2    4    4    0    0  0.19313962747E+03  0.25346307407E+03  0.94065060850E+02  0.34329041923E+03  0.86334411702E+02 0.  0.
          2    1    3    3  502    0  0.12531598207E+03 -0.79485252049E+02  0.24526650810E+03  0.28666646237E+03  0.00000000000E+00 0. -1.
         -1    1    3    3    0  502  0.12023353187E+03 -0.18006631069E+02  0.11663758377E+03  0.16847749671E+03  0.00000000000E+00 0.  1.
         11    1    5    5    0    0 -0.40255602697E+03 -0.12283685897E+03  0.33862162505E+03  0.54018964607E+03  0.00000000000E+00 0.  1.
        -11    1    5    5    0    0 -0.36133114438E+02 -0.33134331980E+02  0.73863404105E+02  0.88652627602E+02  0.00000000000E+00 0. -1.
          2    1    6    6  503    0  0.12142340003E+03  0.21741970069E+03  0.81648796248E+02  0.26207154415E+03  0.00000000000E+00 0. -1.
         -2    1    6    6    0  503  0.71716227438E+02  0.36043373382E+02  0.12416264601E+02  0.81218875081E+02  0.00000000000E+00 0.  1.
<mgrwt>
<rscale>  0 0.11326544E+04</rscale>
<asrwt>0</asrwt>
<pdfrwt beam="1">  1        2 0.17659468E+00 0.11326544E+04</pdfrwt>
<pdfrwt beam="2">  1       -1 0.42986344E-01 0.11326544E+04</pdfrwt>
<totfact> 0.12261482E+02</totfact>
</mgrwt>
</event>
<event>
12    6  0.1647231E-007  0.1756459E+04  0.7818608E-02  0.8729803E-01
          2   -1    0    0  501    0  0.00000000000E+00  0.00000000000E+00  0.54235211324E+03  0.54235211324E+03  0.00000000000E+00 0. -1.
         -1   -1    0    0    0  501 -0.00000000000E+00 -0.00000000000E+00 -0.14221157178E+04  0.14221157178E+04  0.00000000000E+00 0.  1.
         24    2    1    2    0    0 -0.48638676109E+03  0.29625575350E+03  0.33395573323E+01  0.57506635006E+03  0.79690661183E+02 0.  0.
        254    2    1    2    0    0  0.48638676109E+03 -0.29625575350E+03 -0.88310316188E+03  0.13894014810E+04  0.90896959682E+03 0.  0.
         23    2    4    4    0    0  0.37365315372E+03  0.18919333551E+03 -0.75283083842E+03  0.86616766348E+03  0.89896343045E+02 0.  0.
         23    2    4    4    0    0  0.11273360737E+03 -0.48544908901E+03 -0.13027232346E+03  0.52323381749E+03  0.91831722466E+02 0.  0.
          4    1    3    3  502    0 -0.40637292599E+03  0.24094925703E+03  0.32413448726E+02  0.47354633469E+03  0.00000000000E+00 0. -1.
         -3    1    3    3    0  502 -0.80013835099E+02  0.55306496477E+02 -0.29073891393E+02  0.10152001537E+03  0.00000000000E+00 0.  1.
         11    1    5    5    0    0  0.51085567977E+02  0.38582337779E+02 -0.62596030741E+02  0.89535440517E+02  0.00000000000E+00 0.  1.
        -11    1    5    5    0    0  0.32256758574E+03  0.15061099773E+03 -0.69023480768E+03  0.77663222296E+03  0.00000000000E+00 0. -1.
          3    1    6    6  503    0  0.71642788364E+02 -0.25868637007E+03 -0.24119619237E+02  0.26950525638E+03  0.00000000000E+00 0. -1.
         -3    1    6    6    0  503  0.41090819008E+02 -0.22676271894E+03 -0.10615270422E+03  0.25372856111E+03  0.00000000000E+00 0.  1.
<mgrwt>
<rscale>  0 0.17564595E+04</rscale>
<asrwt>0</asrwt>
<pdfrwt beam="1">  1        2 0.83438788E-01 0.17564595E+04</pdfrwt>
<pdfrwt beam="2">  1       -1 0.21878703E+00 0.17564595E+04</pdfrwt>
<totfact> 0.67928768E+00</totfact>
</mgrwt>
</event>
<event>
12    6  0.1647231E-007  0.1549644E+04  0.7818608E-02  0.8852095E-01
         -1   -1    0    0    0  501 -0.00000000000E+00  0.00000000000E+00  0.73253447031E+03  0.73253447031E+03  0.00000000000E+00 0.  1.
          2   -1    0    0  501    0  0.00000000000E+00 -0.00000000000E+00 -0.81955033850E+03  0.81955033850E+03  0.00000000000E+00 0. -1.
         24    2    1    2    0    0 -0.31841282026E+03 -0.29317396551E+03  0.23832350853E+03  0.50079791385E+03  0.81625716785E+02 0.  0.
        254    2    1    2    0    0  0.31841282026E+03  0.29317396551E+03 -0.32533937673E+03  0.10512868950E+04  0.90112192699E+03 0.  0.
         23    2    4    4    0    0 -0.27076496248E+02  0.31696326885E+03  0.22139742340E+03  0.39823300223E+03  0.91508767519E+02 0.  0.
         23    2    4    4    0    0  0.34548931651E+03 -0.23789303340E+02 -0.54673680013E+03  0.65305389272E+03  0.87346776760E+02 0.  0.
          4    1    3    3  502    0 -0.19908571063E+02 -0.29236528745E+02 -0.20865232523E+01  0.35432744660E+02  0.00000000000E+00 0. -1.
         -3    1    3    3    0  502 -0.29850424920E+03 -0.26393743676E+03  0.24041003179E+03  0.46536516919E+03  0.00000000000E+00 0.  1.
         11    1    5    5    0    0 -0.22120497333E+01 -0.57592251285E+01  0.96206374419E+01  0.11428845213E+02  0.00000000000E+00 0. -1.
        -11    1    5    5    0    0 -0.24864446515E+02  0.32272249398E+03  0.21177678596E+03  0.38680415702E+03  0.00000000000E+00 0.  1.
          1    1    6    6  503    0  0.97720957305E+02  0.32534273872E+02 -0.15192803885E+03  0.18354834094E+03  0.00000000000E+00 0. -1.
         -1    1    6    6    0  503  0.24776835920E+03 -0.56323577212E+02 -0.39480876127E+03  0.46950555178E+03  0.00000000000E+00 0.  1.
<mgrwt>
<rscale>  0 0.15496437E+04</rscale>
<asrwt>0</asrwt>
<pdfrwt beam="1">  1        2 0.12608467E+00 0.15496437E+04</pdfrwt>
<pdfrwt beam="2">  1       -1 0.11269761E+00 0.15496437E+04</pdfrwt>
<totfact> 0.26411751E+01</totfact>
</mgrwt>
</event>
<event>
12    6  0.1647231E-007  0.1412827E+04  0.7818608E-02  0.8944586E-01
          2   -1    0    0  501    0  0.00000000000E+00  0.00000000000E+00  0.11054823252E+04  0.11054823252E+04  0.00000000000E+00 0. -1.
         -1   -1    0    0    0  501 -0.00000000000E+00 -0.00000000000E+00 -0.45140484103E+03  0.45140484103E+03  0.00000000000E+00 0.  1.
         24    2    1    2    0    0  0.12094070824E+03 -0.96286787013E+02 -0.22915775908E+03  0.28863569881E+03  0.83063155596E+02 0.  0.
        254    2    1    2    0    0 -0.12094070824E+03  0.96286787013E+02  0.88323524327E+03  0.12682514674E+04  0.89691665691E+03 0.  0.
         23    2    4    4    0    0 -0.33117539139E+03  0.32653694506E+03  0.80502197803E+03  0.93429935490E+03  0.92473688669E+02 0.  0.
         23    2    4    4    0    0  0.21023468314E+03 -0.23025015804E+03  0.78213265242E+02  0.33395211255E+03  0.90514868051E+02 0.  0.
          4    1    3    3  502    0  0.75572135730E+02 -0.62645688436E+02 -0.72283802441E+02  0.12190397071E+03  0.00000000000E+00 0. -1.
         -3    1    3    3    0  502  0.45368572515E+02 -0.33641098577E+02 -0.15687395664E+03  0.16673172811E+03  0.00000000000E+00 0.  1.
         11    1    5    5    0    0 -0.33078934762E+03  0.30619482806E+03  0.74312433095E+03  0.86914362247E+03  0.00000000000E+00 0.  1.
        -11    1    5    5    0    0 -0.38604376791E+00  0.20342116993E+02  0.61897647081E+02  0.65155732424E+02  0.00000000000E+00 0. -1.
          2    1    6    6  503    0  0.26023106778E+02 -0.11844221746E+02 -0.16417873390E+02  0.32970202332E+02  0.00000000000E+00 0. -1.
         -2    1    6    6    0  503  0.18421157637E+03 -0.21840593630E+03  0.94631138633E+02  0.30098191021E+03  0.00000000000E+00 0.  1.
<mgrwt>
<rscale>  0 0.14128271E+04</rscale>
<asrwt>0</asrwt>
<pdfrwt beam="1">  1        2 0.17007420E+00 0.14128271E+04</pdfrwt>
<pdfrwt beam="2">  1       -1 0.69446899E-01 0.14128271E+04</pdfrwt>
<totfact> 0.50283393E+01</totfact>
</mgrwt>
</event>
<event>
12    6  0.1647231E-007  0.1781174E+04  0.7818608E-02  0.8716375E-01
         -1   -1    0    0    0  501 -0.00000000000E+00  0.00000000000E+00  0.69564116192E+03  0.69564116192E+03  0.00000000000E+00 0.  1.
          2   -1    0    0  501    0  0.00000000000E+00 -0.00000000000E+00 -0.11401641895E+04  0.11401641895E+04  0.00000000000E+00 0. -1.
         24    2    1    2    0    0 -0.11168579784E+03 -0.59201984655E+03  0.10903314958E+03  0.61761680788E+03  0.81247015427E+02 0.  0.
        254    2    1    2    0    0  0.11168579784E+03  0.59201984655E+03 -0.55355617720E+03  0.12181885436E+04  0.90255064691E+03 0.  0.
         23    2    4    4    0    0 -0.28070258372E+03 -0.48722383886E+02 -0.36473280825E+02  0.30147654708E+03  0.91596926974E+02 0.  0.
         23    2    4    4    0    0  0.39238838156E+03  0.64074223043E+03 -0.51708289638E+03  0.91671199650E+03  0.92015840748E+02 0.  0.
          4    1    3    3  502    0 -0.39128032888E+02 -0.24827721452E+03  0.85603660189E+02  0.26551942461E+03  0.00000000000E+00 0. -1.
         -3    1    3    3    0  502 -0.72557764953E+02 -0.34374263203E+03  0.23429489390E+02  0.35209738327E+03  0.00000000000E+00 0.  1.
         11    1    5    5    0    0 -0.25138484128E+03 -0.11415772387E+02 -0.26957138222E+02  0.25308367310E+03  0.00000000000E+00 0. -1.
        -11    1    5    5    0    0 -0.29317742433E+02 -0.37306611498E+02 -0.95161426037E+01  0.48392873989E+02  0.00000000000E+00 0.  1.
          2    1    6    6  503    0  0.19159664679E+03  0.23273046063E+03 -0.18606583562E+03  0.35425024707E+03  0.00000000000E+00 0. -1.
         -2    1    6    6    0  503  0.20079173476E+03  0.40801176981E+03 -0.33101706075E+03  0.56246174942E+03  0.00000000000E+00 0.  1.
<mgrwt>
<rscale>  0 0.17811739E+04</rscale>
<asrwt>0</asrwt>
<pdfrwt beam="1">  1        2 0.17540987E+00 0.17811739E+04</pdfrwt>
<pdfrwt beam="2">  1       -1 0.10702172E+00 0.17811739E+04</pdfrwt>
<totfact> 0.18073674E+01</totfact>
</mgrwt>
</event>
<event>
12    6  0.1647231E-007  0.1620501E+04  0.7818608E-02  0.8808052E-01
          2   -1    0    0  501    0  0.00000000000E+00  0.00000000000E+00  0.12774628148E+04  0.12774628148E+04  0.00000000000E+00 0. -1.
         -1   -1    0    0    0  501 -0.00000000000E+00 -0.00000000000E+00 -0.51391373751E+03  0.51391373751E+03  0.00000000000E+00 0.  1.
         24    2    1    2    0    0 -0.86896566026E+02  0.80333562575E+02 -0.33633316463E+03  0.36520023862E+03  0.79036208107E+02 0.  0.
        254    2    1    2    0    0  0.86896566026E+02 -0.80333562575E+02  0.10998822419E+04  0.14261763137E+04  0.90012967799E+03 0.  0.
         23    2    4    4    0    0  0.16150497709E+03  0.26305262235E+03  0.64043969055E+02  0.32852391720E+03  0.92443466237E+02 0.  0.
         23    2    4    4    0    0 -0.74608411061E+02 -0.34338618493E+03  0.10358382729E+04  0.10976523965E+04  0.91648071483E+02 0.  0.
          4    1    3    3  502    0 -0.17753393224E+02 -0.12252245481E+02 -0.97808274885E+02  0.10015866975E+03  0.00000000000E+00 0. -1.
         -3    1    3    3    0  502 -0.69143172802E+02  0.92585808056E+02 -0.23852488975E+03  0.26504156886E+03  0.00000000000E+00 0.  1.
         11    1    5    5    0    0  0.38586694004E+02  0.84459630728E+02  0.62103447788E+02  0.11171034153E+03  0.00000000000E+00 0. -1.
        -11    1    5    5    0    0  0.12291828308E+03  0.17859299162E+03  0.19405212665E+01  0.21681357567E+03  0.00000000000E+00 0.  1.
          4    1    6    6  503    0 -0.96159653003E+02 -0.27653754008E+03  0.82328594109E+03  0.87379598920E+03  0.00000000000E+00 0.  1.
         -4    1    6    6    0  503  0.21551241942E+02 -0.66848644850E+02  0.21255233176E+03  0.22385640729E+03  0.00000000000E+00 0. -1.
<mgrwt>
<rscale>  0 0.16205008E+04</rscale>
<asrwt>0</asrwt>
<pdfrwt beam="1">  1        2 0.19653274E+00 0.16205008E+04</pdfrwt>
<pdfrwt beam="2">  1       -1 0.79063653E-01 0.16205008E+04</pdfrwt>
<totfact> 0.29754345E+01</totfact>
</mgrwt>
</event>
<event>
12    6  0.1647231E-007  0.1967966E+04  0.7818608E-02  0.8621746E-01
         -3   -1    0    0    0  501 -0.00000000000E+00  0.00000000000E+00  0.18860595099E+04  0.18860595099E+04  0.00000000000E+00 0.  1.
          4   -1    0    0  501    0  0.00000000000E+00 -0.00000000000E+00 -0.51335723405E+03  0.51335723405E+03  0.00000000000E+00 0. -1.
         24    2    1    2    0    0  0.40506816879E+03  0.31804633305E+03 -0.16158935159E+03  0.54563925262E+03  0.79858525641E+02 0.  0.
        254    2    1    2    0    0 -0.40506816879E+03 -0.31804633305E+03  0.15342916274E+04  0.18537774913E+04  0.90399474444E+03 0.  0.
         23    2    4    4    0    0 -0.32052669038E+03  0.20253063657E+02  0.14447899451E+04  0.14829437630E+04  0.92502286377E+02 0.  0.
         23    2    4    4    0    0 -0.84541478409E+02 -0.33829939671E+03  0.89501682344E+02  0.37083372831E+03  0.88957065637E+02 0.  0.
          2    1    3    3  502    0  0.27433059663E+02  0.75956816905E+01 -0.25424425640E+02  0.38166327593E+02  0.00000000000E+00 0. -1.
         -1    1    3    3    0  502  0.37763510913E+03  0.31045065136E+03 -0.13616492595E+03  0.50747292503E+03  0.00000000000E+00 0.  1.
         11    1    5    5    0    0 -0.23151204656E+03  0.49717205387E+01  0.83550752346E+03  0.86700367212E+03  0.00000000000E+00 0. -1.
        -11    1    5    5    0    0 -0.89014643819E+02  0.15281343118E+02  0.60928242160E+03  0.61594009086E+03  0.00000000000E+00 0.  1.
          4    1    6    6  503    0  0.16480684447E+02 -0.94105823633E+02  0.26955060486E+02  0.99267790785E+02  0.00000000000E+00 0. -1.
         -4    1    6    6    0  503 -0.10102216286E+03 -0.24419357308E+03  0.62546621858E+02  0.27156593753E+03  0.00000000000E+00 0.  1.
<mgrwt>
<rscale>  0 0.19679657E+04</rscale>
<asrwt>0</asrwt>
<pdfrwt beam="1">  1        4 0.78978037E-01 0.19679657E+04</pdfrwt>
<pdfrwt beam="2">  1       -3 0.29016300E+00 0.19679657E+04</pdfrwt>
<totfact> 0.13165731E-01</totfact>
</mgrwt>
</event>
<event>
12    6  0.1647231E-007  0.1695838E+04  0.7818608E-02  0.8763742E-01
         -1   -1    0    0    0  501 -0.00000000000E+00  0.00000000000E+00  0.42242038115E+03  0.42242038115E+03  0.00000000000E+00 0.  1.
          2   -1    0    0  501    0  0.00000000000E+00 -0.00000000000E+00 -0.17020167984E+04  0.17020167984E+04  0.00000000000E+00 0. -1.
         24    2    1    2    0    0  0.18997250215E+03 -0.17571117038E+03 -0.11290198269E+04  0.11612144859E+04  0.82276034027E+02 0.  0.
        254    2    1    2    0    0 -0.18997250215E+03  0.17571117038E+03 -0.15057659043E+03  0.96322269372E+03  0.91551115840E+03 0.  0.
         23    2    4    4    0    0 -0.75252281575E+02 -0.19917406256E+03  0.28554484732E+03  0.36985071025E+03  0.99601581119E+02 0.  0.
         23    2    4    4    0    0 -0.11472022058E+03  0.37488523294E+03 -0.43612143776E+03  0.59337198347E+03  0.90491631698E+02 0.  0.
          4    1    3    3  502    0  0.13456316034E+03 -0.12230455845E+03 -0.61019411171E+03  0.63671226084E+03  0.00000000000E+00 0. -1.
         -3    1    3    3    0  502  0.55409341815E+02 -0.53406611928E+02 -0.51882571515E+03  0.52450222503E+03  0.00000000000E+00 0.  1.
         11    1    5    5    0    0 -0.76353252592E+02 -0.82055552761E+02  0.98787810521E+02  0.14940536947E+03  0.00000000000E+00 0.  1.
        -11    1    5    5    0    0  0.11009710175E+01 -0.11711850980E+03  0.18675703680E+03  0.22044534078E+03  0.00000000000E+00 0. -1.
          4    1    6    6  503    0 -0.11250936059E+03  0.25005004752E+03 -0.26310650858E+03  0.38001107529E+03  0.00000000000E+00 0. -1.
         -4    1    6    6    0  503 -0.22108599864E+01  0.12483518543E+03 -0.17301492918E+03  0.21336090818E+03  0.00000000000E+00 0.  1.
<mgrwt>
<rscale>  0 0.16958379E+04</rscale>
<asrwt>0</asrwt>
<pdfrwt beam="1">  1        2 0.26184874E+00 0.16958379E+04</pdfrwt>
<pdfrwt beam="2">  1       -1 0.64987750E-01 0.16958379E+04</pdfrwt>
<totfact> 0.25460821E+01</totfact>
</mgrwt>
</event>
<event>
12    6  0.1647231E-007  0.2043210E+04  0.7818608E-02  0.8586681E-01
         -1   -1    0    0    0  501 -0.00000000000E+00  0.00000000000E+00  0.38549537194E+03  0.38549537194E+03  0.00000000000E+00 0.  1.
          2   -1    0    0  501    0  0.00000000000E+00 -0.00000000000E+00 -0.27073664283E+04  0.27073664283E+04  0.00000000000E+00 0. -1.
         24    2    1    2    0    0 -0.45174123889E+03  0.37271613407E+03 -0.18020798154E+04  0.18965547998E+04  0.80255741603E+02 0.  0.
        254    2    1    2    0    0  0.45174123889E+03 -0.37271613407E+03 -0.51979124095E+03  0.11963070004E+04  0.90442249065E+03 0.  0.
         23    2    4    4    0    0 -0.15259489537E+03 -0.10188555675E+03  0.14521961936E+03  0.25337029461E+03  0.97169437464E+02 0.  0.
         23    2    4    4    0    0  0.60433613426E+03 -0.27083057732E+03 -0.66501086031E+03  0.94293670581E+03  0.91207576697E+02 0.  0.
          2    1    3    3  502    0 -0.37163483467E+03  0.32775686669E+03 -0.15903046154E+04  0.16657147967E+04  0.00000000000E+00 0. -1.
         -1    1    3    3    0  502 -0.80106404222E+02  0.44959267388E+02 -0.21177519998E+03  0.23084000313E+03  0.00000000000E+00 0.  1.
         11    1    5    5    0    0 -0.86408494232E+02 -0.98895894174E+02  0.57303415772E+02  0.14328470686E+03  0.00000000000E+00 0.  1.
        -11    1    5    5    0    0 -0.66186401138E+02 -0.29896625783E+01  0.87916203592E+02  0.11008558776E+03  0.00000000000E+00 0. -1.
          1    1    6    6  503    0  0.23829723280E+03 -0.14614949531E+03 -0.24113390661E+03  0.36917584842E+03  0.00000000000E+00 0. -1.
         -1    1    6    6    0  503  0.36603890146E+03 -0.12468108201E+03 -0.42387695370E+03  0.57376085739E+03  0.00000000000E+00 0.  1.
<mgrwt>
<rscale>  0 0.20432104E+04</rscale>
<asrwt>0</asrwt>
<pdfrwt beam="1">  1        2 0.41651790E+00 0.20432104E+04</pdfrwt>
<pdfrwt beam="2">  1       -1 0.59306982E-01 0.20432104E+04</pdfrwt>
<totfact> 0.79915524E+00</totfact>
</mgrwt>
</event>
<event>
12    6  0.1647231E-007  0.1132512E+04  0.7818608E-02  0.9174070E-01
          2   -1    0    0  501    0  0.00000000000E+00  0.00000000000E+00  0.10517393313E+04  0.10517393313E+04  0.00000000000E+00 0. -1.
         -1   -1    0    0    0  501 -0.00000000000E+00 -0.00000000000E+00 -0.30487216429E+03  0.30487216429E+03  0.00000000000E+00 0.  1.
         24    2    1    2    0    0  0.16429996719E+03  0.10351221547E+03  0.18896040873E+03  0.28146480428E+03  0.76204606214E+02 0.  0.
        254    2    1    2    0    0 -0.16429996719E+03 -0.10351221547E+03  0.55790675832E+03  0.10751466914E+04  0.89831575685E+03 0.  0.
         23    2    4    4    0    0  0.30961637825E+03 -0.20923058464E+03  0.40316111791E+03  0.55739594867E+03  0.92258427113E+02 0.  0.
         23    2    4    4    0    0 -0.47391634544E+03  0.10571836917E+03  0.15474564041E+03  0.51775074270E+03  0.91359412682E+02 0.  0.
          4    1    3    3  502    0  0.10660064160E+03  0.62636891129E+02  0.16627083687E+03  0.20720296357E+03  0.00000000000E+00 0. -1.
         -3    1    3    3    0  502  0.57699325595E+02  0.40875324341E+02  0.22689571864E+02  0.74261840709E+02  0.00000000000E+00 0.  1.
         11    1    5    5    0    0  0.58789788691E+02 -0.80197386357E+01  0.36302262465E+02  0.69558678266E+02  0.00000000000E+00 0. -1.
        -11    1    5    5    0    0  0.25082658956E+03 -0.20121084600E+03  0.36685885544E+03  0.48783727040E+03  0.00000000000E+00 0.  1.
          3    1    6    6  503    0 -0.16139968536E+03  0.61554139959E+01  0.84634904990E+02  0.18234805922E+03  0.00000000000E+00 0. -1.
         -3    1    6    6    0  503 -0.31251666007E+03  0.99562955169E+02  0.70110735423E+02  0.33540268348E+03  0.00000000000E+00 0.  1.
<mgrwt>
<rscale>  0 0.11325123E+04</rscale>
<asrwt>0</asrwt>
<pdfrwt beam="1">  1        2 0.16180605E+00 0.11325123E+04</pdfrwt>
<pdfrwt beam="2">  1       -1 0.46903410E-01 0.11325123E+04</pdfrwt>
<totfact> 0.11949675E+02</totfact>
</mgrwt>
</event>
<event>
12    6  0.1647231E-007  0.1709386E+04  0.7818608E-02  0.8756029E-01
         -1   -1    0    0    0  501 -0.00000000000E+00  0.00000000000E+00  0.47499512742E+03  0.47499512742E+03  0.00000000000E+00 0.  1.
          2   -1    0    0  501    0  0.00000000000E+00 -0.00000000000E+00 -0.15379111522E+04  0.15379111522E+04  0.00000000000E+00 0. -1.
         24    2    1    2    0    0 -0.10920180703E+03 -0.81537865222E+02 -0.10969597976E+04  0.11082479388E+04  0.79493635526E+02 0.  0.
        254    2    1    2    0    0  0.10920180703E+03  0.81537865222E+02  0.34043772851E+02  0.90465834083E+03  0.89368578205E+03 0.  0.
         23    2    4    4    0    0 -0.20470948936E+03  0.13145984828E+03  0.35864836373E+03  0.44106679441E+03  0.81997570561E+02 0.  0.
         23    2    4    4    0    0  0.31391129639E+03 -0.49921983056E+02 -0.32460459088E+03  0.46359154642E+03  0.92284750097E+02 0.  0.
          4    1    3    3  502    0 -0.51052338103E+02 -0.19564021192E+02 -0.70823284368E+03  0.71033995595E+03  0.00000000000E+00 0. -1.
         -3    1    3    3    0  502 -0.58149468923E+02 -0.61973844031E+02 -0.38872695397E+03  0.39790798286E+03  0.00000000000E+00 0.  1.
         11    1    5    5    0    0 -0.16765045293E+03  0.14019636811E+03  0.30996761105E+03  0.37926457243E+03  0.00000000000E+00 0.  1.
        -11    1    5    5    0    0 -0.37059036433E+02 -0.87365198316E+01  0.48680752684E+02  0.61802221982E+02  0.00000000000E+00 0. -1.
          1    1    6    6  503    0  0.17819688066E+03 -0.74275409868E+02 -0.19302927142E+03  0.27300414725E+03  0.00000000000E+00 0. -1.
         -1    1    6    6    0  503  0.13571441572E+03  0.24353426812E+02 -0.13157531946E+03  0.19058739918E+03  0.00000000000E+00 0.  1.
<mgrwt>
<rscale>  0 0.17093862E+04</rscale>
<asrwt>0</asrwt>
<pdfrwt beam="1">  1        2 0.23660171E+00 0.17093862E+04</pdfrwt>
<pdfrwt beam="2">  1       -1 0.73076174E-01 0.17093862E+04</pdfrwt>
<totfact> 0.24711644E+01</totfact>
</mgrwt>
</event>
<event>
12    6  0.1647231E-007  0.1163874E+04  0.7818608E-02  0.9145079E-01
         -3   -1    0    0    0  501 -0.00000000000E+00  0.00000000000E+00  0.64736354514E+03  0.64736354514E+03  0.00000000000E+00 0.  1.
          2   -1    0    0  501    0  0.00000000000E+00 -0.00000000000E+00 -0.52312245230E+03  0.52312245230E+03  0.00000000000E+00 0. -1.
         24    2    1    2    0    0 -0.12387873452E+02  0.55239443583E+01  0.28335933855E+03  0.29461242744E+03  0.79498391766E+02 0.  0.
        254    2    1    2    0    0  0.12387873452E+02 -0.55239443583E+01 -0.15911824571E+03  0.87587357000E+03  0.86119215111E+03 0.  0.
         23    2    4    4    0    0 -0.39486893450E+03 -0.39298125260E+02 -0.20449040267E+03  0.45585661757E+03  0.92320706844E+02 0.  0.
         23    2    4    4    0    0  0.40725680796E+03  0.33774180901E+02  0.45372156963E+02  0.42001695243E+03  0.85771818099E+02 0.  0.
          2    1    3    3  502    0  0.17741685460E+02 -0.39164264915E+01  0.12818912211E+02  0.22235788938E+02  0.00000000000E+00 0. -1.
         -1    1    3    3    0  502 -0.30129558912E+02  0.94403708498E+01  0.27054042634E+03  0.27237663851E+03  0.00000000000E+00 0.  1.
         11    1    5    5    0    0 -0.59126377862E+02  0.17780612992E+02 -0.68984548569E+01  0.62126221814E+02  0.00000000000E+00 0.  1.
        -11    1    5    5    0    0 -0.33574255664E+03 -0.57078738252E+02 -0.19759194782E+03  0.39373039576E+03  0.00000000000E+00 0. -1.
          2    1    6    6  503    0  0.24646134044E+03 -0.20942102643E+02  0.18331337152E+02  0.24802782488E+03  0.00000000000E+00 0.  1.
         -2    1    6    6    0  503  0.16079546752E+03  0.54716283544E+02  0.27040819811E+02  0.17198912755E+03  0.00000000000E+00 0. -1.
<mgrwt>
<rscale>  0 0.11638735E+04</rscale>
<asrwt>0</asrwt>
<pdfrwt beam="1">  1        2 0.80480377E-01 0.11638735E+04</pdfrwt>
<pdfrwt beam="2">  1       -3 0.99594392E-01 0.11638735E+04</pdfrwt>
<totfact> 0.32101574E+01</totfact>
</mgrwt>
</event>
<event>
12    6  0.1647231E-007  0.1576541E+04  0.7818608E-02  0.8835090E-01
         -1   -1    0    0    0  501 -0.00000000000E+00  0.00000000000E+00  0.63043242488E+03  0.63043242488E+03  0.00000000000E+00 0.  1.
          2   -1    0    0  501    0  0.00000000000E+00 -0.00000000000E+00 -0.98562623086E+03  0.98562623086E+03  0.00000000000E+00 0. -1.
         24    2    1    2    0    0  0.44981390500E+02  0.32128321098E+03  0.30254669930E+03  0.45061001818E+03  0.79174844995E+02 0.  0.
        254    2    1    2    0    0 -0.44981390500E+02 -0.32128321098E+03 -0.65774050527E+03  0.11654486376E+04  0.90576030349E+03 0.  0.
         23    2    4    4    0    0  0.78626341550E+02  0.18643102238E+03 -0.59048455361E+03  0.63075350036E+03  0.90770823890E+02 0.  0.
         23    2    4    4    0    0 -0.12360773205E+03 -0.50771423336E+03 -0.67255951664E+02  0.53469513720E+03  0.91229997997E+02 0.  0.
          4    1    3    3  502    0  0.41048851378E+02  0.88727621193E+02  0.60724365034E+02  0.11508712991E+03  0.00000000000E+00 0. -1.
         -3    1    3    3    0  502  0.39325391219E+01  0.23255558978E+03  0.24182233426E+03  0.33552288827E+03  0.00000000000E+00 0.  1.
         11    1    5    5    0    0  0.41654019470E+02  0.15803701992E+03 -0.52851248984E+03  0.55320539488E+03  0.00000000000E+00 0. -1.
        -11    1    5    5    0    0  0.36972322079E+02  0.28394002462E+02 -0.61972063765E+02  0.77548105477E+02  0.00000000000E+00 0.  1.
          2    1    6    6  503    0 -0.18777164992E+02 -0.14456575364E+03  0.18967130457E+02  0.14700881296E+03  0.00000000000E+00 0.  1.
         -2    1    6    6    0  503 -0.10483056706E+03 -0.36314847972E+03 -0.86223082121E+02  0.38768632424E+03  0.00000000000E+00 0. -1.
<mgrwt>
<rscale>  0 0.15765414E+04</rscale>
<asrwt>0</asrwt>
<pdfrwt beam="1">  1        2 0.15163480E+00 0.15765414E+04</pdfrwt>
<pdfrwt beam="2">  1       -1 0.96989604E-01 0.15765414E+04</pdfrwt>
<totfact> 0.28827182E+01</totfact>
</mgrwt>
</event>
<event>
12    6  0.1647231E-007  0.1400501E+04  0.7818608E-02  0.8953456E-01
         -1   -1    0    0    0  501 -0.00000000000E+00  0.00000000000E+00  0.19635847459E+03  0.19635847459E+03  0.00000000000E+00 0.  1.
          2   -1    0    0  501    0  0.00000000000E+00 -0.00000000000E+00 -0.24972205339E+04  0.24972205339E+04  0.00000000000E+00 0. -1.
         24    2    1    2    0    0  0.75323581688E+01 -0.74853185742E+02  0.87589653765E+02  0.14149232587E+03  0.81782608160E+02 0.  0.
        254    2    1    2    0    0 -0.75323581688E+01  0.74853185742E+02 -0.23884517130E+04  0.25520866826E+04  0.89598276440E+03 0.  0.
         23    2    4    4    0    0 -0.87597866123E+02 -0.39258491809E+03 -0.12181987935E+04  0.12861337968E+04  0.91299170858E+02 0.  0.
         23    2    4    4    0    0  0.80065507954E+02  0.46743810383E+03 -0.11702529195E+04  0.12659528858E+04  0.90752118467E+02 0.  0.
          4    1    3    3  502    0 -0.71775627052E+01  0.13225410356E+02  0.34414725212E+02  0.37560646918E+02  0.00000000000E+00 0. -1.
         -3    1    3    3    0  502  0.14709920874E+02 -0.88078596098E+02  0.53174928553E+02  0.10393167895E+03  0.00000000000E+00 0.  1.
         11    1    5    5    0    0 -0.54958262897E+02 -0.19750922878E+03 -0.48111103848E+03  0.52297049387E+03  0.00000000000E+00 0. -1.
        -11    1    5    5    0    0 -0.32639603226E+02 -0.19507568931E+03 -0.73708775507E+03  0.76316330292E+03  0.00000000000E+00 0.  1.
          3    1    6    6  503    0 -0.12034203566E+02  0.11910127877E+03 -0.35467375681E+03  0.37433061648E+03  0.00000000000E+00 0. -1.
         -3    1    6    6    0  503  0.92099711520E+02  0.34833682505E+03 -0.81557916269E+03  0.89162226933E+03  0.00000000000E+00 0.  1.
<mgrwt>
<rscale>  0 0.14005005E+04</rscale>
<asrwt>0</asrwt>
<pdfrwt beam="1">  1        2 0.38418774E+00 0.14005005E+04</pdfrwt>
<pdfrwt beam="2">  1       -1 0.30208998E-01 0.14005005E+04</pdfrwt>
<totfact> 0.39183366E+01</totfact>
</mgrwt>
</event>
<event>
12    6  0.1647231E-007  0.2041246E+04  0.7818608E-02  0.8587576E-01
         -1   -1    0    0    0  501 -0.00000000000E+00  0.00000000000E+00  0.61917802982E+03  0.61917802982E+03  0.00000000000E+00 0.  1.
          2   -1    0    0  501    0  0.00000000000E+00 -0.00000000000E+00 -0.16823454463E+04  0.16823454463E+04  0.00000000000E+00 0. -1.
         24    2    1    2    0    0  0.53315103766E+03  0.47386562262E+03 -0.88811841342E+03  0.11419464305E+04  0.80552322045E+02 0.  0.
        254    2    1    2    0    0 -0.53315103766E+03 -0.47386562262E+03 -0.17504900307E+03  0.11595770456E+04  0.89731717583E+03 0.  0.
         23    2    4    4    0    0 -0.67331779968E+03 -0.11896402177E+03  0.75435138778E+02  0.69401677390E+03  0.91975673164E+02 0.  0.
         23    2    4    4    0    0  0.14016676202E+03 -0.35490160086E+03 -0.25048414185E+03  0.46556027174E+03  0.91663481519E+02 0.  0.
          2    1    3    3  502    0  0.46727809205E+03  0.43317455049E+03 -0.75486269625E+03  0.98782928519E+03  0.00000000000E+00 0. -1.
         -1    1    3    3    0  502  0.65872945613E+02  0.40691072139E+02 -0.13325571717E+03  0.15411714530E+03  0.00000000000E+00 0.  1.
         11    1    5    5    0    0 -0.21952091754E+03 -0.31061525826E+02  0.67358821148E+02  0.23171418258E+03  0.00000000000E+00 0. -1.
        -11    1    5    5    0    0 -0.45379688214E+03 -0.87902495942E+02  0.80763176304E+01  0.46230259132E+03  0.00000000000E+00 0.  1.
          2    1    6    6  503    0  0.12271876139E+03 -0.29316772443E+03 -0.24478205832E+03  0.40115516340E+03  0.00000000000E+00 0. -1.
         -2    1    6    6    0  503  0.17448000626E+02 -0.61733876423E+02 -0.57020835241E+01  0.64405108342E+02  0.00000000000E+00 0.  1.
<mgrwt>
<rscale>  0 0.20412460E+04</rscale>
<asrwt>0</asrwt>
<pdfrwt beam="1">  1        2 0.25882237E+00 0.20412460E+04</pdfrwt>
<pdfrwt beam="2">  1       -1 0.95258161E-01 0.20412460E+04</pdfrwt>
<totfact> 0.11258764E+01</totfact>
</mgrwt>
</event>
<event>
12    6  0.1647231E-007  0.1050109E+04  0.7818608E-02  0.9255231E-01
         -1   -1    0    0    0  501 -0.00000000000E+00  0.00000000000E+00  0.13452963300E+03  0.13452963300E+03  0.00000000000E+00 0.  1.
          2   -1    0    0  501    0  0.00000000000E+00 -0.00000000000E+00 -0.20492313330E+04  0.20492313330E+04  0.00000000000E+00 0. -1.
         24    2    1    2    0    0  0.81693706388E+02 -0.20425478657E+02 -0.43242544827E+03  0.44823408926E+03  0.82649674018E+02 0.  0.
        254    2    1    2    0    0 -0.81693706388E+02  0.20425478657E+02 -0.14822762517E+04  0.17355268768E+04  0.89878784574E+03 0.  0.
         23    2    4    4    0    0 -0.41360113956E+03  0.15985421549E+03 -0.11511228752E+04  0.12370057488E+04  0.92087327526E+02 0.  0.
         23    2    4    4    0    0  0.33190743317E+03 -0.13942873683E+03 -0.33115337657E+03  0.49852112799E+03  0.96217666740E+02 0.  0.
          2    1    3    3  502    0  0.78922577761E+02 -0.46582341680E+02 -0.34100082318E+03  0.35310090519E+03  0.00000000000E+00 0. -1.
         -3    1    3    3    0  502  0.27711286273E+01  0.26156863023E+02 -0.91424625097E+02  0.95133184069E+02  0.00000000000E+00 0.  1.
         11    1    5    5    0    0 -0.63569071112E+02 -0.68623523651E+01 -0.19710134070E+03  0.20721258935E+03  0.00000000000E+00 0.  1.
        -11    1    5    5    0    0 -0.35003206845E+03  0.16671656786E+03 -0.95402153448E+03  0.10297931594E+04  0.00000000000E+00 0. -1.
          3    1    6    6  503    0  0.32824733691E+03 -0.14897241474E+03 -0.31170008209E+03  0.47654594292E+03  0.00000000000E+00 0. -1.
         -3    1    6    6    0  503  0.36600962615E+01  0.95436779104E+01 -0.19453294478E+02  0.21975185068E+02  0.00000000000E+00 0.  1.
<mgrwt>
<rscale>  0 0.10501092E+04</rscale>
<asrwt>0</asrwt>
<pdfrwt beam="1">  1        2 0.31526634E+00 0.10501092E+04</pdfrwt>
<pdfrwt beam="2">  1       -1 0.20696868E-01 0.10501092E+04</pdfrwt>
<totfact> 0.13785417E+02</totfact>
</mgrwt>
</event>
<event>
12    6  0.1647231E-007  0.3596192E+04  0.7818608E-02  0.8091364E-01
         -1   -1    0    0    0  501 -0.00000000000E+00  0.00000000000E+00  0.79294004430E+03  0.79294004430E+03  0.00000000000E+00 0.  1.
          2   -1    0    0  501    0  0.00000000000E+00 -0.00000000000E+00 -0.40774197624E+04  0.40774197624E+04  0.00000000000E+00 0. -1.
         24    2    1    2    0    0 -0.15532521004E+04  0.62860385864E+03 -0.13611719154E+04  0.21602270757E+04  0.77827609032E+02 0.  0.
        254    2    1    2    0    0  0.15532521004E+04 -0.62860385864E+03 -0.19233078028E+04  0.27101327311E+04  0.91540789663E+03 0.  0.
         23    2    4    4    0    0  0.10346796641E+04  0.49181922666E+02 -0.11987795456E+04  0.15869053642E+04  0.90638661876E+02 0.  0.
         23    2    4    4    0    0  0.51857243628E+03 -0.67778578131E+03 -0.72452825715E+03  0.11232273669E+04  0.91583760799E+02 0.  0.
          2    1    3    3  502    0 -0.14413796512E+04  0.58913581511E+03 -0.12388233599E+04  0.19898089417E+04  0.00000000000E+00 0. -1.
         -1    1    3    3    0  502 -0.11187244926E+03  0.39468043532E+02 -0.12234855544E+03  0.17041813396E+03  0.00000000000E+00 0.  1.
         11    1    5    5    0    0  0.32322246766E+02  0.16052833870E+02 -0.30970720904E+02  0.47556352515E+02  0.00000000000E+00 0.  1.
        -11    1    5    5    0    0  0.10023574174E+04  0.33129088797E+02 -0.11678088247E+04  0.15393490117E+04  0.00000000000E+00 0. -1.
          1    1    6    6  503    0  0.46769207359E+03 -0.61757093305E+03 -0.68903244389E+03  0.10367716440E+04  0.00000000000E+00 0. -1.
         -1    1    6    6    0  503  0.50880362689E+02 -0.60214848257E+02 -0.35495813260E+02  0.86455722870E+02  0.00000000000E+00 0.  1.
<mgrwt>
<rscale>  0 0.35961921E+04</rscale>
<asrwt>0</asrwt>
<pdfrwt beam="1">  1        2 0.62729534E+00 0.35961921E+04</pdfrwt>
<pdfrwt beam="2">  1       -1 0.12199078E+00 0.35961921E+04</pdfrwt>
<totfact> 0.16203722E-01</totfact>
</mgrwt>
</event>
<event>
12    6  0.1647231E-007  0.1559088E+04  0.7818608E-02  0.8846084E-01
          2   -1    0    0  501    0  0.00000000000E+00  0.00000000000E+00  0.29989276662E+04  0.29989276662E+04  0.00000000000E+00 0. -1.
         -1   -1    0    0    0  501 -0.00000000000E+00 -0.00000000000E+00 -0.20263529402E+03  0.20263529402E+03  0.00000000000E+00 0.  1.
         24    2    1    2    0    0  0.15446720488E+03 -0.21851241554E+03  0.26824347374E+02  0.27867562229E+03  0.73025774321E+02 0.  0.
        254    2    1    2    0    0 -0.15446720488E+03  0.21851241554E+03  0.27694680248E+04  0.29228873379E+04  0.89538229639E+03 0.  0.
         23    2    4    4    0    0  0.30480245044E+03 -0.61040485902E+01  0.48086705579E+03  0.57612011414E+03  0.87974242593E+02 0.  0.
         23    2    4    4    0    0 -0.45926965533E+03  0.22461646413E+03  0.22886009690E+04  0.23467672238E+04  0.90779045294E+02 0.  0.
          4    1    3    3  502    0  0.10716036932E+02  0.45257568681E+01  0.41830852312E+01  0.12361801034E+02  0.00000000000E+00 0. -1.
         -3    1    3    3    0  502  0.14375116795E+03 -0.22303817241E+03  0.22641262142E+02  0.26631382125E+03  0.00000000000E+00 0.  1.
         11    1    5    5    0    0  0.19411487099E+03 -0.29230782053E+02  0.24019611588E+03  0.31020831040E+03  0.00000000000E+00 0. -1.
        -11    1    5    5    0    0  0.11068757945E+03  0.23126733463E+02  0.24067093992E+03  0.26591180374E+03  0.00000000000E+00 0.  1.
          2    1    6    6  503    0 -0.35575135362E+03  0.12928960393E+03  0.16616100662E+04  0.17041780539E+04  0.00000000000E+00 0.  1.
         -2    1    6    6    0  503 -0.10351830170E+03  0.95326860203E+02  0.62699090283E+03  0.64258916992E+03  0.00000000000E+00 0. -1.
<mgrwt>
<rscale>  0 0.15590877E+04</rscale>
<asrwt>0</asrwt>
<pdfrwt beam="1">  1        2 0.46137345E+00 0.15590877E+04</pdfrwt>
<pdfrwt beam="2">  1       -1 0.31174663E-01 0.15590877E+04</pdfrwt>
<totfact> 0.18333224E+01</totfact>
</mgrwt>
</event>
<event>
12    6  0.1647231E-007  0.2626411E+04  0.7818608E-02  0.8359285E-01
          2   -1    0    0  501    0  0.00000000000E+00  0.00000000000E+00  0.18865651923E+04  0.18865651923E+04  0.00000000000E+00 0. -1.
         -1   -1    0    0    0  501 -0.00000000000E+00 -0.00000000000E+00 -0.91409983754E+03  0.91409983754E+03  0.00000000000E+00 0.  1.
         24    2    1    2    0    0  0.36474480307E+03  0.38740918474E+03 -0.66602329338E+03  0.85633575388E+03  0.81235757303E+02 0.  0.
        254    2    1    2    0    0 -0.36474480307E+03 -0.38740918474E+03  0.16384886481E+04  0.19443292759E+04  0.90146915395E+03 0.  0.
         23    2    4    4    0    0 -0.89872964463E+02 -0.95114093914E+02  0.15030978210E+04  0.15115465890E+04  0.91357487768E+02 0.  0.
         23    2    4    4    0    0 -0.27487183861E+03 -0.29229509083E+03  0.13539082707E+03  0.43278268692E+03  0.89326537279E+02 0.  0.
          4    1    3    3  502    0  0.11052862782E+03  0.80465104150E+02 -0.13250550568E+03  0.19039149033E+03  0.00000000000E+00 0. -1.
         -3    1    3    3    0  502  0.25421617524E+03  0.30694408059E+03 -0.53351778769E+03  0.66594426355E+03  0.00000000000E+00 0.  1.
         11    1    5    5    0    0 -0.12141643292E+02 -0.57883367113E+02  0.32778952833E+03  0.33308239007E+03  0.00000000000E+00 0. -1.
        -11    1    5    5    0    0 -0.77731321171E+02 -0.37230726802E+02  0.11753082927E+04  0.11784641990E+04  0.00000000000E+00 0.  1.
          4    1    6    6  503    0 -0.19239479964E+03 -0.24334073602E+03  0.13109990200E+03  0.33677538069E+03  0.00000000000E+00 0. -1.
         -4    1    6    6    0  503 -0.82477038965E+02 -0.48954354809E+02  0.42909250669E+01  0.96007306228E+02  0.00000000000E+00 0.  1.
<mgrwt>
<rscale>  0 0.26264112E+04</rscale>
<asrwt>0</asrwt>
<pdfrwt beam="1">  1        2 0.29024080E+00 0.26264112E+04</pdfrwt>
<pdfrwt beam="2">  1       -1 0.14063074E+00 0.26264112E+04</pdfrwt>
<totfact> 0.32142435E+00</totfact>
</mgrwt>
</event>
<event>
12    6  0.1647231E-007  0.2312847E+04  0.7818608E-02  0.8472873E-01
         -1   -1    0    0    0  501 -0.00000000000E+00  0.00000000000E+00  0.59983162180E+03  0.59983162180E+03  0.00000000000E+00 0.  1.
          2   -1    0    0  501    0  0.00000000000E+00 -0.00000000000E+00 -0.22294847497E+04  0.22294847497E+04  0.00000000000E+00 0. -1.
         24    2    1    2    0    0  0.21897361290E+02 -0.95712419780E+03 -0.98800399630E+03  0.13779962982E+04  0.78458121444E+02 0.  0.
        254    2    1    2    0    0 -0.21897361290E+02  0.95712419780E+03 -0.64164913165E+03  0.14513200733E+04  0.88207149517E+03 0.  0.
         23    2    4    4    0    0 -0.23755171629E+02  0.70199451639E+02  0.19309153898E+03  0.22937387297E+03  0.99175400118E+02 0.  0.
         23    2    4    4    0    0  0.18578103393E+01  0.88692474616E+03 -0.83474067062E+03  0.12219462003E+04  0.98598034953E+02 0.  0.
          2    1    3    3  502    0  0.27470094931E+02 -0.50501973251E+03 -0.47016196600E+03  0.69054457540E+03  0.00000000000E+00 0. -1.
         -1    1    3    3    0  502 -0.55727336411E+01 -0.45210446529E+03 -0.51784203030E+03  0.68745172284E+03  0.00000000000E+00 0.  1.
         11    1    5    5    0    0 -0.32194193878E+02  0.27593370777E+02  0.17863366043E+03  0.18359696313E+03  0.00000000000E+00 0.  1.
        -11    1    5    5    0    0  0.84390222488E+01  0.42606080862E+02  0.14457878544E+02  0.45776909845E+02  0.00000000000E+00 0. -1.
          4    1    6    6  503    0 -0.40355691022E+02  0.66705186989E+03 -0.61311642524E+03  0.90691704682E+03  0.00000000000E+00 0. -1.
         -4    1    6    6    0  503  0.42213501361E+02  0.21987287627E+03 -0.22162424539E+03  0.31502915351E+03  0.00000000000E+00 0.  1.
<mgrwt>
<rscale>  0 0.23128471E+04</rscale>
<asrwt>0</asrwt>
<pdfrwt beam="1">  1        2 0.34299765E+00 0.23128471E+04</pdfrwt>
<pdfrwt beam="2">  1       -1 0.92281788E-01 0.23128471E+04</pdfrwt>
<totfact> 0.58516151E+00</totfact>
</mgrwt>
</event>
<event>
12    6  0.1647231E-007  0.1830543E+04  0.7818608E-02  0.8690224E-01
          2   -1    0    0  501    0  0.00000000000E+00  0.00000000000E+00  0.19895528885E+04  0.19895528885E+04  0.00000000000E+00 0. -1.
         -1   -1    0    0    0  501 -0.00000000000E+00 -0.00000000000E+00 -0.42106027198E+03  0.42106027198E+03  0.00000000000E+00 0.  1.
         24    2    1    2    0    0  0.34887382400E+03 -0.58963740962E+03  0.47897771045E+03  0.83980371396E+03  0.80407779344E+02 0.  0.
        254    2    1    2    0    0 -0.34887382400E+03  0.58963740962E+03  0.10895149061E+04  0.15708094466E+04  0.90056336084E+03 0.  0.
         23    2    4    4    0    0 -0.23087445057E+02  0.23204466652E+03  0.10466741911E+04  0.10763197238E+04  0.92517717211E+02 0.  0.
         23    2    4    4    0    0 -0.32578637894E+03  0.35759274310E+03  0.42840714970E+02  0.49448972280E+03  0.93141958720E+02 0.  0.
          2    1    3    3  502    0  0.16238058231E+03 -0.22106051483E+03  0.22616126659E+03  0.35550544755E+03  0.00000000000E+00 0. -1.
         -1    1    3    3    0  502  0.18649324169E+03 -0.36857689478E+03  0.25281644386E+03  0.48429826641E+03  0.00000000000E+00 0.  1.
         11    1    5    5    0    0  0.24135430522E+02  0.69271708928E+02  0.20444855521E+03  0.21721026769E+03  0.00000000000E+00 0.  1.
        -11    1    5    5    0    0 -0.47222875580E+02  0.16277295759E+03  0.84222563592E+03  0.85910945607E+03  0.00000000000E+00 0. -1.
          2    1    6    6  503    0 -0.32066567199E+03  0.34797506798E+03  0.57008870008E+02  0.47661633667E+03  0.00000000000E+00 0. -1.
         -2    1    6    6    0  503 -0.51207069586E+01  0.96176751201E+01 -0.14168155038E+02  0.17873386127E+02  0.00000000000E+00 0.  1.
<mgrwt>
<rscale>  0 0.18305427E+04</rscale>
<asrwt>0</asrwt>
<pdfrwt beam="1">  1        2 0.30608505E+00 0.18305427E+04</pdfrwt>
<pdfrwt beam="2">  1       -1 0.64778505E-01 0.18305427E+04</pdfrwt>
<totfact> 0.17547033E+01</totfact>
</mgrwt>
</event>
<event>
12    6  0.1927549E-007  0.1833818E+04  0.7818608E-02  0.8688520E-01
          2   -1    0    0  501    0  0.00000000000E+00  0.00000000000E+00  0.18763331995E+04  0.18763331995E+04  0.00000000000E+00 0. -1.
         -1   -1    0    0    0  501 -0.00000000000E+00 -0.00000000000E+00 -0.44806630093E+03  0.44806630093E+03  0.00000000000E+00 0.  1.
         24    2    1    2    0    0 -0.47872241629E+03  0.78660480736E+02  0.11695005992E+04  0.12685194504E+04  0.77764524634E+02 0.  0.
        254    2    1    2    0    0  0.47872241629E+03 -0.78660480736E+02  0.25876629932E+03  0.10558800500E+04  0.90142113316E+03 0.  0.
         23    2    4    4    0    0  0.72849537822E+03 -0.91750586962E+02  0.27628450248E+03  0.78975589343E+03  0.90871109788E+02 0.  0.
         23    2    4    4    0    0 -0.24977296194E+03  0.13090106226E+02 -0.17518203162E+02  0.26612415661E+03  0.89203676445E+02 0.  0.
          2    1    3    3  502    0 -0.42279609491E+03  0.57773698036E+02  0.95772525613E+03  0.10484903453E+04  0.00000000000E+00 0. -1.
         -1    1    3    3    0  502 -0.55926321382E+02  0.20886782699E+02  0.21177534309E+03  0.22002910502E+03  0.00000000000E+00 0.  1.
         11    1    5    5    0    0  0.67080293559E+03 -0.82115728861E+02  0.22593041133E+03  0.71257569569E+03  0.00000000000E+00 0. -1.
        -11    1    5    5    0    0  0.57692442637E+02 -0.96348581009E+01  0.50354091153E+02  0.77180197745E+02  0.00000000000E+00 0.  1.
          4    1    6    6  503    0 -0.23102037059E+03  0.29138537100E+02  0.47241469000E+01  0.23289865507E+03  0.00000000000E+00 0. -1.
         -4    1    6    6    0  503 -0.18752591350E+02 -0.16048430874E+02 -0.22242350062E+02  0.33225501534E+02  0.00000000000E+00 0.  1.
<mgrwt>
<rscale>  0 0.18338175E+04</rscale>
<asrwt>0</asrwt>
<pdfrwt beam="1">  1        2 0.28866664E+00 0.18338175E+04</pdfrwt>
<pdfrwt beam="2">  1       -1 0.68933278E-01 0.18338175E+04</pdfrwt>
<totfact> 0.17869109E+01</totfact>
</mgrwt>
</event>
<event>
12    6  0.1647231E-007  0.3416477E+04  0.7818608E-02  0.8133874E-01
          2   -1    0    0  501    0  0.00000000000E+00  0.00000000000E+00  0.13674089747E+04  0.13674089747E+04  0.00000000000E+00 0. -1.
         -1   -1    0    0    0  501 -0.00000000000E+00 -0.00000000000E+00 -0.21340200565E+04  0.21340200565E+04  0.00000000000E+00 0.  1.
         24    2    1    2    0    0 -0.44038766804E+03  0.80926810092E+03 -0.16841269514E+04  0.19212134720E+04  0.76951018344E+02 0.  0.
        254    2    1    2    0    0  0.44038766804E+03 -0.80926810092E+03  0.91751586961E+03  0.15802155592E+04  0.89799202966E+03 0.  0.
         23    2    4    4    0    0 -0.19178766900E+03 -0.18491167596E+03 -0.21433528532E+02  0.28428882620E+03  0.96880868444E+02 0.  0.
         23    2    4    4    0    0  0.63217533704E+03 -0.62435642496E+03  0.93894939814E+03  0.12959267330E+04  0.91288131655E+02 0.  0.
          2    1    3    3  502    0 -0.20149746572E+03  0.38090301772E+03 -0.70891738898E+03  0.82960966845E+03  0.00000000000E+00 0. -1.
         -1    1    3    3    0  502 -0.23889020232E+03  0.42836508320E+03 -0.97520956239E+03  0.10916038035E+04  0.00000000000E+00 0.  1.
         11    1    5    5    0    0 -0.17154783231E+03 -0.14364179341E+03 -0.51198337573E+02  0.22952754378E+03  0.00000000000E+00 0. -1.
        -11    1    5    5    0    0 -0.20239836689E+02 -0.41269882545E+02  0.29764809041E+02  0.54761282414E+02  0.00000000000E+00 0.  1.
          3    1    6    6  503    0  0.60663534502E+03 -0.57130692894E+03  0.86068379655E+03  0.11979877489E+04  0.00000000000E+00 0. -1.
         -3    1    6    6    0  503  0.25539992016E+02 -0.53049496019E+02  0.78265601589E+02  0.97938984128E+02  0.00000000000E+00 0.  1.
<mgrwt>
<rscale>  0 0.34164767E+04</rscale>
<asrwt>0</asrwt>
<pdfrwt beam="1">  1        2 0.21037061E+00 0.34164767E+04</pdfrwt>
<pdfrwt beam="2">  1       -1 0.32831078E+00 0.34164767E+04</pdfrwt>
<totfact> 0.30731192E-01</totfact>
</mgrwt>
</event>
<event>
12    6  0.1647231E-007  0.1492346E+04  0.7818608E-02  0.8889559E-01
         -1   -1    0    0    0  501 -0.00000000000E+00  0.00000000000E+00  0.29344725838E+03  0.29344725838E+03  0.00000000000E+00 0.  1.
          2   -1    0    0  501    0  0.00000000000E+00 -0.00000000000E+00 -0.18973556835E+04  0.18973556835E+04  0.00000000000E+00 0. -1.
         24    2    1    2    0    0 -0.11331330412E+03 -0.32500897123E+02 -0.11850383733E+04  0.11940010093E+04  0.86175698606E+02 0.  0.
        254    2    1    2    0    0  0.11331330412E+03  0.32500897123E+02 -0.41887005191E+03  0.99680193258E+03  0.89680865250E+03 0.  0.
         23    2    4    4    0    0 -0.18208118663E+03  0.30638482257E+03 -0.45125717125E+03  0.58218319654E+03  0.90989129597E+02 0.  0.
         23    2    4    4    0    0  0.29539449075E+03 -0.27388392545E+03  0.32387119341E+02  0.41461873604E+03  0.92679345000E+02 0.  0.
          2    1    3    3  502    0 -0.90356175879E+02  0.80234431878E+01 -0.56702623629E+03  0.57423633358E+03  0.00000000000E+00 0. -1.
         -1    1    3    3    0  502 -0.22957128239E+02 -0.40524340310E+02 -0.61801213696E+03  0.61976467576E+03  0.00000000000E+00 0.  1.
         11    1    5    5    0    0 -0.34480027693E+02  0.42247484073E+02 -0.12944155816E+03  0.14045938630E+03  0.00000000000E+00 0.  1.
        -11    1    5    5    0    0 -0.14760115893E+03  0.26413733850E+03 -0.32181561309E+03  0.44172381025E+03  0.00000000000E+00 0. -1.
          1    1    6    6  503    0  0.30021866615E+03 -0.25602795434E+03  0.34142343711E+02  0.39603946842E+03  0.00000000000E+00 0. -1.
         -1    1    6    6    0  503 -0.48241754070E+01 -0.17855971111E+02 -0.17552243696E+01  0.18579267619E+02  0.00000000000E+00 0.  1.
<mgrwt>
<rscale>  0 0.14923456E+04</rscale>
<asrwt>0</asrwt>
<pdfrwt beam="1">  1        2 0.29190087E+00 0.14923456E+04</pdfrwt>
<pdfrwt beam="2">  1       -1 0.45145733E-01 0.14923456E+04</pdfrwt>
<totfact> 0.40851622E+01</totfact>
</mgrwt>
</event>
<event>
12    6  0.1647231E-007  0.1586744E+04  0.7818608E-02  0.8828733E-01
          2   -1    0    0  501    0  0.00000000000E+00  0.00000000000E+00  0.79515211637E+03  0.79515211637E+03  0.00000000000E+00 0. -1.
         -1   -1    0    0    0  501 -0.00000000000E+00 -0.00000000000E+00 -0.79159591629E+03  0.79159591629E+03  0.00000000000E+00 0.  1.
         24    2    1    2    0    0 -0.10238854546E+03 -0.50595969315E+03 -0.11419613096E+03  0.53506845985E+03  0.82333924162E+02 0.  0.
        254    2    1    2    0    0  0.10238854546E+03  0.50595969315E+03  0.11775233104E+03  0.10516795728E+04  0.90867248614E+03 0.  0.
         23    2    4    4    0    0  0.32071970437E+03  0.23452004222E+03  0.41669738597E+03  0.58349109091E+03  0.94680318571E+02 0.  0.
         23    2    4    4    0    0 -0.21833115891E+03  0.27143965093E+03 -0.29894505493E+03  0.46818848190E+03  0.92110421090E+02 0.  0.
          2    1    3    3  502    0 -0.37796955913E+02 -0.31660971916E+03 -0.10141352636E+03  0.33459681330E+03  0.00000000000E+00 0. -1.
         -1    1    3    3    0  502 -0.64591589543E+02 -0.18934997399E+03 -0.12782604601E+02  0.20047164655E+03  0.00000000000E+00 0.  1.
         11    1    5    5    0    0  0.32630411188E+03  0.22221114117E+03  0.40555038570E+03  0.56597109470E+03  0.00000000000E+00 0. -1.
        -11    1    5    5    0    0 -0.55844075137E+01  0.12308901044E+02  0.11147000264E+02  0.17519996207E+02  0.00000000000E+00 0.  1.
          2    1    6    6  503    0 -0.11616542714E+03  0.12923682955E+03 -0.20748965407E+03  0.27064463993E+03  0.00000000000E+00 0. -1.
         -2    1    6    6    0  503 -0.10216573177E+03  0.14220282138E+03 -0.91455400852E+02  0.19754384197E+03  0.00000000000E+00 0.  1.
<mgrwt>
<rscale>  0 0.15867440E+04</rscale>
<asrwt>0</asrwt>
<pdfrwt beam="1">  1        2 0.12233109E+00 0.15867440E+04</pdfrwt>
<pdfrwt beam="2">  1       -1 0.12178399E+00 0.15867440E+04</pdfrwt>
<totfact> 0.22725535E+01</totfact>
</mgrwt>
</event>
<event>
12    6  0.1647231E-007  0.1518928E+04  0.7818608E-02  0.8871963E-01
          2   -1    0    0  501    0  0.00000000000E+00  0.00000000000E+00  0.43272668052E+03  0.43272668052E+03  0.00000000000E+00 0. -1.
         -1   -1    0    0    0  501 -0.00000000000E+00 -0.00000000000E+00 -0.13329090498E+04  0.13329090498E+04  0.00000000000E+00 0.  1.
         24    2    1    2    0    0  0.43809802439E+03  0.15558567843E+03 -0.47909146587E+03  0.67228740446E+03  0.79403647353E+02 0.  0.
        254    2    1    2    0    0 -0.43809802439E+03 -0.15558567843E+03 -0.42109090337E+03  0.10933483258E+04  0.89552008932E+03 0.  0.
         23    2    4    4    0    0  0.15814693079E+03 -0.23459306548E+03 -0.38216091547E+03  0.48367173080E+03  0.88583405742E+02 0.  0.
         23    2    4    4    0    0 -0.59624495518E+03  0.79007387055E+02 -0.38929987907E+02  0.60967659502E+03  0.91868344773E+02 0.  0.
          4    1    3    3  502    0  0.24434917016E+02  0.28105479438E+02 -0.24514450853E+02  0.44586336972E+02  0.00000000000E+00 0. -1.
         -3    1    3    3    0  502  0.41366310737E+03  0.12748019899E+03 -0.45457701502E+03  0.62770106748E+03  0.00000000000E+00 0.  1.
         11    1    5    5    0    0  0.62024535007E+02 -0.26919414207E+02 -0.88854082350E+02  0.11165458233E+03  0.00000000000E+00 0. -1.
        -11    1    5    5    0    0  0.96122395785E+02 -0.20767365128E+03 -0.29330683312E+03  0.37201714848E+03  0.00000000000E+00 0.  1.
          1    1    6    6  503    0 -0.24839862521E+03  0.37286591504E+01  0.18753628147E+02  0.24913345515E+03  0.00000000000E+00 0. -1.
         -1    1    6    6    0  503 -0.34784632997E+03  0.75278727904E+02 -0.57683616054E+02  0.36054313987E+03  0.00000000000E+00 0.  1.
<mgrwt>
<rscale>  0 0.15189277E+04</rscale>
<asrwt>0</asrwt>
<pdfrwt beam="1">  1        2 0.66573337E-01 0.15189277E+04</pdfrwt>
<pdfrwt beam="2">  1       -1 0.20506293E+00 0.15189277E+04</pdfrwt>
<totfact> 0.11147397E+01</totfact>
</mgrwt>
</event>
<event>
12    6  0.1647231E-007  0.1237810E+04  0.7818608E-02  0.9080390E-01
         -1   -1    0    0    0  501 -0.00000000000E+00  0.00000000000E+00  0.50754517430E+03  0.50754517430E+03  0.00000000000E+00 0.  1.
          2   -1    0    0  501    0  0.00000000000E+00 -0.00000000000E+00 -0.75469843306E+03  0.75469843306E+03  0.00000000000E+00 0. -1.
         24    2    1    2    0    0 -0.70068352397E+02 -0.71020843069E+01  0.22020331508E+03  0.24493270639E+03  0.80885827427E+02 0.  0.
        254    2    1    2    0    0  0.70068352397E+02  0.71020843069E+01 -0.46735657384E+03  0.10173109010E+04  0.90085475439E+03 0.  0.
         23    2    4    4    0    0 -0.17016232366E+03 -0.25662325135E+03 -0.55260238502E+03  0.63925722380E+03  0.92030933536E+02 0.  0.
         23    2    4    4    0    0  0.24023067605E+03  0.26372533566E+03  0.85245811173E+02  0.37805367717E+03  0.91629166258E+02 0.  0.
          4    1    3    3  502    0 -0.50569789825E+02 -0.13084888349E+02  0.46190286727E+02  0.69728477210E+02  0.00000000000E+00 0. -1.
         -3    1    3    3    0  502 -0.19498562572E+02  0.59828040417E+01  0.17401302835E+03  0.17520422918E+03  0.00000000000E+00 0.  1.
         11    1    5    5    0    0 -0.35971343558E+02 -0.10367105270E+03 -0.12928001378E+03  0.16957283593E+03  0.00000000000E+00 0. -1.
        -11    1    5    5    0    0 -0.13419098010E+03 -0.15295219866E+03 -0.42332237124E+03  0.46968438787E+03  0.00000000000E+00 0.  1.
          4    1    6    6  503    0  0.14909560342E+03  0.11486203663E+03  0.76887693861E+02  0.20330888786E+03  0.00000000000E+00 0.  1.
         -4    1    6    6    0  503  0.91135072639E+02  0.14886329904E+03  0.83581173122E+01  0.17474478931E+03  0.00000000000E+00 0. -1.
<mgrwt>
<rscale>  0 0.12378102E+04</rscale>
<asrwt>0</asrwt>
<pdfrwt beam="1">  1        2 0.11610745E+00 0.12378102E+04</pdfrwt>
<pdfrwt beam="2">  1       -1 0.78083873E-01 0.12378102E+04</pdfrwt>
<totfact> 0.68694484E+01</totfact>
</mgrwt>
</event>
<event>
12    6  0.1647231E-007  0.1404663E+04  0.7818608E-02  0.8950450E-01
          2   -1    0    0  501    0  0.00000000000E+00  0.00000000000E+00  0.79461596667E+03  0.79461596667E+03  0.00000000000E+00 0. -1.
         -1   -1    0    0    0  501 -0.00000000000E+00 -0.00000000000E+00 -0.62076457152E+03  0.62076457152E+03  0.00000000000E+00 0.  1.
         24    2    1    2    0    0  0.22319877653E+03 -0.34420048610E+03  0.88511447860E+02  0.42735199780E+03  0.80646048559E+02 0.  0.
        254    2    1    2    0    0 -0.22319877653E+03  0.34420048610E+03  0.85339947291E+02  0.98802854039E+03  0.89477696749E+03 0.  0.
         23    2    4    4    0    0  0.33922171938E+03  0.14490157968E+03  0.24607450765E+02  0.38070075308E+03  0.90882859065E+02 0.  0.
         23    2    4    4    0    0 -0.56242049591E+03  0.19929890642E+03  0.60732496526E+02  0.60732778731E+03  0.95507783904E+02 0.  0.
          4    1    3    3  502    0  0.13018706853E+03 -0.24796816202E+03  0.87830874219E+02  0.29351515234E+03  0.00000000000E+00 0. -1.
         -3    1    3    3    0  502  0.93011707996E+02 -0.96232324081E+02  0.68057364113E+00  0.13383684546E+03  0.00000000000E+00 0.  1.
         11    1    5    5    0    0  0.30609445278E+02  0.47066975577E+02  0.25970224282E+01  0.56204829469E+02  0.00000000000E+00 0.  1.
        -11    1    5    5    0    0  0.30861227410E+03  0.97834604105E+02  0.22010428337E+02  0.32449592361E+03  0.00000000000E+00 0. -1.
          1    1    6    6  503    0 -0.44452639255E+03  0.19075227737E+03  0.27336058045E+02  0.48449706404E+03  0.00000000000E+00 0. -1.
         -1    1    6    6    0  503 -0.11789410336E+03  0.85466290421E+01  0.33396438481E+02  0.12283072327E+03  0.00000000000E+00 0.  1.
<mgrwt>
<rscale>  0 0.14046629E+04</rscale>
<asrwt>0</asrwt>
<pdfrwt beam="1">  1        2 0.12224861E+00 0.14046629E+04</pdfrwt>
<pdfrwt beam="2">  1       -1 0.95502241E-01 0.14046629E+04</pdfrwt>
<totfact> 0.40872941E+01</totfact>
</mgrwt>
</event>
<event>
12    6  0.1647231E-007  0.1434343E+04  0.7818608E-02  0.8929328E-01
          2   -1    0    0  501    0  0.00000000000E+00  0.00000000000E+00  0.83747626537E+03  0.83747626537E+03  0.00000000000E+00 0. -1.
         -1   -1    0    0    0  501 -0.00000000000E+00 -0.00000000000E+00 -0.61414859566E+03  0.61414859566E+03  0.00000000000E+00 0.  1.
         24    2    1    2    0    0 -0.12506256746E+03  0.37380840206E+03  0.21683016424E+03  0.45586081202E+03  0.73623315471E+02 0.  0.
        254    2    1    2    0    0  0.12506256746E+03 -0.37380840206E+03  0.64975054613E+01  0.99576404901E+03  0.91440169318E+03 0.  0.
         23    2    4    4    0    0  0.13920016356E+03 -0.42672396007E+03  0.38785101739E+03  0.59983021249E+03  0.88869840120E+02 0.  0.
         23    2    4    4    0    0 -0.14137596096E+02  0.52915558013E+02 -0.38135351193E+03  0.39593383652E+03  0.91286219841E+02 0.  0.
          2    1    3    3  502    0 -0.20350164913E+02  0.14322203484E+03  0.10643340916E+03  0.17959607752E+03  0.00000000000E+00 0. -1.
         -1    1    3    3    0  502 -0.10471240255E+03  0.23058636723E+03  0.11039675508E+03  0.27626473451E+03  0.00000000000E+00 0.  1.
         11    1    5    5    0    0  0.71514115154E+02 -0.31103854277E+03  0.30949810061E+03  0.44457656038E+03  0.00000000000E+00 0. -1.
        -11    1    5    5    0    0  0.67686048407E+02 -0.11568541730E+03  0.78352916788E+02  0.15525365211E+03  0.00000000000E+00 0.  1.
          2    1    6    6  503    0 -0.33930505871E+02  0.55969601521E+02 -0.36272317485E+03  0.36858103193E+03  0.00000000000E+00 0. -1.
         -2    1    6    6    0  503  0.19792909774E+02 -0.30540435076E+01 -0.18630337078E+02  0.27352804586E+02  0.00000000000E+00 0.  1.
<mgrwt>
<rscale>  0 0.14343429E+04</rscale>
<asrwt>0</asrwt>
<pdfrwt beam="1">  1        2 0.12884250E+00 0.14343429E+04</pdfrwt>
<pdfrwt beam="2">  1       -1 0.94484400E-01 0.14343429E+04</pdfrwt>
<totfact> 0.38923655E+01</totfact>
</mgrwt>
</event>
<event>
12    6  0.1647231E-007  0.1765315E+04  0.7818608E-02  0.8724965E-01
         -1   -1    0    0    0  501 -0.00000000000E+00  0.00000000000E+00  0.26898866355E+03  0.26898866355E+03  0.00000000000E+00 0.  1.
          2   -1    0    0  501    0  0.00000000000E+00 -0.00000000000E+00 -0.28963461572E+04  0.28963461572E+04  0.00000000000E+00 0. -1.
         24    2    1    2    0    0  0.32055620775E+03  0.49889233438E+03 -0.62073636254E+03  0.86220685672E+03  0.80232090673E+02 0.  0.
        254    2    1    2    0    0 -0.32055620775E+03 -0.49889233438E+03 -0.20066211312E+04  0.23031279641E+04  0.96240335165E+03 0.  0.
         23    2    4    4    0    0  0.11390455178E+03 -0.49211955264E+03 -0.44185294482E+03  0.67655926030E+03  0.85688428888E+02 0.  0.
         23    2    4    4    0    0 -0.43446075953E+03 -0.67727817349E+01 -0.15647681863E+04  0.16265687038E+04  0.91783707575E+02 0.  0.
          2    1    3    3  502    0  0.21326469327E+03  0.28041911561E+03 -0.32633808562E+03  0.48022209021E+03  0.00000000000E+00 0. -1.
         -1    1    3    3    0  502  0.10729151447E+03  0.21847321877E+03 -0.29439827691E+03  0.38198476651E+03  0.00000000000E+00 0.  1.
         11    1    5    5    0    0  0.10769236903E+03 -0.40476620230E+03 -0.32299187312E+03  0.52892066983E+03  0.00000000000E+00 0. -1.
        -11    1    5    5    0    0  0.62121827473E+01 -0.87353350345E+02 -0.11886107171E+03  0.14763859048E+03  0.00000000000E+00 0.  1.
          1    1    6    6  503    0 -0.36994851447E+03 -0.34715027277E+02 -0.12507514245E+04  0.13047782043E+04  0.00000000000E+00 0. -1.
         -1    1    6    6    0  503 -0.64512245061E+02  0.27942245542E+02 -0.31401676184E+03  0.32179049950E+03  0.00000000000E+00 0.  1.
<mgrwt>
<rscale>  0 0.17653150E+04</rscale>
<asrwt>0</asrwt>
<pdfrwt beam="1">  1        2 0.44559172E+00 0.17653150E+04</pdfrwt>
<pdfrwt beam="2">  1       -1 0.41382871E-01 0.17653150E+04</pdfrwt>
<totfact> 0.12498002E+01</totfact>
</mgrwt>
</event>
<event>
12    6  0.1647231E-007  0.2546540E+04  0.7818608E-02  0.8386591E-01
         -1   -1    0    0    0  501 -0.00000000000E+00  0.00000000000E+00  0.96416307690E+03  0.96416307690E+03  0.00000000000E+00 0.  1.
          2   -1    0    0  501    0  0.00000000000E+00 -0.00000000000E+00 -0.16814750977E+04  0.16814750977E+04  0.00000000000E+00 0. -1.
         24    2    1    2    0    0 -0.68558385234E+03  0.63708392552E+03  0.31093600821E+03  0.98907399257E+03  0.75399037390E+02 0.  0.
        254    2    1    2    0    0  0.68558385234E+03 -0.63708392552E+03 -0.10282480290E+04  0.16565641820E+04  0.90056078817E+03 0.  0.
         23    2    4    4    0    0  0.48193436786E+03 -0.20283465954E+03 -0.10422806373E+04  0.11693462106E+04  0.87286879130E+02 0.  0.
         23    2    4    4    0    0  0.20364948448E+03 -0.43424926598E+03  0.14032608326E+02  0.48721797141E+03  0.84492011630E+02 0.  0.
          2    1    3    3  502    0 -0.65578507218E+02  0.88330623629E+02  0.50993533659E+02  0.12125667056E+03  0.00000000000E+00 0. -1.
         -1    1    3    3    0  502 -0.62000534513E+03  0.54875330189E+03  0.25994247455E+03  0.86781732202E+03  0.00000000000E+00 0.  1.
         11    1    5    5    0    0  0.26707460402E+03 -0.12721015550E+03 -0.67781240891E+03  0.73955454799E+03  0.00000000000E+00 0. -1.
        -11    1    5    5    0    0  0.21485976384E+03 -0.75624504039E+02 -0.36446822839E+03  0.42979166259E+03  0.00000000000E+00 0.  1.
          1    1    6    6  503    0  0.15988586507E+03 -0.24349369998E+03  0.98978302637E+01  0.29146292873E+03  0.00000000000E+00 0. -1.
         -1    1    6    6    0  503  0.43763619418E+02 -0.19075556600E+03  0.41347780624E+01  0.19575504268E+03  0.00000000000E+00 0.  1.
<mgrwt>
<rscale>  0 0.25465398E+04</rscale>
<asrwt>0</asrwt>
<pdfrwt beam="1">  1        2 0.25868848E+00 0.25465398E+04</pdfrwt>
<pdfrwt beam="2">  1       -1 0.14833278E+00 0.25465398E+04</pdfrwt>
<totfact> 0.36527510E+00</totfact>
</mgrwt>
</event>
<event>
12    6  0.1647231E-007  0.1802007E+04  0.7818608E-02  0.8705233E-01
         -1   -1    0    0    0  501 -0.00000000000E+00  0.00000000000E+00  0.39828514840E+03  0.39828514840E+03  0.00000000000E+00 0.  1.
          2   -1    0    0  501    0  0.00000000000E+00 -0.00000000000E+00 -0.20382565414E+04  0.20382565414E+04  0.00000000000E+00 0. -1.
         24    2    1    2    0    0 -0.15013112295E+03 -0.65025807140E+03 -0.75182474842E+03  0.10083970149E+04  0.79051715756E+02 0.  0.
        254    2    1    2    0    0  0.15013112295E+03  0.65025807140E+03 -0.88814664457E+03  0.14281446749E+04  0.89745074336E+03 0.  0.
         23    2    4    4    0    0 -0.19113586491E+03  0.69384866658E+03 -0.41532364953E+03  0.83589880592E+03  0.90962568748E+02 0.  0.
         23    2    4    4    0    0  0.34126698786E+03 -0.43590595184E+02 -0.47282299504E+03  0.59224586900E+03  0.93969610615E+02 0.  0.
          4    1    3    3  502    0 -0.10091292272E+03 -0.55091179740E+03 -0.60550759815E+03  0.82481917891E+03  0.00000000000E+00 0. -1.
         -3    1    3    3    0  502 -0.49218200227E+02 -0.99346273997E+02 -0.14631715027E+03  0.18357783595E+03  0.00000000000E+00 0.  1.
         11    1    5    5    0    0 -0.14492061235E+03  0.60547665940E+03 -0.32987838532E+03  0.70457342986E+03  0.00000000000E+00 0.  1.
        -11    1    5    5    0    0 -0.46215252554E+02  0.88372007178E+02 -0.85445264210E+02  0.13132537606E+03  0.00000000000E+00 0. -1.
          1    1    6    6  503    0  0.55933190139E+02 -0.42811525211E+02 -0.77806329650E+02  0.10495319616E+03  0.00000000000E+00 0. -1.
         -1    1    6    6    0  503  0.28533379772E+03 -0.77906997313E+00 -0.39501666539E+03  0.48729267284E+03  0.00000000000E+00 0.  1.
<mgrwt>
<rscale>  0 0.18020070E+04</rscale>
<asrwt>0</asrwt>
<pdfrwt beam="1">  1        2 0.31357793E+00 0.18020070E+04</pdfrwt>
<pdfrwt beam="2">  1       -1 0.61274638E-01 0.18020070E+04</pdfrwt>
<totfact> 0.18472401E+01</totfact>
</mgrwt>
</event>
<event>
12    6  0.1647231E-007  0.2187553E+04  0.7818608E-02  0.8523627E-01
         -1   -1    0    0    0  501 -0.00000000000E+00  0.00000000000E+00  0.39704884403E+03  0.39704884403E+03  0.00000000000E+00 0.  1.
          2   -1    0    0  501    0  0.00000000000E+00 -0.00000000000E+00 -0.30130972249E+04  0.30130972249E+04  0.00000000000E+00 0. -1.
         24    2    1    2    0    0 -0.77593286420E+01 -0.10915736446E+03  0.31398233450E+03  0.34173496873E+03  0.78881842482E+02 0.  0.
        254    2    1    2    0    0  0.77593286420E+01  0.10915736446E+03 -0.29300307154E+04  0.30684111003E+04  0.90448391333E+03 0.  0.
         23    2    4    4    0    0 -0.22464077384E+03 -0.14382364678E+03 -0.29236929510E+03  0.40690045173E+03  0.94548687227E+02 0.  0.
         23    2    4    4    0    0  0.23240010249E+03  0.25298101124E+03 -0.26376614203E+04  0.26615106485E+04  0.91498438755E+02 0.  0.
          2    1    3    3  502    0  0.27960671267E+02 -0.14325194202E+02  0.50952712345E+02  0.59859746257E+02  0.00000000000E+00 0. -1.
         -1    1    3    3    0  502 -0.35719999909E+02 -0.94832170262E+02  0.26302962216E+03  0.28187522247E+03  0.00000000000E+00 0.  1.
         11    1    5    5    0    0 -0.10650252055E+03 -0.12046963820E+03 -0.14437818194E+03  0.21610363263E+03  0.00000000000E+00 0. -1.
        -11    1    5    5    0    0 -0.11813825329E+03 -0.23354008573E+02 -0.14799111316E+03  0.19079681911E+03  0.00000000000E+00 0.  1.
          3    1    6    6  503    0  0.14080013205E+03  0.18567760253E+03 -0.20279586152E+04  0.20413027688E+04  0.00000000000E+00 0. -1.
         -3    1    6    6    0  503  0.91599970431E+02  0.67303408707E+02 -0.60970280514E+03  0.62020787967E+03  0.00000000000E+00 0.  1.
<mgrwt>
<rscale>  0 0.21875528E+04</rscale>
<asrwt>0</asrwt>
<pdfrwt beam="1">  1        2 0.46355343E+00 0.21875528E+04</pdfrwt>
<pdfrwt beam="2">  1       -1 0.61084436E-01 0.21875528E+04</pdfrwt>
<totfact> 0.48413111E+00</totfact>
</mgrwt>
</event>
<event>
12    6  0.1647231E-007  0.2245743E+04  0.7818608E-02  0.8499626E-01
         -1   -1    0    0    0  501 -0.00000000000E+00  0.00000000000E+00  0.10474485706E+04  0.10474485706E+04  0.00000000000E+00 0.  1.
          2   -1    0    0  501    0  0.00000000000E+00 -0.00000000000E+00 -0.12037257596E+04  0.12037257596E+04  0.00000000000E+00 0. -1.
         24    2    1    2    0    0  0.46153057587E+02  0.29539361339E+02 -0.10060042460E+04  0.10105800614E+04  0.78897647459E+02 0.  0.
        254    2    1    2    0    0 -0.46153057587E+02 -0.29539361339E+02  0.84972705706E+03  0.12405942689E+04  0.90223909794E+03 0.  0.
         23    2    4    4    0    0 -0.26928690420E+02 -0.33155850334E+03  0.85749252169E+03  0.92423470451E+03  0.90885470526E+02 0.  0.
         23    2    4    4    0    0 -0.19224367166E+02  0.30201914201E+03 -0.77654646369E+01  0.31635956436E+03  0.91858222755E+02 0.  0.
          4    1    3    3  502    0  0.48941084587E+02  0.45649894693E+02 -0.94671655527E+03  0.94907922676E+03  0.00000000000E+00 0. -1.
         -3    1    3    3    0  502 -0.27880270008E+01 -0.16110533354E+02 -0.59287690757E+02  0.61500834586E+02  0.00000000000E+00 0.  1.
         11    1    5    5    0    0 -0.18340692726E+02 -0.18934776011E+02  0.12538597730E+03  0.12812708557E+03  0.00000000000E+00 0.  1.
        -11    1    5    5    0    0 -0.85879976947E+01 -0.31262372733E+03  0.73210654439E+03  0.79610761894E+03  0.00000000000E+00 0. -1.
          4    1    6    6  503    0 -0.53976115074E+02  0.14314866052E+03  0.63709720785E+01  0.15311939555E+03  0.00000000000E+00 0. -1.
         -4    1    6    6    0  503  0.34751747908E+02  0.15887048148E+03 -0.14136436715E+02  0.16324016881E+03  0.00000000000E+00 0.  1.
<mgrwt>
<rscale>  0 0.22457434E+04</rscale>
<asrwt>0</asrwt>
<pdfrwt beam="1">  1        2 0.18518858E+00 0.22457434E+04</pdfrwt>
<pdfrwt beam="2">  1       -1 0.16114594E+00 0.22457434E+04</pdfrwt>
<totfact> 0.56037274E+00</totfact>
</mgrwt>
</event>
<event>
12    6  0.1647231E-007  0.1750900E+04  0.7818608E-02  0.8732855E-01
          2   -1    0    0  501    0  0.00000000000E+00  0.00000000000E+00  0.26754909425E+04  0.26754909425E+04  0.00000000000E+00 0. -1.
         -1   -1    0    0    0  501 -0.00000000000E+00 -0.00000000000E+00 -0.28645694063E+03  0.28645694063E+03  0.00000000000E+00 0.  1.
         24    2    1    2    0    0  0.10578016462E+03  0.99543773820E+02 -0.17472139946E+03  0.24073831814E+03  0.79554787765E+02 0.  0.
        254    2    1    2    0    0 -0.10578016462E+03 -0.99543773820E+02  0.25637554014E+04  0.27212095650E+04  0.90057833232E+03 0.  0.
         23    2    4    4    0    0  0.28953095372E+03  0.31610779444E+02  0.34482837825E+03  0.46168896567E+03  0.97070469427E+02 0.  0.
         23    2    4    4    0    0 -0.39531111834E+03 -0.13115455326E+03  0.22189270231E+04  0.22595205994E+04  0.91234904963E+02 0.  0.
          4    1    3    3  502    0  0.37060935221E+02  0.88403408796E+02 -0.96338028075E+02  0.13590324227E+03  0.00000000000E+00 0. -1.
         -3    1    3    3    0  502  0.68719229399E+02  0.11140365024E+02 -0.78383371386E+02  0.10483507587E+03  0.00000000000E+00 0.  1.
         11    1    5    5    0    0  0.11704119605E+03  0.58177987634E+02  0.17247945497E+03  0.21640813803E+03  0.00000000000E+00 0.  1.
        -11    1    5    5    0    0  0.17248975768E+03 -0.26567208190E+02  0.17234892328E+03  0.24528082764E+03  0.00000000000E+00 0. -1.
          1    1    6    6  503    0 -0.38806363479E+03 -0.12758845348E+03  0.22101830691E+04  0.22476168261E+04  0.00000000000E+00 0. -1.
         -1    1    6    6    0  503 -0.72474835496E+01 -0.35660997855E+01  0.87439540060E+01  0.11903773231E+02  0.00000000000E+00 0.  1.
<mgrwt>
<rscale>  0 0.17509003E+04</rscale>
<asrwt>0</asrwt>
<pdfrwt beam="1">  1        2 0.41161398E+00 0.17509003E+04</pdfrwt>
<pdfrwt beam="2">  1       -1 0.44070300E-01 0.17509003E+04</pdfrwt>
<totfact> 0.15124063E+01</totfact>
</mgrwt>
</event>
<event>
12    6  0.1647231E-007  0.2944283E+04  0.7818608E-02  0.8259823E-01
         -1   -1    0    0    0  501 -0.00000000000E+00  0.00000000000E+00  0.56803917418E+03  0.56803917418E+03  0.00000000000E+00 0.  1.
          2   -1    0    0  501    0  0.00000000000E+00 -0.00000000000E+00 -0.38152302149E+04  0.38152302149E+04  0.00000000000E+00 0. -1.
         24    2    1    2    0    0 -0.42125804402E+02 -0.49811412527E+02  0.51173676831E+03  0.52289474249E+03  0.85373482187E+02 0.  0.
        254    2    1    2    0    0  0.42125804402E+02  0.49811412527E+02 -0.37589278091E+04  0.38603746466E+04  0.87675445730E+03 0.  0.
         23    2    4    4    0    0  0.31003291402E+03 -0.27914143199E+03 -0.14686025244E+04  0.15293242167E+04  0.89436223560E+02 0.  0.
         23    2    4    4    0    0 -0.26790710962E+03  0.32895284451E+03 -0.22903252847E+04  0.23310504300E+04  0.90675268535E+02 0.  0.
          2    1    3    3  502    0 -0.44876426675E+02  0.11221400098E+02  0.23127716402E+03  0.23585788112E+03  0.00000000000E+00 0. -1.
         -1    1    3    3    0  502  0.27506222722E+01 -0.61032812625E+02  0.28045960429E+03  0.28703686136E+03  0.00000000000E+00 0.  1.
         11    1    5    5    0    0  0.24621425037E+03 -0.19440487117E+03 -0.96650801820E+03  0.10161458853E+04  0.00000000000E+00 0.  1.
        -11    1    5    5    0    0  0.63818663654E+02 -0.84736560818E+02 -0.50209450622E+03  0.51317833133E+03  0.00000000000E+00 0. -1.
          2    1    6    6  503    0 -0.47010210240E+02  0.63949319690E+02 -0.26787672674E+03  0.27938757324E+03  0.00000000000E+00 0. -1.
         -2    1    6    6    0  503 -0.22089689938E+03  0.26500352482E+03 -0.20224485579E+04  0.20516628567E+04  0.00000000000E+00 0.  1.
<mgrwt>
<rscale>  0 0.29442827E+04</rscale>
<asrwt>0</asrwt>
<pdfrwt beam="1">  1        2 0.58695850E+00 0.29442827E+04</pdfrwt>
<pdfrwt beam="2">  1       -1 0.87390641E-01 0.29442827E+04</pdfrwt>
<totfact> 0.60179682E-01</totfact>
</mgrwt>
</event>
<event>
12    6  0.1647231E-007  0.1842281E+04  0.7818608E-02  0.8684133E-01
          2   -1    0    0  501    0  0.00000000000E+00  0.00000000000E+00  0.23563857378E+04  0.23563857378E+04  0.00000000000E+00 0. -1.
         -1   -1    0    0    0  501 -0.00000000000E+00 -0.00000000000E+00 -0.36008519180E+03  0.36008519180E+03  0.00000000000E+00 0.  1.
         24    2    1    2    0    0 -0.28410195086E+03  0.31335179761E+03 -0.54703419024E+02  0.43470572597E+03  0.84103130675E+02 0.  0.
        254    2    1    2    0    0  0.28410195086E+03 -0.31335179761E+03  0.20510039650E+04  0.22817652036E+04  0.90605293025E+03 0.  0.
         23    2    4    4    0    0  0.36616346072E+03 -0.30967697976E+03  0.20956325170E+04  0.21517885591E+04  0.92427513538E+02 0.  0.
         23    2    4    4    0    0 -0.82061509854E+02 -0.36748178537E+01 -0.44628551977E+02  0.12997664448E+03  0.90302961039E+02 0.  0.
          2    1    3    3  502    0 -0.91897095397E+01  0.39199929915E+02  0.90277599149E+01  0.41262400753E+02  0.00000000000E+00 0. -1.
         -1    1    3    3    0  502 -0.27491224132E+03  0.27415186769E+03 -0.63731178939E+02  0.39344332522E+03  0.00000000000E+00 0.  1.
         11    1    5    5    0    0  0.85453274798E+02 -0.48378464182E+02  0.30011777393E+03  0.31577431213E+03  0.00000000000E+00 0. -1.
        -11    1    5    5    0    0  0.28071018592E+03 -0.26129851557E+03  0.17955147430E+04  0.18360142470E+04  0.00000000000E+00 0.  1.
          1    1    6    6  503    0 -0.34214814201E+02  0.36326996060E+02  0.51678172563E+01  0.50169816512E+02  0.00000000000E+00 0. -1.
         -1    1    6    6    0  503 -0.47846695652E+02 -0.40001813914E+02 -0.49796369233E+02  0.79806827966E+02  0.00000000000E+00 0.  1.
<mgrwt>
<rscale>  0 0.18422808E+04</rscale>
<asrwt>0</asrwt>
<pdfrwt beam="1">  1        2 0.36252087E+00 0.18422808E+04</pdfrwt>
<pdfrwt beam="2">  1       -1 0.55397723E-01 0.18422808E+04</pdfrwt>
<totfact> 0.14869482E+01</totfact>
</mgrwt>
</event>
<event>
12    6  0.1647231E-007  0.1580921E+04  0.7818608E-02  0.8832356E-01
          2   -1    0    0  501    0  0.00000000000E+00  0.00000000000E+00  0.73307963377E+03  0.73307963377E+03  0.00000000000E+00 0. -1.
         -1   -1    0    0    0  501 -0.00000000000E+00 -0.00000000000E+00 -0.85233257746E+03  0.85233257746E+03  0.00000000000E+00 0.  1.
         24    2    1    2    0    0  0.20555121790E+03 -0.48429140723E+03  0.44024390397E+02  0.53373835626E+03  0.78415659816E+02 0.  0.
        254    2    1    2    0    0 -0.20555121790E+03  0.48429140723E+03 -0.16327733408E+03  0.10516738550E+04  0.89586212058E+03 0.  0.
         23    2    4    4    0    0  0.24370512637E+03  0.29954953394E+03 -0.34404414919E+03  0.52522074620E+03  0.91478651900E+02 0.  0.
         23    2    4    4    0    0 -0.44925634426E+03  0.18474187329E+03  0.18076681511E+03  0.52645310876E+03  0.92278988245E+02 0.  0.
          2    1    3    3  502    0  0.82880920574E+02 -0.29243852970E+03  0.17149539164E+02  0.30443989118E+03  0.00000000000E+00 0. -1.
         -1    1    3    3    0  502  0.12267029732E+03 -0.19185287752E+03  0.26874851233E+02  0.22929846508E+03  0.00000000000E+00 0.  1.
         11    1    5    5    0    0  0.10499079026E+03  0.89139921601E+02 -0.75999127710E+02  0.15730498744E+03  0.00000000000E+00 0.  1.
        -11    1    5    5    0    0  0.13871433611E+03  0.21040961234E+03 -0.26804502148E+03  0.36791575876E+03  0.00000000000E+00 0. -1.
          3    1    6    6  503    0 -0.63576746027E+01  0.95612471613E+01  0.21270577870E+02  0.24171780169E+02  0.00000000000E+00 0. -1.
         -3    1    6    6    0  503 -0.44289866966E+03  0.17518062613E+03  0.15949623724E+03  0.50228132859E+03  0.00000000000E+00 0.  1.
<mgrwt>
<rscale>  0 0.15809208E+04</rscale>
<asrwt>0</asrwt>
<pdfrwt beam="1">  1        2 0.11278148E+00 0.15809208E+04</pdfrwt>
<pdfrwt beam="2">  1       -1 0.13112809E+00 0.15809208E+04</pdfrwt>
<totfact> 0.21020246E+01</totfact>
</mgrwt>
</event>
<event>
12    6  0.1647231E-007  0.1965820E+04  0.7818608E-02  0.8622770E-01
          2   -1    0    0  501    0  0.00000000000E+00  0.00000000000E+00  0.72998017546E+03  0.72998017546E+03  0.00000000000E+00 0. -1.
         -1   -1    0    0    0  501 -0.00000000000E+00 -0.00000000000E+00 -0.13234769595E+04  0.13234769595E+04  0.00000000000E+00 0.  1.
         24    2    1    2    0    0 -0.22077640359E+03  0.74524468839E+02  0.53946508479E+03  0.59341761512E+03  0.82618226718E+02 0.  0.
        254    2    1    2    0    0  0.22077640359E+03 -0.74524468839E+02 -0.11329618689E+04  0.14600395199E+04  0.89096390861E+03 0.  0.
         23    2    4    4    0    0  0.23907703795E+03  0.34617409018E+03 -0.82281140283E+03  0.92843943281E+03  0.89369150062E+02 0.  0.
         23    2    4    4    0    0 -0.18300634362E+02 -0.42069855902E+03 -0.31015046605E+03  0.53160008707E+03  0.95305562294E+02 0.  0.
          4    1    3    3  502    0 -0.11843085340E+03  0.30287988911E+01  0.21031747704E+03  0.24138865302E+03  0.00000000000E+00 0. -1.
         -3    1    3    3    0  502 -0.10234555018E+03  0.71495669948E+02  0.32914760775E+03  0.35202896210E+03  0.00000000000E+00 0.  1.
         11    1    5    5    0    0  0.62140324998E+02  0.64459863021E+02 -0.25610820837E+03  0.27130777417E+03  0.00000000000E+00 0. -1.
        -11    1    5    5    0    0  0.17693671295E+03  0.28171422716E+03 -0.56670319447E+03  0.65713165864E+03  0.00000000000E+00 0.  1.
          1    1    6    6  503    0 -0.88024977205E+01 -0.38971399952E+03 -0.24946587843E+03  0.46280418093E+03  0.00000000000E+00 0. -1.
         -1    1    6    6    0  503 -0.94981366417E+01 -0.30984559503E+02 -0.60684587620E+02  0.68795906142E+02  0.00000000000E+00 0.  1.
<mgrwt>
<rscale>  0 0.19658199E+04</rscale>
<asrwt>0</asrwt>
<pdfrwt beam="1">  1        2 0.11230464E+00 0.19658199E+04</pdfrwt>
<pdfrwt beam="2">  1       -1 0.20361184E+00 0.19658199E+04</pdfrwt>
<totfact> 0.58693408E+00</totfact>
</mgrwt>
</event>
<event>
12    6  0.1647231E-007  0.2694464E+04  0.7818608E-02  0.8336804E-01
         -1   -1    0    0    0  501 -0.00000000000E+00  0.00000000000E+00  0.84845654056E+03  0.84845654056E+03  0.00000000000E+00 0.  1.
          2   -1    0    0  501    0  0.00000000000E+00 -0.00000000000E+00 -0.21392181143E+04  0.21392181143E+04  0.00000000000E+00 0. -1.
         24    2    1    2    0    0 -0.91804351203E+03 -0.44461745348E+03 -0.12621578171E+04  0.16248021440E+04  0.80318627471E+02 0.  0.
        254    2    1    2    0    0  0.91804351203E+03  0.44461745348E+03 -0.28603756707E+02  0.13628725109E+04  0.90339068859E+03 0.  0.
         23    2    4    4    0    0  0.73547659814E+03 -0.10449870841E+03 -0.15255854581E+03  0.76392488426E+03  0.91985392492E+02 0.  0.
         23    2    4    4    0    0  0.18256691389E+03  0.54911616189E+03  0.12395478910E+03  0.59894762666E+03  0.92272598591E+02 0.  0.
          4    1    3    3  502    0 -0.55063436280E+03 -0.28311395449E+03 -0.82277596736E+03  0.10297145261E+04  0.00000000000E+00 0. -1.
         -3    1    3    3    0  502 -0.36740914922E+03 -0.16150349899E+03 -0.43938184973E+03  0.59508761791E+03  0.00000000000E+00 0.  1.
         11    1    5    5    0    0  0.16211799724E+03  0.14321944965E+02 -0.41291269671E+02  0.16790572381E+03  0.00000000000E+00 0. -1.
        -11    1    5    5    0    0  0.57335860090E+03 -0.11882065337E+03 -0.11126727614E+03  0.59601916046E+03  0.00000000000E+00 0.  1.
          3    1    6    6  503    0 -0.25314503860E+01  0.98293820600E+02  0.28166471136E+02  0.10228114932E+03  0.00000000000E+00 0. -1.
         -3    1    6    6    0  503  0.18509836427E+03  0.45082234129E+03  0.95788317964E+02  0.49666647735E+03  0.00000000000E+00 0.  1.
<mgrwt>
<rscale>  0 0.26944637E+04</rscale>
<asrwt>0</asrwt>
<pdfrwt beam="1">  1        2 0.32911048E+00 0.26944637E+04</pdfrwt>
<pdfrwt beam="2">  1       -1 0.13053178E+00 0.26944637E+04</pdfrwt>
<totfact> 0.27989332E+00</totfact>
</mgrwt>
</event>
<event>
12    6  0.1647231E-007  0.1971166E+04  0.7818608E-02  0.8620221E-01
         -1   -1    0    0    0  501 -0.00000000000E+00  0.00000000000E+00  0.34938215627E+03  0.34938215627E+03  0.00000000000E+00 0.  1.
          2   -1    0    0  501    0  0.00000000000E+00 -0.00000000000E+00 -0.27802620369E+04  0.27802620369E+04  0.00000000000E+00 0. -1.
         24    2    1    2    0    0 -0.12316594750E+03  0.45066979419E+03  0.22088157927E+02  0.47442214270E+03  0.79469294330E+02 0.  0.
        254    2    1    2    0    0  0.12316594750E+03 -0.45066979419E+03 -0.24529680385E+04  0.26552220505E+04  0.90270638922E+03 0.  0.
         23    2    4    4    0    0 -0.14104178315E+03  0.22744520090E+03 -0.67666545104E+03  0.73348728453E+03  0.92213664527E+02 0.  0.
         23    2    4    4    0    0  0.26420773065E+03 -0.67811499509E+03 -0.17763025875E+04  0.19217347659E+04  0.90376748775E+02 0.  0.
          4    1    3    3  502    0 -0.40289579310E+02  0.15492603196E+03 -0.30096724687E+02  0.16288381877E+03  0.00000000000E+00 0. -1.
         -3    1    3    3    0  502 -0.82876368193E+02  0.29574376223E+03  0.52184882613E+02  0.31153832393E+03  0.00000000000E+00 0.  1.
         11    1    5    5    0    0 -0.10897386915E+03  0.18328678602E+03 -0.41937765859E+03  0.47047526036E+03  0.00000000000E+00 0.  1.
        -11    1    5    5    0    0 -0.32067913997E+02  0.44158414887E+02 -0.25728779245E+03  0.26301202416E+03  0.00000000000E+00 0. -1.
          2    1    6    6  503    0  0.26039951026E+03 -0.66278037428E+03 -0.17618712938E+04  0.19003358086E+04  0.00000000000E+00 0.  1.
         -2    1    6    6    0  503  0.38082203963E+01 -0.15334620810E+02 -0.14431293737E+02  0.21398957379E+02  0.00000000000E+00 0. -1.
<mgrwt>
<rscale>  0 0.19711661E+04</rscale>
<asrwt>0</asrwt>
<pdfrwt beam="1">  1        2 0.42773263E+00 0.19711661E+04</pdfrwt>
<pdfrwt beam="2">  1       -1 0.53751100E-01 0.19711661E+04</pdfrwt>
<totfact> 0.88148993E+00</totfact>
</mgrwt>
</event>
<event>
12    6  0.1647231E-007  0.2195350E+04  0.7818608E-02  0.8520366E-01
         -1   -1    0    0    0  501 -0.00000000000E+00  0.00000000000E+00  0.61330402433E+03  0.61330402433E+03  0.00000000000E+00 0.  1.
          2   -1    0    0  501    0  0.00000000000E+00 -0.00000000000E+00 -0.19645892609E+04  0.19645892609E+04  0.00000000000E+00 0. -1.
         24    2    1    2    0    0  0.57374491148E+03  0.69258250022E+03 -0.40875572586E+03  0.99109404687E+03  0.79576524571E+02 0.  0.
        254    2    1    2    0    0 -0.57374491148E+03 -0.69258250022E+03 -0.94252951071E+03  0.15867992384E+04  0.90593388348E+03 0.  0.
         23    2    4    4    0    0  0.92354786519E+02 -0.77181639428E+02  0.11695479361E+03  0.18919517196E+03  0.87349741197E+02 0.  0.
         23    2    4    4    0    0 -0.66609969800E+03 -0.61540086079E+03 -0.10594843043E+04  0.13976040664E+04  0.91559314929E+02 0.  0.
          2    1    3    3  502    0  0.56183814907E+03  0.67865722248E+03 -0.38603049523E+03  0.96190294449E+03  0.00000000000E+00 0. -1.
         -1    1    3    3    0  502  0.11906762414E+02  0.13925277742E+02 -0.22725230624E+02  0.29191102382E+02  0.00000000000E+00 0.  1.
         11    1    5    5    0    0  0.90806517379E+02 -0.55870800071E+02  0.47851240754E+02  0.11686364337E+03  0.00000000000E+00 0. -1.
        -11    1    5    5    0    0  0.15482691409E+01 -0.21310839357E+02  0.69103552860E+02  0.72331528598E+02  0.00000000000E+00 0.  1.
          1    1    6    6  503    0 -0.66166837551E+03 -0.59302351693E+03 -0.10290215041E+04  0.13595466843E+04  0.00000000000E+00 0. -1.
         -1    1    6    6    0  503 -0.44313224896E+01 -0.22377343863E+02 -0.30462800220E+02  0.38057382130E+02  0.00000000000E+00 0.  1.
<mgrwt>
<rscale>  0 0.21953501E+04</rscale>
<asrwt>0</asrwt>
<pdfrwt beam="1">  1        2 0.30224450E+00 0.21953501E+04</pdfrwt>
<pdfrwt beam="2">  1       -1 0.94354465E-01 0.21953501E+04</pdfrwt>
<totfact> 0.79114885E+00</totfact>
</mgrwt>
</event>
<event>
12    6  0.1647231E-007  0.3686393E+04  0.7818608E-02  0.8070984E-01
         -1   -1    0    0    0  501 -0.00000000000E+00  0.00000000000E+00  0.21365520699E+04  0.21365520699E+04  0.00000000000E+00 0.  1.
          2   -1    0    0  501    0  0.00000000000E+00 -0.00000000000E+00 -0.15901194092E+04  0.15901194092E+04  0.00000000000E+00 0. -1.
         24    2    1    2    0    0 -0.97442977695E+03  0.12205598643E+04  0.10005912092E+04  0.18566569570E+04  0.81929942953E+02 0.  0.
        254    2    1    2    0    0  0.97442977695E+03 -0.12205598643E+04 -0.45415854847E+03  0.18700145221E+04  0.92272127588E+03 0.  0.
         23    2    4    4    0    0 -0.97924703167E+02 -0.45233225302E+03 -0.24319437007E+03  0.53113254960E+03  0.93619276810E+02 0.  0.
         23    2    4    4    0    0  0.10723544801E+04 -0.76822761131E+03 -0.21096417840E+03  0.13388819725E+04  0.89337885767E+02 0.  0.
          2    1    3    3  502    0 -0.50336686400E+03  0.63654973487E+03  0.47146257883E+03  0.93853648196E+03  0.00000000000E+00 0. -1.
         -1    1    3    3    0  502 -0.47106291295E+03  0.58401012946E+03  0.52912863036E+03  0.91812047507E+03  0.00000000000E+00 0.  1.
         11    1    5    5    0    0 -0.11371632350E+02 -0.22512437027E+03 -0.14994583284E+03  0.27072873674E+03  0.00000000000E+00 0.  1.
        -11    1    5    5    0    0 -0.86553070817E+02 -0.22720788276E+03 -0.93248537231E+02  0.26040381286E+03  0.00000000000E+00 0. -1.
          2    1    6    6  503    0  0.10427138355E+04 -0.72912824513E+03 -0.19452330194E+03  0.12871361449E+04  0.00000000000E+00 0.  1.
         -2    1    6    6    0  503  0.29640644609E+02 -0.39099366177E+02 -0.16440876455E+02  0.51745827531E+02  0.00000000000E+00 0. -1.
<mgrwt>
<rscale>  0 0.36863928E+04</rscale>
<asrwt>0</asrwt>
<pdfrwt beam="1">  1        2 0.24463375E+00 0.36863928E+04</pdfrwt>
<pdfrwt beam="2">  1       -1 0.32870032E+00 0.36863928E+04</pdfrwt>
<totfact> 0.22335402E-01</totfact>
</mgrwt>
</event>
<event>
12    6  0.1647231E-007  0.1778647E+04  0.7818608E-02  0.8717738E-01
         -1   -1    0    0    0  501 -0.00000000000E+00  0.00000000000E+00  0.58040326103E+03  0.58040326103E+03  0.00000000000E+00 0.  1.
          2   -1    0    0  501    0  0.00000000000E+00 -0.00000000000E+00 -0.13626663010E+04  0.13626663010E+04  0.00000000000E+00 0. -1.
         24    2    1    2    0    0  0.56614091566E+03 -0.17107944144E+03 -0.66378817897E+03  0.89261530702E+03  0.79772351786E+02 0.  0.
        254    2    1    2    0    0 -0.56614091566E+03  0.17107944144E+03 -0.11847486097E+03  0.10504542550E+04  0.86001984714E+03 0.  0.
         23    2    4    4    0    0 -0.58072760617E+03  0.36469309856E+03  0.14864015342E+03  0.70748166774E+03  0.90503073318E+02 0.  0.
         23    2    4    4    0    0  0.14586690508E+02 -0.19361365713E+03 -0.26711501439E+03  0.34297258725E+03  0.92632310389E+02 0.  0.
          4    1    3    3  502    0  0.54605137717E+03 -0.17572611674E+03 -0.65357537039E+03  0.86960481795E+03  0.00000000000E+00 0. -1.
         -3    1    3    3    0  502  0.20089538491E+02  0.46466753030E+01 -0.10212808582E+02  0.23010489071E+02  0.00000000000E+00 0.  1.
         11    1    5    5    0    0 -0.18296625425E+03  0.78987344613E+02  0.15069417865E+02  0.19985679412E+03  0.00000000000E+00 0.  1.
        -11    1    5    5    0    0 -0.39776135192E+03  0.28570575395E+03  0.13357073555E+03  0.50762487362E+03  0.00000000000E+00 0. -1.
          1    1    6    6  503    0  0.36329149630E+02 -0.10978135139E+03 -0.92578459901E+02  0.14813008967E+03  0.00000000000E+00 0. -1.
         -1    1    6    6    0  503 -0.21742459123E+02 -0.83832305734E+02 -0.17453655448E+03  0.19484249758E+03  0.00000000000E+00 0.  1.
<mgrwt>
<rscale>  0 0.17786466E+04</rscale>
<asrwt>0</asrwt>
<pdfrwt beam="1">  1        2 0.20964097E+00 0.17786466E+04</pdfrwt>
<pdfrwt beam="2">  1       -1 0.89292811E-01 0.17786466E+04</pdfrwt>
<totfact> 0.20144312E+01</totfact>
</mgrwt>
</event>
<event>
12    6  0.1647231E-007  0.2923334E+04  0.7818608E-02  0.8265969E-01
         -1   -1    0    0    0  501 -0.00000000000E+00  0.00000000000E+00  0.64528360299E+03  0.64528360299E+03  0.00000000000E+00 0.  1.
          2   -1    0    0  501    0  0.00000000000E+00 -0.00000000000E+00 -0.33109012711E+04  0.33109012711E+04  0.00000000000E+00 0. -1.
         24    2    1    2    0    0 -0.78515966091E+03 -0.10475592864E+04 -0.91006365852E+03  0.15964074021E+04  0.80278136863E+02 0.  0.
        254    2    1    2    0    0  0.78515966091E+03  0.10475592864E+04 -0.17555540095E+04  0.23597774720E+04  0.87904703244E+03 0.  0.
         23    2    4    4    0    0  0.26549353288E+03  0.52526567902E+03 -0.14305374671E+04  0.15496349711E+04  0.92413469201E+02 0.  0.
         23    2    4    4    0    0  0.51966612803E+03  0.52229360735E+03 -0.32501654246E+03  0.81014250090E+03  0.88609378687E+02 0.  0.
          2    1    3    3  502    0 -0.32664266571E+03 -0.49583905642E+03 -0.39106273231E+03  0.71097247593E+03  0.00000000000E+00 0. -1.
         -1    1    3    3    0  502 -0.45851699520E+03 -0.55172022995E+03 -0.51900092620E+03  0.88543492614E+03  0.00000000000E+00 0.  1.
         11    1    5    5    0    0  0.57953375483E+02  0.59574034414E+02 -0.15295180615E+03  0.17407445048E+03  0.00000000000E+00 0. -1.
        -11    1    5    5    0    0  0.20754015740E+03  0.46569164460E+03 -0.12775856609E+04  0.13755605206E+04  0.00000000000E+00 0.  1.
          3    1    6    6  503    0 -0.13332089675E+01  0.51487653005E+01  0.30001520598E+01  0.61064017763E+01  0.00000000000E+00 0. -1.
         -3    1    6    6    0  503  0.52099933699E+03  0.51714484205E+03 -0.32801669452E+03  0.80403609912E+03  0.00000000000E+00 0.  1.
<mgrwt>
<rscale>  0 0.29233339E+04</rscale>
<asrwt>0</asrwt>
<pdfrwt beam="1">  1        2 0.50936943E+00 0.29233339E+04</pdfrwt>
<pdfrwt beam="2">  1       -1 0.99274400E-01 0.29233339E+04</pdfrwt>
<totfact> 0.10383332E+00</totfact>
</mgrwt>
</event>
<event>
12    6  0.1647231E-007  0.2496054E+04  0.7818608E-02  0.8404393E-01
          2   -1    0    0  501    0  0.00000000000E+00  0.00000000000E+00  0.42365189839E+04  0.42365189839E+04  0.00000000000E+00 0. -1.
         -1   -1    0    0    0  501 -0.00000000000E+00 -0.00000000000E+00 -0.36765362752E+03  0.36765362752E+03  0.00000000000E+00 0.  1.
         24    2    1    2    0    0 -0.10658957559E+04 -0.12713589218E+03  0.13903290774E+04  0.17573659747E+04  0.54981160856E+02 0.  0.
        254    2    1    2    0    0  0.10658957559E+04  0.12713589218E+03  0.24785362791E+04  0.28468066368E+04  0.89937124875E+03 0.  0.
         23    2    4    4    0    0 -0.13229461249E+03 -0.25564114036E+02  0.51256762275E+03  0.53759560506E+03  0.90155855451E+02 0.  0.
         23    2    4    4    0    0  0.11981903684E+04  0.15270000621E+03  0.19659686563E+04  0.23092110317E+04  0.91898752016E+02 0.  0.
          4    1    3    3  502    0 -0.29074959670E+03 -0.45719832135E+02  0.34588440526E+03  0.45416038228E+03  0.00000000000E+00 0. -1.
         -3    1    3    3    0  502 -0.77514615921E+03 -0.81416060044E+02  0.10444446721E+04  0.13032055924E+04  0.00000000000E+00 0.  1.
         11    1    5    5    0    0 -0.44724643978E+02 -0.29835131995E+02  0.81041191439E+02  0.97252781914E+02  0.00000000000E+00 0.  1.
        -11    1    5    5    0    0 -0.87569968507E+02  0.42710179589E+01  0.43152643131E+03  0.44034282315E+03  0.00000000000E+00 0. -1.
          1    1    6    6  503    0  0.54417156681E+03  0.29472907225E+02  0.84152641210E+03  0.10025757072E+04  0.00000000000E+00 0. -1.
         -1    1    6    6    0  503  0.65401880158E+03  0.12322709899E+03  0.11244422442E+04  0.13066353245E+04  0.00000000000E+00 0.  1.
<mgrwt>
<rscale>  0 0.24960541E+04</rscale>
<asrwt>0</asrwt>
<pdfrwt beam="1">  1        2 0.65177212E+00 0.24960541E+04</pdfrwt>
<pdfrwt beam="2">  1       -1 0.56562099E-01 0.24960541E+04</pdfrwt>
<totfact> 0.69675949E-01</totfact>
</mgrwt>
</event>
<event>
12    6  0.1647231E-007  0.2123877E+04  0.7818608E-02  0.8550798E-01
          2   -1    0    0  501    0  0.00000000000E+00  0.00000000000E+00  0.18879804246E+04  0.18879804246E+04  0.00000000000E+00 0. -1.
         -1   -1    0    0    0  501 -0.00000000000E+00 -0.00000000000E+00 -0.59731213321E+03  0.59731213321E+03  0.00000000000E+00 0.  1.
         24    2    1    2    0    0  0.30354119082E+03 -0.11807376062E+03 -0.40970295049E+03  0.52940514828E+03  0.79590426014E+02 0.  0.
        254    2    1    2    0    0 -0.30354119082E+03  0.11807376062E+03  0.17003712419E+04  0.19558874095E+04  0.91002996162E+03 0.  0.
         23    2    4    4    0    0 -0.54758844287E+03  0.24474499508E+03  0.76293834397E+03  0.97477903610E+03  0.91466043569E+02 0.  0.
         23    2    4    4    0    0  0.24404725205E+03 -0.12667123446E+03  0.93743289788E+03  0.98110837340E+03  0.90490549025E+02 0.  0.
          4    1    3    3  502    0  0.79158523065E+02 -0.59467348479E+02 -0.16378660257E+03  0.19138570607E+03  0.00000000000E+00 0. -1.
         -3    1    3    3    0  502  0.22438266776E+03 -0.58606412143E+02 -0.24591634792E+03  0.33801944221E+03  0.00000000000E+00 0.  1.
         11    1    5    5    0    0 -0.14880979897E+03  0.11060103296E+03  0.21398480480E+03  0.28313678928E+03  0.00000000000E+00 0.  1.
        -11    1    5    5    0    0 -0.39877864390E+03  0.13414396213E+03  0.54895353917E+03  0.69164224682E+03  0.00000000000E+00 0. -1.
          2    1    6    6  503    0  0.23584112445E+03 -0.91119746863E+02  0.82942462485E+03  0.86710383032E+03  0.00000000000E+00 0. -1.
         -2    1    6    6    0  503  0.82061275994E+01 -0.35551487597E+02  0.10800827303E+03  0.11400454308E+03  0.00000000000E+00 0.  1.
<mgrwt>
<rscale>  0 0.21238772E+04</rscale>
<asrwt>0</asrwt>
<pdfrwt beam="1">  1        2 0.29045852E+00 0.21238772E+04</pdfrwt>
<pdfrwt beam="2">  1       -1 0.91894175E-01 0.21238772E+04</pdfrwt>
<totfact> 0.93128573E+00</totfact>
</mgrwt>
</event>
<event>
12    6  0.1647231E-007  0.1455276E+04  0.7818608E-02  0.8914751E-01
          2   -1    0    0  501    0  0.00000000000E+00  0.00000000000E+00  0.26086376781E+04  0.26086376781E+04  0.00000000000E+00 0. -1.
         -1   -1    0    0    0  501 -0.00000000000E+00 -0.00000000000E+00 -0.20296317807E+03  0.20296317807E+03  0.00000000000E+00 0.  1.
         24    2    1    2    0    0 -0.91434063496E+02 -0.34633207568E+02 -0.94027860237E+02  0.15306195180E+03  0.70901872723E+02 0.  0.
        254    2    1    2    0    0  0.91434063496E+02  0.34633207568E+02  0.24997023602E+04  0.26585389043E+04  0.89986530604E+03 0.  0.
         23    2    4    4    0    0  0.45955621697E+03 -0.13454370402E+03  0.14016987255E+04  0.14842218000E+04  0.94133467571E+02 0.  0.
         23    2    4    4    0    0 -0.36812215348E+03  0.16917691159E+03  0.10980036347E+04  0.11743171043E+04  0.96301258002E+02 0.  0.
          4    1    3    3  502    0 -0.14331445695E+02 -0.34089161195E+02 -0.85660328635E+01  0.37958374118E+02  0.00000000000E+00 0. -1.
         -3    1    3    3    0  502 -0.77102617801E+02 -0.54404637364E+00 -0.85461827373E+02  0.11510357769E+03  0.00000000000E+00 0.  1.
         11    1    5    5    0    0  0.14178963612E+02 -0.25714851479E+02  0.93998564285E+02  0.98478559510E+02  0.00000000000E+00 0.  1.
        -11    1    5    5    0    0  0.44537725336E+03 -0.10882885254E+03  0.13077001612E+04  0.13857432405E+04  0.00000000000E+00 0. -1.
          4    1    6    6  503    0 -0.32064607433E+03  0.16750168073E+03  0.88506553103E+03  0.95614419009E+03  0.00000000000E+00 0. -1.
         -4    1    6    6    0  503 -0.47476079149E+02  0.16752308643E+01  0.21293810372E+03  0.21817291424E+03  0.00000000000E+00 0.  1.
<mgrwt>
<rscale>  0 0.14552765E+04</rscale>
<asrwt>0</asrwt>
<pdfrwt beam="1">  1        2 0.40132885E+00 0.14552765E+04</pdfrwt>
<pdfrwt beam="2">  1       -1 0.31225106E-01 0.14552765E+04</pdfrwt>
<totfact> 0.31703888E+01</totfact>
</mgrwt>
</event>
<event>
12    6  0.1647231E-007  0.1530510E+04  0.7818608E-02  0.8864414E-01
         -1   -1    0    0    0  501 -0.00000000000E+00  0.00000000000E+00  0.16080400903E+03  0.16080400903E+03  0.00000000000E+00 0.  1.
          2   -1    0    0  501    0  0.00000000000E+00 -0.00000000000E+00 -0.36417961280E+04  0.36417961280E+04  0.00000000000E+00 0. -1.
         24    2    1    2    0    0  0.20226712286E+03 -0.13345543007E+03 -0.22061010743E+04  0.22207992508E+04  0.79655644122E+02 0.  0.
        254    2    1    2    0    0 -0.20226712286E+03  0.13345543007E+03 -0.12748910447E+04  0.15818008863E+04  0.90444708362E+03 0.  0.
         23    2    4    4    0    0 -0.32057936729E+03 -0.29910904575E+03 -0.83346039530E+03  0.94605144811E+03  0.90109710637E+02 0.  0.
         23    2    4    4    0    0  0.11831224443E+03  0.43256447582E+03 -0.44143064942E+03  0.63574943816E+03  0.90589828034E+02 0.  0.
          4    1    3    3  502    0  0.15272949843E+03 -0.65290092318E+02 -0.16517431020E+04  0.16600736041E+04  0.00000000000E+00 0. -1.
         -3    1    3    3    0  502  0.49537624422E+02 -0.68165337750E+02 -0.55435797223E+03  0.56072564671E+03  0.00000000000E+00 0.  1.
         11    1    5    5    0    0 -0.30969269076E+03 -0.28930748328E+03 -0.82847044796E+03  0.93057598601E+03  0.00000000000E+00 0. -1.
        -11    1    5    5    0    0 -0.10886676529E+02 -0.98015624691E+01 -0.49899473381E+01  0.15475462097E+02  0.00000000000E+00 0.  1.
          1    1    6    6  503    0  0.11692491654E+03  0.43697314915E+03 -0.43326721678E+03  0.62636846210E+03  0.00000000000E+00 0. -1.
         -1    1    6    6    0  503  0.13873278944E+01 -0.44086733268E+01 -0.81634326433E+01  0.93809760532E+01  0.00000000000E+00 0.  1.
<mgrwt>
<rscale>  0 0.15305103E+04</rscale>
<asrwt>0</asrwt>
<pdfrwt beam="1">  1        2 0.56027638E+00 0.15305103E+04</pdfrwt>
<pdfrwt beam="2">  1       -1 0.24739076E-01 0.15305103E+04</pdfrwt>
<totfact> 0.10241148E+01</totfact>
</mgrwt>
</event>
<event>
12    6  0.1647231E-007  0.3256014E+04  0.7818608E-02  0.8174179E-01
         -1   -1    0    0    0  501 -0.00000000000E+00  0.00000000000E+00  0.12983994686E+04  0.12983994686E+04  0.00000000000E+00 0.  1.
          2   -1    0    0  501    0  0.00000000000E+00 -0.00000000000E+00 -0.20412876328E+04  0.20412876328E+04  0.00000000000E+00 0. -1.
         24    2    1    2    0    0  0.49175047173E+03 -0.66319756621E+03  0.94483192266E+03  0.12572644522E+04  0.79730812028E+02 0.  0.
        254    2    1    2    0    0 -0.49175047173E+03  0.66319756621E+03 -0.16877200868E+04  0.20824226492E+04  0.89801751662E+03 0.  0.
         23    2    4    4    0    0 -0.14839155900E+03  0.26922561783E+02 -0.11828390461E+04  0.11958886217E+04  0.91085165396E+02 0.  0.
         23    2    4    4    0    0 -0.34335891272E+03  0.63627500443E+03 -0.50488104073E+03  0.88653402752E+03  0.91085083667E+02 0.  0.
          2    1    3    3  502    0  0.20867797027E+03 -0.28930408532E+03  0.46822284847E+03  0.58862210704E+03  0.00000000000E+00 0. -1.
         -1    1    3    3    0  502  0.28307250146E+03 -0.37389348089E+03  0.47660907419E+03  0.66864234516E+03  0.00000000000E+00 0.  1.
         11    1    5    5    0    0 -0.67513103856E+02  0.61009307521E+01 -0.24094612102E+03  0.25030036712E+03  0.00000000000E+00 0. -1.
        -11    1    5    5    0    0 -0.80878455145E+02  0.20821631031E+02 -0.94189292508E+03  0.94558825455E+03  0.00000000000E+00 0.  1.
          1    1    6    6  503    0 -0.64661550189E+02  0.13217332028E+03 -0.60791499219E+02  0.15920587000E+03  0.00000000000E+00 0. -1.
         -1    1    6    6    0  503 -0.27869736253E+03  0.50410168415E+03 -0.44408954151E+03  0.72732815752E+03  0.00000000000E+00 0.  1.
<mgrwt>
<rscale>  0 0.32560140E+04</rscale>
<asrwt>0</asrwt>
<pdfrwt beam="1">  1        2 0.31404425E+00 0.32560140E+04</pdfrwt>
<pdfrwt beam="2">  1       -1 0.19975376E+00 0.32560140E+04</pdfrwt>
<totfact> 0.91275774E-01</totfact>
</mgrwt>
</event>
<event>
12    6  0.1647231E-007  0.2573732E+04  0.7818608E-02  0.8377179E-01
         -1   -1    0    0    0  501 -0.00000000000E+00  0.00000000000E+00  0.11120248779E+04  0.11120248779E+04  0.00000000000E+00 0.  1.
          2   -1    0    0  501    0  0.00000000000E+00 -0.00000000000E+00 -0.14891969574E+04  0.14891969574E+04  0.00000000000E+00 0. -1.
         24    2    1    2    0    0  0.87033642950E+03 -0.72866382260E+03 -0.28410083479E+03  0.11728018289E+04  0.79463064335E+02 0.  0.
        254    2    1    2    0    0 -0.87033642950E+03  0.72866382260E+03 -0.93071244699E+02  0.14284200064E+04  0.86213977481E+03 0.  0.
         23    2    4    4    0    0 -0.70215183263E+03  0.52536347469E+02  0.43671596074E+02  0.71284145064E+03  0.10226661999E+03 0.  0.
         23    2    4    4    0    0 -0.16818459686E+03  0.67612747513E+03 -0.13674284077E+03  0.71557855580E+03  0.88992380362E+02 0.  0.
          4    1    3    3  502    0  0.83496828648E+02 -0.49119562808E+02 -0.85870479824E+01  0.97253222249E+02  0.00000000000E+00 0. -1.
         -3    1    3    3    0  502  0.78683960085E+03 -0.67954425979E+03 -0.27551378681E+03  0.10755486066E+04  0.00000000000E+00 0.  1.
         11    1    5    5    0    0 -0.36146673772E+03  0.11798250956E+02  0.71293581781E+02  0.36861928328E+03  0.00000000000E+00 0.  1.
        -11    1    5    5    0    0 -0.34068509491E+03  0.40738096513E+02 -0.27621985708E+02  0.34422216735E+03  0.00000000000E+00 0. -1.
          1    1    6    6  503    0  0.75251342664E+01  0.70897151478E+01 -0.47226210524E+01  0.11366391521E+02  0.00000000000E+00 0. -1.
         -1    1    6    6    0  503 -0.17570973113E+03  0.66903775998E+03 -0.13202021972E+03  0.70421216428E+03  0.00000000000E+00 0.  1.
<mgrwt>
<rscale>  0 0.25737320E+04</rscale>
<asrwt>0</asrwt>
<pdfrwt beam="1">  1        2 0.22910722E+00 0.25737320E+04</pdfrwt>
<pdfrwt beam="2">  1       -1 0.17108075E+00 0.25737320E+04</pdfrwt>
<totfact> 0.31405473E+00</totfact>
</mgrwt>
</event>
<event>
12    6  0.1647231E-007  0.2620179E+04  0.7818608E-02  0.8361379E-01
          2   -1    0    0  501    0  0.00000000000E+00  0.00000000000E+00  0.14977446558E+04  0.14977446558E+04  0.00000000000E+00 0. -1.
         -1   -1    0    0    0  501 -0.00000000000E+00 -0.00000000000E+00 -0.11459462007E+04  0.11459462007E+04  0.00000000000E+00 0.  1.
         24    2    1    2    0    0  0.90002041853E+03  0.10891136967E+03  0.87790770025E+03  0.12645322119E+04  0.80133292400E+02 0.  0.
        254    2    1    2    0    0 -0.90002041853E+03 -0.10891136967E+03 -0.52610924516E+03  0.13791586445E+04  0.89631980272E+03 0.  0.
         23    2    4    4    0    0 -0.97058501543E+03  0.12248455386E+03 -0.53931543932E+03  0.11207193259E+04  0.90071783965E+02 0.  0.
         23    2    4    4    0    0  0.70564596899E+02 -0.23139592352E+03  0.13206194162E+02  0.25843931863E+03  0.89961336644E+02 0.  0.
          2    1    3    3  502    0  0.25179267324E+03  0.24662986815E+02  0.19709820802E+03  0.32071095526E+03  0.00000000000E+00 0. -1.
         -1    1    3    3    0  502  0.64822774529E+03  0.84248382853E+02  0.68080949223E+03  0.94382125664E+03  0.00000000000E+00 0.  1.
         11    1    5    5    0    0 -0.47666519131E+03  0.16026269550E+02 -0.24992811898E+03  0.53845205040E+03  0.00000000000E+00 0.  1.
        -11    1    5    5    0    0 -0.49391982412E+03  0.10645828431E+03 -0.28938732034E+03  0.58226727551E+03  0.00000000000E+00 0. -1.
          2    1    6    6  503    0  0.20267108027E+02 -0.18450768207E+03 -0.99449623296E+01  0.18588368053E+03  0.00000000000E+00 0. -1.
         -2    1    6    6    0  503  0.50297488871E+02 -0.46888241451E+02  0.23151156492E+02  0.72555638100E+02  0.00000000000E+00 0.  1.
<mgrwt>
<rscale>  0 0.26201792E+04</rscale>
<asrwt>0</asrwt>
<pdfrwt beam="1">  1        2 0.23042225E+00 0.26201792E+04</pdfrwt>
<pdfrwt beam="2">  1       -1 0.17629942E+00 0.26201792E+04</pdfrwt>
<totfact> 0.28340206E+00</totfact>
</mgrwt>
</event>
<event>
12    6  0.1647231E-007  0.1509788E+04  0.7818608E-02  0.8877970E-01
          2   -1    0    0  501    0  0.00000000000E+00  0.00000000000E+00  0.26434884455E+04  0.26434884455E+04  0.00000000000E+00 0. -1.
         -1   -1    0    0    0  501 -0.00000000000E+00 -0.00000000000E+00 -0.21557310493E+03  0.21557310493E+03  0.00000000000E+00 0.  1.
         24    2    1    2    0    0 -0.21229208480E+03  0.41108849221E+03  0.52403558682E+03  0.70376216224E+03  0.81278576774E+02 0.  0.
        254    2    1    2    0    0  0.21229208480E+03 -0.41108849221E+03  0.19038797537E+04  0.21552993882E+04  0.89805103324E+03 0.  0.
         23    2    4    4    0    0 -0.22514828829E+03 -0.26908600564E+03  0.14788232183E+04  0.15226261391E+04  0.91505291675E+02 0.  0.
         23    2    4    4    0    0  0.43744037309E+03 -0.14200248657E+03  0.42505653542E+03  0.63267324905E+03  0.89908817988E+02 0.  0.
          4    1    3    3  502    0  0.75011480123E+01  0.14772031964E+02  0.18156441593E+02  0.24579188782E+02  0.00000000000E+00 0. -1.
         -3    1    3    3    0  502 -0.21979323281E+03  0.39631646025E+03  0.50587914523E+03  0.67918297346E+03  0.00000000000E+00 0.  1.
         11    1    5    5    0    0 -0.17852288048E+03 -0.25761549582E+03  0.12376751798E+04  0.12767443022E+04  0.00000000000E+00 0. -1.
        -11    1    5    5    0    0 -0.46625407804E+02 -0.11470509817E+02  0.24114803855E+03  0.24588183696E+03  0.00000000000E+00 0.  1.
          3    1    6    6  503    0  0.99751245206E+02  0.49625779399E+01  0.79438128260E+02  0.12761408355E+03  0.00000000000E+00 0. -1.
         -3    1    6    6    0  503  0.33768912788E+03 -0.14696506451E+03  0.34561840717E+03  0.50505916549E+03  0.00000000000E+00 0.  1.
<mgrwt>
<rscale>  0 0.15097881E+04</rscale>
<asrwt>0</asrwt>
<pdfrwt beam="1">  1        2 0.40669051E+00 0.15097881E+04</pdfrwt>
<pdfrwt beam="2">  1       -1 0.33165095E-01 0.15097881E+04</pdfrwt>
<totfact> 0.27053085E+01</totfact>
</mgrwt>
</event>
<event>
12    6  0.1647231E-007  0.3160910E+04  0.7818608E-02  0.8199218E-01
          2   -1    0    0  501    0  0.00000000000E+00  0.00000000000E+00  0.30911897141E+04  0.30911897141E+04  0.00000000000E+00 0. -1.
         -1   -1    0    0    0  501 -0.00000000000E+00 -0.00000000000E+00 -0.80805087656E+03  0.80805087656E+03  0.00000000000E+00 0.  1.
         24    2    1    2    0    0  0.12758223310E+04 -0.56569539632E+03  0.15573032477E+04  0.20927229583E+04  0.81006624841E+02 0.  0.
        254    2    1    2    0    0 -0.12758223310E+04  0.56569539632E+03  0.72583558979E+03  0.18065176323E+04  0.88821999009E+03 0.  0.
         23    2    4    4    0    0 -0.22666385227E+03 -0.22981493952E+03  0.16338425195E+03  0.37234286209E+03  0.88053306650E+02 0.  0.
         23    2    4    4    0    0 -0.10491584787E+04  0.79551033585E+03  0.56245133784E+03  0.14341747702E+04  0.83279986886E+02 0.  0.
          4    1    3    3  502    0  0.78214706050E+03 -0.32825540004E+03  0.99925885013E+03  0.13107341002E+04  0.00000000000E+00 0. -1.
         -3    1    3    3    0  502  0.49367527048E+03 -0.23743999628E+03  0.55804439761E+03  0.78198885812E+03  0.00000000000E+00 0.  1.
         11    1    5    5    0    0 -0.13908355824E+03 -0.16895815979E+03  0.14895288204E+03  0.26472260387E+03  0.00000000000E+00 0. -1.
        -11    1    5    5    0    0 -0.87580294035E+02 -0.60856779727E+02  0.14431369911E+02  0.10762025822E+03  0.00000000000E+00 0.  1.
          1    1    6    6  503    0 -0.59510958359E+03  0.40008078221E+03  0.29736996744E+03  0.77630467363E+03  0.00000000000E+00 0. -1.
         -1    1    6    6    0  503 -0.45404889513E+03  0.39542955364E+03  0.26508137040E+03  0.65787009659E+03  0.00000000000E+00 0.  1.
<mgrwt>
<rscale>  0 0.31609103E+04</rscale>
<asrwt>0</asrwt>
<pdfrwt beam="1">  1        2 0.47556764E+00 0.31609103E+04</pdfrwt>
<pdfrwt beam="2">  1       -1 0.12431552E+00 0.31609103E+04</pdfrwt>
<totfact> 0.82924821E-01</totfact>
</mgrwt>
</event>
<event>
12    6  0.1647231E-007  0.1872880E+04  0.7818608E-02  0.8668475E-01
         -1   -1    0    0    0  501 -0.00000000000E+00  0.00000000000E+00  0.35677206804E+03  0.35677206804E+03  0.00000000000E+00 0.  1.
          2   -1    0    0  501    0  0.00000000000E+00 -0.00000000000E+00 -0.24579281448E+04  0.24579281448E+04  0.00000000000E+00 0. -1.
         24    2    1    2    0    0  0.29286072298E+03 -0.29475191762E+02 -0.17846290935E+04  0.18105761169E+04  0.81539462519E+02 0.  0.
        254    2    1    2    0    0 -0.29286072298E+03  0.29475191762E+02 -0.31652698329E+03  0.10041240959E+04  0.90633309486E+03 0.  0.
         23    2    4    4    0    0  0.22890309323E+03 -0.14960459236E+03  0.10428301358E+03  0.30533692319E+03  0.87049006866E+02 0.  0.
         23    2    4    4    0    0 -0.52176381620E+03  0.17907978412E+03 -0.42080999687E+03  0.69878717272E+03  0.83158946089E+02 0.  0.
          2    1    3    3  502    0  0.18597033216E+03  0.20703380877E+02 -0.11276409060E+04  0.11430606315E+04  0.00000000000E+00 0. -1.
         -3    1    3    3    0  502  0.10689039082E+03 -0.50178572639E+02 -0.65698818743E+03  0.66751548538E+03  0.00000000000E+00 0.  1.
         11    1    5    5    0    0  0.16396183656E+03 -0.56449019100E+02  0.61635689321E+02  0.18403514285E+03  0.00000000000E+00 0. -1.
        -11    1    5    5    0    0  0.64941256669E+02 -0.93155573262E+02  0.42647324258E+02  0.12130178034E+03  0.00000000000E+00 0.  1.
          1    1    6    6  503    0 -0.35513853533E+02  0.14949038526E+02 -0.60504548296E+02  0.71732195771E+02  0.00000000000E+00 0. -1.
         -1    1    6    6    0  503 -0.48624996267E+03  0.16413074560E+03 -0.36030544857E+03  0.62705497695E+03  0.00000000000E+00 0.  1.
<mgrwt>
<rscale>  0 0.18728802E+04</rscale>
<asrwt>0</asrwt>
<pdfrwt beam="1">  1        2 0.37814279E+00 0.18728802E+04</pdfrwt>
<pdfrwt beam="2">  1       -1 0.54888010E-01 0.18728802E+04</pdfrwt>
<totfact> 0.13207728E+01</totfact>
</mgrwt>
</event>
<event>
12    6  0.1647231E-007  0.1526011E+04  0.7818608E-02  0.8867338E-01
         -1   -1    0    0    0  501 -0.00000000000E+00  0.00000000000E+00  0.85873104994E+03  0.85873104994E+03  0.00000000000E+00 0.  1.
          2   -1    0    0  501    0  0.00000000000E+00 -0.00000000000E+00 -0.67795120125E+03  0.67795120125E+03  0.00000000000E+00 0. -1.
         24    2    1    2    0    0  0.17384342458E+03 -0.35763883228E+03 -0.20888524436E+03  0.45405803651E+03  0.66397173046E+02 0.  0.
        254    2    1    2    0    0 -0.17384342458E+03  0.35763883228E+03  0.38966509304E+03  0.10826242147E+04  0.92849837633E+03 0.  0.
         23    2    4    4    0    0 -0.16473561934E+03  0.48324648523E+03  0.61722449832E+03  0.80699627046E+03  0.98040345979E+02 0.  0.
         23    2    4    4    0    0 -0.91078052458E+01 -0.12560765296E+03 -0.22755940528E+03  0.27562794421E+03  0.91253745680E+02 0.  0.
          4    1    3    3  502    0  0.11093061485E+03 -0.29067286486E+03 -0.15596580685E+03  0.34802535624E+03  0.00000000000E+00 0. -1.
         -3    1    3    3    0  502  0.62912809732E+02 -0.66965967416E+02 -0.52919437511E+02  0.10603268028E+03  0.00000000000E+00 0.  1.
         11    1    5    5    0    0 -0.63325003478E+02  0.28451403156E+03  0.29184307040E+03  0.41246899030E+03  0.00000000000E+00 0. -1.
        -11    1    5    5    0    0 -0.10141061586E+03  0.19873245367E+03  0.32538142793E+03  0.39452728016E+03  0.00000000000E+00 0.  1.
          1    1    6    6  503    0 -0.83368268080E+00 -0.49256321437E+02 -0.18015858818E+02  0.52454279113E+02  0.00000000000E+00 0. -1.
         -1    1    6    6    0  503 -0.82741225650E+01 -0.76351331520E+02 -0.20954354646E+03  0.22317366510E+03  0.00000000000E+00 0.  1.
<mgrwt>
<rscale>  0 0.15260115E+04</rscale>
<asrwt>0</asrwt>
<pdfrwt beam="1">  1        2 0.10430018E+00 0.15260115E+04</pdfrwt>
<pdfrwt beam="2">  1       -1 0.13211247E+00 0.15260115E+04</pdfrwt>
<totfact> 0.22881146E+01</totfact>
</mgrwt>
</event>
<event>
12    6  0.1647231E-007  0.1537470E+04  0.7818608E-02  0.8859911E-01
         -1   -1    0    0    0  501 -0.00000000000E+00  0.00000000000E+00  0.48787767902E+03  0.48787767902E+03  0.00000000000E+00 0.  1.
          2   -1    0    0  501    0  0.00000000000E+00 -0.00000000000E+00 -0.12112741253E+04  0.12112741253E+04  0.00000000000E+00 0. -1.
         24    2    1    2    0    0 -0.16283773055E+03 -0.27675354702E+03 -0.63210486250E+03  0.71361123835E+03  0.81091245001E+02 0.  0.
        254    2    1    2    0    0  0.16283773055E+03  0.27675354702E+03 -0.91291583821E+02  0.98554056602E+03  0.92727957041E+03 0.  0.
         23    2    4    4    0    0  0.12019694618E+03  0.30160182224E+03  0.37706821989E+03  0.50581342902E+03  0.90861529148E+02 0.  0.
         23    2    4    4    0    0  0.42640784377E+02 -0.24848275213E+02 -0.46835980371E+03  0.47972713699E+03  0.91332069720E+02 0.  0.
          4    1    3    3  502    0 -0.89193868035E+02 -0.12504452686E+03 -0.38439667934E+03  0.41394744459E+03  0.00000000000E+00 0. -1.
         -3    1    3    3    0  502 -0.73643862518E+02 -0.15170902016E+03 -0.24770818316E+03  0.29966379376E+03  0.00000000000E+00 0.  1.
         11    1    5    5    0    0  0.83598897013E+02  0.23181206798E+03  0.22113414507E+03  0.33109805279E+03  0.00000000000E+00 0. -1.
        -11    1    5    5    0    0  0.36598049163E+02  0.69789754252E+02  0.15593407482E+03  0.17471537623E+03  0.00000000000E+00 0.  1.
          4    1    6    6  503    0  0.48365383466E+02  0.23845459723E+02 -0.27590946232E+03  0.28112959230E+03  0.00000000000E+00 0.  1.
         -4    1    6    6    0  503 -0.57245990894E+01 -0.48693734937E+02 -0.19245034139E+03  0.19859754470E+03  0.00000000000E+00 0. -1.
<mgrwt>
<rscale>  0 0.15374701E+04</rscale>
<asrwt>0</asrwt>
<pdfrwt beam="1">  1        2 0.18634986E+00 0.15374701E+04</pdfrwt>
<pdfrwt beam="2">  1       -1 0.75058105E-01 0.15374701E+04</pdfrwt>
<totfact> 0.36574260E+01</totfact>
</mgrwt>
</event>
<event>
12    6  0.1647231E-007  0.5242568E+04  0.7818608E-02  0.7792141E-01
         -1   -1    0    0    0  501 -0.00000000000E+00  0.00000000000E+00  0.27431389321E+04  0.27431389321E+04  0.00000000000E+00 0.  1.
          2   -1    0    0  501    0  0.00000000000E+00 -0.00000000000E+00 -0.25048424311E+04  0.25048424311E+04  0.00000000000E+00 0. -1.
         24    2    1    2    0    0  0.24660354354E+04  0.22009098501E+03  0.70059423035E+03  0.25742272471E+04  0.77735664672E+02 0.  0.
        254    2    1    2    0    0 -0.24660354354E+04 -0.22009098501E+03 -0.46229772930E+03  0.26737541161E+04  0.89748040240E+03 0.  0.
         23    2    4    4    0    0 -0.22369512948E+04  0.68272056805E+02 -0.29716494460E+03  0.22599511441E+04  0.10227414346E+03 0.  0.
         23    2    4    4    0    0 -0.22908414061E+03 -0.28836304181E+03 -0.16513278471E+03  0.41380297203E+03  0.91275822180E+02 0.  0.
          2    1    3    3  502    0  0.14435596725E+04  0.14231743537E+03  0.37312535140E+03  0.14977787915E+04  0.00000000000E+00 0. -1.
         -1    1    3    3    0  502  0.10224757629E+04  0.77773549638E+02  0.32746887895E+03  0.10764484555E+04  0.00000000000E+00 0.  1.
         11    1    5    5    0    0 -0.42674735115E+03  0.26337520703E+02 -0.18643374271E+02  0.42796558520E+03  0.00000000000E+00 0. -1.
        -11    1    5    5    0    0 -0.18102039436E+04  0.41934536102E+02 -0.27852157033E+03  0.18319855589E+04  0.00000000000E+00 0.  1.
          3    1    6    6  503    0 -0.52746241398E+02 -0.19687893849E+02 -0.39355836902E+02  0.68692510830E+02  0.00000000000E+00 0. -1.
         -3    1    6    6    0  503 -0.17633789921E+03 -0.26867514796E+03 -0.12577694780E+03  0.34511046120E+03  0.00000000000E+00 0.  1.
<mgrwt>
<rscale>  0 0.52425684E+04</rscale>
<asrwt>0</asrwt>
<pdfrwt beam="1">  1        2 0.38536038E+00 0.52425684E+04</pdfrwt>
<pdfrwt beam="2">  1       -1 0.42202137E+00 0.52425684E+04</pdfrwt>
<totfact> 0.14213862E-02</totfact>
</mgrwt>
</event>
<event>
12    6  0.1647231E-007  0.1526059E+04  0.7818608E-02  0.8867306E-01
          2   -1    0    0  501    0  0.00000000000E+00  0.00000000000E+00  0.15886295465E+04  0.15886295465E+04  0.00000000000E+00 0. -1.
         -1   -1    0    0    0  501 -0.00000000000E+00 -0.00000000000E+00 -0.36648845173E+03  0.36648845173E+03  0.00000000000E+00 0.  1.
         24    2    1    2    0    0 -0.16251301054E+03 -0.24648055357E+03 -0.13181252468E+03  0.33282320455E+03  0.78953162998E+02 0.  0.
        254    2    1    2    0    0  0.16251301054E+03  0.24648055357E+03  0.13539536194E+04  0.16222947937E+04  0.84349680029E+03 0.  0.
         23    2    4    4    0    0  0.26463904514E+03  0.48331884786E+03  0.59542559599E+03  0.81604138234E+03  0.88096336078E+02 0.  0.
         23    2    4    4    0    0 -0.10212603460E+03 -0.23683829429E+03  0.75852802344E+03  0.80625341132E+03  0.90319966437E+02 0.  0.
          2    1    3    3  502    0  0.43197444381E+01 -0.20482101938E+02 -0.24230839358E+02  0.32020466389E+02  0.00000000000E+00 0. -1.
         -1    1    3    3    0  502 -0.16683275497E+03 -0.22599845163E+03 -0.10758168532E+03  0.30080273816E+03  0.00000000000E+00 0.  1.
         11    1    5    5    0    0  0.16561020904E+03  0.21116794602E+03  0.29205412461E+03  0.39662861025E+03  0.00000000000E+00 0. -1.
        -11    1    5    5    0    0  0.99028836093E+02  0.27215090184E+03  0.30337147139E+03  0.41941277210E+03  0.00000000000E+00 0.  1.
          3    1    6    6  503    0 -0.49071200142E+02 -0.26304414087E+02  0.13627176426E+03  0.14720699242E+03  0.00000000000E+00 0. -1.
         -3    1    6    6    0  503 -0.53054834458E+02 -0.21053388020E+03  0.62225625918E+03  0.65904641889E+03  0.00000000000E+00 0.  1.
<mgrwt>
<rscale>  0 0.15260595E+04</rscale>
<asrwt>0</asrwt>
<pdfrwt beam="1">  1        2 0.24440454E+00 0.15260595E+04</pdfrwt>
<pdfrwt beam="2">  1       -1 0.56382840E-01 0.15260595E+04</pdfrwt>
<totfact> 0.39576686E+01</totfact>
</mgrwt>
</event>
<event>
12    6  0.1647231E-007  0.2362021E+04  0.7818608E-02  0.8453861E-01
          2   -1    0    0  501    0  0.00000000000E+00  0.00000000000E+00  0.12583540584E+04  0.12583540584E+04  0.00000000000E+00 0. -1.
         -1   -1    0    0    0  501 -0.00000000000E+00 -0.00000000000E+00 -0.11084206417E+04  0.11084206417E+04  0.00000000000E+00 0.  1.
         24    2    1    2    0    0  0.55314229143E+03  0.16683078319E+03  0.93975219785E+03  0.11064458959E+04  0.85378114977E+02 0.  0.
        254    2    1    2    0    0 -0.55314229143E+03 -0.16683078319E+03 -0.78981878119E+03  0.12603288041E+04  0.79423931067E+03 0.  0.
         23    2    4    4    0    0 -0.89959432305E+00 -0.37237643515E+03 -0.35574008259E+03  0.52316391406E+03  0.92111106212E+02 0.  0.
         23    2    4    4    0    0 -0.55224269711E+03  0.20554565196E+03 -0.43407869860E+03  0.73716489007E+03  0.88129149678E+02 0.  0.
          4    1    3    3  502    0  0.44571882327E+03  0.16444852358E+03  0.79558691321E+03  0.92664293166E+03  0.00000000000E+00 0. -1.
         -3    1    3    3    0  502  0.10742346817E+03  0.23822596078E+01  0.14416528463E+03  0.17980296429E+03  0.00000000000E+00 0.  1.
         11    1    5    5    0    0 -0.23925561697E+01 -0.36878129270E+03 -0.36136483772E+03  0.51632345687E+03  0.00000000000E+00 0.  1.
        -11    1    5    5    0    0  0.14929618466E+01 -0.35951424484E+01  0.56247551306E+01  0.68404571908E+01  0.00000000000E+00 0. -1.
          1    1    6    6  503    0 -0.14142494732E+03  0.23618339000E+02 -0.73824998014E+02  0.16127297353E+03  0.00000000000E+00 0. -1.
         -1    1    6    6    0  503 -0.41081774980E+03  0.18192731296E+03 -0.36025370059E+03  0.57589191654E+03  0.00000000000E+00 0.  1.
<mgrwt>
<rscale>  0 0.23620208E+04</rscale>
<asrwt>0</asrwt>
<pdfrwt beam="1">  1        2 0.19359293E+00 0.23620208E+04</pdfrwt>
<pdfrwt beam="2">  1       -1 0.17052625E+00 0.23620208E+04</pdfrwt>
<totfact> 0.43847609E+00</totfact>
</mgrwt>
</event>
<event>
12    6  0.1647231E-007  0.2137130E+04  0.7818608E-02  0.8545062E-01
          2   -1    0    0  501    0  0.00000000000E+00  0.00000000000E+00  0.29066981867E+04  0.29066981867E+04  0.00000000000E+00 0. -1.
         -1   -1    0    0    0  501 -0.00000000000E+00 -0.00000000000E+00 -0.39282740862E+03  0.39282740862E+03  0.00000000000E+00 0.  1.
         24    2    1    2    0    0 -0.10165691502E+03  0.39303651652E+03  0.22343251056E+04  0.22723332629E+04  0.80485703963E+02 0.  0.
        254    2    1    2    0    0  0.10165691502E+03 -0.39303651652E+03  0.27954567245E+03  0.10271923324E+04  0.90120279240E+03 0.  0.
         23    2    4    4    0    0  0.12680161758E+03 -0.47785088699E+03  0.53958542044E+03  0.73747932459E+03  0.91121939326E+02 0.  0.
         23    2    4    4    0    0 -0.25144702555E+02  0.84814370463E+02 -0.26003974799E+03  0.28971300780E+03  0.92126124676E+02 0.  0.
          2    1    3    3  502    0 -0.10014567128E+03  0.28324898589E+03  0.17607060146E+04  0.17861536366E+04  0.00000000000E+00 0. -1.
         -1    1    3    3    0  502 -0.15112437416E+01  0.10978753063E+03  0.47361909097E+03  0.48617962635E+03  0.00000000000E+00 0.  1.
         11    1    5    5    0    0  0.72513631846E+02 -0.19432956087E+03  0.28564723938E+03  0.35301069445E+03  0.00000000000E+00 0. -1.
        -11    1    5    5    0    0  0.54287985732E+02 -0.28352132612E+03  0.25393818106E+03  0.38446863013E+03  0.00000000000E+00 0.  1.
          3    1    6    6  503    0 -0.58490193765E+02  0.55465761039E+02 -0.13770111671E+03  0.15955923965E+03  0.00000000000E+00 0. -1.
         -3    1    6    6    0  503  0.33345491210E+02  0.29348609424E+02 -0.12233863128E+03  0.13015376815E+03  0.00000000000E+00 0.  1.
<mgrwt>
<rscale>  0 0.21371296E+04</rscale>
<asrwt>0</asrwt>
<pdfrwt beam="1">  1        2 0.44718432E+00 0.21371296E+04</pdfrwt>
<pdfrwt beam="2">  1       -1 0.60434988E-01 0.21371296E+04</pdfrwt>
<totfact> 0.57840925E+00</totfact>
</mgrwt>
</event>
<event>
12    6  0.1647231E-007  0.1269233E+04  0.7818608E-02  0.9054326E-01
          2   -1    0    0  501    0  0.00000000000E+00  0.00000000000E+00  0.12040174612E+04  0.12040174612E+04  0.00000000000E+00 0. -1.
         -1   -1    0    0    0  501 -0.00000000000E+00 -0.00000000000E+00 -0.33449526945E+03  0.33449526945E+03  0.00000000000E+00 0.  1.
         24    2    1    2    0    0  0.24626707403E+03 -0.85588231582E+02  0.22839005278E+02  0.27378860770E+03  0.80409977030E+02 0.  0.
        254    2    1    2    0    0 -0.24626707403E+03  0.85588231582E+02  0.84668318647E+03  0.12647241230E+04  0.90259729215E+03 0.  0.
         23    2    4    4    0    0 -0.23407497716E+03  0.26979920606E+03 -0.23769475304E+02  0.37043343743E+03  0.95253541079E+02 0.  0.
         23    2    4    4    0    0 -0.12192096874E+02 -0.18421097448E+03  0.87045266178E+03  0.89429068553E+03  0.89362539628E+02 0.  0.
          4    1    3    3  502    0  0.46648553200E+02  0.15087388096E+02  0.85101130013E+01  0.49760816096E+02  0.00000000000E+00 0. -1.
         -3    1    3    3    0  502  0.19961852083E+03 -0.10067561968E+03  0.14328892277E+02  0.22402779160E+03  0.00000000000E+00 0.  1.
         11    1    5    5    0    0 -0.35968171954E+02  0.54811048142E+01  0.11694235991E+02  0.38216580944E+02  0.00000000000E+00 0. -1.
        -11    1    5    5    0    0 -0.19810680520E+03  0.26431810125E+03 -0.35463711295E+02  0.33221685648E+03  0.00000000000E+00 0.  1.
          1    1    6    6  503    0  0.25772913969E+02 -0.91358754270E+02  0.28737243694E+03  0.30264431696E+03  0.00000000000E+00 0. -1.
         -1    1    6    6    0  503 -0.37965010843E+02 -0.92852220208E+02  0.58308022483E+03  0.59164636857E+03  0.00000000000E+00 0.  1.
<mgrwt>
<rscale>  0 0.12692331E+04</rscale>
<asrwt>0</asrwt>
<pdfrwt beam="1">  1        2 0.18523345E+00 0.12692331E+04</pdfrwt>
<pdfrwt beam="2">  1       -1 0.51460811E-01 0.12692331E+04</pdfrwt>
<totfact> 0.80110877E+01</totfact>
</mgrwt>
</event>
<event>
12    6  0.1647231E-007  0.9972723E+03  0.7818608E-02  0.9311542E-01
         -1   -1    0    0    0  501 -0.00000000000E+00  0.00000000000E+00  0.27734015680E+03  0.27734015680E+03  0.00000000000E+00 0.  1.
          2   -1    0    0  501    0  0.00000000000E+00 -0.00000000000E+00 -0.89650919387E+03  0.89650919387E+03  0.00000000000E+00 0. -1.
         24    2    1    2    0    0  0.36989888370E+02  0.23883925255E+01  0.29167739520E+01  0.88607508834E+02  0.80429017096E+02 0.  0.
        254    2    1    2    0    0 -0.36989888370E+02 -0.23883925255E+01 -0.62208581102E+03  0.10852418418E+04  0.88847349017E+03 0.  0.
         23    2    4    4    0    0  0.22756482159E+03 -0.22751321599E+03 -0.64487024886E+03  0.72658986858E+03  0.92342773303E+02 0.  0.
         23    2    4    4    0    0 -0.26455470996E+03  0.22512482347E+03  0.22784437833E+02  0.35865197326E+03  0.86265442742E+02 0.  0.
          2    1    3    3  502    0 -0.61041852325E+01  0.25054589424E+01 -0.32291770976E+02  0.32959018108E+02  0.00000000000E+00 0. -1.
         -1    1    3    3    0  502  0.43094073602E+02 -0.11706641683E+00  0.35208544928E+02  0.55648490726E+02  0.00000000000E+00 0.  1.
         11    1    5    5    0    0  0.35386882553E+00 -0.13306009269E+02 -0.43456832881E+01  0.14002145159E+02  0.00000000000E+00 0. -1.
        -11    1    5    5    0    0  0.22721095277E+03 -0.21420720672E+03 -0.64052456557E+03  0.71258772342E+03  0.00000000000E+00 0.  1.
          4    1    6    6  503    0 -0.52306127612E+02  0.27894456274E+02 -0.26181329669E+02  0.64803500676E+02  0.00000000000E+00 0. -1.
         -4    1    6    6    0  503 -0.21224858235E+03  0.19723036719E+03  0.48965767503E+02  0.29384847258E+03  0.00000000000E+00 0.  1.
<mgrwt>
<rscale>  0 0.99727228E+03</rscale>
<asrwt>0</asrwt>
<pdfrwt beam="1">  1        2 0.13792449E+00 0.99727228E+03</pdfrwt>
<pdfrwt beam="2">  1       -1 0.42667716E-01 0.99727228E+03</pdfrwt>
<totfact> 0.18143549E+02</totfact>
</mgrwt>
</event>
<event>
12    6  0.1647231E-007  0.1485700E+04  0.7818608E-02  0.8894019E-01
         -1   -1    0    0    0  501 -0.00000000000E+00  0.00000000000E+00  0.38118042511E+03  0.38118042511E+03  0.00000000000E+00 0.  1.
          2   -1    0    0  501    0  0.00000000000E+00 -0.00000000000E+00 -0.14476760880E+04  0.14476760880E+04  0.00000000000E+00 0. -1.
         24    2    1    2    0    0 -0.25348032506E+03 -0.36654232770E+03 -0.18566230438E+03  0.48887782745E+03  0.76977176566E+02 0.  0.
        254    2    1    2    0    0  0.25348032506E+03  0.36654232770E+03 -0.88083335846E+03  0.13399786856E+04  0.90612908535E+03 0.  0.
         23    2    4    4    0    0  0.56176926025E+03  0.12776734005E+03 -0.66886596302E+03  0.88733002611E+03  0.89798128064E+02 0.  0.
         23    2    4    4    0    0 -0.30828893519E+03  0.23877498765E+03 -0.21196739544E+03  0.45264865950E+03  0.88910460170E+02 0.  0.
          2    1    3    3  502    0 -0.50364801911E+00 -0.28688881935E+02 -0.25729915927E+01  0.28808434420E+02  0.00000000000E+00 0. -1.
         -1    1    3    3    0  502 -0.25297667704E+03 -0.33785344577E+03 -0.18308931279E+03  0.46006939303E+03  0.00000000000E+00 0.  1.
         11    1    5    5    0    0  0.49311025194E+03  0.80678110222E+02 -0.58025716301E+03  0.76574477031E+03  0.00000000000E+00 0. -1.
        -11    1    5    5    0    0  0.68659008312E+02  0.47089229829E+02 -0.88608800013E+02  0.12158525580E+03  0.00000000000E+00 0.  1.
          4    1    6    6  503    0 -0.22236446530E+03  0.21337177228E+03 -0.14386335926E+03  0.34010312373E+03  0.00000000000E+00 0. -1.
         -4    1    6    6    0  503 -0.85924469893E+02  0.25403215369E+02 -0.68104036175E+02  0.11254553577E+03  0.00000000000E+00 0.  1.
<mgrwt>
<rscale>  0 0.14856995E+04</rscale>
<asrwt>0</asrwt>
<pdfrwt beam="1">  1        2 0.22271940E+00 0.14856995E+04</pdfrwt>
<pdfrwt beam="2">  1       -1 0.58643141E-01 0.14856995E+04</pdfrwt>
<totfact> 0.44144718E+01</totfact>
</mgrwt>
</event>
<event>
12    6  0.1647231E-007  0.2207799E+04  0.7818608E-02  0.8515189E-01
          2   -1    0    0  501    0  0.00000000000E+00  0.00000000000E+00  0.38653214921E+04  0.38653214921E+04  0.00000000000E+00 0. -1.
         -1   -1    0    0    0  501 -0.00000000000E+00 -0.00000000000E+00 -0.31526319554E+03  0.31526319554E+03  0.00000000000E+00 0.  1.
         24    2    1    2    0    0 -0.26580672063E+03  0.55393736176E+01  0.30773983866E+04  0.30901176945E+04  0.88105837348E+02 0.  0.
        254    2    1    2    0    0  0.26580672063E+03 -0.55393736176E+01  0.47265990996E+03  0.10904669932E+04  0.94605865319E+03 0.  0.
         23    2    4    4    0    0  0.29041348542E+03 -0.23068357510E+03  0.67364957324E+03  0.77425108198E+03  0.90033805257E+02 0.  0.
         23    2    4    4    0    0 -0.24606764788E+02  0.22514420148E+03 -0.20098966328E+03  0.31621591117E+03  0.91105726481E+02 0.  0.
          4    1    3    3  502    0 -0.16748871546E+03  0.53919380676E+01  0.23703698831E+04  0.23762859519E+04  0.00000000000E+00 0. -1.
         -3    1    3    3    0  502 -0.98318005169E+02  0.14743554999E+00  0.70702850355E+03  0.71383174258E+03  0.00000000000E+00 0.  1.
         11    1    5    5    0    0  0.29193961879E+03 -0.23614076624E+03  0.66767692233E+03  0.76601806448E+03  0.00000000000E+00 0.  1.
        -11    1    5    5    0    0 -0.15261333730E+01  0.54571911428E+01  0.59726509104E+01  0.82330174990E+01  0.00000000000E+00 0. -1.
          2    1    6    6  503    0 -0.47904175206E+02  0.19603106377E+03 -0.14321686620E+03  0.24745516509E+03  0.00000000000E+00 0.  1.
         -2    1    6    6    0  503  0.23297410418E+02  0.29113137717E+02 -0.57772797075E+02  0.68760746083E+02  0.00000000000E+00 0. -1.
<mgrwt>
<rscale>  0 0.22077985E+04</rscale>
<asrwt>0</asrwt>
<pdfrwt beam="1">  1        2 0.59466481E+00 0.22077985E+04</pdfrwt>
<pdfrwt beam="2">  1       -1 0.48502033E-01 0.22077985E+04</pdfrwt>
<totfact> 0.19454475E+00</totfact>
</mgrwt>
</event>
<event>
12    6  0.1647231E-007  0.1678249E+04  0.7818608E-02  0.8773868E-01
          2   -1    0    0  501    0  0.00000000000E+00  0.00000000000E+00  0.21003029988E+04  0.21003029988E+04  0.00000000000E+00 0. -1.
         -1   -1    0    0    0  501 -0.00000000000E+00 -0.00000000000E+00 -0.33525177909E+03  0.33525177909E+03  0.00000000000E+00 0.  1.
         24    2    1    2    0    0 -0.30934494924E+03 -0.99422292090E+02  0.13432855669E+04  0.13843340910E+04  0.79910396055E+02 0.  0.
        254    2    1    2    0    0  0.30934494924E+03  0.99422292090E+02  0.42176565281E+03  0.10512206869E+04  0.90642130212E+03 0.  0.
         23    2    4    4    0    0  0.33789889282E+03 -0.33765881117E+03  0.91247205682E+02  0.49492327932E+03  0.91836078670E+02 0.  0.
         23    2    4    4    0    0 -0.28553943578E+02  0.43708110326E+03  0.33051844713E+03  0.55629740760E+03  0.91483021875E+02 0.  0.
          4    1    3    3  502    0 -0.29554784921E+03 -0.10233672752E+03  0.13240169519E+04  0.13604566241E+04  0.00000000000E+00 0. -1.
         -3    1    3    3    0  502 -0.13797100028E+02  0.29144354317E+01  0.19268615002E+02  0.23877466934E+02  0.00000000000E+00 0.  1.
         11    1    5    5    0    0  0.33940181811E+03 -0.31754431445E+03  0.79371964797E+02  0.47151658993E+03  0.00000000000E+00 0. -1.
        -11    1    5    5    0    0 -0.15029252938E+01 -0.20114496716E+02  0.11875240885E+02  0.23406689400E+02  0.00000000000E+00 0.  1.
          2    1    6    6  503    0 -0.48553727939E+02  0.35898687228E+03  0.23731440570E+03  0.43306716121E+03  0.00000000000E+00 0. -1.
         -2    1    6    6    0  503  0.19999784361E+02  0.78094230974E+02  0.93204041428E+02  0.12323024639E+03  0.00000000000E+00 0.  1.
<mgrwt>
<rscale>  0 0.16782495E+04</rscale>
<asrwt>0</asrwt>
<pdfrwt beam="1">  1        2 0.32312353E+00 0.16782495E+04</pdfrwt>
<pdfrwt beam="2">  1       -1 0.51577198E-01 0.16782495E+04</pdfrwt>
<totfact> 0.24124933E+01</totfact>
</mgrwt>
</event>
<event>
12    6  0.1647231E-007  0.2390376E+04  0.7818608E-02  0.8443116E-01
          2   -1    0    0  501    0  0.00000000000E+00  0.00000000000E+00  0.33027409809E+04  0.33027409809E+04  0.00000000000E+00 0. -1.
         -1   -1    0    0    0  501 -0.00000000000E+00 -0.00000000000E+00 -0.43251159854E+03  0.43251159854E+03  0.00000000000E+00 0.  1.
         24    2    1    2    0    0 -0.23673021715E+03 -0.98331767826E+03  0.13445516581E+04  0.16843179165E+04  0.78439979122E+02 0.  0.
        254    2    1    2    0    0  0.23673021715E+03  0.98331767826E+03  0.15256777242E+04  0.20509346630E+04  0.92503276776E+03 0.  0.
         23    2    4    4    0    0  0.29416668087E+02  0.10829862370E+04  0.10378704527E+04  0.15030401222E+04  0.90719360018E+02 0.  0.
         23    2    4    4    0    0  0.20731354906E+03 -0.99668558750E+02  0.48780727153E+03  0.54789454081E+03  0.96538927216E+02 0.  0.
          2    1    3    3  502    0 -0.23927501451E+03 -0.95371269335E+03  0.13187242837E+04  0.16449480753E+04  0.00000000000E+00 0. -1.
         -1    1    3    3    0  502  0.25447973610E+01 -0.29604984911E+02  0.25827374465E+02  0.39369841211E+02  0.00000000000E+00 0.  1.
         11    1    5    5    0    0  0.53528494854E+02  0.46724471015E+03  0.42332572675E+03  0.63276187453E+03  0.00000000000E+00 0.  1.
        -11    1    5    5    0    0 -0.24111826767E+02  0.61574152686E+03  0.61454472597E+03  0.87027824763E+03  0.00000000000E+00 0. -1.
          1    1    6    6  503    0  0.18670859905E+03 -0.47492515628E+02  0.39435528946E+03  0.43889831889E+03  0.00000000000E+00 0. -1.
         -1    1    6    6    0  503  0.20604950014E+02 -0.52176043122E+02  0.93451982069E+02  0.10899622192E+03  0.00000000000E+00 0.  1.
<mgrwt>
<rscale>  0 0.23903755E+04</rscale>
<asrwt>0</asrwt>
<pdfrwt beam="1">  1        2 0.50811398E+00 0.23903755E+04</pdfrwt>
<pdfrwt beam="2">  1       -1 0.66540248E-01 0.23903755E+04</pdfrwt>
<totfact> 0.26017516E+00</totfact>
</mgrwt>
</event>
<event>
12    6  0.1647231E-007  0.1736913E+04  0.7818608E-02  0.8740587E-01
         -1   -1    0    0    0  501 -0.00000000000E+00  0.00000000000E+00  0.61894155627E+03  0.61894155627E+03  0.00000000000E+00 0.  1.
          2   -1    0    0  501    0  0.00000000000E+00 -0.00000000000E+00 -0.12185592914E+04  0.12185592914E+04  0.00000000000E+00 0. -1.
         24    2    1    2    0    0  0.63210181214E+03 -0.10367924342E+03 -0.21111373738E+03  0.67917556799E+03  0.80052205596E+02 0.  0.
        254    2    1    2    0    0 -0.63210181214E+03  0.10367924342E+03 -0.38850399773E+03  0.11583252797E+04  0.88344779746E+03 0.  0.
         23    2    4    4    0    0  0.16554271371E+03  0.18420011628E+03 -0.16216283172E+01  0.26356241792E+03  0.90157892403E+02 0.  0.
         23    2    4    4    0    0 -0.79764452585E+03 -0.80520872854E+02 -0.38688236942E+03  0.89476286175E+03  0.90566055516E+02 0.  0.
          2    1    3    3  502    0  0.46786519308E+03 -0.48090144882E+02 -0.17655104207E+03  0.50237513015E+03  0.00000000000E+00 0. -1.
         -1    1    3    3    0  502  0.16423661906E+03 -0.55589098540E+02 -0.34562695310E+02  0.17680043785E+03  0.00000000000E+00 0.  1.
         11    1    5    5    0    0  0.11187702141E+03  0.15288148783E+03 -0.35573754628E+02  0.19275556868E+03  0.00000000000E+00 0. -1.
        -11    1    5    5    0    0  0.53665692298E+02  0.31318628451E+02  0.33952126311E+02  0.70806849237E+02  0.00000000000E+00 0.  1.
          2    1    6    6  503    0 -0.30164868318E+03 -0.37793333101E+02 -0.99183308608E+02  0.31977741133E+03  0.00000000000E+00 0. -1.
         -2    1    6    6    0  503 -0.49599584267E+03 -0.42727539753E+02 -0.28769906081E+03  0.57498545042E+03  0.00000000000E+00 0.  1.
<mgrwt>
<rscale>  0 0.17369133E+04</rscale>
<asrwt>0</asrwt>
<pdfrwt beam="1">  1        2 0.18747066E+00 0.17369133E+04</pdfrwt>
<pdfrwt beam="2">  1       -1 0.95221779E-01 0.17369133E+04</pdfrwt>
<totfact> 0.21278464E+01</totfact>
</mgrwt>
</event>
<event>
12    6  0.1721286E-007  0.2606085E+04  0.7818608E-02  0.8366137E-01
         -1   -1    0    0    0  501 -0.00000000000E+00  0.00000000000E+00  0.12425511759E+04  0.12425511759E+04  0.00000000000E+00 0.  1.
          2   -1    0    0  501    0  0.00000000000E+00 -0.00000000000E+00 -0.13664786787E+04  0.13664786787E+04  0.00000000000E+00 0. -1.
         24    2    1    2    0    0 -0.72041500875E+02 -0.99753437586E+03  0.50145051884E+03  0.11216988819E+04  0.80566432529E+02 0.  0.
        254    2    1    2    0    0  0.72041500875E+02  0.99753437586E+03 -0.62537802168E+03  0.14873309726E+04  0.90597513392E+03 0.  0.
         23    2    4    4    0    0  0.99102641211E+02 -0.48079670164E+02  0.13015121533E+03  0.19375010411E+03  0.92015084698E+02 0.  0.
         23    2    4    4    0    0 -0.27061140335E+02  0.10456140460E+04 -0.75552923701E+03  0.12935808685E+04  0.92119470649E+02 0.  0.
          4    1    3    3  502    0 -0.23839844734E+02 -0.13613887917E+03  0.97037048704E+02  0.16887368487E+03  0.00000000000E+00 0. -1.
         -3    1    3    3    0  502 -0.48201656142E+02 -0.86139549669E+03  0.40441347014E+03  0.95282519708E+03  0.00000000000E+00 0.  1.
         11    1    5    5    0    0  0.43771137811E+02  0.18779279568E+02  0.81126951789E+02  0.94075268551E+02  0.00000000000E+00 0. -1.
        -11    1    5    5    0    0  0.55331503400E+02 -0.66858949732E+02  0.49024263544E+02  0.99674835559E+02  0.00000000000E+00 0.  1.
          1    1    6    6  503    0  0.21709535870E+02  0.73407014793E+02 -0.52421388915E+02  0.92778746404E+02  0.00000000000E+00 0. -1.
         -1    1    6    6    0  503 -0.48770676206E+02  0.97220703123E+03 -0.70310784810E+03  0.12008021221E+04  0.00000000000E+00 0.  1.
<mgrwt>
<rscale>  0 0.26060849E+04</rscale>
<asrwt>0</asrwt>
<pdfrwt beam="1">  1        2 0.21022749E+00 0.26060849E+04</pdfrwt>
<pdfrwt beam="2">  1       -1 0.19116172E+00 0.26060849E+04</pdfrwt>
<totfact> 0.26421928E+00</totfact>
</mgrwt>
</event>
<event>
12    6  0.1647231E-007  0.1577111E+04  0.7818608E-02  0.8834734E-01
          2   -1    0    0  501    0  0.00000000000E+00  0.00000000000E+00  0.92733659230E+03  0.92733659230E+03  0.00000000000E+00 0. -1.
         -1   -1    0    0    0  501 -0.00000000000E+00 -0.00000000000E+00 -0.67054353993E+03  0.67054353993E+03  0.00000000000E+00 0.  1.
         24    2    1    2    0    0  0.48618044033E+03  0.13580343522E+03 -0.50563374519E+02  0.51357116534E+03  0.79904276769E+02 0.  0.
        254    2    1    2    0    0 -0.48618044033E+03 -0.13580343522E+03  0.30735642688E+03  0.10843089669E+04  0.90908963747E+03 0.  0.
         23    2    4    4    0    0  0.16450528742E+03 -0.22516709462E+03  0.30305023064E+03  0.42163230285E+03  0.90399924906E+02 0.  0.
         23    2    4    4    0    0 -0.65068572775E+03  0.89363659398E+02  0.43061962441E+01  0.66267666404E+03  0.88000214894E+02 0.  0.
          4    1    3    3  502    0  0.32438730167E+03  0.11284833695E+03 -0.33430942160E+01  0.34347204387E+03  0.00000000000E+00 0. -1.
         -3    1    3    3    0  502  0.16179313866E+03  0.22955098270E+02 -0.47220280303E+02  0.17009912147E+03  0.00000000000E+00 0.  1.
         11    1    5    5    0    0  0.61180859966E+02 -0.10275046934E+03  0.19381988552E+03  0.22774306707E+03  0.00000000000E+00 0. -1.
        -11    1    5    5    0    0  0.10332442746E+03 -0.12241662528E+03  0.10923034511E+03  0.19388923577E+03  0.00000000000E+00 0.  1.
          4    1    6    6  503    0 -0.15395707404E+03 -0.16299842939E+02  0.17801391032E+01  0.15482775727E+03  0.00000000000E+00 0. -1.
         -4    1    6    6    0  503 -0.49672865372E+03  0.10566350234E+03  0.25260571408E+01  0.50784890678E+03  0.00000000000E+00 0.  1.
<mgrwt>
<rscale>  0 0.15771107E+04</rscale>
<asrwt>0</asrwt>
<pdfrwt beam="1">  1        2 0.14266717E+00 0.15771107E+04</pdfrwt>
<pdfrwt beam="2">  1       -1 0.10316054E+00 0.15771107E+04</pdfrwt>
<totfact> 0.27339317E+01</totfact>
</mgrwt>
</event>
<event>
12    6  0.1647231E-007  0.2570715E+04  0.7818608E-02  0.8378217E-01
          2   -1    0    0  501    0  0.00000000000E+00  0.00000000000E+00  0.34374342789E+04  0.34374342789E+04  0.00000000000E+00 0. -1.
         -1   -1    0    0    0  501 -0.00000000000E+00 -0.00000000000E+00 -0.48063272755E+03  0.48063272755E+03  0.00000000000E+00 0.  1.
         24    2    1    2    0    0  0.65933142653E+03 -0.90372022725E+03  0.14783586176E+04  0.18556744715E+04  0.80965196421E+02 0.  0.
        254    2    1    2    0    0 -0.65933142653E+03  0.90372022725E+03  0.14784429338E+04  0.20623925349E+04  0.90346072435E+03 0.  0.
         23    2    4    4    0    0 -0.80794020255E+03  0.41828233811E+03  0.84613627461E+03  0.12462104085E+04  0.96779655267E+02 0.  0.
         23    2    4    4    0    0  0.14860877603E+03  0.48543788913E+03  0.63230665914E+03  0.81618212642E+03  0.92774133121E+02 0.  0.
          2    1    3    3  502    0  0.16793994469E+02 -0.10786280000E+02  0.15161607028E+02  0.25065043669E+02  0.00000000000E+00 0. -1.
         -1    1    3    3    0  502  0.64253743206E+03 -0.89293394725E+03  0.14631970106E+04  0.18306094279E+04  0.00000000000E+00 0.  1.
         11    1    5    5    0    0 -0.80734646288E+03  0.41250116035E+03  0.83042876164E+03  0.12294622591E+04  0.00000000000E+00 0.  1.
        -11    1    5    5    0    0 -0.59373967394E+00  0.57811777596E+01  0.15707512969E+02  0.16748149353E+02  0.00000000000E+00 0. -1.
          2    1    6    6  503    0 -0.49311439720E+00  0.13307960419E+03  0.17739950283E+03  0.22176791431E+03  0.00000000000E+00 0. -1.
         -2    1    6    6    0  503  0.14910189042E+03  0.35235828494E+03  0.45490715631E+03  0.59441421211E+03  0.00000000000E+00 0.  1.
<mgrwt>
<rscale>  0 0.25707146E+04</rscale>
<asrwt>0</asrwt>
<pdfrwt beam="1">  1        2 0.52883603E+00 0.25707146E+04</pdfrwt>
<pdfrwt beam="2">  1       -1 0.73943499E-01 0.25707146E+04</pdfrwt>
<totfact> 0.16698407E+00</totfact>
</mgrwt>
</event>
<event>
12    6  0.1647231E-007  0.1897810E+04  0.7818608E-02  0.8655947E-01
          2   -1    0    0  501    0  0.00000000000E+00  0.00000000000E+00  0.17592443919E+04  0.17592443919E+04  0.00000000000E+00 0. -1.
         -1   -1    0    0    0  501 -0.00000000000E+00 -0.00000000000E+00 -0.51182245913E+03  0.51182245913E+03  0.00000000000E+00 0.  1.
         24    2    1    2    0    0 -0.67263543882E+03  0.21343535145E+03  0.73780328939E+03  0.10239644000E+04  0.78462193234E+02 0.  0.
        254    2    1    2    0    0  0.67263543882E+03 -0.21343535145E+03  0.50961864342E+03  0.12471024511E+04  0.89306230409E+03 0.  0.
         23    2    4    4    0    0  0.64444115793E+03 -0.48099535776E+03  0.52142799030E+03  0.96250174866E+03  0.88665251894E+02 0.  0.
         23    2    4    4    0    0  0.28194280899E+02  0.26756000631E+03 -0.11809346876E+02  0.28460070243E+03  0.92058811103E+02 0.  0.
          2    1    3    3  502    0 -0.47760031123E+03  0.11950422479E+03  0.48416222528E+03  0.69050443693E+03  0.00000000000E+00 0. -1.
         -1    1    3    3    0  502 -0.19503512759E+03  0.93931126656E+02  0.25364106411E+03  0.33345996304E+03  0.00000000000E+00 0.  1.
         11    1    5    5    0    0  0.56212988458E+03 -0.44408920683E+03  0.48552446028E+03  0.86541275256E+03  0.00000000000E+00 0. -1.
        -11    1    5    5    0    0  0.82311273348E+02 -0.36906150923E+02  0.35903530022E+02  0.97088996103E+02  0.00000000000E+00 0.  1.
          1    1    6    6  503    0 -0.14479928756E+02  0.15980806188E+03  0.26294534530E+02  0.16260285214E+03  0.00000000000E+00 0. -1.
         -1    1    6    6    0  503  0.42674209656E+02  0.10775194443E+03 -0.38103881406E+02  0.12199785029E+03  0.00000000000E+00 0.  1.
<mgrwt>
<rscale>  0 0.18978101E+04</rscale>
<asrwt>0</asrwt>
<pdfrwt beam="1">  1        2 0.27065298E+00 0.18978101E+04</pdfrwt>
<pdfrwt beam="2">  1       -1 0.78741918E-01 0.18978101E+04</pdfrwt>
<totfact> 0.15646785E+01</totfact>
</mgrwt>
</event>
<event>
12    6  0.1647231E-007  0.2445110E+04  0.7818608E-02  0.8422806E-01
          2   -1    0    0  501    0  0.00000000000E+00  0.00000000000E+00  0.13056659764E+04  0.13056659764E+04  0.00000000000E+00 0. -1.
         -1   -1    0    0    0  501 -0.00000000000E+00 -0.00000000000E+00 -0.11447339872E+04  0.11447339872E+04  0.00000000000E+00 0.  1.
         24    2    1    2    0    0  0.88968401977E+02 -0.45447829244E+03  0.10164038915E+04  0.11199046752E+04  0.81508992366E+02 0.  0.
        254    2    1    2    0    0 -0.88968401977E+02  0.45447829244E+03 -0.85547190238E+03  0.13304952884E+04  0.90770019387E+03 0.  0.
         23    2    4    4    0    0 -0.54478088519E+02 -0.18808037883E+03  0.45112882656E+02  0.21988197672E+03  0.89279451585E+02 0.  0.
         23    2    4    4    0    0 -0.34490313458E+02  0.64255867126E+03 -0.90058478504E+03  0.11106133117E+04  0.91311255602E+02 0.  0.
          4    1    3    3  502    0  0.95918152194E+02 -0.28713696160E+03  0.65237318196E+03  0.71919308616E+03  0.00000000000E+00 0. -1.
         -3    1    3    3    0  502 -0.69497502168E+01 -0.16734133083E+03  0.36403070959E+03  0.40071158899E+03  0.00000000000E+00 0.  1.
         11    1    5    5    0    0  0.31528563851E+01 -0.84494575635E+02 -0.16712677168E+02  0.86189253351E+02  0.00000000000E+00 0. -1.
        -11    1    5    5    0    0 -0.57630944905E+02 -0.10358580319E+03  0.61825559824E+02  0.13369272337E+03  0.00000000000E+00 0.  1.
          2    1    6    6  503    0 -0.28778158707E+02  0.27659593528E+03 -0.31637390007E+03  0.42121958463E+03  0.00000000000E+00 0. -1.
         -2    1    6    6    0  503 -0.57121547508E+01  0.36596273598E+03 -0.58421088497E+03  0.68939372709E+03  0.00000000000E+00 0.  1.
<mgrwt>
<rscale>  0 0.24451096E+04</rscale>
<asrwt>0</asrwt>
<pdfrwt beam="1">  1        2 0.20087169E+00 0.24451096E+04</pdfrwt>
<pdfrwt beam="2">  1       -1 0.17611292E+00 0.24451096E+04</pdfrwt>
<totfact> 0.37185991E+00</totfact>
</mgrwt>
</event>
<event>
12    6  0.1647231E-007  0.1985208E+04  0.7818608E-02  0.8613568E-01
         -1   -1    0    0    0  501 -0.00000000000E+00  0.00000000000E+00  0.12072855199E+04  0.12072855199E+04  0.00000000000E+00 0.  1.
          2   -1    0    0  501    0  0.00000000000E+00 -0.00000000000E+00 -0.81609715772E+03  0.81609715772E+03  0.00000000000E+00 0. -1.
         24    2    1    2    0    0  0.34464542088E+03  0.45390236036E+03  0.70554706828E+03  0.91061990163E+03  0.81388702015E+02 0.  0.
        254    2    1    2    0    0 -0.34464542088E+03 -0.45390236036E+03 -0.31435870608E+03  0.11127627760E+04  0.90255846386E+03 0.  0.
         23    2    4    4    0    0 -0.34343438155E+01 -0.62982401859E+03 -0.33258617311E+03  0.71810928770E+03  0.91527577377E+02 0.  0.
         23    2    4    4    0    0 -0.34121107707E+03  0.17592165822E+03  0.18227467029E+02  0.39465348830E+03  0.89697861355E+02 0.  0.
          2    1    3    3  502    0  0.22262232268E+01  0.26472412603E+02  0.48041874603E+02  0.54897781506E+02  0.00000000000E+00 0. -1.
         -1    1    3    3    0  502  0.34241919765E+03  0.42742994776E+03  0.65750519367E+03  0.85572212012E+03  0.00000000000E+00 0.  1.
         11    1    5    5    0    0 -0.44109269887E+02 -0.43590746933E+03 -0.22109492948E+03  0.49075851225E+03  0.00000000000E+00 0. -1.
        -11    1    5    5    0    0  0.40674926071E+02 -0.19391654926E+03 -0.11149124364E+03  0.22735077545E+03  0.00000000000E+00 0.  1.
          2    1    6    6  503    0 -0.13368066280E+03  0.82075811491E+02 -0.35068509276E+02  0.16073816840E+03  0.00000000000E+00 0. -1.
         -2    1    6    6    0  503 -0.20753041427E+03  0.93845846734E+02  0.53295976306E+02  0.23391531990E+03  0.00000000000E+00 0.  1.
<mgrwt>
<rscale>  0 0.19852076E+04</rscale>
<asrwt>0</asrwt>
<pdfrwt beam="1">  1        2 0.12555341E+00 0.19852076E+04</pdfrwt>
<pdfrwt beam="2">  1       -1 0.18573623E+00 0.19852076E+04</pdfrwt>
<totfact> 0.67421246E+00</totfact>
</mgrwt>
</event>
<event>
12    6  0.1647231E-007  0.2256601E+04  0.7818608E-02  0.8495232E-01
         -1   -1    0    0    0  501 -0.00000000000E+00  0.00000000000E+00  0.10538656388E+04  0.10538656388E+04  0.00000000000E+00 0.  1.
          2   -1    0    0  501    0  0.00000000000E+00 -0.00000000000E+00 -0.12079931533E+04  0.12079931533E+04  0.00000000000E+00 0. -1.
         24    2    1    2    0    0 -0.66122024142E+03 -0.25152084901E+03  0.56162672589E+03  0.90673123801E+03  0.79132885741E+02 0.  0.
        254    2    1    2    0    0  0.66122024142E+03  0.25152084901E+03 -0.71575424032E+03  0.13551275541E+04  0.90751948194E+03 0.  0.
         23    2    4    4    0    0  0.32226292392E+03 -0.25829150426E+03 -0.19165495721E+02  0.42340830901E+03  0.91320242033E+02 0.  0.
         23    2    4    4    0    0  0.33895731751E+03  0.50981235328E+03 -0.69658874460E+03  0.93171924506E+03  0.89800745394E+02 0.  0.
          4    1    3    3  502    0 -0.19305588712E+03 -0.38449954953E+02  0.17282293919E+03  0.26194797747E+03  0.00000000000E+00 0. -1.
         -3    1    3    3    0  502 -0.46816435431E+03 -0.21307089406E+03  0.38880378669E+03  0.64478326055E+03  0.00000000000E+00 0.  1.
         11    1    5    5    0    0  0.23242635128E+02 -0.55424940197E+02  0.98515782947E+01  0.60903182827E+02  0.00000000000E+00 0.  1.
        -11    1    5    5    0    0  0.29902028879E+03 -0.20286656407E+03 -0.29017074016E+02  0.36250512618E+03  0.00000000000E+00 0. -1.
          1    1    6    6  503    0  0.24599605419E+03  0.42952152034E+03 -0.53685125655E+03  0.73021371308E+03  0.00000000000E+00 0. -1.
         -1    1    6    6    0  503  0.92961263320E+02  0.80290832939E+02 -0.15973748805E+03  0.20150553198E+03  0.00000000000E+00 0.  1.
<mgrwt>
<rscale>  0 0.22566014E+04</rscale>
<asrwt>0</asrwt>
<pdfrwt beam="1">  1        2 0.18584510E+00 0.22566014E+04</pdfrwt>
<pdfrwt beam="2">  1       -1 0.16213318E+00 0.22566014E+04</pdfrwt>
<totfact> 0.54712394E+00</totfact>
</mgrwt>
</event>
<event>
12    6  0.1647231E-007  0.1640620E+04  0.7818608E-02  0.8795975E-01
          2   -1    0    0  501    0  0.00000000000E+00  0.00000000000E+00  0.23645927458E+04  0.23645927458E+04  0.00000000000E+00 0. -1.
         -1   -1    0    0    0  501 -0.00000000000E+00 -0.00000000000E+00 -0.28457682507E+03  0.28457682507E+03  0.00000000000E+00 0.  1.
         24    2    1    2    0    0 -0.17265272401E+03  0.41041928833E+03  0.15454887067E+03  0.47813312350E+03  0.80454801092E+02 0.  0.
        254    2    1    2    0    0  0.17265272401E+03 -0.41041928833E+03  0.19254670501E+04  0.21710364474E+04  0.89873407615E+03 0.  0.
         23    2    4    4    0    0  0.11279654282E+03 -0.68850899571E+03  0.14050350778E+04  0.15713352221E+04  0.90571038456E+02 0.  0.
         23    2    4    4    0    0  0.59856181195E+02  0.27808970738E+03  0.52043197228E+03  0.59970122533E+03  0.88743868007E+02 0.  0.
          4    1    3    3  502    0 -0.10227541450E+03  0.14852820283E+03  0.76948790557E+02  0.19606632504E+03  0.00000000000E+00 0. -1.
         -3    1    3    3    0  502 -0.70377309513E+02  0.26189108550E+03  0.77600080111E+02  0.28206679846E+03  0.00000000000E+00 0.  1.
         11    1    5    5    0    0  0.35218677082E+02 -0.94183854254E+02  0.26313827550E+03  0.28169612289E+03  0.00000000000E+00 0. -1.
        -11    1    5    5    0    0  0.77577865735E+02 -0.59432514146E+03  0.11418968023E+04  0.12896390992E+04  0.00000000000E+00 0.  1.
          3    1    6    6  503    0  0.60282729624E+02  0.19143577535E+03  0.28295514503E+03  0.34690816893E+03  0.00000000000E+00 0. -1.
         -3    1    6    6    0  503 -0.42654842942E+00  0.86653932037E+02  0.23747682725E+03  0.25279305639E+03  0.00000000000E+00 0.  1.
<mgrwt>
<rscale>  0 0.16406198E+04</rscale>
<asrwt>0</asrwt>
<pdfrwt beam="1">  1        2 0.36378349E+00 0.16406198E+04</pdfrwt>
<pdfrwt beam="2">  1       -1 0.43781052E-01 0.16406198E+04</pdfrwt>
<totfact> 0.23405641E+01</totfact>
</mgrwt>
</event>
<event>
12    6  0.1647231E-007  0.1885115E+04  0.7818608E-02  0.8662301E-01
         -1   -1    0    0    0  501 -0.00000000000E+00  0.00000000000E+00  0.64124520026E+03  0.64124520026E+03  0.00000000000E+00 0.  1.
          2   -1    0    0  501    0  0.00000000000E+00 -0.00000000000E+00 -0.13854528220E+04  0.13854528220E+04  0.00000000000E+00 0. -1.
         24    2    1    2    0    0 -0.29997405445E+03  0.66030044226E+03 -0.24837987359E+03  0.77066456831E+03  0.79058256045E+02 0.  0.
        254    2    1    2    0    0  0.29997405445E+03 -0.66030044226E+03 -0.49582774811E+03  0.12560334539E+04  0.89766016630E+03 0.  0.
         23    2    4    4    0    0 -0.29629955914E+03 -0.37841340603E+03 -0.21994565279E+03  0.53550005285E+03  0.85988847051E+02 0.  0.
         23    2    4    4    0    0  0.59627361359E+03 -0.28188703623E+03 -0.27588209532E+03  0.72053340106E+03  0.89749251043E+02 0.  0.
          4    1    3    3  502    0 -0.21366266090E+02  0.71609611715E+02 -0.33435827330E+01  0.74803966219E+02  0.00000000000E+00 0. -1.
         -3    1    3    3    0  502 -0.27860778836E+03  0.58869083054E+03 -0.24503629086E+03  0.69586060209E+03  0.00000000000E+00 0.  1.
         11    1    5    5    0    0 -0.82701906408E+02 -0.17370115778E+03 -0.87889401898E+02  0.21150944306E+03  0.00000000000E+00 0. -1.
        -11    1    5    5    0    0 -0.21359765273E+03 -0.20471224825E+03 -0.13205625089E+03  0.32399060980E+03  0.00000000000E+00 0.  1.
          1    1    6    6  503    0  0.11840591860E+03 -0.24103689900E+02 -0.30075082054E+02  0.12452092188E+03  0.00000000000E+00 0. -1.
         -1    1    6    6    0  503  0.47786769499E+03 -0.25778334633E+03 -0.24580701326E+03  0.59601247918E+03  0.00000000000E+00 0.  1.
<mgrwt>
<rscale>  0 0.18851154E+04</rscale>
<asrwt>0</asrwt>
<pdfrwt beam="1">  1        2 0.21314659E+00 0.18851154E+04</pdfrwt>
<pdfrwt beam="2">  1       -1 0.98653108E-01 0.18851154E+04</pdfrwt>
<totfact> 0.15498947E+01</totfact>
</mgrwt>
</event>
<event>
12    6  0.1647231E-007  0.2689942E+04  0.7818608E-02  0.8338276E-01
          2   -1    0    0  501    0  0.00000000000E+00  0.00000000000E+00  0.17026619247E+04  0.17026619247E+04  0.00000000000E+00 0. -1.
         -1   -1    0    0    0  501 -0.00000000000E+00 -0.00000000000E+00 -0.10624230108E+04  0.10624230108E+04  0.00000000000E+00 0.  1.
         24    2    1    2    0    0 -0.27131179970E+03  0.57547402584E+03  0.13211635993E+04  0.14684602578E+04  0.78242095314E+02 0.  0.
        254    2    1    2    0    0  0.27131179970E+03 -0.57547402584E+03 -0.68092468535E+03  0.12966246777E+04  0.90155237265E+03 0.  0.
         23    2    4    4    0    0  0.49295421315E+02 -0.32411162274E+03 -0.84604276303E+03  0.91191587057E+03  0.91234947073E+02 0.  0.
         23    2    4    4    0    0  0.22201637838E+03 -0.25136240310E+03  0.16511807768E+03  0.38470880713E+03  0.90898606917E+02 0.  0.
          4    1    3    3  502    0 -0.26714082288E+03  0.55928178161E+03  0.13071185093E+04  0.14466233538E+04  0.00000000000E+00 0. -1.
         -3    1    3    3    0  502 -0.41709768222E+01  0.16192244239E+02  0.14045090010E+02  0.21836903960E+02  0.00000000000E+00 0.  1.
         11    1    5    5    0    0  0.34172218413E+00 -0.14979881187E+03 -0.49145259195E+03  0.51377568155E+03  0.00000000000E+00 0.  1.
        -11    1    5    5    0    0  0.48953699131E+02 -0.17431281087E+03 -0.35459017108E+03  0.39814018903E+03  0.00000000000E+00 0. -1.
          3    1    6    6  503    0  0.34326200075E+02 -0.48257843299E+02  0.71285088593E+02  0.92675084609E+02  0.00000000000E+00 0. -1.
         -3    1    6    6    0  503  0.18769017831E+03 -0.20310455980E+03  0.93832989088E+02  0.29203372252E+03  0.00000000000E+00 0.  1.
<mgrwt>
<rscale>  0 0.26899422E+04</rscale>
<asrwt>0</asrwt>
<pdfrwt beam="1">  1        2 0.26194799E+00 0.26899422E+04</pdfrwt>
<pdfrwt beam="2">  1       -1 0.16344969E+00 0.26899422E+04</pdfrwt>
<totfact> 0.26888711E+00</totfact>
</mgrwt>
</event>
<event>
12    6  0.1647231E-007  0.2059514E+04  0.7818608E-02  0.8579291E-01
          2   -1    0    0  501    0  0.00000000000E+00  0.00000000000E+00  0.71146170134E+03  0.71146170134E+03  0.00000000000E+00 0. -1.
         -1   -1    0    0    0  501 -0.00000000000E+00 -0.00000000000E+00 -0.14904515652E+04  0.14904515652E+04  0.00000000000E+00 0.  1.
         24    2    1    2    0    0  0.28199458066E+03  0.55622081453E+03  0.27362211413E+03  0.68530997434E+03  0.76669169508E+02 0.  0.
        254    2    1    2    0    0 -0.28199458066E+03 -0.55622081453E+03 -0.10526119779E+04  0.15166032922E+04  0.89620925662E+03 0.  0.
         23    2    4    4    0    0  0.11901248865E+03 -0.64898200801E+03 -0.69886284668E+03  0.96563200229E+03  0.93243049089E+02 0.  0.
         23    2    4    4    0    0 -0.40100706931E+03  0.92761193485E+02 -0.35374913126E+03  0.55097128987E+03  0.94971604931E+02 0.  0.
          4    1    3    3  502    0  0.19939199875E+03  0.40205239566E+03  0.15862505069E+03  0.47598866029E+03  0.00000000000E+00 0. -1.
         -3    1    3    3    0  502  0.82602581909E+02  0.15416841887E+03  0.11499706344E+03  0.20932131404E+03  0.00000000000E+00 0.  1.
         11    1    5    5    0    0  0.21343458959E+02 -0.25710644511E+03 -0.32814796972E+03  0.41742107924E+03  0.00000000000E+00 0. -1.
        -11    1    5    5    0    0  0.97669029689E+02 -0.39187556290E+03 -0.37071487695E+03  0.54821092305E+03  0.00000000000E+00 0.  1.
          3    1    6    6  503    0 -0.19672430074E+03  0.73963965662E+02 -0.12866387866E+03  0.24642547025E+03  0.00000000000E+00 0. -1.
         -3    1    6    6    0  503 -0.20428276857E+03  0.18797227822E+02 -0.22508525260E+03  0.30454581962E+03  0.00000000000E+00 0.  1.
<mgrwt>
<rscale>  0 0.20595137E+04</rscale>
<asrwt>0</asrwt>
<pdfrwt beam="1">  1        2 0.10945565E+00 0.20595137E+04</pdfrwt>
<pdfrwt beam="2">  1       -1 0.22930024E+00 0.20595137E+04</pdfrwt>
<totfact> 0.40408056E+00</totfact>
</mgrwt>
</event>
<event>
12    6  0.1647231E-007  0.1528818E+04  0.7818608E-02  0.8865513E-01
          2   -1    0    0  501    0  0.00000000000E+00  0.00000000000E+00  0.10545693866E+04  0.10545693866E+04  0.00000000000E+00 0. -1.
         -1   -1    0    0    0  501 -0.00000000000E+00 -0.00000000000E+00 -0.55408469872E+03  0.55408469872E+03  0.00000000000E+00 0.  1.
         24    2    1    2    0    0 -0.17311674940E+03  0.45953970123E+03  0.24395669341E+03  0.55374751766E+03  0.77300059009E+02 0.  0.
        254    2    1    2    0    0  0.17311674940E+03 -0.45953970123E+03  0.25652799447E+03  0.10549065677E+04  0.89770546875E+03 0.  0.
         23    2    4    4    0    0  0.41024613444E+03 -0.46032820764E+03  0.42109917777E+03  0.75242397108E+03  0.92808217089E+02 0.  0.
         23    2    4    4    0    0 -0.23712938504E+03  0.78850640761E+00 -0.16457118330E+03  0.30248259659E+03  0.90449322130E+02 0.  0.
          2    1    3    3  502    0 -0.11303464539E+03  0.33644016522E+03  0.21083771837E+03  0.41282121956E+03  0.00000000000E+00 0. -1.
         -1    1    3    3    0  502 -0.60082104006E+02  0.12309953601E+03  0.33118975046E+02  0.14092629810E+03  0.00000000000E+00 0.  1.
         11    1    5    5    0    0  0.37525937090E+03 -0.37533984404E+03  0.34424240739E+03  0.63261554598E+03  0.00000000000E+00 0. -1.
        -11    1    5    5    0    0  0.34986763542E+02 -0.84988363596E+02  0.76856770383E+02  0.11980842509E+03  0.00000000000E+00 0.  1.
          2    1    6    6  503    0 -0.24519699303E+03 -0.30622787694E+00 -0.16224420875E+03  0.29401503778E+03  0.00000000000E+00 0. -1.
         -2    1    6    6    0  503  0.80676079825E+01  0.10947342845E+01 -0.23269745434E+01  0.84675588123E+01  0.00000000000E+00 0.  1.
<mgrwt>
<rscale>  0 0.15288175E+04</rscale>
<asrwt>0</asrwt>
<pdfrwt beam="1">  1        2 0.16224144E+00 0.15288175E+04</pdfrwt>
<pdfrwt beam="2">  1       -1 0.85243800E-01 0.15288175E+04</pdfrwt>
<totfact> 0.34803413E+01</totfact>
</mgrwt>
</event>
<event>
12    6  0.1647231E-007  0.1693119E+04  0.7818608E-02  0.8765298E-01
         -1   -1    0    0    0  501 -0.00000000000E+00  0.00000000000E+00  0.46376539836E+03  0.46376539836E+03  0.00000000000E+00 0.  1.
          2   -1    0    0  501    0  0.00000000000E+00 -0.00000000000E+00 -0.15453144606E+04  0.15453144606E+04  0.00000000000E+00 0. -1.
         24    2    1    2    0    0  0.31903898615E+03  0.45690437570E+03 -0.11283606690E+03  0.57417683719E+03  0.79997369715E+02 0.  0.
        254    2    1    2    0    0 -0.31903898615E+03 -0.45690437570E+03 -0.96871299538E+03  0.14349030218E+04  0.89999685074E+03 0.  0.
         23    2    4    4    0    0 -0.31699285861E+03  0.75218717861E+02 -0.14944492639E+02  0.33839287020E+03  0.90244494661E+02 0.  0.
         23    2    4    4    0    0 -0.20461275441E+01 -0.53212309356E+03 -0.95376850274E+03  0.10965101516E+04  0.97472983010E+02 0.  0.
          4    1    3    3  502    0  0.17945620527E+02  0.42930960181E+02 -0.30683092219E+02  0.55736565971E+02  0.00000000000E+00 0. -1.
         -3    1    3    3    0  502  0.30109336562E+03  0.41397341551E+03 -0.82152974682E+02  0.51844027122E+03  0.00000000000E+00 0.  1.
         11    1    5    5    0    0 -0.82742078678E+02  0.56988166765E+02  0.14821536908E+02  0.10155580088E+03  0.00000000000E+00 0. -1.
        -11    1    5    5    0    0 -0.23425077993E+03  0.18230551096E+02 -0.29766029548E+02  0.23683706932E+03  0.00000000000E+00 0.  1.
          2    1    6    6  503    0 -0.41948824217E+02 -0.12768241648E+03 -0.22497423295E+03  0.26206088763E+03  0.00000000000E+00 0.  1.
         -2    1    6    6    0  503  0.39902696673E+02 -0.40444067708E+03 -0.72879426979E+03  0.83444926398E+03  0.00000000000E+00 0. -1.
<mgrwt>
<rscale>  0 0.16931195E+04</rscale>
<asrwt>0</asrwt>
<pdfrwt beam="1">  1        2 0.23774069E+00 0.16931195E+04</pdfrwt>
<pdfrwt beam="2">  1       -1 0.71348523E-01 0.16931195E+04</pdfrwt>
<totfact> 0.25753312E+01</totfact>
</mgrwt>
</event>
<event>
12    6  0.1647231E-007  0.1195047E+04  0.7818608E-02  0.9117203E-01
         -1   -1    0    0    0  501 -0.00000000000E+00  0.00000000000E+00  0.16630730456E+03  0.16630730456E+03  0.00000000000E+00 0.  1.
          2   -1    0    0  501    0  0.00000000000E+00 -0.00000000000E+00 -0.21468360687E+04  0.21468360687E+04  0.00000000000E+00 0. -1.
         24    2    1    2    0    0  0.11491412026E+03 -0.14113910829E+03 -0.12257090998E+03  0.23357022395E+03  0.80036982841E+02 0.  0.
        254    2    1    2    0    0 -0.11491412026E+03  0.14113910829E+03 -0.18579578542E+04  0.20795731493E+04  0.91623773802E+03 0.  0.
         23    2    4    4    0    0  0.38285500351E+03  0.88678943778E+02 -0.60120170886E+03  0.72397977156E+03  0.90891727387E+02 0.  0.
         23    2    4    4    0    0 -0.49776912377E+03  0.52460164510E+02 -0.12567561453E+04  0.13555933778E+04  0.87585544491E+02 0.  0.
          4    1    3    3  502    0  0.60612458437E+02 -0.32711432026E+02 -0.12911399194E+02  0.70075759947E+02  0.00000000000E+00 0. -1.
         -3    1    3    3    0  502  0.54301661823E+02 -0.10842767626E+03 -0.10965951078E+03  0.16349446401E+03  0.00000000000E+00 0.  1.
         11    1    5    5    0    0  0.18780094544E+03  0.71729857355E+02 -0.36937346571E+03  0.42053671030E+03  0.00000000000E+00 0. -1.
        -11    1    5    5    0    0  0.19505405807E+03  0.16949086422E+02 -0.23182824315E+03  0.30344306125E+03  0.00000000000E+00 0.  1.
          1    1    6    6  503    0 -0.46323418594E+02 -0.20793777097E+02 -0.12387808429E+03  0.13388061863E+03  0.00000000000E+00 0. -1.
         -1    1    6    6    0  503 -0.45144570518E+03  0.73253941607E+02 -0.11328780610E+04  0.12217127591E+04  0.00000000000E+00 0.  1.
<mgrwt>
<rscale>  0 0.11950473E+04</rscale>
<asrwt>0</asrwt>
<pdfrwt beam="1">  1        2 0.33028248E+00 0.11950473E+04</pdfrwt>
<pdfrwt beam="2">  1       -1 0.25585738E-01 0.11950473E+04</pdfrwt>
<totfact> 0.83927434E+01</totfact>
</mgrwt>
</event>
<event>
12    6  0.1647231E-007  0.1665414E+04  0.7818608E-02  0.8781339E-01
         -1   -1    0    0    0  501 -0.00000000000E+00  0.00000000000E+00  0.31663916348E+03  0.31663916348E+03  0.00000000000E+00 0.  1.
          2   -1    0    0  501    0  0.00000000000E+00 -0.00000000000E+00 -0.21898780121E+04  0.21898780121E+04  0.00000000000E+00 0. -1.
         24    2    1    2    0    0 -0.51200494897E+03  0.20822186216E+03 -0.96479393817E+03  0.11146681542E+04  0.78436848524E+02 0.  0.
        254    2    1    2    0    0  0.51200494897E+03 -0.20822186216E+03 -0.90844491041E+03  0.13918490213E+04  0.89803459362E+03 0.  0.
         23    2    4    4    0    0  0.25029473504E+02 -0.35056595182E+03 -0.77934423619E+03  0.86019601247E+03  0.95061981128E+02 0.  0.
         23    2    4    4    0    0  0.48697547547E+03  0.14234408967E+03 -0.12910067422E+03  0.53165300888E+03  0.92633601913E+02 0.  0.
          4    1    3    3  502    0 -0.42208737262E+03  0.15405730457E+03 -0.72562349195E+03  0.85347574968E+03  0.00000000000E+00 0. -1.
         -1    1    3    3    0  502 -0.89917576350E+02  0.54164557585E+02 -0.23917044622E+03  0.26119240452E+03  0.00000000000E+00 0.  1.
         11    1    5    5    0    0 -0.29986127983E+02 -0.48267715919E+02 -0.12135159329E+03  0.13399682633E+03  0.00000000000E+00 0.  1.
        -11    1    5    5    0    0  0.55015601487E+02 -0.30229823590E+03 -0.65799264290E+03  0.72619918614E+03  0.00000000000E+00 0. -1.
          3    1    6    6  503    0  0.82748802395E+02  0.37529758812E+02  0.10211259284E+02  0.91433674926E+02  0.00000000000E+00 0. -1.
         -3    1    6    6    0  503  0.40422667307E+03  0.10481433086E+03 -0.13931193350E+03  0.44021933396E+03  0.00000000000E+00 0.  1.
<mgrwt>
<rscale>  0 0.16654142E+04</rscale>
<asrwt>0</asrwt>
<pdfrwt beam="1">  1        2 0.33690429E+00 0.16654142E+04</pdfrwt>
<pdfrwt beam="2">  1       -1 0.48713720E-01 0.16654142E+04</pdfrwt>
<totfact> 0.23993048E+01</totfact>
</mgrwt>
</event>
<event>
12    6  0.1647231E-007  0.2309319E+04  0.7818608E-02  0.8474256E-01
          2   -1    0    0  501    0  0.00000000000E+00  0.00000000000E+00  0.15957674685E+04  0.15957674685E+04  0.00000000000E+00 0. -1.
         -1   -1    0    0    0  501 -0.00000000000E+00 -0.00000000000E+00 -0.83548445897E+03  0.83548445897E+03  0.00000000000E+00 0.  1.
         24    2    1    2    0    0 -0.46379700931E+03 -0.31530473675E+03 -0.52083834880E+03  0.76964531279E+03  0.80972705622E+02 0.  0.
        254    2    1    2    0    0  0.46379700931E+03  0.31530473675E+03  0.12811213584E+04  0.16616066147E+04  0.89729586223E+03 0.  0.
         23    2    4    4    0    0  0.39124174536E+02 -0.21757257059E+03  0.76557519262E+03  0.80220339762E+03  0.92500762650E+02 0.  0.
         23    2    4    4    0    0  0.42467283478E+03  0.53287730734E+03  0.51554616574E+03  0.85940321710E+03  0.92091255143E+02 0.  0.
          2    1    3    3  502    0 -0.33360576928E+03 -0.26839562572E+03 -0.38779605791E+03  0.57768053778E+03  0.00000000000E+00 0. -1.
         -1    1    3    3    0  502 -0.13019124003E+03 -0.46909111034E+02 -0.13304229089E+03  0.19196477501E+03  0.00000000000E+00 0.  1.
         11    1    5    5    0    0  0.57738738042E+00 -0.28273086201E+02  0.28179472682E+02  0.39922217625E+02  0.00000000000E+00 0. -1.
        -11    1    5    5    0    0  0.38546787156E+02 -0.18929948439E+03  0.73739571994E+03  0.76228118000E+03  0.00000000000E+00 0.  1.
          4    1    6    6  503    0  0.59361972686E+02  0.31516946896E+02  0.53523089510E+02  0.85917884364E+02  0.00000000000E+00 0. -1.
         -4    1    6    6    0  503  0.36531086209E+03  0.50136036045E+03  0.46202307623E+03  0.77348533274E+03  0.00000000000E+00 0.  1.
<mgrwt>
<rscale>  0 0.23093193E+04</rscale>
<asrwt>0</asrwt>
<pdfrwt beam="1">  1        2 0.24550269E+00 0.23093193E+04</pdfrwt>
<pdfrwt beam="2">  1       -1 0.12853607E+00 0.23093193E+04</pdfrwt>
<totfact> 0.60374660E+00</totfact>
</mgrwt>
</event>
<event>
12    6  0.1647231E-007  0.2334848E+04  0.7818608E-02  0.8464307E-01
          2   -1    0    0  501    0  0.00000000000E+00  0.00000000000E+00  0.12409286187E+04  0.12409286187E+04  0.00000000000E+00 0. -1.
         -1   -1    0    0    0  501 -0.00000000000E+00 -0.00000000000E+00 -0.10982729025E+04  0.10982729025E+04  0.00000000000E+00 0.  1.
         24    2    1    2    0    0 -0.98540654235E+03 -0.26809847171E+02  0.16851155516E+03  0.10032872917E+04  0.80277169465E+02 0.  0.
        254    2    1    2    0    0  0.98540654235E+03  0.26809847171E+02 -0.25855838977E+02  0.13359142295E+04  0.90125106524E+03 0.  0.
         23    2    4    4    0    0  0.69304015330E+02  0.32499284715E+03  0.10267075874E+03  0.36008954486E+03  0.93272709711E+02 0.  0.
         23    2    4    4    0    0  0.91610252702E+03 -0.29818299998E+03 -0.12852659772E+03  0.97582468465E+03  0.86935535719E+02 0.  0.
          2    1    3    3  502    0 -0.87951121510E+03 -0.18613054315E+02  0.17473139732E+03  0.89689324030E+03  0.00000000000E+00 0. -1.
         -1    1    3    3    0  502 -0.10589532725E+03 -0.81967928562E+01 -0.62198421661E+01  0.10639405145E+03  0.00000000000E+00 0.  1.
         11    1    5    5    0    0  0.33901023260E+02  0.18710407043E+03  0.10597978385E+03  0.21768997941E+03  0.00000000000E+00 0.  1.
        -11    1    5    5    0    0  0.35402992069E+02  0.13788877672E+03 -0.33090251147E+01  0.14239956545E+03  0.00000000000E+00 0. -1.
          3    1    6    6  503    0  0.33539307162E+02 -0.24588809449E+02 -0.17726407494E+02  0.45207523685E+02  0.00000000000E+00 0. -1.
         -3    1    6    6    0  503  0.88256321986E+03 -0.27359419053E+03 -0.11080019022E+03  0.93061716097E+03  0.00000000000E+00 0.  1.
<mgrwt>
<rscale>  0 0.23348476E+04</rscale>
<asrwt>0</asrwt>
<pdfrwt beam="1">  1        2 0.19091210E+00 0.23348476E+04</pdfrwt>
<pdfrwt beam="2">  1       -1 0.16896506E+00 0.23348476E+04</pdfrwt>
<totfact> 0.46209251E+00</totfact>
</mgrwt>
</event>
<event>
12    6  0.1647231E-007  0.1899375E+04  0.7818608E-02  0.8655167E-01
         -1   -1    0    0    0  501 -0.00000000000E+00  0.00000000000E+00  0.72999811422E+03  0.72999811422E+03  0.00000000000E+00 0.  1.
          2   -1    0    0  501    0  0.00000000000E+00 -0.00000000000E+00 -0.12354915299E+04  0.12354915299E+04  0.00000000000E+00 0. -1.
         24    2    1    2    0    0 -0.40458399191E+02  0.68460907460E+02 -0.95397258366E+03  0.95996324696E+03  0.71707511629E+02 0.  0.
        254    2    1    2    0    0  0.40458399191E+02 -0.68460907460E+02  0.44847916803E+03  0.10055263971E+04  0.89645189119E+03 0.  0.
         23    2    4    4    0    0 -0.37086505950E+03 -0.20424195073E+03  0.33930901839E+03  0.54967109109E+03  0.88045622439E+02 0.  0.
         23    2    4    4    0    0  0.41132345869E+03  0.13578104327E+03  0.10917014965E+03  0.45585530602E+03  0.90898069687E+02 0.  0.
          4    1    3    3  502    0  0.83098423176E+01  0.43854810018E+02 -0.61500013096E+03  0.61661775755E+03  0.00000000000E+00 0. -1.
         -3    1    3    3    0  502 -0.48768241508E+02  0.24606097442E+02 -0.33897245270E+03  0.34334548942E+03  0.00000000000E+00 0.  1.
         11    1    5    5    0    0 -0.22462888360E+03 -0.17100760335E+03  0.22875806972E+03  0.36336206491E+03  0.00000000000E+00 0. -1.
        -11    1    5    5    0    0 -0.14623617590E+03 -0.33234347374E+02  0.11055094867E+03  0.18630902619E+03  0.00000000000E+00 0.  1.
          1    1    6    6  503    0  0.24891239305E+02  0.16524740584E+02  0.32663382966E+02  0.44266662764E+02  0.00000000000E+00 0. -1.
         -1    1    6    6    0  503  0.38643221938E+03  0.11925630269E+03  0.76506766681E+02  0.41158864326E+03  0.00000000000E+00 0.  1.
<mgrwt>
<rscale>  0 0.18993751E+04</rscale>
<asrwt>0</asrwt>
<pdfrwt beam="1">  1        2 0.19007562E+00 0.18993751E+04</pdfrwt>
<pdfrwt beam="2">  1       -1 0.11230740E+00 0.18993751E+04</pdfrwt>
<totfact> 0.13996212E+01</totfact>
</mgrwt>
</event>
<event>
12    6  0.1647231E-007  0.1411979E+04  0.7818608E-02  0.8945193E-01
         -1   -1    0    0    0  501 -0.00000000000E+00  0.00000000000E+00  0.14822569443E+04  0.14822569443E+04  0.00000000000E+00 0.  1.
          2   -1    0    0  501    0  0.00000000000E+00 -0.00000000000E+00 -0.33625819628E+03  0.33625819628E+03  0.00000000000E+00 0. -1.
         24    2    1    2    0    0 -0.32733383606E+03  0.58359291849E+02  0.23376295945E+02  0.34438961875E+03  0.86628581369E+02 0.  0.
        254    2    1    2    0    0  0.32733383606E+03 -0.58359291849E+02  0.11226224521E+04  0.14741255219E+04  0.89566268039E+03 0.  0.
         23    2    4    4    0    0 -0.10387721932E+03 -0.16213757099E+03  0.97427252085E+03  0.99769662482E+03  0.95459633784E+02 0.  0.
         23    2    4    4    0    0  0.43121105539E+03  0.10377827914E+03  0.14834993125E+03  0.47642889703E+03  0.90905920123E+02 0.  0.
          4    1    3    3  502    0 -0.30048618023E+03  0.37452323272E+02 -0.51576696707E+00  0.30281163624E+03  0.00000000000E+00 0. -1.
         -1    1    3    3    0  502 -0.26847655833E+02  0.20906968577E+02  0.23892062912E+02  0.41577982503E+02  0.00000000000E+00 0.  1.
         11    1    5    5    0    0 -0.11088721129E+03 -0.12405653224E+03  0.88315896748E+03  0.89869670004E+03  0.00000000000E+00 0. -1.
        -11    1    5    5    0    0  0.70099919688E+01 -0.38081038755E+02  0.91113553365E+02  0.98999924782E+02  0.00000000000E+00 0.  1.
          4    1    6    6  503    0  0.42113331214E+03  0.84845181376E+02  0.13186562866E+03  0.44937792048E+03  0.00000000000E+00 0. -1.
         -4    1    6    6    0  503  0.10077743246E+02  0.18933097768E+02  0.16484302598E+02  0.27050976548E+02  0.00000000000E+00 0.  1.
<mgrwt>
<rscale>  0 0.14119788E+04</rscale>
<asrwt>0</asrwt>
<pdfrwt beam="1">  1        2 0.51732031E-01 0.14119788E+04</pdfrwt>
<pdfrwt beam="2">  1       -1 0.22803953E+00 0.14119788E+04</pdfrwt>
<totfact> 0.10469660E+01</totfact>
</mgrwt>
</event>
<event>
12    6  0.1647231E-007  0.1746736E+04  0.7818608E-02  0.8735149E-01
         -1   -1    0    0    0  501 -0.00000000000E+00  0.00000000000E+00  0.32025125972E+03  0.32025125972E+03  0.00000000000E+00 0.  1.
          2   -1    0    0  501    0  0.00000000000E+00 -0.00000000000E+00 -0.23817921095E+04  0.23817921095E+04  0.00000000000E+00 0. -1.
         24    2    1    2    0    0 -0.90345207965E+02 -0.25131307244E+03 -0.16378868086E+04  0.16614355027E+04  0.79838679344E+02 0.  0.
        254    2    1    2    0    0  0.90345207965E+02  0.25131307244E+03 -0.42365404112E+03  0.10406078665E+04  0.91217403398E+03 0.  0.
         23    2    4    4    0    0  0.33821981575E+03  0.20264920901E+02  0.13974830836E+03  0.37692515182E+03  0.87975392031E+02 0.  0.
         23    2    4    4    0    0 -0.24787460778E+03  0.23104815154E+03 -0.56340234948E+03  0.66368271467E+03  0.90705395873E+02 0.  0.
          2    1    3    3  502    0 -0.59817038710E+02 -0.17704687095E+03 -0.13378893602E+04  0.13508780896E+04  0.00000000000E+00 0. -1.
         -1    1    3    3    0  502 -0.30528169255E+02 -0.74266201488E+02 -0.29999744840E+03  0.31055741313E+03  0.00000000000E+00 0.  1.
         11    1    5    5    0    0  0.11791622843E+03 -0.10553022803E+02  0.90688319776E+02  0.14913072977E+03  0.00000000000E+00 0. -1.
        -11    1    5    5    0    0  0.22030358732E+03  0.30817943704E+02  0.49059988587E+02  0.22779442205E+03  0.00000000000E+00 0.  1.
          3    1    6    6  503    0 -0.21177974996E+03  0.20870228484E+03 -0.53661920570E+03  0.61348796085E+03  0.00000000000E+00 0. -1.
         -3    1    6    6    0  503 -0.36094857825E+02  0.22345866693E+02 -0.26783143783E+02  0.50194753815E+02  0.00000000000E+00 0.  1.
<mgrwt>
<rscale>  0 0.17467363E+04</rscale>
<asrwt>0</asrwt>
<pdfrwt beam="1">  1        2 0.36642957E+00 0.17467363E+04</pdfrwt>
<pdfrwt beam="2">  1       -1 0.49269423E-01 0.17467363E+04</pdfrwt>
<totfact> 0.18164403E+01</totfact>
</mgrwt>
</event>
<event>
12    6  0.1647231E-007  0.1614745E+04  0.7818608E-02  0.8811540E-01
          2   -1    0    0  501    0  0.00000000000E+00  0.00000000000E+00  0.99962285411E+03  0.99962285411E+03  0.00000000000E+00 0. -1.
         -1   -1    0    0    0  501 -0.00000000000E+00 -0.00000000000E+00 -0.65209647524E+03  0.65209647524E+03  0.00000000000E+00 0.  1.
         24    2    1    2    0    0  0.14257828096E+03 -0.25625172822E+03  0.59618238353E+03  0.66934333278E+03  0.81200666722E+02 0.  0.
        254    2    1    2    0    0 -0.14257828096E+03  0.25625172822E+03 -0.24865600466E+03  0.98237599658E+03  0.90401287357E+03 0.  0.
         23    2    4    4    0    0 -0.16632391903E+03 -0.33322096481E+02  0.29983684915E+03  0.35514997091E+03  0.86344412520E+02 0.  0.
         23    2    4    4    0    0  0.23745638065E+02  0.28957382471E+03 -0.54849285381E+03  0.62722602567E+03  0.90284114451E+02 0.  0.
          4    1    3    3  502    0  0.13082584253E+03 -0.24656304180E+03  0.50596153244E+03  0.57784583322E+03  0.00000000000E+00 0. -1.
         -3    1    3    3    0  502  0.11752438435E+02 -0.96886864207E+01  0.90220851090E+02  0.91497499557E+02  0.00000000000E+00 0.  1.
         11    1    5    5    0    0 -0.10415697688E+03  0.21183324177E+02  0.18951029420E+03  0.21728221433E+03  0.00000000000E+00 0.  1.
        -11    1    5    5    0    0 -0.62166942151E+02 -0.54505420657E+02  0.11032655494E+03  0.13786775658E+03  0.00000000000E+00 0. -1.
          4    1    6    6  503    0 -0.12214663583E+02  0.15105037758E+03 -0.20350923564E+03  0.25373494747E+03  0.00000000000E+00 0. -1.
         -4    1    6    6    0  503  0.35960301648E+02  0.13852344712E+03 -0.34498361816E+03  0.37349107820E+03  0.00000000000E+00 0.  1.
<mgrwt>
<rscale>  0 0.16147452E+04</rscale>
<asrwt>0</asrwt>
<pdfrwt beam="1">  1        2 0.15378813E+00 0.16147452E+04</pdfrwt>
<pdfrwt beam="2">  1       -1 0.10032253E+00 0.16147452E+04</pdfrwt>
<totfact> 0.26063636E+01</totfact>
</mgrwt>
</event>
<event>
12    6  0.1653705E-007  0.1797791E+04  0.7818608E-02  0.8707475E-01
          2   -1    0    0  501    0  0.00000000000E+00  0.00000000000E+00  0.59916323957E+03  0.59916323957E+03  0.00000000000E+00 0. -1.
         -1   -1    0    0    0  501 -0.00000000000E+00 -0.00000000000E+00 -0.13485687018E+04  0.13485687018E+04  0.00000000000E+00 0.  1.
         24    2    1    2    0    0  0.34747355893E+03  0.32980018115E+03  0.22982449107E+03  0.53742630251E+03  0.80633121574E+02 0.  0.
        254    2    1    2    0    0 -0.34747355893E+03 -0.32980018115E+03 -0.97922995335E+03  0.14103056389E+04  0.89474278982E+03 0.  0.
         23    2    4    4    0    0 -0.21517704730E+03  0.26259244087E+03 -0.15929767941E+03  0.38603775068E+03  0.91615733358E+02 0.  0.
         23    2    4    4    0    0 -0.13229651163E+03 -0.59239262203E+03 -0.81993227394E+03  0.10242678882E+04  0.91675445817E+02 0.  0.
          4    1    3    3  502    0  0.28824758924E+03  0.26709580013E+03  0.15229517867E+03  0.42145066211E+03  0.00000000000E+00 0. -1.
         -3    1    3    3    0  502  0.59225969691E+02  0.62704381024E+02  0.77529312401E+02  0.11597564040E+03  0.00000000000E+00 0.  1.
         11    1    5    5    0    0 -0.13148877526E+03  0.97758284104E+02 -0.50113727485E+02  0.17133991308E+03  0.00000000000E+00 0.  1.
        -11    1    5    5    0    0 -0.83688272038E+02  0.16483415677E+03 -0.10918395192E+03  0.21469783761E+03  0.00000000000E+00 0. -1.
          2    1    6    6  503    0 -0.71283579692E+02 -0.41099590435E+03 -0.62218285163E+03  0.74907308254E+03  0.00000000000E+00 0.  1.
         -2    1    6    6    0  503 -0.61012931934E+02 -0.18139671768E+03 -0.19774942231E+03  0.27519480567E+03  0.00000000000E+00 0. -1.
<mgrwt>
<rscale>  0 0.17977906E+04</rscale>
<asrwt>0</asrwt>
<pdfrwt beam="1">  1        2 0.92178962E-01 0.17977906E+04</pdfrwt>
<pdfrwt beam="2">  1       -1 0.20747210E+00 0.17977906E+04</pdfrwt>
<totfact> 0.71656439E+00</totfact>
</mgrwt>
</event>
<event>
12    6  0.1647231E-007  0.1500802E+04  0.7818608E-02  0.8883920E-01
          2   -1    0    0  501    0  0.00000000000E+00  0.00000000000E+00  0.66764774772E+03  0.66764774772E+03  0.00000000000E+00 0. -1.
         -1   -1    0    0    0  501 -0.00000000000E+00 -0.00000000000E+00 -0.84341152575E+03  0.84341152575E+03  0.00000000000E+00 0.  1.
         24    2    1    2    0    0  0.23730430013E+03 -0.31193143468E+03 -0.33408772018E+03  0.52117662189E+03  0.79974468580E+02 0.  0.
        254    2    1    2    0    0 -0.23730430013E+03  0.31193143468E+03  0.15832394215E+03  0.98988265158E+03  0.89509029848E+03 0.  0.
         23    2    4    4    0    0 -0.93082296640E+02  0.53861881287E+03  0.34383590153E+03  0.65217778602E+03  0.91313733151E+02 0.  0.
         23    2    4    4    0    0 -0.14422200349E+03 -0.22668737820E+03 -0.18551195938E+03  0.33770486556E+03  0.86271289697E+02 0.  0.
          2    1    3    3  502    0  0.23843020171E+03 -0.31572598486E+03 -0.32803370606E+03  0.51394354838E+03  0.00000000000E+00 0. -1.
         -3    1    3    3    0  502 -0.11259015815E+01  0.37945501817E+01 -0.60540141231E+01  0.72330735138E+01  0.00000000000E+00 0.  1.
         11    1    5    5    0    0 -0.39974284028E+02  0.44268842724E+03  0.27274037536E+03  0.52149621221E+03  0.00000000000E+00 0. -1.
        -11    1    5    5    0    0 -0.53108012612E+02  0.95930385633E+02  0.71095526171E+02  0.13068157381E+03  0.00000000000E+00 0.  1.
          4    1    6    6  503    0 -0.15596371031E+03 -0.21503918498E+03 -0.17417420304E+03  0.31765261374E+03  0.00000000000E+00 0. -1.
         -4    1    6    6    0  503  0.11741706820E+02 -0.11648193213E+02 -0.11337756337E+02  0.20052251817E+02  0.00000000000E+00 0.  1.
<mgrwt>
<rscale>  0 0.15008022E+04</rscale>
<asrwt>0</asrwt>
<pdfrwt beam="1">  1        2 0.10271504E+00 0.15008022E+04</pdfrwt>
<pdfrwt beam="2">  1       -1 0.12975562E+00 0.15008022E+04</pdfrwt>
<totfact> 0.24462467E+01</totfact>
</mgrwt>
</event>
<event>
12    6  0.1647231E-007  0.1574937E+04  0.7818608E-02  0.8836095E-01
         -1   -1    0    0    0  501 -0.00000000000E+00  0.00000000000E+00  0.66564775579E+03  0.66564775579E+03  0.00000000000E+00 0.  1.
          2   -1    0    0  501    0  0.00000000000E+00 -0.00000000000E+00 -0.93158394513E+03  0.93158394513E+03  0.00000000000E+00 0. -1.
         24    2    1    2    0    0 -0.32743458470E+00  0.30462164780E+03  0.33595702852E+03  0.46049766589E+03  0.79978245554E+02 0.  0.
        254    2    1    2    0    0  0.32743458470E+00 -0.30462164780E+03 -0.60189321785E+03  0.11367340350E+04  0.91492861207E+03 0.  0.
         23    2    4    4    0    0 -0.34798321792E+03 -0.21056158535E+03  0.14302854254E+02  0.41711311717E+03  0.91379864849E+02 0.  0.
         23    2    4    4    0    0  0.34831065251E+03 -0.94060062447E+02 -0.61619607210E+03  0.71962091786E+03  0.89381542536E+02 0.  0.
          2    1    3    3  502    0  0.73951627391E+00  0.70725375849E+02  0.13379858998E+03  0.15134294947E+03  0.00000000000E+00 0. -1.
         -1    1    3    3    0  502 -0.10669508586E+01  0.23389627195E+03  0.20215843854E+03  0.30915471643E+03  0.00000000000E+00 0.  1.
         11    1    5    5    0    0 -0.63141634169E+02 -0.16634796732E+01  0.93056441396E+01  0.63845345507E+02  0.00000000000E+00 0. -1.
        -11    1    5    5    0    0 -0.28484158375E+03 -0.20889810568E+03  0.49972101147E+01  0.35326777167E+03  0.00000000000E+00 0.  1.
          1    1    6    6  503    0  0.50893953134E+02 -0.33963260170E+02 -0.16414298200E+03  0.17517595738E+03  0.00000000000E+00 0. -1.
         -1    1    6    6    0  503  0.29741669937E+03 -0.60096802276E+02 -0.45205309011E+03  0.54444496047E+03  0.00000000000E+00 0.  1.
<mgrwt>
<rscale>  0 0.15749372E+04</rscale>
<asrwt>0</asrwt>
<pdfrwt beam="1">  1        2 0.14332061E+00 0.15749372E+04</pdfrwt>
<pdfrwt beam="2">  1       -1 0.10240735E+00 0.15749372E+04</pdfrwt>
<totfact> 0.27630870E+01</totfact>
</mgrwt>
</event>
<event>
12    6  0.1647231E-007  0.2797822E+04  0.7818608E-02  0.8303945E-01
         -1   -1    0    0    0  501 -0.00000000000E+00  0.00000000000E+00  0.98505523041E+03  0.98505523041E+03  0.00000000000E+00 0.  1.
          2   -1    0    0  501    0  0.00000000000E+00 -0.00000000000E+00 -0.19866419686E+04  0.19866419686E+04  0.00000000000E+00 0. -1.
         24    2    1    2    0    0  0.10703735442E+04 -0.61922892462E+03 -0.24363914357E+03  0.12630756802E+04  0.82801911305E+02 0.  0.
        254    2    1    2    0    0 -0.10703735442E+04  0.61922892462E+03 -0.75794759458E+03  0.17086215188E+04  0.90319375166E+03 0.  0.
         23    2    4    4    0    0 -0.82832181664E+03  0.77110549722E+03 -0.32240510769E+03  0.11799505233E+04  0.87278086069E+02 0.  0.
         23    2    4    4    0    0 -0.24205172754E+03 -0.15187657261E+03 -0.43554248689E+03  0.52867099541E+03  0.90223230858E+02 0.  0.
          2    1    3    3  502    0  0.23884752490E+03 -0.13487013280E+03 -0.89315832594E+02  0.28847081451E+03  0.00000000000E+00 0. -1.
         -1    1    3    3    0  502  0.83152601929E+03 -0.48435879182E+03 -0.15432331098E+03  0.97460486571E+03  0.00000000000E+00 0.  1.
         11    1    5    5    0    0 -0.62920258398E+03  0.57681101588E+03 -0.20417594147E+03  0.87766431784E+03  0.00000000000E+00 0. -1.
        -11    1    5    5    0    0 -0.19911923266E+03  0.19429448135E+03 -0.11822916622E+03  0.30228620551E+03  0.00000000000E+00 0.  1.
          2    1    6    6  503    0 -0.15347303287E+03 -0.10604538528E+03 -0.35279973793E+03  0.39908301221E+03  0.00000000000E+00 0. -1.
         -2    1    6    6    0  503 -0.88578694679E+02 -0.45831187325E+02 -0.82742748964E+02  0.12958798320E+03  0.00000000000E+00 0.  1.
<mgrwt>
<rscale>  0 0.27978221E+04</rscale>
<asrwt>0</asrwt>
<pdfrwt beam="1">  1        2 0.30563723E+00 0.27978221E+04</pdfrwt>
<pdfrwt beam="2">  1       -1 0.15154696E+00 0.27978221E+04</pdfrwt>
<totfact> 0.22835766E+00</totfact>
</mgrwt>
</event>
<event>
12    6  0.1647231E-007  0.1936388E+04  0.7818608E-02  0.8636953E-01
         -1   -1    0    0    0  501 -0.00000000000E+00  0.00000000000E+00  0.44307151688E+03  0.44307151688E+03  0.00000000000E+00 0.  1.
          2   -1    0    0  501    0  0.00000000000E+00 -0.00000000000E+00 -0.21156843959E+04  0.21156843959E+04  0.00000000000E+00 0. -1.
         24    2    1    2    0    0 -0.37574481530E+03  0.60023099960E+03 -0.30894116181E+03  0.77659456402E+03  0.78695973840E+02 0.  0.
        254    2    1    2    0    0  0.37574481530E+03 -0.60023099960E+03 -0.13636717172E+04  0.17821613487E+04  0.90279405269E+03 0.  0.
         23    2    4    4    0    0 -0.96034510901E+02 -0.65056584294E+03 -0.77523990889E+03  0.10206197731E+04  0.90604975780E+02 0.  0.
         23    2    4    4    0    0  0.47177932620E+03  0.50334843339E+02 -0.58843180828E+03  0.76154157562E+03  0.92651224058E+02 0.  0.
          4    1    3    3  502    0 -0.81676288969E+02  0.19447494111E+03 -0.10427883657E+03  0.23529894742E+03  0.00000000000E+00 0. -1.
         -3    1    3    3    0  502 -0.29406852633E+03  0.40575605849E+03 -0.20466232524E+03  0.54129561660E+03  0.00000000000E+00 0.  1.
         11    1    5    5    0    0 -0.64104416506E+02 -0.16316824924E+03 -0.19795511091E+03  0.26442291828E+03  0.00000000000E+00 0.  1.
        -11    1    5    5    0    0 -0.31930094395E+02 -0.48739759370E+03 -0.57728479798E+03  0.75619685483E+03  0.00000000000E+00 0. -1.
          4    1    6    6  503    0  0.31906372758E+03  0.42926357929E+01 -0.44100737930E+03  0.54434143474E+03  0.00000000000E+00 0.  1.
         -4    1    6    6    0  503  0.15271559862E+03  0.46042207546E+02 -0.14742442898E+03  0.21720014088E+03  0.00000000000E+00 0. -1.
<mgrwt>
<rscale>  0 0.19363879E+04</rscale>
<asrwt>0</asrwt>
<pdfrwt beam="1">  1        2 0.32548991E+00 0.19363879E+04</pdfrwt>
<pdfrwt beam="2">  1       -1 0.68164848E-01 0.19363879E+04</pdfrwt>
<totfact> 0.13339750E+01</totfact>
</mgrwt>
</event>
<event>
12    6  0.1647231E-007  0.1576561E+04  0.7818608E-02  0.8835078E-01
         -1   -1    0    0    0  501 -0.00000000000E+00  0.00000000000E+00  0.37308447556E+03  0.37308447556E+03  0.00000000000E+00 0.  1.
          2   -1    0    0  501    0  0.00000000000E+00 -0.00000000000E+00 -0.16655375074E+04  0.16655375074E+04  0.00000000000E+00 0. -1.
         24    2    1    2    0    0 -0.96186739979E+02 -0.21734630411E+02 -0.11252197901E+04  0.11323257596E+04  0.79484380561E+02 0.  0.
        254    2    1    2    0    0  0.96186739979E+02  0.21734630411E+02 -0.16723324173E+03  0.90629622334E+03  0.88525793088E+03 0.  0.
         23    2    4    4    0    0 -0.35138074956E+03 -0.16127198043E+03 -0.81839925677E+02  0.40721325035E+03  0.98223087890E+02 0.  0.
         23    2    4    4    0    0  0.44756748954E+03  0.18300661084E+03 -0.85393316051E+02  0.49908297299E+03  0.89351654677E+02 0.  0.
          2    1    3    3  502    0 -0.80104651302E+02 -0.42838385925E+02 -0.64401665043E+03  0.65039167315E+03  0.00000000000E+00 0. -1.
         -1    1    3    3    0  502 -0.16082088678E+02  0.21103755514E+02 -0.48120313966E+03  0.48193408646E+03  0.00000000000E+00 0.  1.
         11    1    5    5    0    0 -0.32718844172E+03 -0.11856950916E+03 -0.58597979734E+02  0.35290895161E+03  0.00000000000E+00 0. -1.
        -11    1    5    5    0    0 -0.24192307847E+02 -0.42702471266E+02 -0.23241945943E+02  0.54304298747E+02  0.00000000000E+00 0.  1.
          3    1    6    6  503    0  0.35722643344E+03  0.11042736418E+03 -0.83833005272E+02  0.38318781333E+03  0.00000000000E+00 0. -1.
         -3    1    6    6    0  503  0.90341056098E+02  0.72579246658E+02 -0.15603107787E+01  0.11589515966E+03  0.00000000000E+00 0.  1.
<mgrwt>
<rscale>  0 0.15765611E+04</rscale>
<asrwt>0</asrwt>
<pdfrwt beam="1">  1        2 0.25623654E+00 0.15765611E+04</pdfrwt>
<pdfrwt beam="2">  1       -1 0.57397613E-01 0.15765611E+04</pdfrwt>
<totfact> 0.34482882E+01</totfact>
</mgrwt>
</event>
<event>
12    6  0.1647231E-007  0.3148935E+04  0.7818608E-02  0.8202435E-01
         -1   -1    0    0    0  501 -0.00000000000E+00  0.00000000000E+00  0.25213338785E+04  0.25213338785E+04  0.00000000000E+00 0.  1.
          2   -1    0    0  501    0  0.00000000000E+00 -0.00000000000E+00 -0.98318907463E+03  0.98318907463E+03  0.00000000000E+00 0. -1.
         24    2    1    2    0    0 -0.23358512770E+02  0.87618739668E+03  0.20017087029E+04  0.21865936117E+04  0.78127569980E+02 0.  0.
        254    2    1    2    0    0  0.23358512770E+02 -0.87618739668E+03 -0.46356389901E+03  0.13179293414E+04  0.86821442418E+03 0.  0.
         23    2    4    4    0    0 -0.66280781668E+02 -0.56664230352E+03 -0.70029749687E+03  0.90789448222E+03  0.91537776700E+02 0.  0.
         23    2    4    4    0    0  0.89639294438E+02 -0.30954509316E+03  0.23673359786E+03  0.41003485923E+03  0.90732693241E+02 0.  0.
          2    1    3    3  502    0  0.25332413403E+02  0.21637915156E+03  0.52872476239E+03  0.57184923079E+03  0.00000000000E+00 0. -1.
         -1    1    3    3    0  502 -0.48690926172E+02  0.65980824512E+03  0.14729839405E+04  0.16147443809E+04  0.00000000000E+00 0.  1.
         11    1    5    5    0    0 -0.31899158886E+02 -0.50888547603E+03 -0.60369675262E+03  0.79020994247E+03  0.00000000000E+00 0. -1.
        -11    1    5    5    0    0 -0.34381622782E+02 -0.57756827499E+02 -0.96600744248E+02  0.11768453975E+03  0.00000000000E+00 0.  1.
          1    1    6    6  503    0  0.27326889543E+01 -0.11126425378E+03  0.12155768828E+03  0.16481345011E+03  0.00000000000E+00 0. -1.
         -1    1    6    6    0  503  0.86906605484E+02 -0.19828083938E+03  0.11517590957E+03  0.24522140912E+03  0.00000000000E+00 0.  1.
<mgrwt>
<rscale>  0 0.31489350E+04</rscale>
<asrwt>0</asrwt>
<pdfrwt beam="1">  1        2 0.15125986E+00 0.31489350E+04</pdfrwt>
<pdfrwt beam="2">  1       -1 0.38789752E+00 0.31489350E+04</pdfrwt>
<totfact> 0.21512351E-01</totfact>
</mgrwt>
</event>
<event>
12    6  0.1647231E-007  0.2091966E+04  0.7818608E-02  0.8564791E-01
         -1   -1    0    0    0  501 -0.00000000000E+00  0.00000000000E+00  0.66379603962E+03  0.66379603962E+03  0.00000000000E+00 0.  1.
          2   -1    0    0  501    0  0.00000000000E+00 -0.00000000000E+00 -0.16482178638E+04  0.16482178638E+04  0.00000000000E+00 0. -1.
         24    2    1    2    0    0  0.63214454690E+03 -0.27972264967E+01  0.22010832695E+03  0.67428631508E+03  0.81239192853E+02 0.  0.
        254    2    1    2    0    0 -0.63214454690E+03  0.27972264967E+01 -0.12045301511E+04  0.16377275883E+04  0.91194529220E+03 0.  0.
         23    2    4    4    0    0 -0.75044615919E+03  0.11888420916E+03 -0.51359568660E+03  0.92133375457E+03  0.88161584535E+02 0.  0.
         23    2    4    4    0    0  0.11830161229E+03 -0.11608698266E+03 -0.69093446451E+03  0.71639383375E+03  0.91423365547E+02 0.  0.
          2    1    3    3  502    0  0.73518429872E+02 -0.25336743435E+02  0.18195828338E+02  0.79862370786E+02  0.00000000000E+00 0. -1.
         -1    1    3    3    0  502  0.55862611703E+03  0.22539516938E+02  0.20191249861E+03  0.59442394429E+03  0.00000000000E+00 0.  1.
         11    1    5    5    0    0 -0.74113493636E+03  0.12235970119E+03 -0.51572833064E+03  0.91116881059E+03  0.00000000000E+00 0.  1.
        -11    1    5    5    0    0 -0.93112228337E+01 -0.34754920338E+01  0.21326440427E+01  0.10164943982E+02  0.00000000000E+00 0. -1.
          2    1    6    6  503    0 -0.14067072443E+02 -0.24123628322E+02 -0.91327435367E+02  0.95501478634E+02  0.00000000000E+00 0. -1.
         -2    1    6    6    0  503  0.13236868474E+03 -0.91963354339E+02 -0.59960702914E+03  0.62089235511E+03  0.00000000000E+00 0.  1.
<mgrwt>
<rscale>  0 0.20919661E+04</rscale>
<asrwt>0</asrwt>
<pdfrwt beam="1">  1        2 0.25357197E+00 0.20919661E+04</pdfrwt>
<pdfrwt beam="2">  1       -1 0.10212247E+00 0.20919661E+04</pdfrwt>
<totfact> 0.99964161E+00</totfact>
</mgrwt>
</event>
<event>
12    6  0.1647231E-007  0.1653694E+04  0.7818608E-02  0.8788224E-01
          2   -1    0    0  501    0  0.00000000000E+00  0.00000000000E+00  0.15640391859E+04  0.15640391859E+04  0.00000000000E+00 0. -1.
         -1   -1    0    0    0  501 -0.00000000000E+00 -0.00000000000E+00 -0.43712191380E+03  0.43712191380E+03  0.00000000000E+00 0.  1.
         24    2    1    2    0    0  0.38442453841E+03 -0.77173483700E+01  0.91881555510E+03  0.99918744037E+03  0.79446419114E+02 0.  0.
        254    2    1    2    0    0 -0.38442453841E+03  0.77173483700E+01  0.20810171701E+03  0.10019736593E+04  0.90155593624E+03 0.  0.
         23    2    4    4    0    0 -0.36301122592E+03  0.29719994124E+03 -0.17800604149E+03  0.51030556713E+03  0.92847540735E+02 0.  0.
         23    2    4    4    0    0 -0.21413312493E+02 -0.28948259287E+03  0.38610775850E+03  0.49166809220E+03  0.91649387283E+02 0.  0.
          2    1    3    3  502    0  0.37634381066E+03  0.62074764746E+01  0.87575619337E+03  0.95321671556E+03  0.00000000000E+00 0. -1.
         -1    1    3    3    0  502  0.80807277526E+01 -0.13924824845E+02  0.43059361723E+02  0.45970724814E+02  0.00000000000E+00 0.  1.
         11    1    5    5    0    0 -0.13033012246E+02 -0.14125885365E+01  0.64941854509E+01  0.14629738864E+02  0.00000000000E+00 0. -1.
        -11    1    5    5    0    0 -0.34997821367E+03  0.29861252977E+03 -0.18450022694E+03  0.49567582826E+03  0.00000000000E+00 0.  1.
          3    1    6    6  503    0 -0.35964961786E+02 -0.60668809665E+02  0.57587266627E+02  0.91052052256E+02  0.00000000000E+00 0. -1.
         -3    1    6    6    0  503  0.14551649293E+02 -0.22881378320E+03  0.32852049187E+03  0.40061603995E+03  0.00000000000E+00 0.  1.
<mgrwt>
<rscale>  0 0.16536938E+04</rscale>
<asrwt>0</asrwt>
<pdfrwt beam="1">  1        2 0.24062141E+00 0.16536938E+04</pdfrwt>
<pdfrwt beam="2">  1       -1 0.67249526E-01 0.16536938E+04</pdfrwt>
<totfact> 0.28467755E+01</totfact>
</mgrwt>
</event>
<event>
12    6  0.1647231E-007  0.1771080E+04  0.7818608E-02  0.8721832E-01
         -1   -1    0    0    0  501 -0.00000000000E+00  0.00000000000E+00  0.30502429232E+03  0.30502429232E+03  0.00000000000E+00 0.  1.
          2   -1    0    0  501    0  0.00000000000E+00 -0.00000000000E+00 -0.25708806971E+04  0.25708806971E+04  0.00000000000E+00 0. -1.
         24    2    1    2    0    0 -0.19234973183E+03 -0.46777885017E+03 -0.15030240150E+04  0.15878486490E+04  0.79791417846E+02 0.  0.
        254    2    1    2    0    0  0.19234973183E+03  0.46777885017E+03 -0.76283238972E+03  0.12880563404E+04  0.90628936287E+03 0.  0.
         23    2    4    4    0    0 -0.35920303933E+02 -0.11891898419E+02  0.17783898332E+03  0.20466625532E+03  0.93967476257E+02 0.  0.
         23    2    4    4    0    0  0.22827003577E+03  0.47967074859E+03 -0.94067137304E+03  0.10833900851E+04  0.81732540129E+02 0.  0.
          2    1    3    3  502    0 -0.19293627367E+03 -0.47088127170E+03 -0.14942935198E+04  0.15785647599E+04  0.00000000000E+00 0. -1.
         -1    1    3    3    0  502  0.58654183638E+00  0.31024215288E+01 -0.87304951967E+01  0.92838891122E+01  0.00000000000E+00 0.  1.
         11    1    5    5    0    0 -0.57723742098E+02  0.21274973987E+02  0.10389476381E+03  0.12074260585E+03  0.00000000000E+00 0.  1.
        -11    1    5    5    0    0  0.21803438165E+02 -0.33166872406E+02  0.73944219511E+02  0.83923649468E+02  0.00000000000E+00 0. -1.
          4    1    6    6  503    0 -0.52521462236E+01  0.97407099084E+01 -0.97219908274E+01  0.14730362355E+02  0.00000000000E+00 0. -1.
         -4    1    6    6    0  503  0.23352218199E+03  0.46993003868E+03 -0.93094938222E+03  0.10686597227E+04  0.00000000000E+00 0.  1.
<mgrwt>
<rscale>  0 0.17710800E+04</rscale>
<asrwt>0</asrwt>
<pdfrwt beam="1">  1        2 0.39552010E+00 0.17710800E+04</pdfrwt>
<pdfrwt beam="2">  1       -1 0.46926815E-01 0.17710800E+04</pdfrwt>
<totfact> 0.15462354E+01</totfact>
</mgrwt>
</event>
<event>
12    6  0.1647231E-007  0.1766246E+04  0.7818608E-02  0.8724458E-01
          2   -1    0    0  501    0  0.00000000000E+00  0.00000000000E+00  0.17602559997E+04  0.17602559997E+04  0.00000000000E+00 0. -1.
         -1   -1    0    0    0  501 -0.00000000000E+00 -0.00000000000E+00 -0.44306404442E+03  0.44306404442E+03  0.00000000000E+00 0.  1.
         24    2    1    2    0    0 -0.55137905322E+03 -0.31395490118E+03  0.32357601407E+03  0.71663050738E+03  0.79191583688E+02 0.  0.
        254    2    1    2    0    0  0.55137905322E+03  0.31395490118E+03  0.99361594121E+03  0.14866895367E+04  0.90575195265E+03 0.  0.
         23    2    4    4    0    0  0.66160259739E+03  0.21370797694E+03  0.10826552172E+04  0.12899921107E+04  0.92456638938E+02 0.  0.
         23    2    4    4    0    0 -0.11022354418E+03  0.10024692424E+03 -0.89039276018E+02  0.19669742601E+03  0.92537609726E+02 0.  0.
          4    1    3    3  502    0 -0.42849080529E+03 -0.20766431098E+03  0.22563157514E+03  0.52691407646E+03  0.00000000000E+00 0. -1.
         -3    1    3    3    0  502 -0.12288824793E+03 -0.10629059020E+03  0.97944438932E+02  0.18971643092E+03  0.00000000000E+00 0.  1.
         11    1    5    5    0    0  0.37625108382E+03  0.77926873538E+02  0.55736692884E+03  0.67697516133E+03  0.00000000000E+00 0.  1.
        -11    1    5    5    0    0  0.28535151357E+03  0.13578110340E+03  0.52528828838E+03  0.61301694940E+03  0.00000000000E+00 0. -1.
          3    1    6    6  503    0 -0.83014096033E+02  0.47719568716E+02 -0.76177970095E+01  0.96054818775E+02  0.00000000000E+00 0. -1.
         -3    1    6    6    0  503 -0.27209448142E+02  0.52527355521E+02 -0.81421479008E+02  0.10064260723E+03  0.00000000000E+00 0.  1.
<mgrwt>
<rscale>  0 0.17662459E+04</rscale>
<asrwt>0</asrwt>
<pdfrwt beam="1">  1        2 0.27080861E+00 0.17662459E+04</pdfrwt>
<pdfrwt beam="2">  1       -1 0.68163700E-01 0.17662459E+04</pdfrwt>
<totfact> 0.21327272E+01</totfact>
</mgrwt>
</event>
<event>
12    6  0.1647231E-007  0.1080408E+04  0.7818608E-02  0.9224501E-01
          2   -1    0    0  501    0  0.00000000000E+00  0.00000000000E+00  0.16245744186E+04  0.16245744186E+04  0.00000000000E+00 0. -1.
         -1   -1    0    0    0  501 -0.00000000000E+00 -0.00000000000E+00 -0.17962868040E+03  0.17962868040E+03  0.00000000000E+00 0.  1.
         24    2    1    2    0    0 -0.56190432610E+02  0.35866993846E+02  0.41103545753E+03  0.42409261548E+03  0.80377815313E+02 0.  0.
        254    2    1    2    0    0  0.56190432610E+02 -0.35866993846E+02  0.10339102807E+04  0.13801104835E+04  0.91175143119E+03 0.  0.
         23    2    4    4    0    0 -0.24302605421E+03  0.97465218027E+02 -0.16637448592E+02  0.27590512480E+03  0.85356320481E+02 0.  0.
         23    2    4    4    0    0  0.29921648682E+03 -0.13333221187E+03  0.10505477293E+04  0.11042053587E+04  0.91164456076E+02 0.  0.
          4    1    3    3  502    0 -0.20646496215E+02  0.58381366346E+02  0.26318738442E+03  0.27037429808E+03  0.00000000000E+00 0. -1.
         -3    1    3    3    0  502 -0.35543936395E+02 -0.22514372500E+02  0.14784807311E+03  0.15371831741E+03  0.00000000000E+00 0.  1.
         11    1    5    5    0    0 -0.14532589096E+03  0.86240505498E+02  0.21655088693E+02  0.17037013306E+03  0.00000000000E+00 0. -1.
        -11    1    5    5    0    0 -0.97700163250E+02  0.11224712528E+02 -0.38292537286E+02  0.10553499174E+03  0.00000000000E+00 0.  1.
          3    1    6    6  503    0  0.82615375796E+02 -0.81837833896E+02  0.31932129329E+03  0.33983646026E+03  0.00000000000E+00 0. -1.
         -3    1    6    6    0  503  0.21660111102E+03 -0.51494377977E+02  0.73122643596E+03  0.76436889845E+03  0.00000000000E+00 0.  1.
<mgrwt>
<rscale>  0 0.10804076E+04</rscale>
<asrwt>0</asrwt>
<pdfrwt beam="1">  1        2 0.24993452E+00 0.10804076E+04</pdfrwt>
<pdfrwt beam="2">  1       -1 0.27635183E-01 0.10804076E+04</pdfrwt>
<totfact> 0.14408128E+02</totfact>
</mgrwt>
</event>
<event>
12    6  0.1647231E-007  0.3176761E+04  0.7818608E-02  0.8194982E-01
         -1   -1    0    0    0  501 -0.00000000000E+00  0.00000000000E+00  0.98310363171E+03  0.98310363171E+03  0.00000000000E+00 0.  1.
          2   -1    0    0  501    0  0.00000000000E+00 -0.00000000000E+00 -0.25663144333E+04  0.25663144333E+04  0.00000000000E+00 0. -1.
         24    2    1    2    0    0  0.50791778143E+03  0.17482015092E+03 -0.22502940923E+04  0.23149658345E+04  0.81858140941E+02 0.  0.
        254    2    1    2    0    0 -0.50791778143E+03 -0.17482015092E+03  0.66708329073E+03  0.12344522305E+04  0.88900485638E+03 0.  0.
         23    2    4    4    0    0 -0.66158250126E+03 -0.37817507593E+03  0.51323944660E+03  0.92319248450E+03  0.90342901444E+02 0.  0.
         23    2    4    4    0    0  0.15366471983E+03  0.20335492501E+03  0.15384384413E+03  0.31125974598E+03  0.90821965642E+02 0.  0.
          4    1    3    3  502    0  0.43210093175E+03  0.16464879401E+03 -0.18135150515E+04  0.18715387472E+04  0.00000000000E+00 0. -1.
         -3    1    3    3    0  502  0.75816849682E+02  0.10171356912E+02 -0.43677904083E+03  0.44342708724E+03  0.00000000000E+00 0.  1.
         11    1    5    5    0    0 -0.26556287005E+03 -0.11176360252E+03  0.16153064635E+03  0.33031332172E+03  0.00000000000E+00 0. -1.
        -11    1    5    5    0    0 -0.39601963121E+03 -0.26641147341E+03  0.35170880025E+03  0.59287916277E+03  0.00000000000E+00 0.  1.
          1    1    6    6  503    0  0.88567280008E+02  0.50936681308E+02  0.80245568277E+02  0.12991558728E+03  0.00000000000E+00 0. -1.
         -1    1    6    6    0  503  0.65097439823E+02  0.15241824370E+03  0.73598275853E+02  0.18134415870E+03  0.00000000000E+00 0.  1.
<mgrwt>
<rscale>  0 0.31767613E+04</rscale>
<asrwt>0</asrwt>
<pdfrwt beam="1">  1        2 0.39481761E+00 0.31767613E+04</pdfrwt>
<pdfrwt beam="2">  1       -1 0.15124671E+00 0.31767613E+04</pdfrwt>
<totfact> 0.10414774E+00</totfact>
</mgrwt>
</event>
<event>
12    6  0.1647231E-007  0.2049017E+04  0.7818608E-02  0.8584040E-01
         -1   -1    0    0    0  501 -0.00000000000E+00  0.00000000000E+00  0.27472189102E+03  0.27472189102E+03  0.00000000000E+00 0.  1.
          2   -1    0    0  501    0  0.00000000000E+00 -0.00000000000E+00 -0.38206547372E+04  0.38206547372E+04  0.00000000000E+00 0. -1.
         24    2    1    2    0    0 -0.45741460677E+03 -0.61271658647E+03 -0.82795329642E+03  0.11297933983E+04  0.79225777969E+02 0.  0.
        254    2    1    2    0    0  0.45741460677E+03  0.61271658647E+03 -0.27179795497E+04  0.29655832299E+04  0.90698474242E+03 0.  0.
         23    2    4    4    0    0  0.18484483598E+03  0.54067225890E+03 -0.25699533423E+04  0.26342680807E+04  0.90631311923E+02 0.  0.
         23    2    4    4    0    0  0.27256977078E+03  0.72044327572E+02 -0.14802620744E+03  0.33131514918E+03  0.91505764343E+02 0.  0.
          2    1    3    3  502    0 -0.29559312210E+02 -0.53560515590E+02 -0.98718709054E+02  0.11613726915E+03  0.00000000000E+00 0. -1.
         -3    1    3    3    0  502 -0.42785529456E+03 -0.55915607088E+03 -0.72923458737E+03  0.10136561291E+04  0.00000000000E+00 0.  1.
         11    1    5    5    0    0  0.13952165094E+03  0.27438172937E+03 -0.13086700493E+04  0.13443842168E+04  0.00000000000E+00 0.  1.
        -11    1    5    5    0    0  0.45323185042E+02  0.26629052953E+03 -0.12612832930E+04  0.12898838640E+04  0.00000000000E+00 0. -1.
          4    1    6    6  503    0  0.18890898672E+02 -0.44381488801E+01  0.10991493734E+02  0.22301931590E+02  0.00000000000E+00 0.  1.
         -4    1    6    6    0  503  0.25367887211E+03  0.76482476452E+02 -0.15901770118E+03  0.30901321759E+03  0.00000000000E+00 0. -1.
<mgrwt>
<rscale>  0 0.20490168E+04</rscale>
<asrwt>0</asrwt>
<pdfrwt beam="1">  1        2 0.58779306E+00 0.20490168E+04</pdfrwt>
<pdfrwt beam="2">  1       -1 0.42264904E-01 0.20490168E+04</pdfrwt>
<totfact> 0.27666798E+00</totfact>
</mgrwt>
</event>
<event>
12    6  0.1647231E-007  0.1425824E+04  0.7818608E-02  0.8935335E-01
          2   -1    0    0  501    0  0.00000000000E+00  0.00000000000E+00  0.40930538289E+03  0.40930538289E+03  0.00000000000E+00 0. -1.
         -1   -1    0    0    0  501 -0.00000000000E+00 -0.00000000000E+00 -0.12417225756E+04  0.12417225756E+04  0.00000000000E+00 0.  1.
         24    2    1    2    0    0  0.29181164031E+01 -0.42250994689E+03 -0.26322329892E+03  0.50424377381E+03  0.80325012971E+02 0.  0.
        254    2    1    2    0    0 -0.29181164031E+01  0.42250994689E+03 -0.56919389383E+03  0.11467841847E+04  0.90144833846E+03 0.  0.
         23    2    4    4    0    0  0.27792177071E+03  0.21384069961E+03 -0.67832482910E+03  0.76903853280E+03  0.91254236775E+02 0.  0.
         23    2    4    4    0    0 -0.28083988711E+03  0.20866924728E+03  0.10913093527E+03  0.37774565190E+03  0.91478519598E+02 0.  0.
          2    1    3    3  502    0  0.62349994690E+01 -0.37125048162E+03 -0.25898629404E+03  0.45270265719E+03  0.00000000000E+00 0. -1.
         -1    1    3    3    0  502 -0.33168830659E+01 -0.51259465261E+02 -0.42370048822E+01  0.51541116621E+02  0.00000000000E+00 0.  1.
         11    1    5    5    0    0  0.15393977182E+03  0.15392226740E+03 -0.48572078211E+03  0.53227267065E+03  0.00000000000E+00 0. -1.
        -11    1    5    5    0    0  0.12398199888E+03  0.59918432205E+02 -0.19260404699E+03  0.23676586215E+03  0.00000000000E+00 0.  1.
          1    1    6    6  503    0 -0.11585980184E+03  0.13117106374E+03  0.82684286116E+02  0.19356144454E+03  0.00000000000E+00 0. -1.
         -1    1    6    6    0  503 -0.16498008527E+03  0.77498183539E+02  0.26446649153E+02  0.18418420736E+03  0.00000000000E+00 0.  1.
<mgrwt>
<rscale>  0 0.14258243E+04</rscale>
<asrwt>0</asrwt>
<pdfrwt beam="1">  1        2 0.62970058E-01 0.14258243E+04</pdfrwt>
<pdfrwt beam="2">  1       -1 0.19103424E+00 0.14258243E+04</pdfrwt>
<totfact> 0.14962231E+01</totfact>
</mgrwt>
</event>
<event>
12    6  0.1647231E-007  0.1710886E+04  0.7818608E-02  0.8755180E-01
          2   -1    0    0  501    0  0.00000000000E+00  0.00000000000E+00  0.56874066974E+03  0.56874066974E+03  0.00000000000E+00 0. -1.
         -1   -1    0    0    0  501 -0.00000000000E+00 -0.00000000000E+00 -0.12866722866E+04  0.12866722866E+04  0.00000000000E+00 0.  1.
         24    2    1    2    0    0  0.52125498071E+03  0.25254225425E+01  0.98371847614E+02  0.53642289776E+03  0.79745671797E+02 0.  0.
        254    2    1    2    0    0 -0.52125498071E+03 -0.25254225425E+01 -0.81630346448E+03  0.13189900586E+04  0.89536042789E+03 0.  0.
         23    2    4    4    0    0  0.23040939359E+03  0.54959274890E+02 -0.33312906457E+03  0.41896619977E+03  0.91916768522E+02 0.  0.
         23    2    4    4    0    0 -0.75166437430E+03 -0.57484697433E+02 -0.48317439991E+03  0.90002385880E+03  0.91003426604E+02 0.  0.
          2    1    3    3  502    0  0.42735738761E+03  0.31150151862E+02  0.69415507443E+02  0.43407739100E+03  0.00000000000E+00 0. -1.
         -1    1    3    3    0  502  0.93897593101E+02 -0.28624729319E+02  0.28956340171E+02  0.10234550676E+03  0.00000000000E+00 0.  1.
         11    1    5    5    0    0  0.11301337359E+03  0.62413056540E+02 -0.22382785403E+03  0.25839179645E+03  0.00000000000E+00 0.  1.
        -11    1    5    5    0    0  0.11739602001E+03 -0.74537816493E+01 -0.10930121055E+03  0.16057440332E+03  0.00000000000E+00 0. -1.
          4    1    6    6  503    0 -0.16635351964E+02 -0.11865368122E+02 -0.24802654544E+01  0.20583333364E+02  0.00000000000E+00 0. -1.
         -4    1    6    6    0  503 -0.73502902234E+03 -0.45619329311E+02 -0.48069413445E+03  0.87944052544E+03  0.00000000000E+00 0.  1.
<mgrwt>
<rscale>  0 0.17108862E+04</rscale>
<asrwt>0</asrwt>
<pdfrwt beam="1">  1        2 0.87498564E-01 0.17108862E+04</pdfrwt>
<pdfrwt beam="2">  1       -1 0.19794958E+00 0.17108862E+04</pdfrwt>
<totfact> 0.89335564E+00</totfact>
</mgrwt>
</event>
<event>
12    6  0.1647231E-007  0.1716411E+04  0.7818608E-02  0.8752060E-01
         -1   -1    0    0    0  501 -0.00000000000E+00  0.00000000000E+00  0.39567767585E+03  0.39567767585E+03  0.00000000000E+00 0.  1.
          2   -1    0    0  501    0  0.00000000000E+00 -0.00000000000E+00 -0.18614050022E+04  0.18614050022E+04  0.00000000000E+00 0. -1.
         24    2    1    2    0    0  0.30401986428E+03 -0.34581848184E+03 -0.10731458701E+04  0.11705386859E+04  0.80624168307E+02 0.  0.
        254    2    1    2    0    0 -0.30401986428E+03  0.34581848184E+03 -0.39258145624E+03  0.10865439921E+04  0.90246282290E+03 0.  0.
         23    2    4    4    0    0 -0.18812708807E+03 -0.14599629512E+03  0.18414041330E+03  0.31420560963E+03  0.90059723838E+02 0.  0.
         23    2    4    4    0    0 -0.11589277622E+03  0.49181477696E+03 -0.57672186954E+03  0.77233838247E+03  0.92658252825E+02 0.  0.
          4    1    3    3  502    0  0.19463147227E+03 -0.26171048153E+03 -0.68723806622E+03  0.76070358603E+03  0.00000000000E+00 0. -1.
         -3    1    3    3    0  502  0.10938839202E+03 -0.84108000309E+02 -0.38590780387E+03  0.40983509990E+03  0.00000000000E+00 0.  1.
         11    1    5    5    0    0 -0.18218260960E+03 -0.15797799388E+03  0.17616567397E+03  0.29863337804E+03  0.00000000000E+00 0. -1.
        -11    1    5    5    0    0 -0.59444784641E+01  0.11981698759E+02  0.79747393278E+01  0.15572231590E+02  0.00000000000E+00 0.  1.
          2    1    6    6  503    0 -0.12469310957E+03  0.45430065020E+03 -0.50306244259E+03  0.68920916527E+03  0.00000000000E+00 0. -1.
         -2    1    6    6    0  503  0.88003333547E+01  0.37514126757E+02 -0.73659426954E+02  0.83129217203E+02  0.00000000000E+00 0.  1.
<mgrwt>
<rscale>  0 0.17164107E+04</rscale>
<asrwt>0</asrwt>
<pdfrwt beam="1">  1        2 0.28637000E+00 0.17164107E+04</pdfrwt>
<pdfrwt beam="2">  1       -1 0.60873488E-01 0.17164107E+04</pdfrwt>
<totfact> 0.23632445E+01</totfact>
</mgrwt>
</event>
<event>
12    6  0.1647231E-007  0.2047318E+04  0.7818608E-02  0.8584812E-01
          2   -1    0    0  501    0  0.00000000000E+00  0.00000000000E+00  0.17240189174E+04  0.17240189174E+04  0.00000000000E+00 0. -1.
         -1   -1    0    0    0  501 -0.00000000000E+00 -0.00000000000E+00 -0.60781121337E+03  0.60781121337E+03  0.00000000000E+00 0.  1.
         24    2    1    2    0    0  0.17905208448E+03 -0.76665417618E+03  0.20201913806E+03  0.81714314961E+03  0.84219475126E+02 0.  0.
        254    2    1    2    0    0 -0.17905208448E+03  0.76665417618E+03  0.91418856600E+03  0.15146869812E+04  0.91581528812E+03 0.  0.
         23    2    4    4    0    0  0.23216523849E+03  0.42452013181E+03  0.83070399005E+03  0.96565235904E+03  0.91089621602E+02 0.  0.
         23    2    4    4    0    0 -0.41121732297E+03  0.34213404437E+03  0.83484575948E+02  0.54903462214E+03  0.91180868928E+02 0.  0.
          2    1    3    3  502    0  0.43552710942E+02 -0.31004594048E+03  0.49158576515E+02  0.31692568448E+03  0.00000000000E+00 0. -1.
         -1    1    3    3    0  502  0.13549937354E+03 -0.45660823570E+03  0.15286056154E+03  0.50021746513E+03  0.00000000000E+00 0.  1.
         11    1    5    5    0    0  0.21690559385E+03  0.35519771147E+03  0.75333584930E+03  0.86065576901E+03  0.00000000000E+00 0. -1.
        -11    1    5    5    0    0  0.15259644640E+02  0.69322420346E+02  0.77368140744E+02  0.10499659004E+03  0.00000000000E+00 0.  1.
          4    1    6    6  503    0 -0.20946688242E+03  0.23133240303E+03  0.58462112354E+02  0.31750413242E+03  0.00000000000E+00 0. -1.
         -4    1    6    6    0  503 -0.20175044055E+03  0.11080164134E+03  0.25022463594E+02  0.23153048972E+03  0.00000000000E+00 0.  1.
<mgrwt>
<rscale>  0 0.20473183E+04</rscale>
<asrwt>0</asrwt>
<pdfrwt beam="1">  1        2 0.26523368E+00 0.20473183E+04</pdfrwt>
<pdfrwt beam="2">  1       -1 0.93509418E-01 0.20473183E+04</pdfrwt>
<totfact> 0.11119977E+01</totfact>
</mgrwt>
</event>
<event>
12    6  0.1647231E-007  0.1056244E+04  0.7818608E-02  0.9248921E-01
          2   -1    0    0  501    0  0.00000000000E+00  0.00000000000E+00  0.12427432622E+04  0.12427432622E+04  0.00000000000E+00 0. -1.
         -1   -1    0    0    0  501 -0.00000000000E+00 -0.00000000000E+00 -0.22443334402E+03  0.22443334402E+03  0.00000000000E+00 0.  1.
         24    2    1    2    0    0 -0.16915152736E+02 -0.14986000439E+02 -0.32998198666E+02  0.85887341543E+02  0.76006918901E+02 0.  0.
        254    2    1    2    0    0  0.16915152736E+02  0.14986000439E+02  0.10513081169E+04  0.13812892647E+04  0.89565650424E+03 0.  0.
         23    2    4    4    0    0 -0.21265499099E+03  0.34539973643E+03  0.27020175242E+03  0.49746556443E+03  0.99698935127E+02 0.  0.
         23    2    4    4    0    0  0.22957014372E+03 -0.33041373599E+03  0.78110636445E+03  0.88382370027E+03  0.95611153927E+02 0.  0.
          4    1    3    3  502    0 -0.30967579797E+02 -0.93100744578E+01  0.14932205451E+02  0.35617962386E+02  0.00000000000E+00 0. -1.
         -3    1    3    3    0  502  0.14052427060E+02 -0.56759259810E+01 -0.47930404117E+02  0.50269379157E+02  0.00000000000E+00 0.  1.
         11    1    5    5    0    0 -0.21650832247E+03  0.32111750556E+03  0.27129287199E+03  0.47285529337E+03  0.00000000000E+00 0. -1.
        -11    1    5    5    0    0  0.38533314862E+01  0.24282230874E+02 -0.10911195705E+01  0.24610271061E+02  0.00000000000E+00 0.  1.
          4    1    6    6  503    0  0.20598111321E+03 -0.33067418057E+03  0.72718290947E+03  0.82496582748E+03  0.00000000000E+00 0. -1.
         -4    1    6    6    0  503  0.23589030512E+02  0.26044457481E+00  0.53923454978E+02  0.58857872784E+02  0.00000000000E+00 0.  1.
<mgrwt>
<rscale>  0 0.10562443E+04</rscale>
<asrwt>0</asrwt>
<pdfrwt beam="1">  1        2 0.19119127E+00 0.10562443E+04</pdfrwt>
<pdfrwt beam="2">  1       -1 0.34528208E-01 0.10562443E+04</pdfrwt>
<totfact> 0.16094426E+02</totfact>
</mgrwt>
</event>
<event>
12    6  0.1647231E-007  0.1535140E+04  0.7818608E-02  0.8861416E-01
         -1   -1    0    0    0  501 -0.00000000000E+00  0.00000000000E+00  0.25274228954E+03  0.25274228954E+03  0.00000000000E+00 0.  1.
          2   -1    0    0  501    0  0.00000000000E+00 -0.00000000000E+00 -0.23310854377E+04  0.23310854377E+04  0.00000000000E+00 0. -1.
         24    2    1    2    0    0 -0.44391492313E+03  0.21901209643E+03 -0.62160778407E+03  0.79858279893E+03  0.79444900223E+02 0.  0.
        254    2    1    2    0    0  0.44391492313E+03 -0.21901209643E+03 -0.14567353641E+04  0.17852449284E+04  0.90553562920E+03 0.  0.
         23    2    4    4    0    0  0.27700233074E+03 -0.39160404619E+03 -0.24434889670E+03  0.54600686730E+03  0.91285790757E+02 0.  0.
         23    2    4    4    0    0  0.16691259238E+03  0.17259194976E+03 -0.12123864674E+04  0.12392380611E+04  0.90455684859E+02 0.  0.
          2    1    3    3  502    0 -0.32487768468E+03  0.13277594080E+03 -0.39410750936E+03  0.52772690797E+03  0.00000000000E+00 0. -1.
         -1    1    3    3    0  502 -0.11903723844E+03  0.86236155638E+02 -0.22750027471E+03  0.27085589096E+03  0.00000000000E+00 0.  1.
         11    1    5    5    0    0  0.23534622795E+03 -0.37625383669E+03 -0.21908542875E+03  0.49492749139E+03  0.00000000000E+00 0.  1.
        -11    1    5    5    0    0  0.41656102793E+02 -0.15350209497E+02 -0.25263467944E+02  0.51079375917E+02  0.00000000000E+00 0. -1.
          1    1    6    6  503    0 -0.58046504724E+01 -0.41306315365E+01 -0.14825272288E+02  0.16448245573E+02  0.00000000000E+00 0. -1.
         -1    1    6    6    0  503  0.17271724285E+03  0.17672258129E+03 -0.11975611952E+04  0.12227898155E+04  0.00000000000E+00 0.  1.
<mgrwt>
<rscale>  0 0.15351402E+04</rscale>
<asrwt>0</asrwt>
<pdfrwt beam="1">  1        2 0.35862855E+00 0.15351402E+04</pdfrwt>
<pdfrwt beam="2">  1       -1 0.38883427E-01 0.15351402E+04</pdfrwt>
<totfact> 0.30691309E+01</totfact>
</mgrwt>
</event>
<event>
12    6  0.1647231E-007  0.1905353E+04  0.7818608E-02  0.8652196E-01
         -1   -1    0    0    0  501 -0.00000000000E+00  0.00000000000E+00  0.49486798166E+03  0.49486798166E+03  0.00000000000E+00 0.  1.
          2   -1    0    0  501    0  0.00000000000E+00 -0.00000000000E+00 -0.18340097689E+04  0.18340097689E+04  0.00000000000E+00 0. -1.
         24    2    1    2    0    0  0.52422161866E+02  0.33680555856E+03  0.30374296351E+03  0.46349485327E+03  0.79885066174E+02 0.  0.
        254    2    1    2    0    0 -0.52422161866E+02 -0.33680555856E+03 -0.16428847508E+04  0.18653828973E+04  0.81510550357E+03 0.  0.
         23    2    4    4    0    0  0.15856992617E+03 -0.37720480552E+03 -0.15636636101E+04  0.16189876467E+04  0.93001224225E+02 0.  0.
         23    2    4    4    0    0 -0.21099208804E+03  0.40399246967E+02 -0.79221140638E+02  0.24639525062E+03  0.91021261434E+02 0.  0.
          2    1    3    3  502    0  0.23256596128E+02  0.68579811289E+02  0.27804316051E+02  0.77570224770E+02  0.00000000000E+00 0. -1.
         -1    1    3    3    0  502  0.29165565738E+02  0.26822574727E+03  0.27593864745E+03  0.38592462850E+03  0.00000000000E+00 0.  1.
         11    1    5    5    0    0  0.16039620574E+03 -0.28345156130E+03 -0.12322794522E+04  0.12745918479E+04  0.00000000000E+00 0.  1.
        -11    1    5    5    0    0 -0.18262795718E+01 -0.93753244227E+02 -0.33138415791E+03  0.34439579877E+03  0.00000000000E+00 0. -1.
          1    1    6    6  503    0 -0.15299383551E+01  0.22979982689E+02 -0.57369388384E+01  0.23734632565E+02  0.00000000000E+00 0. -1.
         -1    1    6    6    0  503 -0.20946214968E+03  0.17419264278E+02 -0.73484201799E+02  0.22266061805E+03  0.00000000000E+00 0.  1.
<mgrwt>
<rscale>  0 0.19053532E+04</rscale>
<asrwt>0</asrwt>
<pdfrwt beam="1">  1        2 0.28215536E+00 0.19053532E+04</pdfrwt>
<pdfrwt beam="2">  1       -1 0.76133534E-01 0.19053532E+04</pdfrwt>
<totfact> 0.15259030E+01</totfact>
</mgrwt>
</event>
<event>
12    6  0.1647231E-007  0.1773763E+04  0.7818608E-02  0.8720378E-01
         -1   -1    0    0    0  501 -0.00000000000E+00  0.00000000000E+00  0.88585014337E+03  0.88585014337E+03  0.00000000000E+00 0.  1.
          2   -1    0    0  501    0  0.00000000000E+00 -0.00000000000E+00 -0.88791411967E+03  0.88791411967E+03  0.00000000000E+00 0. -1.
         24    2    1    2    0    0  0.44053494622E+03  0.34713769064E+03  0.34098829747E+03  0.66144624655E+03  0.81624156790E+02 0.  0.
        254    2    1    2    0    0 -0.44053494622E+03 -0.34713769064E+03 -0.34305227377E+03  0.11123180165E+04  0.89721284664E+03 0.  0.
         23    2    4    4    0    0 -0.35110852173E+03  0.20138294225E+03 -0.35946748512E+03  0.54893336056E+03  0.90987240961E+02 0.  0.
         23    2    4    4    0    0 -0.89426424485E+02 -0.54852063289E+03  0.16415211348E+02  0.56338465593E+03  0.90889170293E+02 0.  0.
          2    1    3    3  502    0  0.16681700727E+03  0.11358745516E+03  0.80693666369E+02  0.21735107931E+03  0.00000000000E+00 0. -1.
         -1    1    3    3    0  502  0.27371793895E+03  0.23355023547E+03  0.26029463110E+03  0.44409516724E+03  0.00000000000E+00 0.  1.
         11    1    5    5    0    0 -0.15990972354E+03  0.13981658704E+03 -0.20865284519E+03  0.29775125104E+03  0.00000000000E+00 0.  1.
        -11    1    5    5    0    0 -0.19119879819E+03  0.61566355215E+02 -0.15081463993E+03  0.25118210952E+03  0.00000000000E+00 0. -1.
          1    1    6    6  503    0 -0.18182997885E+02 -0.13588153479E+02  0.66009336036E+01  0.23639620376E+02  0.00000000000E+00 0. -1.
         -1    1    6    6    0  503 -0.71243426600E+02 -0.53493247941E+03  0.98142777446E+01  0.53974503556E+03  0.00000000000E+00 0.  1.
<mgrwt>
<rscale>  0 0.17737631E+04</rscale>
<asrwt>0</asrwt>
<pdfrwt beam="1">  1        2 0.13660217E+00 0.17737631E+04</pdfrwt>
<pdfrwt beam="2">  1       -1 0.13628464E+00 0.17737631E+04</pdfrwt>
<totfact> 0.14505188E+01</totfact>
</mgrwt>
</event>
<event>
12    6  0.2521339E-007  0.1692954E+04  0.7818608E-02  0.8765393E-01
          2   -1    0    0  501    0  0.00000000000E+00  0.00000000000E+00  0.75884175581E+03  0.75884175581E+03  0.00000000000E+00 0. -1.
         -1   -1    0    0    0  501 -0.00000000000E+00 -0.00000000000E+00 -0.94423304443E+03  0.94423304443E+03  0.00000000000E+00 0.  1.
         24    2    1    2    0    0 -0.27572955333E+03  0.33426926968E+03  0.35587367450E+03  0.57103276934E+03  0.10802601645E+03 0.  0.
        254    2    1    2    0    0  0.27572955333E+03 -0.33426926968E+03 -0.54126496313E+03  0.11320420309E+04  0.89486796131E+03 0.  0.
         23    2    4    4    0    0  0.51925806050E+03  0.36493661406E+02 -0.20119668512E+03  0.56576747836E+03  0.93016196183E+02 0.  0.
         23    2    4    4    0    0 -0.24352850717E+03 -0.37076293108E+03 -0.34006827801E+03  0.56627455254E+03  0.90824832931E+02 0.  0.
          2    1    3    3  502    0 -0.28138490691E+03  0.30034303607E+03  0.33607379788E+03  0.53134640562E+03  0.00000000000E+00 0. -1.
         -1    1    3    3    0  502  0.56553535778E+01  0.33926233605E+02  0.19799876624E+02  0.39686363716E+02  0.00000000000E+00 0.  1.
         11    1    5    5    0    0  0.63294620037E+01 -0.87014781797E+01  0.39889337521E+01  0.11475600387E+02  0.00000000000E+00 0. -1.
        -11    1    5    5    0    0  0.51292859849E+03  0.45195139586E+02 -0.20518561887E+03  0.55429187797E+03  0.00000000000E+00 0.  1.
          1    1    6    6  503    0 -0.46047272304E+00  0.64415263613E+00  0.43665153806E+01  0.44377273819E+01  0.00000000000E+00 0. -1.
         -1    1    6    6    0  503 -0.24306803445E+03 -0.37140708372E+03 -0.34443479339E+03  0.56183682516E+03  0.00000000000E+00 0.  1.
<mgrwt>
<rscale>  0 0.16929542E+04</rscale>
<asrwt>0</asrwt>
<pdfrwt beam="1">  1        2 0.11674489E+00 0.16929542E+04</pdfrwt>
<pdfrwt beam="2">  1       -1 0.14526662E+00 0.16929542E+04</pdfrwt>
<totfact> 0.15265765E+01</totfact>
</mgrwt>
</event>
<event>
12    6  0.1647231E-007  0.2257069E+04  0.7818608E-02  0.8495043E-01
         -1   -1    0    0    0  501 -0.00000000000E+00  0.00000000000E+00  0.58285657986E+03  0.58285657986E+03  0.00000000000E+00 0.  1.
          2   -1    0    0  501    0  0.00000000000E+00 -0.00000000000E+00 -0.21850826204E+04  0.21850826204E+04  0.00000000000E+00 0. -1.
         24    2    1    2    0    0  0.35003323547E+03 -0.28397559927E+03 -0.16953888975E+04  0.17564390909E+04  0.87002065880E+02 0.  0.
        254    2    1    2    0    0 -0.35003323547E+03  0.28397559927E+03  0.93162856911E+02  0.10115001094E+04  0.90071513058E+03 0.  0.
         23    2    4    4    0    0 -0.57493872952E+02 -0.23503648386E+03  0.27985671308E+03  0.38068055634E+03  0.89722973356E+02 0.  0.
         23    2    4    4    0    0 -0.29253936252E+03  0.51901208314E+03 -0.18669385617E+03  0.63081955304E+03  0.90143726932E+02 0.  0.
          2    1    3    3  502    0  0.22252995315E+03 -0.14243662485E+03 -0.86351717228E+03  0.90303359792E+03  0.00000000000E+00 0. -1.
         -1    1    3    3    0  502  0.12750328232E+03 -0.14153897443E+03 -0.83187172518E+03  0.85340549298E+03  0.00000000000E+00 0.  1.
         11    1    5    5    0    0 -0.42544445880E+01 -0.13557473132E+01 -0.61058284452E+01  0.75643565841E+01  0.00000000000E+00 0.  1.
        -11    1    5    5    0    0 -0.53239428364E+02 -0.23368073655E+03  0.28596254152E+03  0.37311619976E+03  0.00000000000E+00 0. -1.
          1    1    6    6  503    0 -0.29435856267E+03  0.48308506156E+03 -0.16714343956E+03  0.58987716476E+03  0.00000000000E+00 0. -1.
         -1    1    6    6    0  503  0.18192001504E+01  0.35927021580E+02 -0.19550416610E+02  0.40942388284E+02  0.00000000000E+00 0.  1.
<mgrwt>
<rscale>  0 0.22570687E+04</rscale>
<asrwt>0</asrwt>
<pdfrwt beam="1">  1        2 0.33616656E+00 0.22570687E+04</pdfrwt>
<pdfrwt beam="2">  1       -1 0.89670243E-01 0.22570687E+04</pdfrwt>
<totfact> 0.66369083E+00</totfact>
</mgrwt>
</event>
<event>
12    6  0.1647231E-007  0.1650635E+04  0.7818608E-02  0.8790031E-01
          2   -1    0    0  501    0  0.00000000000E+00  0.00000000000E+00  0.12017624117E+04  0.12017624117E+04  0.00000000000E+00 0. -1.
         -1   -1    0    0    0  501 -0.00000000000E+00 -0.00000000000E+00 -0.56679162029E+03  0.56679162029E+03  0.00000000000E+00 0.  1.
         24    2    1    2    0    0  0.47308414616E+03  0.13682010338E+03  0.51859725334E+03  0.71960737555E+03  0.79770381303E+02 0.  0.
        254    2    1    2    0    0 -0.47308414616E+03 -0.13682010338E+03  0.11637353804E+03  0.10489466564E+04  0.91881333121E+03 0.  0.
         23    2    4    4    0    0 -0.18101403740E+03 -0.10285648032E+03 -0.39152761680E+03  0.45462312723E+03  0.10021365086E+03 0.  0.
         23    2    4    4    0    0 -0.29207010877E+03 -0.33963623059E+02  0.50790115483E+03  0.59432352919E+03  0.93799776864E+02 0.  0.
          4    1    3    3  502    0  0.41557804235E+03  0.14285831963E+03  0.47567178036E+03  0.64759343064E+03  0.00000000000E+00 0. -1.
         -3    1    3    3    0  502  0.57506103810E+02 -0.60382162592E+01  0.42925472982E+02  0.72013944911E+02  0.00000000000E+00 0.  1.
         11    1    5    5    0    0 -0.84731190268E+02 -0.54071876718E+02 -0.92076120413E+02  0.13631270816E+03  0.00000000000E+00 0.  1.
        -11    1    5    5    0    0 -0.96282847128E+02 -0.48784603598E+02 -0.29945149639E+03  0.31831041907E+03  0.00000000000E+00 0. -1.
          3    1    6    6  503    0 -0.29461706070E+03 -0.37336276403E+02  0.46848441158E+03  0.55468085769E+03  0.00000000000E+00 0. -1.
         -3    1    6    6    0  503  0.25469519390E+01  0.33726533436E+01  0.39416743259E+02  0.39642671503E+02  0.00000000000E+00 0.  1.
<mgrwt>
<rscale>  0 0.16506349E+04</rscale>
<asrwt>0</asrwt>
<pdfrwt beam="1">  1        2 0.18488652E+00 0.16506349E+04</pdfrwt>
<pdfrwt beam="2">  1       -1 0.87198711E-01 0.16506349E+04</pdfrwt>
<totfact> 0.26653513E+01</totfact>
</mgrwt>
</event>
<event>
12    6  0.1647231E-007  0.2597926E+04  0.7818608E-02  0.8368906E-01
          2   -1    0    0  501    0  0.00000000000E+00  0.00000000000E+00  0.34261890171E+04  0.34261890171E+04  0.00000000000E+00 0. -1.
         -1   -1    0    0    0  501 -0.00000000000E+00 -0.00000000000E+00 -0.49247287383E+03  0.49247287383E+03  0.00000000000E+00 0.  1.
         24    2    1    2    0    0 -0.84787476676E+03  0.28569406427E+02  0.16628420302E+03  0.86811159750E+03  0.79116865835E+02 0.  0.
        254    2    1    2    0    0  0.84787476676E+03 -0.28569406427E+02  0.27674319403E+04  0.30505502935E+04  0.96305229231E+03 0.  0.
         23    2    4    4    0    0  0.43898372026E+03 -0.20770922366E+03  0.24398007996E+04  0.24892690269E+04  0.89344938433E+02 0.  0.
         23    2    4    4    0    0  0.40889104650E+03  0.17913981723E+03  0.32763114068E+03  0.56128126661E+03  0.91714414770E+02 0.  0.
          4    1    3    3  502    0 -0.10883755436E+03 -0.17467201160E+02  0.53813041775E+01  0.11036156392E+03  0.00000000000E+00 0. -1.
         -3    1    3    3    0  502 -0.73903721240E+03  0.46036607587E+02  0.16090289884E+03  0.75775003359E+03  0.00000000000E+00 0.  1.
         11    1    5    5    0    0  0.41277129711E+03 -0.18269512110E+03  0.21265802939E+04  0.21739598427E+04  0.00000000000E+00 0.  1.
        -11    1    5    5    0    0  0.26212423150E+02 -0.25014102558E+02  0.31322050568E+03  0.31530918419E+03  0.00000000000E+00 0. -1.
          3    1    6    6  503    0  0.23314793879E+03  0.11290168845E+03  0.13447616697E+03  0.29187084832E+03  0.00000000000E+00 0.  1.
         -3    1    6    6    0  503  0.17574310771E+03  0.66238128778E+02  0.19315497371E+03  0.26941041829E+03  0.00000000000E+00 0. -1.
<mgrwt>
<rscale>  0 0.25979262E+04</rscale>
<asrwt>0</asrwt>
<pdfrwt beam="1">  1        2 0.52710599E+00 0.25979262E+04</pdfrwt>
<pdfrwt beam="2">  1       -1 0.75765060E-01 0.25979262E+04</pdfrwt>
<totfact> 0.16114549E+00</totfact>
</mgrwt>
</event>
<event>
12    6  0.1647231E-007  0.1180887E+04  0.7818608E-02  0.9129753E-01
          2   -1    0    0  501    0  0.00000000000E+00  0.00000000000E+00  0.77696067772E+03  0.77696067772E+03  0.00000000000E+00 0. -1.
         -1   -1    0    0    0  501 -0.00000000000E+00 -0.00000000000E+00 -0.44870139388E+03  0.44870139388E+03  0.00000000000E+00 0.  1.
         24    2    1    2    0    0  0.47345802810E+02 -0.50634623719E+02 -0.17433682453E+03  0.20395629326E+03  0.79995943706E+02 0.  0.
        254    2    1    2    0    0 -0.47345802810E+02  0.50634623719E+02  0.50259610837E+03  0.10217057783E+04  0.88683389605E+03 0.  0.
         23    2    4    4    0    0  0.77435993157E+02  0.51850232773E+02 -0.23415628354E+03  0.26926608493E+03  0.94817085467E+02 0.  0.
         23    2    4    4    0    0 -0.12478179597E+03 -0.12156090545E+01  0.73675239191E+03  0.75243969342E+03  0.88257752851E+02 0.  0.
          4    1    3    3  502    0  0.49546753016E+02 -0.89147022203E+01 -0.43238362102E+02  0.66361951504E+02  0.00000000000E+00 0. -1.
         -3    1    3    3    0  502 -0.22009502068E+01 -0.41719921499E+02 -0.13109846243E+03  0.13759434176E+03  0.00000000000E+00 0.  1.
         11    1    5    5    0    0  0.93602413088E+00  0.22162808243E+02 -0.11272435430E+01  0.22211188360E+02  0.00000000000E+00 0.  1.
        -11    1    5    5    0    0  0.76499969026E+02  0.29687424531E+02 -0.23302904000E+03  0.24705489657E+03  0.00000000000E+00 0. -1.
          3    1    6    6  503    0 -0.44689150796E+02  0.36486306829E+02  0.40464166693E+03  0.40873371454E+03  0.00000000000E+00 0. -1.
         -3    1    6    6    0  503 -0.80092645170E+02 -0.37701915883E+02  0.33211072498E+03  0.34370597888E+03  0.00000000000E+00 0.  1.
<mgrwt>
<rscale>  0 0.11808867E+04</rscale>
<asrwt>0</asrwt>
<pdfrwt beam="1">  1        2 0.11953241E+00 0.11808867E+04</pdfrwt>
<pdfrwt beam="2">  1       -1 0.69030984E-01 0.11808867E+04</pdfrwt>
<totfact> 0.85778060E+01</totfact>
</mgrwt>
</event>
<event>
12    6  0.1647231E-007  0.1597948E+04  0.7818608E-02  0.8821810E-01
         -1   -1    0    0    0  501 -0.00000000000E+00  0.00000000000E+00  0.62050567760E+03  0.62050567760E+03  0.00000000000E+00 0.  1.
          2   -1    0    0  501    0  0.00000000000E+00 -0.00000000000E+00 -0.10287728431E+04  0.10287728431E+04  0.00000000000E+00 0. -1.
         24    2    1    2    0    0 -0.15001557156E+03 -0.61987422620E+02 -0.67481061099E+03  0.69942632252E+03  0.86491084274E+02 0.  0.
        254    2    1    2    0    0  0.15001557156E+03  0.61987422620E+02  0.26654344548E+03  0.94985219817E+03  0.89712132835E+03 0.  0.
         23    2    4    4    0    0 -0.21727716473E+03  0.35135702803E+03  0.20174682965E+03  0.46904285312E+03  0.92942387146E+02 0.  0.
         23    2    4    4    0    0  0.36729273629E+03 -0.28936960541E+03  0.64796615831E+02  0.48080934506E+03  0.91325255049E+02 0.  0.
          4    1    3    3  502    0 -0.94100154275E+02 -0.42125855870E+02 -0.56762367426E+03  0.57691079237E+03  0.00000000000E+00 0. -1.
         -3    1    3    3    0  502 -0.55915417285E+02 -0.19861566750E+02 -0.10718693673E+03  0.12251553015E+03  0.00000000000E+00 0.  1.
         11    1    5    5    0    0 -0.87215917584E+02  0.11862102466E+03  0.25456114459E+02  0.14941746061E+03  0.00000000000E+00 0.  1.
        -11    1    5    5    0    0 -0.13006124714E+03  0.23273600337E+03  0.17629071519E+03  0.31962539251E+03  0.00000000000E+00 0. -1.
          2    1    6    6  503    0  0.24601213917E+03 -0.21655343999E+03  0.65088240944E+01  0.32781050896E+03  0.00000000000E+00 0. -1.
         -2    1    6    6    0  503  0.12128059712E+03 -0.72816165413E+02  0.58287791737E+02  0.15299883610E+03  0.00000000000E+00 0.  1.
<mgrwt>
<rscale>  0 0.15979479E+04</rscale>
<asrwt>0</asrwt>
<pdfrwt beam="1">  1        2 0.15827274E+00 0.15979479E+04</pdfrwt>
<pdfrwt beam="2">  1       -1 0.95462413E-01 0.15979479E+04</pdfrwt>
<totfact> 0.27984245E+01</totfact>
</mgrwt>
</event>
<event>
12    6  0.1647231E-007  0.2181722E+04  0.7818608E-02  0.8526075E-01
          2   -1    0    0  501    0  0.00000000000E+00  0.00000000000E+00  0.10950771499E+04  0.10950771499E+04  0.00000000000E+00 0. -1.
         -1   -1    0    0    0  501 -0.00000000000E+00 -0.00000000000E+00 -0.10866611336E+04  0.10866611336E+04  0.00000000000E+00 0.  1.
         24    2    1    2    0    0  0.84540461687E+02 -0.33211100190E+03 -0.83571850990E+03  0.90673142143E+03  0.79319830927E+02 0.  0.
        254    2    1    2    0    0 -0.84540461687E+02  0.33211100190E+03  0.84413452617E+03  0.12750068620E+04  0.89198351595E+03 0.  0.
         23    2    4    4    0    0 -0.34252083341E+03  0.42465889695E+03  0.23467374584E+03  0.60081641467E+03  0.90845457026E+02 0.  0.
         23    2    4    4    0    0  0.25798037172E+03 -0.92547895053E+02  0.60946078033E+03  0.67419044737E+03  0.89282313461E+02 0.  0.
          2    1    3    3  502    0  0.24743586826E+02 -0.27389297746E+02 -0.52309451621E+02  0.64021070351E+02  0.00000000000E+00 0. -1.
         -1    1    3    3    0  502  0.59796874861E+02 -0.30472170415E+03 -0.78340905828E+03  0.84271035108E+03  0.00000000000E+00 0.  1.
         11    1    5    5    0    0 -0.22639711103E+03  0.21261479735E+03  0.14743305466E+03  0.34379821050E+03  0.00000000000E+00 0.  1.
        -11    1    5    5    0    0 -0.11612372238E+03  0.21204409960E+03  0.87240691179E+02  0.25701820416E+03  0.00000000000E+00 0. -1.
          2    1    6    6  503    0  0.20414358300E+03 -0.97543599891E+02  0.54474116709E+03  0.58985786040E+03  0.00000000000E+00 0. -1.
         -2    1    6    6    0  503  0.53836788723E+02  0.49957048375E+01  0.64719613239E+02  0.84332586968E+02  0.00000000000E+00 0.  1.
<mgrwt>
<rscale>  0 0.21817221E+04</rscale>
<asrwt>0</asrwt>
<pdfrwt beam="1">  1        2 0.16847341E+00 0.21817221E+04</pdfrwt>
<pdfrwt beam="2">  1       -1 0.16717864E+00 0.21817221E+04</pdfrwt>
<totfact> 0.59123025E+00</totfact>
</mgrwt>
</event>
<event>
12    6  0.1647231E-007  0.1847399E+04  0.7818608E-02  0.8681492E-01
         -1   -1    0    0    0  501 -0.00000000000E+00  0.00000000000E+00  0.55348743575E+03  0.55348743575E+03  0.00000000000E+00 0.  1.
          2   -1    0    0  501    0  0.00000000000E+00 -0.00000000000E+00 -0.15415358516E+04  0.15415358516E+04  0.00000000000E+00 0. -1.
         24    2    1    2    0    0  0.67204621067E+02 -0.29199079998E+03  0.33878167128E+03  0.45921172746E+03  0.79544336526E+02 0.  0.
        254    2    1    2    0    0 -0.67204621067E+02  0.29199079998E+03 -0.13268300871E+04  0.16358115598E+04  0.90863980265E+03 0.  0.
         23    2    4    4    0    0  0.24383975860E+03  0.24217229305E+03 -0.12515003418E+04  0.13009582058E+04  0.90188138731E+02 0.  0.
         23    2    4    4    0    0 -0.31104437966E+03  0.49818506924E+02 -0.75329745275E+02  0.33485335401E+03  0.84980635548E+02 0.  0.
          4    1    3    3  502    0  0.13776207833E+02 -0.87203405693E+02  0.50907448540E+02  0.10191067748E+03  0.00000000000E+00 0. -1.
         -3    1    3    3    0  502  0.53428413234E+02 -0.20478739429E+03  0.28787422274E+03  0.35730104998E+03  0.00000000000E+00 0.  1.
         11    1    5    5    0    0  0.55889750899E+02  0.11961011538E+02 -0.23928482439E+03  0.24601617271E+03  0.00000000000E+00 0.  1.
        -11    1    5    5    0    0  0.18795000770E+03  0.23021128152E+03 -0.10122155174E+04  0.10549420331E+04  0.00000000000E+00 0. -1.
          3    1    6    6  503    0 -0.17806294091E+03 -0.47630248065E+00 -0.73581967104E+02  0.19266796224E+03  0.00000000000E+00 0. -1.
         -3    1    6    6    0  503 -0.13298143875E+03  0.50294809405E+02 -0.17477781709E+01  0.14218539177E+03  0.00000000000E+00 0.  1.
<mgrwt>
<rscale>  0 0.18473990E+04</rscale>
<asrwt>0</asrwt>
<pdfrwt beam="1">  1        2 0.23715936E+00 0.18473990E+04</pdfrwt>
<pdfrwt beam="2">  1       -1 0.85151913E-01 0.18473990E+04</pdfrwt>
<totfact> 0.17576295E+01</totfact>
</mgrwt>
</event>
<event>
12    6  0.1647231E-007  0.1711395E+04  0.7818608E-02  0.8754892E-01
         -1   -1    0    0    0  501 -0.00000000000E+00  0.00000000000E+00  0.35287415355E+03  0.35287415355E+03  0.00000000000E+00 0.  1.
          2   -1    0    0  501    0  0.00000000000E+00 -0.00000000000E+00 -0.20750115491E+04  0.20750115491E+04  0.00000000000E+00 0. -1.
         24    2    1    2    0    0 -0.86460916616E+01  0.17491540302E+03  0.18801716199E+03  0.26901381403E+03  0.79673244084E+02 0.  0.
        254    2    1    2    0    0  0.86460916616E+01 -0.17491540302E+03 -0.19101545575E+04  0.21588718886E+04  0.99063981578E+03 0.  0.
         23    2    4    4    0    0 -0.24122624651E+03  0.33684634636E+03 -0.70669472129E+03  0.82410252239E+03  0.89844172076E+02 0.  0.
         23    2    4    4    0    0  0.24987233818E+03 -0.51176174938E+03 -0.12034598363E+04  0.13347693662E+04  0.94643594566E+02 0.  0.
          4    1    3    3  502    0  0.16627699922E+02  0.23237267293E+01  0.25978123455E+02  0.30931262645E+02  0.00000000000E+00 0. -1.
         -3    1    3    3    0  502 -0.25273791583E+02  0.17259167629E+03  0.16203903854E+03  0.23808255139E+03  0.00000000000E+00 0.  1.
         11    1    5    5    0    0 -0.22708410871E+03  0.33475825025E+03 -0.64965394068E+03  0.76529766835E+03  0.00000000000E+00 0.  1.
        -11    1    5    5    0    0 -0.14142137805E+02  0.20880961118E+01 -0.57040780602E+02  0.58804854041E+02  0.00000000000E+00 0. -1.
          4    1    6    6  503    0  0.68238254183E+01 -0.38852425244E+02 -0.14491532416E+03  0.15018830420E+03  0.00000000000E+00 0. -1.
         -4    1    6    6    0  503  0.24304851276E+03 -0.47290932414E+03 -0.10585445121E+04  0.11845810620E+04  0.00000000000E+00 0.  1.
<mgrwt>
<rscale>  0 0.17113947E+04</rscale>
<asrwt>0</asrwt>
<pdfrwt beam="1">  1        2 0.31923255E+00 0.17113947E+04</pdfrwt>
<pdfrwt beam="2">  1       -1 0.54288331E-01 0.17113947E+04</pdfrwt>
<totfact> 0.22517647E+01</totfact>
</mgrwt>
</event>
<event>
12    6  0.1647231E-007  0.1950556E+04  0.7818608E-02  0.8630093E-01
         -1   -1    0    0    0  501 -0.00000000000E+00  0.00000000000E+00  0.30492585375E+03  0.30492585375E+03  0.00000000000E+00 0.  1.
          2   -1    0    0  501    0  0.00000000000E+00 -0.00000000000E+00 -0.31193383440E+04  0.31193383440E+04  0.00000000000E+00 0. -1.
         24    2    1    2    0    0  0.53224182736E+03  0.25309248834E+03 -0.25194410615E+03  0.65016119077E+03  0.10907140278E+03 0.  0.
        254    2    1    2    0    0 -0.53224182736E+03 -0.25309248834E+03 -0.25624683841E+04  0.27741030070E+04  0.88434501380E+03 0.  0.
         23    2    4    4    0    0 -0.12119881030E+03 -0.29842774150E+03 -0.23306005646E+03  0.40682444205E+03  0.86260467295E+02 0.  0.
         23    2    4    4    0    0 -0.41104301706E+03  0.45335253156E+02 -0.23294083276E+04  0.23672785649E+04  0.82782849091E+02 0.  0.
          2    1    3    3  502    0  0.10340324626E+02 -0.10001853720E+02 -0.10394261605E+02  0.17748241196E+02  0.00000000000E+00 0. -1.
         -1    1    3    3    0  502  0.52190150274E+03  0.26309434206E+03 -0.24154984455E+03  0.63241294957E+03  0.00000000000E+00 0.  1.
         11    1    5    5    0    0 -0.11321583070E+03 -0.23960345854E+03 -0.14932117021E+03  0.30417832523E+03  0.00000000000E+00 0. -1.
        -11    1    5    5    0    0 -0.79829796054E+01 -0.58824282961E+02 -0.83738886247E+02  0.10264611682E+03  0.00000000000E+00 0.  1.
          3    1    6    6  503    0 -0.34832886524E+03  0.67591439393E+02 -0.19962072789E+04  0.20274972506E+04  0.00000000000E+00 0. -1.
         -3    1    6    6    0  503 -0.62714151820E+02 -0.22256186237E+02 -0.33320104875E+03  0.33978131431E+03  0.00000000000E+00 0.  1.
<mgrwt>
<rscale>  0 0.19505557E+04</rscale>
<asrwt>0</asrwt>
<pdfrwt beam="1">  1        2 0.47989821E+00 0.19505557E+04</pdfrwt>
<pdfrwt beam="2">  1       -1 0.46911669E-01 0.19505557E+04</pdfrwt>
<totfact> 0.70575494E+00</totfact>
</mgrwt>
</event>
<event>
12    6  0.1647231E-007  0.2467945E+04  0.7818608E-02  0.8414495E-01
         -1   -1    0    0    0  501 -0.00000000000E+00  0.00000000000E+00  0.73368079616E+03  0.73368079616E+03  0.00000000000E+00 0.  1.
          2   -1    0    0  501    0  0.00000000000E+00 -0.00000000000E+00 -0.20754095002E+04  0.20754095002E+04  0.00000000000E+00 0. -1.
         24    2    1    2    0    0  0.30138498149E+03  0.44628846971E+03 -0.16318328425E+04  0.17203311954E+04  0.81576288448E+02 0.  0.
        254    2    1    2    0    0 -0.30138498149E+03 -0.44628846971E+03  0.29010413841E+03  0.10887591010E+04  0.90068288736E+03 0.  0.
         23    2    4    4    0    0  0.24076246052E+03  0.89587462762E+02  0.13937078027E+03  0.30611053479E+03  0.91032792106E+02 0.  0.
         23    2    4    4    0    0 -0.54214744201E+03 -0.53587593247E+03  0.15073335814E+03  0.78264856619E+03  0.93441794874E+02 0.  0.
          4    1    3    3  502    0  0.15752491445E+03  0.28342702679E+03 -0.10651551223E+04  0.11134183458E+04  0.00000000000E+00 0. -1.
         -3    1    3    3    0  502  0.14386006704E+03  0.16286144292E+03 -0.56667772016E+03  0.60691284960E+03  0.00000000000E+00 0.  1.
         11    1    5    5    0    0  0.19974904123E+03  0.88066362786E+02  0.14855618154E+03  0.26405359835E+03  0.00000000000E+00 0. -1.
        -11    1    5    5    0    0  0.41013419288E+02  0.15210999759E+01 -0.91854012657E+01  0.42056936447E+02  0.00000000000E+00 0.  1.
          1    1    6    6  503    0 -0.36937326839E+03 -0.41901698050E+03  0.93458075317E+02  0.56634464170E+03  0.00000000000E+00 0. -1.
         -1    1    6    6    0  503 -0.17277417362E+03 -0.11685895197E+03  0.57275282823E+02  0.21630392449E+03  0.00000000000E+00 0.  1.
<mgrwt>
<rscale>  0 0.24679450E+04</rscale>
<asrwt>0</asrwt>
<pdfrwt beam="1">  1        2 0.31929377E+00 0.24679450E+04</pdfrwt>
<pdfrwt beam="2">  1       -1 0.11287397E+00 0.24679450E+04</pdfrwt>
<totfact> 0.44287793E+00</totfact>
</mgrwt>
</event>
<event>
12    6  0.1647231E-007  0.1013777E+04  0.7818608E-02  0.9293562E-01
          2   -1    0    0  501    0  0.00000000000E+00  0.00000000000E+00  0.15837003002E+04  0.15837003002E+04  0.00000000000E+00 0. -1.
         -1   -1    0    0    0  501 -0.00000000000E+00 -0.00000000000E+00 -0.16223781316E+03  0.16223781316E+03  0.00000000000E+00 0.  1.
         24    2    1    2    0    0  0.42477986611E+02  0.24521805460E+02  0.29311181869E+03  0.30806968663E+03  0.81158457782E+02 0.  0.
        254    2    1    2    0    0 -0.42477986611E+02 -0.24521805460E+02  0.11283506683E+04  0.14378684267E+04  0.88987902747E+03 0.  0.
         23    2    4    4    0    0 -0.29713987000E+03  0.10256259019E+03  0.10881400145E+04  0.11362141058E+04  0.90125555216E+02 0.  0.
         23    2    4    4    0    0  0.25466188339E+03 -0.12708439565E+03  0.40210653802E+02  0.30165432094E+03  0.91516742672E+02 0.  0.
          2    1    3    3  502    0  0.26183408069E+02  0.33693160601E+02  0.28414745432E+03  0.28733356178E+03  0.00000000000E+00 0. -1.
         -1    1    3    3    0  502  0.16294578542E+02 -0.91713551414E+01  0.89643643786E+01  0.20736124848E+02  0.00000000000E+00 0.  1.
         11    1    5    5    0    0 -0.17446139564E+03  0.10368821817E+03  0.72750915419E+03  0.75528643215E+03  0.00000000000E+00 0. -1.
        -11    1    5    5    0    0 -0.12267847436E+03 -0.11256279809E+01  0.36063086035E+03  0.38092767364E+03  0.00000000000E+00 0.  1.
          4    1    6    6  503    0  0.22667817344E+03 -0.13523942353E+03  0.17195212748E+02  0.26451535179E+03  0.00000000000E+00 0. -1.
         -4    1    6    6    0  503  0.27983709954E+02  0.81550278791E+01  0.23015441054E+02  0.37138969149E+02  0.00000000000E+00 0.  1.
<mgrwt>
<rscale>  0 0.10137772E+04</rscale>
<asrwt>0</asrwt>
<pdfrwt beam="1">  1        2 0.24364619E+00 0.10137772E+04</pdfrwt>
<pdfrwt beam="2">  1       -1 0.24959665E-01 0.10137772E+04</pdfrwt>
<totfact> 0.18175716E+02</totfact>
</mgrwt>
</event>
<event>
12    6  0.1647231E-007  0.1265620E+04  0.7818608E-02  0.9057282E-01
         -1   -1    0    0    0  501 -0.00000000000E+00  0.00000000000E+00  0.18258523419E+04  0.18258523419E+04  0.00000000000E+00 0.  1.
          2   -1    0    0  501    0  0.00000000000E+00 -0.00000000000E+00 -0.21932129706E+03  0.21932129706E+03  0.00000000000E+00 0. -1.
         24    2    1    2    0    0  0.29463575038E+03 -0.81425243020E+02  0.40042949701E+03  0.50997769288E+03  0.79329499899E+02 0.  0.
        254    2    1    2    0    0 -0.29463575038E+03  0.81425243020E+02  0.12061015478E+04  0.15351959461E+04  0.89928046436E+03 0.  0.
         23    2    4    4    0    0 -0.48491166843E+03 -0.77269100993E+02  0.27954994609E+03  0.57210789621E+03  0.89718629059E+02 0.  0.
         23    2    4    4    0    0  0.19027591805E+03  0.15869434401E+03  0.92655160172E+03  0.96308804985E+03  0.87475146790E+02 0.  0.
          4    1    3    3  502    0  0.24355065402E+03 -0.33810217469E+02  0.30688225505E+03  0.39323882100E+03  0.00000000000E+00 0. -1.
         -3    1    3    3    0  502  0.51085096361E+02 -0.47615025551E+02  0.93547241962E+02  0.11673887188E+03  0.00000000000E+00 0.  1.
         11    1    5    5    0    0 -0.30143483525E+03 -0.23730059000E+02  0.12868681052E+03  0.32861279769E+03  0.00000000000E+00 0.  1.
        -11    1    5    5    0    0 -0.18347683318E+03 -0.53539041994E+02  0.15086313557E+03  0.24349509852E+03  0.00000000000E+00 0. -1.
          2    1    6    6  503    0  0.14631921776E+03  0.85317827610E+02  0.49600906560E+03  0.52413112706E+03  0.00000000000E+00 0. -1.
         -2    1    6    6    0  503  0.43956700290E+02  0.73376516403E+02  0.43054253612E+03  0.43895692280E+03  0.00000000000E+00 0.  1.
<mgrwt>
<rscale>  0 0.12656197E+04</rscale>
<asrwt>0</asrwt>
<pdfrwt beam="1">  1        2 0.33741739E-01 0.12656197E+04</pdfrwt>
<pdfrwt beam="2">  1       -1 0.28090035E+00 0.12656197E+04</pdfrwt>
<totfact> 0.77439011E+00</totfact>
</mgrwt>
</event>
<event>
12    6  0.1647231E-007  0.1458979E+04  0.7818608E-02  0.8912199E-01
         -1   -1    0    0    0  501 -0.00000000000E+00  0.00000000000E+00  0.56658609044E+03  0.56658609044E+03  0.00000000000E+00 0.  1.
          2   -1    0    0  501    0  0.00000000000E+00 -0.00000000000E+00 -0.93923070618E+03  0.93923070618E+03  0.00000000000E+00 0. -1.
         24    2    1    2    0    0 -0.35382630214E+03  0.27531350719E+03 -0.14971920976E+03  0.47982513679E+03  0.82618041572E+02 0.  0.
        254    2    1    2    0    0  0.35382630214E+03 -0.27531350719E+03 -0.22292540599E+03  0.10259916598E+04  0.89552921230E+03 0.  0.
         23    2    4    4    0    0  0.47782832734E+03  0.10056371820E+03 -0.34174829631E+03  0.60268959685E+03  0.89497934614E+02 0.  0.
         23    2    4    4    0    0 -0.12400202520E+03 -0.37587722539E+03  0.11882289032E+03  0.42330206298E+03  0.91681876287E+02 0.  0.
          4    1    3    3  502    0 -0.34693584222E+03  0.27676156351E+03 -0.13561525263E+03  0.46406135198E+03  0.00000000000E+00 0. -1.
         -3    1    3    3    0  502 -0.68904599234E+01 -0.14480563180E+01 -0.14103957120E+02  0.15763784809E+02  0.00000000000E+00 0.  1.
         11    1    5    5    0    0  0.47039687986E+03  0.87175090101E+02 -0.34073351250E+03  0.58734321095E+03  0.00000000000E+00 0.  1.
        -11    1    5    5    0    0  0.74314474799E+01  0.13388628099E+02 -0.10147838126E+01  0.15346385900E+02  0.00000000000E+00 0. -1.
          3    1    6    6  503    0 -0.27681406444E+02 -0.16509467170E+03  0.11171258617E+02  0.16777159445E+03  0.00000000000E+00 0. -1.
         -3    1    6    6    0  503 -0.96320618752E+02 -0.21078255369E+03  0.10765163171E+03  0.25553046853E+03  0.00000000000E+00 0.  1.
<mgrwt>
<rscale>  0 0.14589792E+04</rscale>
<asrwt>0</asrwt>
<pdfrwt beam="1">  1        2 0.14449703E+00 0.14589792E+04</pdfrwt>
<pdfrwt beam="2">  1       -1 0.87167092E-01 0.14589792E+04</pdfrwt>
<totfact> 0.39567609E+01</totfact>
</mgrwt>
</event>
<event>
12    6  0.1647231E-007  0.1350826E+04  0.7818608E-02  0.8990203E-01
         -1   -1    0    0    0  501 -0.00000000000E+00  0.00000000000E+00  0.26508808518E+03  0.26508808518E+03  0.00000000000E+00 0.  1.
          2   -1    0    0  501    0  0.00000000000E+00 -0.00000000000E+00 -0.17208730149E+04  0.17208730149E+04  0.00000000000E+00 0. -1.
         24    2    1    2    0    0 -0.67348518489E+02 -0.11944995069E+03 -0.90577315655E+03  0.91952423001E+03  0.79345351462E+02 0.  0.
        254    2    1    2    0    0  0.67348518489E+02  0.11944995069E+03 -0.55001177315E+03  0.10664368700E+04  0.90331087312E+03 0.  0.
         23    2    4    4    0    0  0.18777436280E+03  0.24325752186E+03  0.13813847890E+03  0.35114478445E+03  0.98929202097E+02 0.  0.
         23    2    4    4    0    0 -0.12042584431E+03 -0.12380757117E+03 -0.68815025205E+03  0.71529208558E+03  0.90891691872E+02 0.  0.
          4    1    3    3  502    0 -0.62222478748E+02 -0.13102150098E+03 -0.80542888926E+03  0.81838497435E+03  0.00000000000E+00 0. -1.
         -1    1    3    3    0  502 -0.51260397416E+01  0.11571550292E+02 -0.10034426728E+03  0.10113925567E+03  0.00000000000E+00 0.  1.
         11    1    5    5    0    0  0.19562967484E+03  0.20341292829E+03  0.12104052225E+03  0.30708076641E+03  0.00000000000E+00 0. -1.
        -11    1    5    5    0    0 -0.78553120405E+01  0.39844593573E+02  0.17097956651E+02  0.44064018040E+02  0.00000000000E+00 0.  1.
          4    1    6    6  503    0 -0.22223011982E+02  0.69587342084E+01 -0.17937722946E+03  0.18088249415E+03  0.00000000000E+00 0.  1.
         -4    1    6    6    0  503 -0.98202832328E+02 -0.13076630537E+03 -0.50877302259E+03  0.53440959143E+03  0.00000000000E+00 0. -1.
<mgrwt>
<rscale>  0 0.13508263E+04</rscale>
<asrwt>0</asrwt>
<pdfrwt beam="1">  1        2 0.26474969E+00 0.13508263E+04</pdfrwt>
<pdfrwt beam="2">  1       -1 0.40782783E-01 0.13508263E+04</pdfrwt>
<totfact> 0.62447947E+01</totfact>
</mgrwt>
</event>
<event>
12    6  0.1647231E-007  0.1013802E+04  0.7818608E-02  0.9293535E-01
          2   -1    0    0  501    0  0.00000000000E+00  0.00000000000E+00  0.13066192401E+04  0.13066192401E+04  0.00000000000E+00 0. -1.
         -1   -1    0    0    0  501 -0.00000000000E+00 -0.00000000000E+00 -0.19665155105E+03  0.19665155105E+03  0.00000000000E+00 0.  1.
         24    2    1    2    0    0  0.29631807697E+02  0.44731084983E+02  0.88224199037E+02  0.12400127063E+03  0.68657787845E+02 0.  0.
        254    2    1    2    0    0 -0.29631807697E+02 -0.44731084983E+02  0.10217434901E+04  0.13792695206E+04  0.92495715407E+03 0.  0.
         23    2    4    4    0    0  0.10821130627E+03  0.40288523695E+03  0.63517734361E+03  0.76533754104E+03  0.90912556522E+02 0.  0.
         23    2    4    4    0    0 -0.13784311396E+03 -0.44761632193E+03  0.38656614646E+03  0.61393197953E+03  0.90099912166E+02 0.  0.
          4    1    3    3  502    0  0.27833811064E+02  0.39682467953E+02  0.99964287895E+02  0.11109580620E+03  0.00000000000E+00 0. -1.
         -3    1    3    3    0  502  0.17979966330E+01  0.50486170304E+01 -0.11740088858E+02  0.12905464432E+02  0.00000000000E+00 0.  1.
         11    1    5    5    0    0  0.12316041124E+03  0.38087617595E+03  0.59251715993E+03  0.71506064995E+03  0.00000000000E+00 0. -1.
        -11    1    5    5    0    0 -0.14949104971E+02  0.22009060998E+02  0.42660183679E+02  0.50276891083E+02  0.00000000000E+00 0.  1.
          1    1    6    6  503    0 -0.14452613964E+03 -0.41947136158E+03  0.33940219818E+03  0.55860350908E+03  0.00000000000E+00 0. -1.
         -1    1    6    6    0  503  0.66830256734E+01 -0.28144960352E+02  0.47163948272E+02  0.55328470447E+02  0.00000000000E+00 0.  1.
<mgrwt>
<rscale>  0 0.10138022E+04</rscale>
<asrwt>0</asrwt>
<pdfrwt beam="1">  1        2 0.20101834E+00 0.10138022E+04</pdfrwt>
<pdfrwt beam="2">  1       -1 0.30254086E-01 0.10138022E+04</pdfrwt>
<totfact> 0.18703643E+02</totfact>
</mgrwt>
</event>
<event>
12    6  0.1647231E-007  0.1548716E+04  0.7818608E-02  0.8852688E-01
         -1   -1    0    0    0  501 -0.00000000000E+00  0.00000000000E+00  0.27200617385E+03  0.27200617385E+03  0.00000000000E+00 0.  1.
          2   -1    0    0  501    0  0.00000000000E+00 -0.00000000000E+00 -0.22044743869E+04  0.22044743869E+04  0.00000000000E+00 0. -1.
         24    2    1    2    0    0  0.25994964335E+03 -0.38269337409E+03 -0.95782077801E+03  0.10668522536E+04  0.82006417759E+02 0.  0.
        254    2    1    2    0    0 -0.25994964335E+03  0.38269337409E+03 -0.97464743507E+03  0.14096283072E+04  0.90724104079E+03 0.  0.
         23    2    4    4    0    0  0.13425740308E+03  0.55457769772E+03 -0.57248639040E+03  0.81372432042E+03  0.93942159697E+02 0.  0.
         23    2    4    4    0    0 -0.39420704643E+03 -0.17188432363E+03 -0.40216104467E+03  0.59590398677E+03  0.91785834581E+02 0.  0.
          4    1    3    3  502    0  0.38759447604E+02 -0.60401717147E+02 -0.22679669338E+03  0.23788106764E+03  0.00000000000E+00 0. -1.
         -3    1    3    3    0  502  0.22119019574E+03 -0.32229165695E+03 -0.73102408463E+03  0.82897118595E+03  0.00000000000E+00 0.  1.
         11    1    5    5    0    0  0.10955491150E+03  0.39853452688E+03 -0.46763114145E+03  0.62410810938E+03  0.00000000000E+00 0.  1.
        -11    1    5    5    0    0  0.24702491578E+02  0.15604317084E+03 -0.10485524895E+03  0.18961621104E+03  0.00000000000E+00 0. -1.
          1    1    6    6  503    0 -0.39840199237E+03 -0.16463990419E+03 -0.39720283409E+03  0.58617449363E+03  0.00000000000E+00 0.  1.
         -1    1    6    6    0  503  0.41949459456E+01 -0.72444194320E+01 -0.49582105847E+01  0.97294931315E+01  0.00000000000E+00 0. -1.
<mgrwt>
<rscale>  0 0.15487164E+04</rscale>
<asrwt>0</asrwt>
<pdfrwt beam="1">  1        2 0.33914991E+00 0.15487164E+04</pdfrwt>
<pdfrwt beam="2">  1       -1 0.41847103E-01 0.15487164E+04</pdfrwt>
<totfact> 0.31581877E+01</totfact>
</mgrwt>
</event>
<event>
12    6  0.1647231E-007  0.1573327E+04  0.7818608E-02  0.8837104E-01
         -1   -1    0    0    0  501 -0.00000000000E+00  0.00000000000E+00  0.75279741835E+03  0.75279741835E+03  0.00000000000E+00 0.  1.
          2   -1    0    0  501    0  0.00000000000E+00 -0.00000000000E+00 -0.82205298947E+03  0.82205298947E+03  0.00000000000E+00 0. -1.
         24    2    1    2    0    0 -0.64228913527E+02  0.22940583597E+03  0.45261688783E+03  0.51745012027E+03  0.78359357464E+02 0.  0.
        254    2    1    2    0    0  0.64228913527E+02 -0.22940583597E+03 -0.52187245896E+03  0.10574002876E+04  0.88825228049E+03 0.  0.
         23    2    4    4    0    0  0.29507278312E+03 -0.61975370264E+01 -0.63427798204E+03  0.70520996237E+03  0.88916678529E+02 0.  0.
         23    2    4    4    0    0 -0.23084386959E+03 -0.22320829894E+03  0.11240552308E+03  0.35219032518E+03  0.91061444576E+02 0.  0.
          4    1    3    3  502    0 -0.24961462880E+02  0.84310790174E+01  0.47863268422E+02  0.54635612805E+02  0.00000000000E+00 0. -1.
         -3    1    3    3    0  502 -0.39267450647E+02  0.22097475695E+03  0.40475361941E+03  0.46281450746E+03  0.00000000000E+00 0.  1.
         11    1    5    5    0    0  0.11671803000E+03 -0.45196793523E+02 -0.27807402138E+03  0.30494427366E+03  0.00000000000E+00 0.  1.
        -11    1    5    5    0    0  0.17835475312E+03  0.38999256497E+02 -0.35620396067E+03  0.40026568871E+03  0.00000000000E+00 0. -1.
          3    1    6    6  503    0 -0.31474827869E+02 -0.43874350956E+02 -0.13927466617E+02  0.55763767695E+02  0.00000000000E+00 0. -1.
         -3    1    6    6    0  503 -0.19936904172E+03 -0.17933394799E+03  0.12633298970E+03  0.29642655749E+03  0.00000000000E+00 0.  1.
<mgrwt>
<rscale>  0 0.15733269E+04</rscale>
<asrwt>0</asrwt>
<pdfrwt beam="1">  1        2 0.12646969E+00 0.15733269E+04</pdfrwt>
<pdfrwt beam="2">  1       -1 0.11581499E+00 0.15733269E+04</pdfrwt>
<totfact> 0.24592712E+01</totfact>
</mgrwt>
</event>
<event>
12    6  0.1647231E-007  0.1810676E+04  0.7818608E-02  0.8700643E-01
         -1   -1    0    0    0  501 -0.00000000000E+00  0.00000000000E+00  0.59672400414E+03  0.59672400414E+03  0.00000000000E+00 0.  1.
          2   -1    0    0  501    0  0.00000000000E+00 -0.00000000000E+00 -0.13735614475E+04  0.13735614475E+04  0.00000000000E+00 0. -1.
         24    2    1    2    0    0 -0.12838121274E+03 -0.55190904662E+03 -0.68554228912E+03  0.89300589724E+03  0.80037308892E+02 0.  0.
        254    2    1    2    0    0  0.12838121274E+03  0.55190904662E+03 -0.91295154257E+02  0.10772795544E+04  0.91165295020E+03 0.  0.
         23    2    4    4    0    0  0.35476058716E+02  0.78425417632E+03 -0.14979188561E+03  0.80430181787E+03  0.90280902810E+02 0.  0.
         23    2    4    4    0    0  0.92905154025E+02 -0.23234512970E+03  0.58496731354E+02  0.27297773653E+03  0.92083386799E+02 0.  0.
          4    1    3    3  502    0 -0.13843875055E+03 -0.51201322867E+03 -0.62378662142E+03  0.81879947670E+03  0.00000000000E+00 0. -1.
         -3    1    3    3    0  502  0.10057537805E+02 -0.39895817957E+02 -0.61755667697E+02  0.74206420543E+02  0.00000000000E+00 0.  1.
         11    1    5    5    0    0  0.35014006776E+02  0.13402270071E+03 -0.77565929475E+01  0.13873798943E+03  0.00000000000E+00 0.  1.
        -11    1    5    5    0    0  0.46205193993E+00  0.65023147561E+03 -0.14203529266E+03  0.66556382844E+03  0.00000000000E+00 0. -1.
          1    1    6    6  503    0  0.83548534919E+02 -0.10090224656E+03  0.52300688669E+02  0.14105666621E+03  0.00000000000E+00 0. -1.
         -1    1    6    6    0  503  0.93566191058E+01 -0.13144288314E+03  0.61960426849E+01  0.13192107032E+03  0.00000000000E+00 0.  1.
<mgrwt>
<rscale>  0 0.18106762E+04</rscale>
<asrwt>0</asrwt>
<pdfrwt beam="1">  1        2 0.21131715E+00 0.18106762E+04</pdfrwt>
<pdfrwt beam="2">  1       -1 0.91803692E-01 0.18106762E+04</pdfrwt>
<totfact> 0.18624299E+01</totfact>
</mgrwt>
</event>
<event>
12    6  0.1647231E-007  0.1283871E+04  0.7818608E-02  0.9042454E-01
         -1   -1    0    0    0  501 -0.00000000000E+00  0.00000000000E+00  0.97056649907E+03  0.97056649907E+03  0.00000000000E+00 0.  1.
          2   -1    0    0  501    0  0.00000000000E+00 -0.00000000000E+00 -0.42457799196E+03  0.42457799196E+03  0.00000000000E+00 0. -1.
         24    2    1    2    0    0  0.89560585507E+02  0.27984001409E+03  0.25714102587E+03  0.39878160996E+03  0.81078562494E+02 0.  0.
        254    2    1    2    0    0 -0.89560585507E+02 -0.27984001409E+03  0.28884748124E+03  0.99636288107E+03  0.90717947033E+03 0.  0.
         23    2    4    4    0    0 -0.21210461574E+03 -0.55612812046E+03  0.58123401903E+02  0.60498801426E+03  0.91462085924E+02 0.  0.
         23    2    4    4    0    0  0.12254403024E+03  0.27628810636E+03  0.23072407934E+03  0.39137486681E+03  0.92674314253E+02 0.  0.
          4    1    3    3  502    0  0.61861032293E+02  0.93141130367E+02  0.64471733273E+02  0.12906843872E+03  0.00000000000E+00 0. -1.
         -3    1    3    3    0  502  0.27699553213E+02  0.18669888373E+03  0.19266929259E+03  0.26971317124E+03  0.00000000000E+00 0.  1.
         11    1    5    5    0    0 -0.16781508775E+02 -0.24160604393E+02  0.22758809584E+02  0.37192973195E+02  0.00000000000E+00 0. -1.
        -11    1    5    5    0    0 -0.19532310697E+03 -0.53196751606E+03  0.35364592318E+02  0.56779504106E+03  0.00000000000E+00 0.  1.
          3    1    6    6  503    0  0.21190145696E+02  0.68393605949E+02  0.11153998224E+02  0.72464607125E+02  0.00000000000E+00 0. -1.
         -3    1    6    6    0  503  0.10135388454E+03  0.20789450041E+03  0.21957008112E+03  0.31891025969E+03  0.00000000000E+00 0.  1.
<mgrwt>
<rscale>  0 0.12838710E+04</rscale>
<asrwt>0</asrwt>
<pdfrwt beam="1">  1        2 0.65319691E-01 0.12838710E+04</pdfrwt>
<pdfrwt beam="2">  1       -1 0.14931792E+00 0.12838710E+04</pdfrwt>
<totfact> 0.29476044E+01</totfact>
</mgrwt>
</event>
<event>
12    6  0.1647231E-007  0.1604149E+04  0.7818608E-02  0.8818003E-01
          2   -1    0    0  501    0  0.00000000000E+00  0.00000000000E+00  0.17628279282E+04  0.17628279282E+04  0.00000000000E+00 0. -1.
         -1   -1    0    0    0  501 -0.00000000000E+00 -0.00000000000E+00 -0.36493822343E+03  0.36493822343E+03  0.00000000000E+00 0.  1.
         24    2    1    2    0    0  0.33072566049E+03 -0.28353966768E+03  0.90041643155E+03  0.10031969413E+04  0.76682118322E+02 0.  0.
        254    2    1    2    0    0 -0.33072566049E+03  0.28353966768E+03  0.49747327319E+03  0.11245692102E+04  0.90961642765E+03 0.  0.
         23    2    4    4    0    0 -0.54921016118E+03  0.83491141464E+02  0.57530396824E+03  0.80499913109E+03  0.91904152964E+02 0.  0.
         23    2    4    4    0    0  0.21848450069E+03  0.20004852622E+03 -0.77830695055E+02  0.31957007916E+03  0.91173069034E+02 0.  0.
          2    1    3    3  502    0  0.98536179820E+02 -0.97586047369E+02  0.36878628183E+03  0.39399966630E+03  0.00000000000E+00 0. -1.
         -1    1    3    3    0  502  0.23218948067E+03 -0.18595362031E+03  0.53163014972E+03  0.60919727505E+03  0.00000000000E+00 0.  1.
         11    1    5    5    0    0 -0.95373853249E+02 -0.15152819855E+02  0.74322540757E+02  0.12185901648E+03  0.00000000000E+00 0.  1.
        -11    1    5    5    0    0 -0.45383630793E+03  0.98643961320E+02  0.50098142748E+03  0.68314011461E+03  0.00000000000E+00 0. -1.
          3    1    6    6  503    0  0.60680559701E+02  0.56582098350E+02 -0.65917926715E+02  0.10596620802E+03  0.00000000000E+00 0. -1.
         -3    1    6    6    0  503  0.15780394099E+03  0.14346642787E+03 -0.11912768340E+02  0.21360387114E+03  0.00000000000E+00 0.  1.
<mgrwt>
<rscale>  0 0.16041487E+04</rscale>
<asrwt>0</asrwt>
<pdfrwt beam="1">  1        2 0.27120429E+00 0.16041487E+04</pdfrwt>
<pdfrwt beam="2">  1       -1 0.56144343E-01 0.16041487E+04</pdfrwt>
<totfact> 0.31716660E+01</totfact>
</mgrwt>
</event>
<event>
12    6  0.1647231E-007  0.1233487E+04  0.7818608E-02  0.9084040E-01
         -1   -1    0    0    0  501 -0.00000000000E+00  0.00000000000E+00  0.18782038324E+03  0.18782038324E+03  0.00000000000E+00 0.  1.
          2   -1    0    0  501    0  0.00000000000E+00 -0.00000000000E+00 -0.20251924296E+04  0.20251924296E+04  0.00000000000E+00 0. -1.
         24    2    1    2    0    0  0.26762807756E+03  0.52909424168E+02 -0.53896285580E+03  0.60923434894E+03  0.79128610098E+02 0.  0.
        254    2    1    2    0    0 -0.26762807756E+03 -0.52909424168E+02 -0.12984091906E+04  0.16037784639E+04  0.90100762487E+03 0.  0.
         23    2    4    4    0    0 -0.50631323945E+02  0.28955247303E+03 -0.82228390618E+02  0.31863387257E+03  0.91443266127E+02 0.  0.
         23    2    4    4    0    0 -0.21699675362E+03 -0.34246189720E+03 -0.12161808000E+04  0.12851445913E+04  0.90183925204E+02 0.  0.
          4    1    3    3  502    0  0.23794747404E+03  0.70791491893E+02 -0.48932933485E+03  0.54870177115E+03  0.00000000000E+00 0. -1.
         -3    1    3    3    0  502  0.29680603529E+02 -0.17882067725E+02 -0.49633520949E+02  0.60532577789E+02  0.00000000000E+00 0.  1.
         11    1    5    5    0    0 -0.10321457535E+02  0.53035819374E+02  0.20299405165E+02  0.57718250774E+02  0.00000000000E+00 0.  1.
        -11    1    5    5    0    0 -0.40309866410E+02  0.23651665366E+03 -0.10252779578E+03  0.26091562179E+03  0.00000000000E+00 0. -1.
          2    1    6    6  503    0 -0.17764125997E+03 -0.20591287922E+03 -0.74981207560E+03  0.79760559162E+03  0.00000000000E+00 0. -1.
         -2    1    6    6    0  503 -0.39355493647E+02 -0.13654901799E+03 -0.46636872435E+03  0.48753899972E+03  0.00000000000E+00 0.  1.
<mgrwt>
<rscale>  0 0.12334868E+04</rscale>
<asrwt>0</asrwt>
<pdfrwt beam="1">  1        2 0.31156807E+00 0.12334868E+04</pdfrwt>
<pdfrwt beam="2">  1       -1 0.28895443E-01 0.12334868E+04</pdfrwt>
<totfact> 0.79170729E+01</totfact>
</mgrwt>
</event>
<event>
12    6  0.1647231E-007  0.1793111E+04  0.7818608E-02  0.8709971E-01
         -1   -1    0    0    0  501 -0.00000000000E+00  0.00000000000E+00  0.34557433593E+03  0.34557433593E+03  0.00000000000E+00 0.  1.
          2   -1    0    0  501    0  0.00000000000E+00 -0.00000000000E+00 -0.23260176316E+04  0.23260176316E+04  0.00000000000E+00 0. -1.
         24    2    1    2    0    0 -0.49430813294E+03 -0.23876636267E+03 -0.13359454365E+04  0.14465632955E+04  0.80282327350E+02 0.  0.
        254    2    1    2    0    0  0.49430813294E+03  0.23876636267E+03 -0.64449785916E+03  0.12250286721E+04  0.88541959025E+03 0.  0.
         23    2    4    4    0    0  0.65686599558E+03  0.36344964538E+03 -0.64900218578E+03  0.99653441024E+03  0.91150495121E+02 0.  0.
         23    2    4    4    0    0 -0.16255786264E+03 -0.12468328271E+03  0.45043266208E+01  0.22849426188E+03  0.10108589940E+03 0.  0.
          4    1    3    3  502    0 -0.12001727559E+02 -0.15472659755E+01 -0.73092832432E+02  0.74087769904E+02  0.00000000000E+00 0. -1.
         -3    1    3    3    0  502 -0.48230640539E+03 -0.23721909669E+03 -0.12628526041E+04  0.13724755255E+04  0.00000000000E+00 0.  1.
         11    1    5    5    0    0  0.35176830000E+03  0.15846788083E+03 -0.28911088493E+03  0.48211835676E+03  0.00000000000E+00 0.  1.
        -11    1    5    5    0    0  0.30509769558E+03  0.20498176455E+03 -0.35989130085E+03  0.51441605347E+03  0.00000000000E+00 0. -1.
          3    1    6    6  503    0 -0.12634614784E+03 -0.12385521096E+03 -0.28838827239E+02  0.17926276890E+03  0.00000000000E+00 0.  1.
         -3    1    6    6    0  503 -0.36211714796E+02 -0.82807175181E+00  0.33343153860E+02  0.49231492976E+02  0.00000000000E+00 0. -1.
<mgrwt>
<rscale>  0 0.17931113E+04</rscale>
<asrwt>0</asrwt>
<pdfrwt beam="1">  1        2 0.35784886E+00 0.17931113E+04</pdfrwt>
<pdfrwt beam="2">  1       -1 0.53165284E-01 0.17931113E+04</pdfrwt>
<totfact> 0.16826341E+01</totfact>
</mgrwt>
</event>
<event>
12    6  0.1647231E-007  0.1764069E+04  0.7818608E-02  0.8725644E-01
         -1   -1    0    0    0  501 -0.00000000000E+00  0.00000000000E+00  0.43375453182E+03  0.43375453182E+03  0.00000000000E+00 0.  1.
          2   -1    0    0  501    0  0.00000000000E+00 -0.00000000000E+00 -0.17936070088E+04  0.17936070088E+04  0.00000000000E+00 0. -1.
         24    2    1    2    0    0 -0.90507324549E+02 -0.52369594265E+03 -0.95982827330E+03  0.11017664777E+04  0.10084662126E+03 0.  0.
        254    2    1    2    0    0  0.90507324549E+02  0.52369594265E+03 -0.40002420369E+03  0.11255950629E+04  0.90801754720E+03 0.  0.
         23    2    4    4    0    0 -0.49184091890E+02 -0.58989925997E+02 -0.49663561903E+03  0.51144474460E+03  0.95025798763E+02 0.  0.
         23    2    4    4    0    0  0.13969141644E+03  0.58268586865E+03  0.96611415341E+02  0.61415031833E+03  0.93863382547E+02 0.  0.
          2    1    3    3  502    0 -0.10715016957E+03 -0.37490866735E+03 -0.65820669377E+03  0.76503184210E+03  0.00000000000E+00 0. -1.
         -1    1    3    3    0  502  0.16642845020E+02 -0.14878727530E+03 -0.30162157953E+03  0.33673463561E+03  0.00000000000E+00 0.  1.
         11    1    5    5    0    0 -0.68193342480E+02 -0.15162533430E+02 -0.35954704105E+03  0.36627081388E+03  0.00000000000E+00 0. -1.
        -11    1    5    5    0    0  0.19009250590E+02 -0.43827392566E+02 -0.13708857798E+03  0.14517393072E+03  0.00000000000E+00 0.  1.
          1    1    6    6  503    0  0.14111097540E+03  0.57322267633E+03  0.10707824804E+03  0.59996857854E+03  0.00000000000E+00 0. -1.
         -1    1    6    6    0  503 -0.14195589640E+01  0.94631923182E+01 -0.10466832703E+02  0.14181739785E+02  0.00000000000E+00 0.  1.
<mgrwt>
<rscale>  0 0.17640694E+04</rscale>
<asrwt>0</asrwt>
<pdfrwt beam="1">  1        2 0.27593954E+00 0.17640694E+04</pdfrwt>
<pdfrwt beam="2">  1       -1 0.66731466E-01 0.17640694E+04</pdfrwt>
<totfact> 0.21343853E+01</totfact>
</mgrwt>
</event>
<event>
12    6  0.1647231E-007  0.1470000E+04  0.7818608E-02  0.8904652E-01
          2   -1    0    0  501    0  0.00000000000E+00  0.00000000000E+00  0.88523877244E+03  0.88523877244E+03  0.00000000000E+00 0. -1.
         -1   -1    0    0    0  501 -0.00000000000E+00 -0.00000000000E+00 -0.61025870590E+03  0.61025870590E+03  0.00000000000E+00 0.  1.
         24    2    1    2    0    0 -0.56166437120E+02  0.45684653080E+03  0.80609677981E+02  0.47397579034E+03  0.79320289188E+02 0.  0.
        254    2    1    2    0    0  0.56166437120E+02 -0.45684653080E+03  0.19437038856E+03  0.10215216880E+04  0.89099006154E+03 0.  0.
         23    2    4    4    0    0 -0.28614183658E+03 -0.50287138756E+03  0.28679934184E+03  0.65260200374E+03  0.94227011703E+02 0.  0.
         23    2    4    4    0    0  0.34230827370E+03  0.46024856756E+02 -0.92428953278E+02  0.36891968427E+03  0.90914137276E+02 0.  0.
          2    1    3    3  502    0 -0.52459356371E+02  0.45882084637E+03  0.82900069506E+02  0.46919183141E+03  0.00000000000E+00 0. -1.
         -1    1    3    3    0  502 -0.37070807494E+01 -0.19743155730E+01 -0.22903915251E+01  0.47839589257E+01  0.00000000000E+00 0.  1.
         11    1    5    5    0    0 -0.80405004076E+01 -0.44216271759E+02  0.12741979864E+01  0.44959447456E+02  0.00000000000E+00 0.  1.
        -11    1    5    5    0    0 -0.27810133617E+03 -0.45865511580E+03  0.28552514385E+03  0.60764255628E+03  0.00000000000E+00 0. -1.
          3    1    6    6  503    0  0.18843465438E+03  0.63981248893E+02 -0.27284946144E+02  0.20086235951E+03  0.00000000000E+00 0. -1.
         -3    1    6    6    0  503  0.15387361932E+03 -0.17956392137E+02 -0.65144007135E+02  0.16805732476E+03  0.00000000000E+00 0.  1.
<mgrwt>
<rscale>  0 0.14699995E+04</rscale>
<asrwt>0</asrwt>
<pdfrwt beam="1">  1        2 0.13619058E+00 0.14699995E+04</pdfrwt>
<pdfrwt beam="2">  1       -1 0.93885955E-01 0.14699995E+04</pdfrwt>
<totfact> 0.36477611E+01</totfact>
</mgrwt>
</event>
<event>
12    6  0.1647231E-007  0.2398661E+04  0.7818608E-02  0.8440005E-01
          2   -1    0    0  501    0  0.00000000000E+00  0.00000000000E+00  0.23229853614E+04  0.23229853614E+04  0.00000000000E+00 0. -1.
         -1   -1    0    0    0  501 -0.00000000000E+00 -0.00000000000E+00 -0.61920048904E+03  0.61920048904E+03  0.00000000000E+00 0.  1.
         24    2    1    2    0    0 -0.10009991349E+04 -0.81253391924E+02  0.46054980523E+03  0.11077733803E+04  0.80339015076E+02 0.  0.
        254    2    1    2    0    0  0.10009991349E+04  0.81253391924E+02  0.12432350671E+04  0.18344124701E+04  0.90046337877E+03 0.  0.
         23    2    4    4    0    0  0.10835451377E+04  0.20606598406E+03  0.82208635166E+03  0.13787002788E+04  0.91952346443E+02 0.  0.
         23    2    4    4    0    0 -0.82546002792E+02 -0.12481259214E+03  0.42114871546E+03  0.45571219127E+03  0.88968168475E+02 0.  0.
          4    1    3    3  502    0 -0.18934922838E+03 -0.26767969241E+02  0.12085191948E+03  0.22621856888E+03  0.00000000000E+00 0. -1.
         -3    1    3    3    0  502 -0.81164990651E+03 -0.54485422683E+02  0.33969788576E+03  0.88155481146E+03  0.00000000000E+00 0.  1.
         11    1    5    5    0    0  0.10355171742E+04  0.19975951869E+03  0.75985400508E+03  0.12998376023E+04  0.00000000000E+00 0.  1.
        -11    1    5    5    0    0  0.48027963482E+02  0.63064653700E+01  0.62232346582E+02  0.78862676487E+02  0.00000000000E+00 0. -1.
          3    1    6    6  503    0 -0.47191898969E+02 -0.10807799618E+03  0.20890395356E+03  0.23989328961E+03  0.00000000000E+00 0. -1.
         -3    1    6    6    0  503 -0.35354103823E+02 -0.16734595964E+02  0.21224476190E+03  0.21581890166E+03  0.00000000000E+00 0.  1.
<mgrwt>
<rscale>  0 0.23986610E+04</rscale>
<asrwt>0</asrwt>
<pdfrwt beam="1">  1        2 0.35738236E+00 0.23986610E+04</pdfrwt>
<pdfrwt beam="2">  1       -1 0.95261615E-01 0.23986610E+04</pdfrwt>
<totfact> 0.47890908E+00</totfact>
</mgrwt>
</event>
<event>
12    6  0.1647231E-007  0.1883212E+04  0.7818608E-02  0.8663258E-01
         -1   -1    0    0    0  501 -0.00000000000E+00  0.00000000000E+00  0.53150323939E+03  0.53150323939E+03  0.00000000000E+00 0.  1.
          2   -1    0    0  501    0  0.00000000000E+00 -0.00000000000E+00 -0.16681400724E+04  0.16681400724E+04  0.00000000000E+00 0. -1.
         24    2    1    2    0    0 -0.29783657884E+03  0.65405762250E+03 -0.34985459836E+03  0.80324147753E+03  0.79376507775E+02 0.  0.
        254    2    1    2    0    0  0.29783657884E+03 -0.65405762250E+03 -0.78678223468E+03  0.13964018343E+04  0.90244877791E+03 0.  0.
         23    2    4    4    0    0 -0.25175896644E+03 -0.51475274046E+03 -0.39045500497E+03  0.69820669909E+03  0.81758930774E+02 0.  0.
         23    2    4    4    0    0  0.54959554528E+03 -0.13930488204E+03 -0.39632722971E+03  0.69819513520E+03  0.94551891824E+02 0.  0.
          2    1    3    3  502    0 -0.22403627820E+03  0.40918488792E+03 -0.20786326679E+03  0.51071681403E+03  0.00000000000E+00 0. -1.
         -1    1    3    3    0  502 -0.73800300640E+02  0.24487273457E+03 -0.14199133157E+03  0.29252466350E+03  0.00000000000E+00 0.  1.
         11    1    5    5    0    0 -0.25267616750E+03 -0.50466518105E+03 -0.36852270155E+03  0.67404834555E+03  0.00000000000E+00 0. -1.
        -11    1    5    5    0    0  0.91720106125E+00 -0.10087559412E+02 -0.21932303412E+02  0.24158353537E+02  0.00000000000E+00 0.  1.
          2    1    6    6  503    0  0.43374479871E+03 -0.69050642118E+02 -0.30865914957E+03  0.53681748499E+03  0.00000000000E+00 0. -1.
         -2    1    6    6    0  503  0.11585074657E+03 -0.70254239923E+02 -0.87668080142E+02  0.16137765020E+03  0.00000000000E+00 0.  1.
<mgrwt>
<rscale>  0 0.18832120E+04</rscale>
<asrwt>0</asrwt>
<pdfrwt beam="1">  1        2 0.25663693E+00 0.18832120E+04</pdfrwt>
<pdfrwt beam="2">  1       -1 0.81769731E-01 0.18832120E+04</pdfrwt>
<totfact> 0.16244554E+01</totfact>
</mgrwt>
</event>
<event>
12    6  0.1647231E-007  0.2291423E+04  0.7818608E-02  0.8481311E-01
          2   -1    0    0  501    0  0.00000000000E+00  0.00000000000E+00  0.98482003844E+03  0.98482003844E+03  0.00000000000E+00 0. -1.
         -1   -1    0    0    0  501 -0.00000000000E+00 -0.00000000000E+00 -0.13328875633E+04  0.13328875633E+04  0.00000000000E+00 0.  1.
         24    2    1    2    0    0  0.60432153695E+03  0.20130941654E+03  0.58616684697E+03  0.86945128379E+03  0.81387721350E+02 0.  0.
        254    2    1    2    0    0 -0.60432153695E+03 -0.20130941654E+03 -0.93423437182E+03  0.14482563179E+04  0.90494336827E+03 0.  0.
         23    2    4    4    0    0 -0.61691163737E+03 -0.15019993094E+03 -0.15310448357E+03  0.65970398709E+03  0.92889074200E+02 0.  0.
         23    2    4    4    0    0  0.12590100424E+02 -0.51109485604E+02 -0.78112988825E+03  0.78855233086E+03  0.94234739035E+02 0.  0.
          2    1    3    3  502    0  0.52502712123E+03  0.15390592987E+03  0.47194875696E+03  0.72254836688E+03  0.00000000000E+00 0. -1.
         -1    1    3    3    0  502  0.79294415720E+02  0.47403486671E+02  0.11421809000E+03  0.14690291691E+03  0.00000000000E+00 0.  1.
         11    1    5    5    0    0 -0.12013445242E+03 -0.29600191243E+02 -0.68872555990E+02  0.14160468548E+03  0.00000000000E+00 0. -1.
        -11    1    5    5    0    0 -0.49677718495E+03 -0.12059973970E+03 -0.84231927581E+02  0.51809930161E+03  0.00000000000E+00 0.  1.
          1    1    6    6  503    0 -0.27867143825E+02  0.14034301146E+02 -0.21484660863E+03  0.21710044807E+03  0.00000000000E+00 0. -1.
         -1    1    6    6    0  503  0.40457244250E+02 -0.65143786751E+02 -0.56628327962E+03  0.57145188279E+03  0.00000000000E+00 0.  1.
<mgrwt>
<rscale>  0 0.22914226E+04</rscale>
<asrwt>0</asrwt>
<pdfrwt beam="1">  1        2 0.15151078E+00 0.22914226E+04</pdfrwt>
<pdfrwt beam="2">  1       -1 0.20505962E+00 0.22914226E+04</pdfrwt>
<totfact> 0.37028647E+00</totfact>
</mgrwt>
</event>
<event>
12    6  0.1647231E-007  0.1880246E+04  0.7818608E-02  0.8664752E-01
         -1   -1    0    0    0  501 -0.00000000000E+00  0.00000000000E+00  0.71900990320E+03  0.71900990320E+03  0.00000000000E+00 0.  1.
          2   -1    0    0  501    0  0.00000000000E+00 -0.00000000000E+00 -0.12292340967E+04  0.12292340967E+04  0.00000000000E+00 0. -1.
         24    2    1    2    0    0  0.94350279946E+02  0.15195230813E+02 -0.93702125678E+03  0.94534746911E+03  0.80871078455E+02 0.  0.
        254    2    1    2    0    0 -0.94350279946E+02 -0.15195230813E+02  0.42679706333E+03  0.10028965307E+04  0.90250365525E+03 0.  0.
         23    2    4    4    0    0 -0.10934667324E+03 -0.43859398996E+03  0.13798151943E+03  0.48102994105E+03  0.89607597351E+02 0.  0.
         23    2    4    4    0    0  0.14996393298E+02  0.42339875915E+03  0.28881554389E+03  0.52186658969E+03  0.97154093998E+02 0.  0.
          4    1    3    3  502    0  0.75889792016E+02  0.43452260636E+02 -0.76999548923E+03  0.77494542577E+03  0.00000000000E+00 0. -1.
         -3    1    3    3    0  502  0.18460487930E+02 -0.28257029823E+02 -0.16702576755E+03  0.17040204334E+03  0.00000000000E+00 0.  1.
         11    1    5    5    0    0 -0.80298432251E+02 -0.16796643645E+03  0.31800360325E+02  0.18886986237E+03  0.00000000000E+00 0. -1.
        -11    1    5    5    0    0 -0.29048240994E+02 -0.27062755351E+03  0.10618115911E+03  0.29216007868E+03  0.00000000000E+00 0.  1.
          4    1    6    6  503    0  0.25213739057E+02  0.41079443850E+03  0.25447446938E+03  0.48388537786E+03  0.00000000000E+00 0.  1.
         -4    1    6    6    0  503 -0.10217345760E+02  0.12604320646E+02  0.34341074512E+02  0.37981211828E+02  0.00000000000E+00 0. -1.
<mgrwt>
<rscale>  0 0.18802462E+04</rscale>
<asrwt>0</asrwt>
<pdfrwt beam="1">  1        2 0.18911294E+00 0.18802462E+04</pdfrwt>
<pdfrwt beam="2">  1       -1 0.11061691E+00 0.18802462E+04</pdfrwt>
<totfact> 0.14657596E+01</totfact>
</mgrwt>
</event>
<event>
12    6  0.1647231E-007  0.1604449E+04  0.7818608E-02  0.8817819E-01
          2   -1    0    0  501    0  0.00000000000E+00  0.00000000000E+00  0.26922003301E+04  0.26922003301E+04  0.00000000000E+00 0. -1.
         -1   -1    0    0    0  501 -0.00000000000E+00 -0.00000000000E+00 -0.23904775309E+03  0.23904775309E+03  0.00000000000E+00 0.  1.
         24    2    1    2    0    0  0.17168138010E+03 -0.50142223605E+03  0.54787158286E+03  0.76650072521E+03  0.80382431899E+02 0.  0.
        254    2    1    2    0    0 -0.17168138010E+03  0.50142223605E+03  0.19052809942E+04  0.21647473580E+04  0.88041848126E+03 0.  0.
         23    2    4    4    0    0 -0.33397129098E+03  0.64461655909E+03  0.10645795133E+04  0.12918057981E+04  0.91462279062E+02 0.  0.
         23    2    4    4    0    0  0.16228991088E+03 -0.14319432304E+03  0.84070148090E+03  0.87294155990E+03  0.91680737792E+02 0.  0.
          4    1    3    3  502    0  0.13813280527E+02 -0.46438461175E+02  0.88810909126E+02  0.10116676814E+03  0.00000000000E+00 0. -1.
         -3    1    3    3    0  502  0.15786809957E+03 -0.45498377488E+03  0.45906067374E+03  0.66533395708E+03  0.00000000000E+00 0.  1.
         11    1    5    5    0    0 -0.71434868047E+02  0.21647858310E+03  0.29425127321E+03  0.37222268752E+03  0.00000000000E+00 0. -1.
        -11    1    5    5    0    0 -0.26253642293E+03  0.42813797599E+03  0.77032824006E+03  0.91958311059E+03  0.00000000000E+00 0.  1.
          2    1    6    6  503    0  0.45602971505E+02 -0.93666757354E+02  0.46153573091E+03  0.47314725334E+03  0.00000000000E+00 0. -1.
         -2    1    6    6    0  503  0.11668693938E+03 -0.49527565683E+02  0.37916575000E+03  0.39979430655E+03  0.00000000000E+00 0.  1.
<mgrwt>
<rscale>  0 0.16044494E+04</rscale>
<asrwt>0</asrwt>
<pdfrwt beam="1">  1        2 0.41418464E+00 0.16044494E+04</pdfrwt>
<pdfrwt beam="2">  1       -1 0.36776579E-01 0.16044494E+04</pdfrwt>
<totfact> 0.20865157E+01</totfact>
</mgrwt>
</event>
<event>
12    6  0.1647231E-007  0.3057380E+04  0.7818608E-02  0.8227533E-01
          2   -1    0    0  501    0  0.00000000000E+00  0.00000000000E+00  0.16964259698E+04  0.16964259698E+04  0.00000000000E+00 0. -1.
         -1   -1    0    0    0  501 -0.00000000000E+00 -0.00000000000E+00 -0.13775390710E+04  0.13775390710E+04  0.00000000000E+00 0.  1.
         24    2    1    2    0    0 -0.25644160220E+03 -0.85405625211E+03  0.12230765325E+04  0.15148441060E+04  0.60515157455E+02 0.  0.
        254    2    1    2    0    0  0.25644160220E+03  0.85405625211E+03 -0.90418963368E+03  0.15591209347E+04  0.90450252533E+03 0.  0.
         23    2    4    4    0    0 -0.15841338411E+02 -0.15803787755E+03 -0.28518412149E+03  0.33848799289E+03  0.89538926935E+02 0.  0.
         23    2    4    4    0    0  0.27228294061E+03  0.10120941297E+04 -0.61900551219E+03  0.12206329418E+04  0.91128631785E+02 0.  0.
          2    1    3    3  502    0 -0.19643346158E+03 -0.64624448891E+03  0.96880023673E+03  0.11810131003E+04  0.00000000000E+00 0. -1.
         -1    1    3    3    0  502 -0.60008140614E+02 -0.20781176319E+03  0.25427629572E+03  0.33383100579E+03  0.00000000000E+00 0.  1.
         11    1    5    5    0    0 -0.19189519691E+02 -0.98874376732E+01 -0.94812428346E+02  0.97238858789E+02  0.00000000000E+00 0. -1.
        -11    1    5    5    0    0  0.33481812802E+01 -0.14815043987E+03 -0.19037169315E+03  0.24124913410E+03  0.00000000000E+00 0.  1.
          1    1    6    6  503    0  0.22801794937E+03  0.69927109776E+03 -0.45156594417E+03  0.86306665753E+03  0.00000000000E+00 0. -1.
         -1    1    6    6    0  503  0.44264991240E+02  0.31282303189E+03 -0.16743956802E+03  0.35756628430E+03  0.00000000000E+00 0.  1.
<mgrwt>
<rscale>  0 0.30573800E+04</rscale>
<asrwt>0</asrwt>
<pdfrwt beam="1">  1        2 0.26098861E+00 0.30573800E+04</pdfrwt>
<pdfrwt beam="2">  1       -1 0.21192909E+00 0.30573800E+04</pdfrwt>
<totfact> 0.11917790E+00</totfact>
</mgrwt>
</event>
<event>
12    6  0.1647231E-007  0.1230171E+04  0.7818608E-02  0.9086850E-01
         -1   -1    0    0    0  501 -0.00000000000E+00  0.00000000000E+00  0.34950534123E+03  0.34950534123E+03  0.00000000000E+00 0.  1.
          2   -1    0    0  501    0  0.00000000000E+00 -0.00000000000E+00 -0.10824737488E+04  0.10824737488E+04  0.00000000000E+00 0. -1.
         24    2    1    2    0    0 -0.71810085867E+02  0.13903046226E+03  0.66918451794E+02  0.19068936773E+03  0.86012777567E+02 0.  0.
        254    2    1    2    0    0  0.71810085867E+02 -0.13903046226E+03 -0.79988685936E+03  0.12412897223E+04  0.93621313228E+03 0.  0.
         23    2    4    4    0    0  0.20361914088E+03  0.35939110201E+03 -0.40056101112E+03  0.58283669952E+03  0.92880438945E+02 0.  0.
         23    2    4    4    0    0 -0.13180905501E+03 -0.49842156427E+03 -0.39932584824E+03  0.65845302279E+03  0.91112937791E+02 0.  0.
          2    1    3    3  502    0 -0.61028495939E+01  0.85296316597E+02  0.50683217759E+01  0.85664428346E+02  0.00000000000E+00 0. -1.
         -1    1    3    3    0  502 -0.65707236273E+02  0.53734145666E+02  0.61850130018E+02  0.10502493938E+03  0.00000000000E+00 0.  1.
         11    1    5    5    0    0  0.50205627531E+02  0.17141685676E+03 -0.14129596979E+03  0.22774743664E+03  0.00000000000E+00 0.  1.
        -11    1    5    5    0    0  0.15341351335E+03  0.18797424525E+03 -0.25926504133E+03  0.35508926288E+03  0.00000000000E+00 0. -1.
          4    1    6    6  503    0 -0.11949856551E+03 -0.28796834057E+03 -0.21860790662E+03  0.38078220700E+03  0.00000000000E+00 0. -1.
         -4    1    6    6    0  503 -0.12310489499E+02 -0.21045322371E+03 -0.18071794161E+03  0.27767081579E+03  0.00000000000E+00 0.  1.
<mgrwt>
<rscale>  0 0.12301713E+04</rscale>
<asrwt>0</asrwt>
<pdfrwt beam="1">  1        2 0.16653442E+00 0.12301713E+04</pdfrwt>
<pdfrwt beam="2">  1       -1 0.53770053E-01 0.12301713E+04</pdfrwt>
<totfact> 0.87562079E+01</totfact>
</mgrwt>
</event>
<event>
12    6  0.1647231E-007  0.1496682E+04  0.7818608E-02  0.8886662E-01
         -1   -1    0    0    0  501 -0.00000000000E+00  0.00000000000E+00  0.11900878668E+04  0.11900878668E+04  0.00000000000E+00 0.  1.
          2   -1    0    0  501    0  0.00000000000E+00 -0.00000000000E+00 -0.47056546442E+03  0.47056546442E+03  0.00000000000E+00 0. -1.
         24    2    1    2    0    0 -0.42582078602E+03 -0.13957477733E+03  0.70858810520E+02  0.46058810883E+03  0.79473106761E+02 0.  0.
        254    2    1    2    0    0  0.42582078602E+03  0.13957477733E+03  0.64866359188E+03  0.12000652224E+04  0.90475832262E+03 0.  0.
         23    2    4    4    0    0  0.68118422951E+03  0.22571764299E+03  0.44381772433E+03  0.84842782623E+03  0.88854909838E+02 0.  0.
         23    2    4    4    0    0 -0.25536344349E+03 -0.86142865662E+02  0.20484586755E+03  0.35163739619E+03  0.95162741482E+02 0.  0.
          4    1    3    3  502    0 -0.96641841045E+02 -0.13094716754E+02 -0.12234091116E+02  0.98289318000E+02  0.00000000000E+00 0. -1.
         -3    1    3    3    0  502 -0.32917894497E+03 -0.12648006057E+03  0.83092901636E+02  0.36229879083E+03  0.00000000000E+00 0.  1.
         11    1    5    5    0    0  0.52732154159E+03  0.14577507792E+03  0.36693235723E+03  0.65875468602E+03  0.00000000000E+00 0.  1.
        -11    1    5    5    0    0  0.15386268792E+03  0.79942565068E+02  0.76885367094E+02  0.18967314021E+03  0.00000000000E+00 0. -1.
          3    1    6    6  503    0 -0.47356955828E+02 -0.33370174573E+02  0.93193216304E+02  0.10973251743E+03  0.00000000000E+00 0. -1.
         -3    1    6    6    0  503 -0.20800648767E+03 -0.52772691089E+02  0.11165265125E+03  0.24190487876E+03  0.00000000000E+00 0.  1.
<mgrwt>
<rscale>  0 0.14966820E+04</rscale>
<asrwt>0</asrwt>
<pdfrwt beam="1">  1        2 0.72394687E-01 0.14966820E+04</pdfrwt>
<pdfrwt beam="2">  1       -1 0.18309044E+00 0.14966820E+04</pdfrwt>
<totfact> 0.14436890E+01</totfact>
</mgrwt>
</event>
<event>
12    6  0.1647231E-007  0.1558815E+04  0.7818608E-02  0.8846257E-01
          2   -1    0    0  501    0  0.00000000000E+00  0.00000000000E+00  0.61923458636E+03  0.61923458636E+03  0.00000000000E+00 0. -1.
         -1   -1    0    0    0  501 -0.00000000000E+00 -0.00000000000E+00 -0.98101142167E+03  0.98101142167E+03  0.00000000000E+00 0.  1.
         24    2    1    2    0    0 -0.46574428199E+03 -0.15475819390E+02  0.10345963241E+03  0.48399813282E+03  0.79956612212E+02 0.  0.
        254    2    1    2    0    0  0.46574428199E+03  0.15475819390E+02 -0.46523646772E+03  0.11162478752E+04  0.90133629176E+03 0.  0.
         23    2    4    4    0    0  0.39676749986E+03  0.42541962807E+03 -0.28827098375E+03  0.65546795258E+03  0.90176315630E+02 0.  0.
         23    2    4    4    0    0  0.68976782137E+02 -0.40994380868E+03 -0.17696548397E+03  0.46077992264E+03  0.90496584704E+02 0.  0.
          4    1    3    3  502    0 -0.14718839637E+03  0.30195671076E+02  0.45635499055E+02  0.15703121139E+03  0.00000000000E+00 0. -1.
         -3    1    3    3    0  502 -0.31855588562E+03 -0.45671490466E+02  0.57824133351E+02  0.32696692142E+03  0.00000000000E+00 0.  1.
         11    1    5    5    0    0  0.15425220743E+02 -0.23506520836E+01 -0.74085565012E+01  0.17272802599E+02  0.00000000000E+00 0. -1.
        -11    1    5    5    0    0  0.38134227911E+03  0.42777028015E+03 -0.28086242725E+03  0.63819514998E+03  0.00000000000E+00 0.  1.
          3    1    6    6  503    0  0.78102481102E+01 -0.95230503917E+02 -0.20637014702E+01  0.95572525945E+02  0.00000000000E+00 0. -1.
         -3    1    6    6    0  503  0.61166534027E+02 -0.31471330476E+03 -0.17490178250E+03  0.36520739669E+03  0.00000000000E+00 0.  1.
<mgrwt>
<rscale>  0 0.15588152E+04</rscale>
<asrwt>0</asrwt>
<pdfrwt beam="1">  1        2 0.95266859E-01 0.15588152E+04</pdfrwt>
<pdfrwt beam="2">  1       -1 0.15092484E+00 0.15588152E+04</pdfrwt>
<totfact> 0.18000466E+01</totfact>
</mgrwt>
</event>
<event>
12    6  0.1647231E-007  0.1474322E+04  0.7818608E-02  0.8901711E-01
          2   -1    0    0  501    0  0.00000000000E+00  0.00000000000E+00  0.16013650894E+04  0.16013650894E+04  0.00000000000E+00 0. -1.
         -1   -1    0    0    0  501 -0.00000000000E+00 -0.00000000000E+00 -0.33933923312E+03  0.33933923312E+03  0.00000000000E+00 0.  1.
         24    2    1    2    0    0  0.25583873396E+03 -0.25708736388E+03  0.75578528955E+03  0.84191478628E+03  0.77857131880E+02 0.  0.
        254    2    1    2    0    0 -0.25583873396E+03  0.25708736388E+03  0.50624056670E+03  0.10987895362E+04  0.90526877945E+03 0.  0.
         23    2    4    4    0    0 -0.40500593500E+03  0.50080729475E+03  0.45315661013E+03  0.79274520074E+03  0.90864108034E+02 0.  0.
         23    2    4    4    0    0  0.14916720104E+03 -0.24371993087E+03  0.53083956565E+02  0.30604433547E+03  0.95890407547E+02 0.  0.
          2    1    3    3  502    0  0.11027775016E+03 -0.13837235590E+03  0.44348646189E+03  0.47748123831E+03  0.00000000000E+00 0. -1.
         -1    1    3    3    0  502  0.14556098380E+03 -0.11871500798E+03  0.31229882767E+03  0.36443354797E+03  0.00000000000E+00 0.  1.
         11    1    5    5    0    0 -0.62790424437E+02  0.75247446828E+02  0.11211504597E+03  0.14891138032E+03  0.00000000000E+00 0.  1.
        -11    1    5    5    0    0 -0.34221551056E+03  0.42555984792E+03  0.34104156416E+03  0.64383382042E+03  0.00000000000E+00 0. -1.
          1    1    6    6  503    0  0.92636708895E+02 -0.17861424867E+03  0.78768976726E+02  0.21607674876E+03  0.00000000000E+00 0. -1.
         -1    1    6    6    0  503  0.56530492144E+02 -0.65105682202E+02 -0.25685020160E+02  0.89967586706E+02  0.00000000000E+00 0.  1.
<mgrwt>
<rscale>  0 0.14743215E+04</rscale>
<asrwt>0</asrwt>
<pdfrwt beam="1">  1        2 0.24636385E+00 0.14743215E+04</pdfrwt>
<pdfrwt beam="2">  1       -1 0.52206037E-01 0.14743215E+04</pdfrwt>
<totfact> 0.45369295E+01</totfact>
</mgrwt>
</event>
<event>
12    6  0.1647231E-007  0.3904016E+04  0.7818608E-02  0.8024194E-01
          2   -1    0    0  501    0  0.00000000000E+00  0.00000000000E+00  0.34410766075E+04  0.34410766075E+04  0.00000000000E+00 0. -1.
         -1   -1    0    0    0  501 -0.00000000000E+00 -0.00000000000E+00 -0.11073091412E+04  0.11073091412E+04  0.00000000000E+00 0.  1.
         24    2    1    2    0    0 -0.79766610232E+02 -0.18428717220E+04  0.13271080282E+04  0.22738621840E+04  0.81820642035E+02 0.  0.
        254    2    1    2    0    0  0.79766610232E+02  0.18428717220E+04  0.10066594382E+04  0.22745235648E+04  0.87037654292E+03 0.  0.
         23    2    4    4    0    0  0.52833943584E+02  0.79035448764E+03 -0.25301835840E+02  0.79781326701E+03  0.91728863433E+02 0.  0.
         23    2    4    4    0    0  0.26932666649E+02  0.10525172343E+04  0.10319612740E+04  0.14767102978E+04  0.84919581631E+02 0.  0.
          2    1    3    3  502    0 -0.57373926155E+02 -0.17037555811E+04  0.12077115175E+04  0.20891725532E+04  0.00000000000E+00 0. -1.
         -1    1    3    3    0  502 -0.22392684077E+02 -0.13911614089E+03  0.11939651069E+03  0.18468963079E+03  0.00000000000E+00 0.  1.
         11    1    5    5    0    0  0.20716418716E+02  0.70834282980E+02  0.19023599372E+02  0.76213929060E+02  0.00000000000E+00 0. -1.
        -11    1    5    5    0    0  0.32117524868E+02  0.71952020466E+03 -0.44325435211E+02  0.72159933795E+03  0.00000000000E+00 0.  1.
          1    1    6    6  503    0 -0.10904065152E+02  0.72244501574E+03  0.66956866025E+03  0.98507253042E+03  0.00000000000E+00 0. -1.
         -1    1    6    6    0  503  0.37836731801E+02  0.33007221858E+03  0.36239261378E+03  0.49163776734E+03  0.00000000000E+00 0.  1.
<mgrwt>
<rscale>  0 0.39040162E+04</rscale>
<asrwt>0</asrwt>
<pdfrwt beam="1">  1        2 0.52939640E+00 0.39040162E+04</pdfrwt>
<pdfrwt beam="2">  1       -1 0.17035525E+00 0.39040162E+04</pdfrwt>
<totfact> 0.19684910E-01</totfact>
</mgrwt>
</event>
<event>
12    6  0.1647231E-007  0.1467981E+04  0.7818608E-02  0.8906029E-01
          2   -1    0    0  501    0  0.00000000000E+00  0.00000000000E+00  0.19268001773E+04  0.19268001773E+04  0.00000000000E+00 0. -1.
         -1   -1    0    0    0  501 -0.00000000000E+00 -0.00000000000E+00 -0.27960457208E+03  0.27960457208E+03  0.00000000000E+00 0.  1.
         24    2    1    2    0    0  0.28273982177E+03  0.14942909914E+03  0.10251211001E+04  0.10768035100E+04  0.79760058060E+02 0.  0.
        254    2    1    2    0    0 -0.28273982177E+03 -0.14942909914E+03  0.62207450518E+03  0.11296012394E+04  0.88699008315E+03 0.  0.
         23    2    4    4    0    0 -0.46502056123E+03  0.38120906769E+02  0.28077815606E+02  0.47416548033E+03  0.79669398794E+02 0.  0.
         23    2    4    4    0    0  0.18228073946E+03 -0.18755000590E+03  0.59399668957E+03  0.65543575909E+03  0.91447768561E+02 0.  0.
          2    1    3    3  502    0  0.23789873306E+03  0.15200646812E+03  0.92375375084E+03  0.96593103571E+03  0.00000000000E+00 0. -1.
         -1    1    3    3    0  502  0.44841088705E+02 -0.25773689828E+01  0.10136734921E+03  0.11087247428E+03  0.00000000000E+00 0.  1.
         11    1    5    5    0    0 -0.32958455133E+03  0.82192342555E+01 -0.11642036691E+02  0.32989251174E+03  0.00000000000E+00 0. -1.
        -11    1    5    5    0    0 -0.13543600990E+03  0.29901672513E+02  0.39719852298E+02  0.14427296858E+03  0.00000000000E+00 0.  1.
          4    1    6    6  503    0  0.11913733429E+03 -0.92607107093E+02  0.23968707533E+03  0.28323078008E+03  0.00000000000E+00 0.  1.
         -4    1    6    6    0  503  0.63143405170E+02 -0.94942898811E+02  0.35430961424E+03  0.37220497901E+03  0.00000000000E+00 0. -1.
<mgrwt>
<rscale>  0 0.14679811E+04</rscale>
<asrwt>0</asrwt>
<pdfrwt beam="1">  1        2 0.29643079E+00 0.14679811E+04</pdfrwt>
<pdfrwt beam="2">  1       -1 0.43016089E-01 0.14679811E+04</pdfrwt>
<totfact> 0.43131002E+01</totfact>
</mgrwt>
</event>
<event>
12    6  0.1647231E-007  0.1404922E+04  0.7818608E-02  0.8950264E-01
         -1   -1    0    0    0  501 -0.00000000000E+00  0.00000000000E+00  0.41342778597E+03  0.41342778597E+03  0.00000000000E+00 0.  1.
          2   -1    0    0  501    0  0.00000000000E+00 -0.00000000000E+00 -0.11935606107E+04  0.11935606107E+04  0.00000000000E+00 0. -1.
         24    2    1    2    0    0 -0.62411019289E+02  0.30570140874E+03 -0.55086799955E+03  0.63808150486E+03  0.79649025639E+02 0.  0.
        254    2    1    2    0    0  0.62411019289E+02 -0.30570140874E+03 -0.22926482521E+03  0.96890689183E+03  0.88818338102E+03 0.  0.
         23    2    4    4    0    0  0.58486716166E+02 -0.42377236024E+03 -0.49717119540E+03  0.66228870238E+03  0.91888075847E+02 0.  0.
         23    2    4    4    0    0  0.39243031229E+01  0.11807095150E+03  0.26790637019E+03  0.30661818945E+03  0.91020553556E+02 0.  0.
          4    1    3    3  502    0 -0.39179430997E+02  0.14495310644E+03 -0.34188031274E+03  0.37340136465E+03  0.00000000000E+00 0. -1.
         -3    1    3    3    0  502 -0.23231588292E+02  0.16074830230E+03 -0.20898768681E+03  0.26468014021E+03  0.00000000000E+00 0.  1.
         11    1    5    5    0    0  0.48569063420E+01 -0.23939754620E+03 -0.22045355221E+03  0.32547587214E+03  0.00000000000E+00 0.  1.
        -11    1    5    5    0    0  0.53629809824E+02 -0.18437481405E+03 -0.27671764320E+03  0.33681283024E+03  0.00000000000E+00 0. -1.
          2    1    6    6  503    0 -0.27447761584E+00  0.13003539768E+03  0.26228077925E+03  0.29274645540E+03  0.00000000000E+00 0. -1.
         -2    1    6    6    0  503  0.41987807387E+01 -0.11964446180E+02  0.56255909469E+01  0.13871734051E+02  0.00000000000E+00 0.  1.
<mgrwt>
<rscale>  0 0.14049215E+04</rscale>
<asrwt>0</asrwt>
<pdfrwt beam="1">  1        2 0.18362471E+00 0.14049215E+04</pdfrwt>
<pdfrwt beam="2">  1       -1 0.63604275E-01 0.14049215E+04</pdfrwt>
<totfact> 0.53149739E+01</totfact>
</mgrwt>
</event>
<event>
12    6  0.1647231E-007  0.1989617E+04  0.7818608E-02  0.8611491E-01
          2   -1    0    0  501    0  0.00000000000E+00  0.00000000000E+00  0.22658627442E+04  0.22658627442E+04  0.00000000000E+00 0. -1.
         -1   -1    0    0    0  501 -0.00000000000E+00 -0.00000000000E+00 -0.43676249832E+03  0.43676249832E+03  0.00000000000E+00 0.  1.
         24    2    1    2    0    0 -0.56660516142E+03  0.55257956295E+03  0.70721870723E+03  0.10641711988E+04  0.76918516740E+02 0.  0.
        254    2    1    2    0    0  0.56660516142E+03 -0.55257956295E+03  0.11218815387E+04  0.16384540437E+04  0.89416323131E+03 0.  0.
         23    2    4    4    0    0 -0.46680893456E+02 -0.43125215820E+03  0.12915798246E+03  0.46171403148E+03  0.91326516775E+02 0.  0.
         23    2    4    4    0    0  0.61328605487E+03 -0.12132740476E+03  0.99272355619E+03  0.11767400122E+04  0.91525259410E+02 0.  0.
          2    1    3    3  502    0 -0.56584662843E+03  0.53897763083E+03  0.69712010994E+03  0.10472133217E+04  0.00000000000E+00 0. -1.
         -1    1    3    3    0  502 -0.75853298576E+00  0.13601932119E+02  0.10098597285E+02  0.16957877131E+02  0.00000000000E+00 0.  1.
         11    1    5    5    0    0  0.11326940859E+02 -0.24162469619E+03  0.43808341080E+02  0.24582506818E+03  0.00000000000E+00 0. -1.
        -11    1    5    5    0    0 -0.58007834315E+02 -0.18962746201E+03  0.85349641384E+02  0.21588896330E+03  0.00000000000E+00 0.  1.
          2    1    6    6  503    0  0.86809748923E+02 -0.13128261765E+02  0.20616773073E+03  0.22408350444E+03  0.00000000000E+00 0. -1.
         -2    1    6    6    0  503  0.52647630595E+03 -0.10819914299E+03  0.78655582546E+03  0.95265650779E+03  0.00000000000E+00 0.  1.
<mgrwt>
<rscale>  0 0.19896169E+04</rscale>
<asrwt>0</asrwt>
<pdfrwt beam="1">  1        2 0.34859426E+00 0.19896169E+04</pdfrwt>
<pdfrwt beam="2">  1       -1 0.67194232E-01 0.19896169E+04</pdfrwt>
<totfact> 0.11258422E+01</totfact>
</mgrwt>
</event>
<event>
12    6  0.1647231E-007  0.1348682E+04  0.7818608E-02  0.8991826E-01
         -1   -1    0    0    0  501 -0.00000000000E+00  0.00000000000E+00  0.69146146286E+03  0.69146146286E+03  0.00000000000E+00 0.  1.
          2   -1    0    0  501    0  0.00000000000E+00 -0.00000000000E+00 -0.65764490994E+03  0.65764490994E+03  0.00000000000E+00 0. -1.
         24    2    1    2    0    0  0.52830075356E+02  0.30765549214E+03 -0.18574278916E+03  0.37182154542E+03  0.79422661802E+02 0.  0.
        254    2    1    2    0    0 -0.52830075356E+02 -0.30765549214E+03  0.21955934208E+03  0.97728482738E+03  0.89968684020E+03 0.  0.
         23    2    4    4    0    0  0.23440401398E+03 -0.49220070673E+03  0.27809330764E+03  0.61868885738E+03  0.90737186496E+02 0.  0.
         23    2    4    4    0    0 -0.28723408934E+03  0.18454521459E+03 -0.58533965560E+02  0.35859597000E+03  0.92760370155E+02 0.  0.
          4    1    3    3  502    0  0.66127918514E+02  0.17200057649E+03 -0.12449985181E+03  0.22239000207E+03  0.00000000000E+00 0. -1.
         -3    1    3    3    0  502 -0.13297843158E+02  0.13565491565E+03 -0.61242937345E+02  0.14943154335E+03  0.00000000000E+00 0.  1.
         11    1    5    5    0    0  0.20114280064E+03 -0.45258793364E+03  0.27586063721E+03  0.56691565077E+03  0.00000000000E+00 0.  1.
        -11    1    5    5    0    0  0.33261213347E+02 -0.39612773096E+02  0.22326704241E+01  0.51773206612E+02  0.00000000000E+00 0. -1.
          4    1    6    6  503    0  0.54853015517E+01  0.77261117165E+01 -0.89630554009E+01  0.13042917522E+02  0.00000000000E+00 0.  1.
         -4    1    6    6    0  503 -0.29271939089E+03  0.17681910287E+03 -0.49570910159E+02  0.34555305248E+03  0.00000000000E+00 0. -1.
<mgrwt>
<rscale>  0 0.13486825E+04</rscale>
<asrwt>0</asrwt>
<pdfrwt beam="1">  1        2 0.10117614E+00 0.13486825E+04</pdfrwt>
<pdfrwt beam="2">  1       -1 0.10637869E+00 0.13486825E+04</pdfrwt>
<totfact> 0.40859451E+01</totfact>
</mgrwt>
</event>
<event>
12    6  0.1647231E-007  0.1996709E+04  0.7818608E-02  0.8608161E-01
          2   -1    0    0  501    0  0.00000000000E+00  0.00000000000E+00  0.21283813585E+04  0.21283813585E+04  0.00000000000E+00 0. -1.
         -1   -1    0    0    0  501 -0.00000000000E+00 -0.00000000000E+00 -0.46829569482E+03  0.46829569482E+03  0.00000000000E+00 0.  1.
         24    2    1    2    0    0  0.42705201051E+03 -0.50543762504E+03  0.11718087022E+04  0.13481837035E+04  0.81382131770E+02 0.  0.
        254    2    1    2    0    0 -0.42705201051E+03  0.50543762504E+03  0.48827696146E+03  0.12484933498E+04  0.93940440754E+03 0.  0.
         23    2    4    4    0    0 -0.51123149895E+03 -0.99359624071E+02  0.26898498259E+03  0.59330306666E+03  0.91791217638E+02 0.  0.
         23    2    4    4    0    0  0.84179488442E+02  0.60479724911E+03  0.21929197888E+03  0.65519028314E+03  0.91210943994E+02 0.  0.
          4    1    3    3  502    0  0.27704474745E+03 -0.33593742043E+03  0.84574019508E+03  0.95125402502E+03  0.00000000000E+00 0. -1.
         -3    1    3    3    0  502  0.15000726306E+03 -0.16950020461E+03  0.32606850712E+03  0.39692967849E+03  0.00000000000E+00 0.  1.
         11    1    5    5    0    0 -0.15179688148E+02 -0.11063919343E+02  0.30602743082E+02  0.35907675052E+02  0.00000000000E+00 0.  1.
        -11    1    5    5    0    0 -0.49605181081E+03 -0.88295704727E+02  0.23838223950E+03  0.55739539161E+03  0.00000000000E+00 0. -1.
          3    1    6    6  503    0  0.73441961444E+02  0.60156218428E+03  0.21326020774E+03  0.64245676855E+03  0.00000000000E+00 0. -1.
         -3    1    6    6    0  503  0.10737526999E+02  0.32350648354E+01  0.60317711390E+01  0.12733514582E+02  0.00000000000E+00 0.  1.
<mgrwt>
<rscale>  0 0.19967091E+04</rscale>
<asrwt>0</asrwt>
<pdfrwt beam="1">  1        2 0.32744328E+00 0.19967091E+04</pdfrwt>
<pdfrwt beam="2">  1       -1 0.72045493E-01 0.19967091E+04</pdfrwt>
<totfact> 0.11651657E+01</totfact>
</mgrwt>
</event>
<event>
12    6  0.1647231E-007  0.1811611E+04  0.7818608E-02  0.8700149E-01
         -1   -1    0    0    0  501 -0.00000000000E+00  0.00000000000E+00  0.12346287497E+04  0.12346287497E+04  0.00000000000E+00 0.  1.
          2   -1    0    0  501    0  0.00000000000E+00 -0.00000000000E+00 -0.66455876855E+03  0.66455876855E+03  0.00000000000E+00 0. -1.
         24    2    1    2    0    0  0.26168753165E+03  0.61955739049E+03  0.30197317703E+03  0.74161341001E+03  0.80442065726E+02 0.  0.
        254    2    1    2    0    0 -0.26168753165E+03 -0.61955739049E+03  0.26809680413E+03  0.11575741082E+04  0.90319997528E+03 0.  0.
         23    2    4    4    0    0 -0.16097361333E+03 -0.19196979541E+03  0.56023920626E+03  0.62102146615E+03  0.95051494724E+02 0.  0.
         23    2    4    4    0    0 -0.10071391832E+03 -0.42758759507E+03 -0.29214240214E+03  0.53655264209E+03  0.97811603599E+02 0.  0.
          4    1    3    3  502    0  0.94907270530E+02  0.20501012692E+03  0.61300968460E+02  0.23408193197E+03  0.00000000000E+00 0. -1.
         -3    1    3    3    0  502  0.16678026112E+03  0.41454726356E+03  0.24067220857E+03  0.50753147804E+03  0.00000000000E+00 0.  1.
         11    1    5    5    0    0  0.20779254755E+00 -0.25693550972E+02  0.17912195165E+02  0.31321693359E+02  0.00000000000E+00 0. -1.
        -11    1    5    5    0    0 -0.16118140587E+03 -0.16627624444E+03  0.54232701110E+03  0.58969977279E+03  0.00000000000E+00 0.  1.
          1    1    6    6  503    0 -0.84888876593E+02 -0.18170007390E+03 -0.10003295355E+03  0.22411521595E+03  0.00000000000E+00 0. -1.
         -1    1    6    6    0  503 -0.15825041732E+02 -0.24588752117E+03 -0.19210944858E+03  0.31243742613E+03  0.00000000000E+00 0.  1.
<mgrwt>
<rscale>  0 0.18116107E+04</rscale>
<asrwt>0</asrwt>
<pdfrwt beam="1">  1        2 0.10223981E+00 0.18116107E+04</pdfrwt>
<pdfrwt beam="2">  1       -1 0.18994288E+00 0.18116107E+04</pdfrwt>
<totfact> 0.83313831E+00</totfact>
</mgrwt>
</event>
<event>
12    6  0.1647231E-007  0.2982788E+04  0.7818608E-02  0.8248663E-01
         -1   -1    0    0    0  501 -0.00000000000E+00  0.00000000000E+00  0.11060399604E+04  0.11060399604E+04  0.00000000000E+00 0.  1.
          2   -1    0    0  501    0  0.00000000000E+00 -0.00000000000E+00 -0.20110092618E+04  0.20110092618E+04  0.00000000000E+00 0. -1.
         24    2    1    2    0    0  0.12716915799E+04 -0.25645093931E+03 -0.81261652549E+03  0.15329806628E+04  0.81960578407E+02 0.  0.
        254    2    1    2    0    0 -0.12716915799E+04  0.25645093931E+03 -0.92352775932E+02  0.15840685594E+04  0.90431056999E+03 0.  0.
         23    2    4    4    0    0 -0.92893871700E+03  0.48351318377E+03 -0.32819586267E+03  0.11011420609E+04  0.89939841842E+02 0.  0.
         23    2    4    4    0    0 -0.34275286289E+03 -0.22706224446E+03  0.23584308674E+03  0.48292649851E+03  0.92516233795E+02 0.  0.
          4    1    3    3  502    0  0.10726155781E+04 -0.20945242070E+03 -0.71783006041E+03  0.13075375676E+04  0.00000000000E+00 0. -1.
         -3    1    3    3    0  502  0.19907600175E+03 -0.46998518611E+02 -0.94786465080E+02  0.22544309523E+03  0.00000000000E+00 0.  1.
         11    1    5    5    0    0 -0.48546939174E+03  0.23823660562E+03 -0.21451842135E+03  0.58176916700E+03  0.00000000000E+00 0. -1.
        -11    1    5    5    0    0 -0.44346932525E+03  0.24527657815E+03 -0.11367744133E+03  0.51937289388E+03  0.00000000000E+00 0.  1.
          4    1    6    6  503    0 -0.25126596497E+02 -0.12351963470E+02 -0.73044723699E+01  0.28935655681E+02  0.00000000000E+00 0. -1.
         -4    1    6    6    0  503 -0.31762626639E+03 -0.21471028099E+03  0.24314755911E+03  0.45399084283E+03  0.00000000000E+00 0.  1.
<mgrwt>
<rscale>  0 0.29827884E+04</rscale>
<asrwt>0</asrwt>
<pdfrwt beam="1">  1        2 0.30938604E+00 0.29827884E+04</pdfrwt>
<pdfrwt beam="2">  1       -1 0.17016000E+00 0.29827884E+04</pdfrwt>
<totfact> 0.15763332E+00</totfact>
</mgrwt>
</event>
<event>
12    6  0.1647231E-007  0.3901688E+04  0.7818608E-02  0.8024678E-01
         -1   -1    0    0    0  501 -0.00000000000E+00  0.00000000000E+00  0.19506536328E+04  0.19506536328E+04  0.00000000000E+00 0.  1.
          2   -1    0    0  501    0  0.00000000000E+00 -0.00000000000E+00 -0.19510339865E+04  0.19510339865E+04  0.00000000000E+00 0. -1.
         24    2    1    2    0    0 -0.18114527941E+04  0.27029866242E+02  0.34885046288E+03  0.18466475872E+04  0.79491050386E+02 0.  0.
        254    2    1    2    0    0  0.18114527941E+04 -0.27029866242E+02 -0.34923081664E+03  0.20550400321E+04  0.90506106498E+03 0.  0.
         23    2    4    4    0    0 -0.52854378722E+02 -0.37585548182E+02 -0.13746310032E+03  0.17650792912E+03  0.89736761189E+02 0.  0.
         23    2    4    4    0    0  0.18643071728E+04  0.10555681940E+02 -0.21176771632E+03  0.18785321030E+04  0.91019993657E+02 0.  0.
          4    1    3    3  502    0 -0.15808184433E+04  0.11054922966E+02  0.32797026993E+03  0.16145196375E+04  0.00000000000E+00 0. -1.
         -3    1    3    3    0  502 -0.23063435078E+03  0.15974943275E+02  0.20880192950E+02  0.23212794970E+03  0.00000000000E+00 0.  1.
         11    1    5    5    0    0  0.22006380683E+02 -0.17372343805E+02 -0.63203957147E+02  0.69143469099E+02  0.00000000000E+00 0. -1.
        -11    1    5    5    0    0 -0.74860759404E+02 -0.20213204377E+02 -0.74259143174E+02  0.10736446002E+03  0.00000000000E+00 0.  1.
          1    1    6    6  503    0  0.12969464163E+03 -0.19640703660E+01  0.82781010421E+01  0.12997339957E+03  0.00000000000E+00 0. -1.
         -1    1    6    6    0  503  0.17346125312E+04  0.12519752306E+02 -0.22004581736E+03  0.17485587034E+04  0.00000000000E+00 0.  1.
<mgrwt>
<rscale>  0 0.39016876E+04</rscale>
<asrwt>0</asrwt>
<pdfrwt beam="1">  1        2 0.30015907E+00 0.39016876E+04</pdfrwt>
<pdfrwt beam="2">  1       -1 0.30010056E+00 0.39016876E+04</pdfrwt>
<totfact> 0.21221459E-01</totfact>
</mgrwt>
</event>
<event>
12    6  0.1647231E-007  0.2759324E+04  0.7818608E-02  0.8316009E-01
         -1   -1    0    0    0  501 -0.00000000000E+00  0.00000000000E+00  0.10915162415E+04  0.10915162415E+04  0.00000000000E+00 0.  1.
          2   -1    0    0  501    0  0.00000000000E+00 -0.00000000000E+00 -0.17438742139E+04  0.17438742139E+04  0.00000000000E+00 0. -1.
         24    2    1    2    0    0 -0.55334014993E+02  0.84092426585E+03 -0.12113648798E+04  0.14778248527E+04  0.79661466374E+02 0.  0.
        254    2    1    2    0    0  0.55334014993E+02 -0.84092426585E+03  0.55900690740E+03  0.13575656027E+04  0.90569319809E+03 0.  0.
         23    2    4    4    0    0 -0.33068375339E+03 -0.49797762651E+02  0.10490394950E+03  0.36254672093E+03  0.92756262909E+02 0.  0.
         23    2    4    4    0    0  0.38601776839E+03 -0.79112650320E+03  0.45410295790E+03  0.99501888180E+03  0.94668987420E+02 0.  0.
          2    1    3    3  502    0 -0.15925079175E+02  0.69962286779E+03 -0.10004394303E+04  0.12209032800E+04  0.00000000000E+00 0. -1.
         -1    1    3    3    0  502 -0.39408935818E+02  0.14130139807E+03 -0.21092544945E+03  0.25692157275E+03  0.00000000000E+00 0.  1.
         11    1    5    5    0    0 -0.40040856008E+02 -0.37889731340E+02  0.67082627184E+01  0.55532897273E+02  0.00000000000E+00 0. -1.
        -11    1    5    5    0    0 -0.29064289739E+03 -0.11908031311E+02  0.98195686783E+02  0.30701382365E+03  0.00000000000E+00 0.  1.
          4    1    6    6  503    0  0.27381962258E+03 -0.47337377598E+03  0.30901539496E+03  0.62813249543E+03  0.00000000000E+00 0. -1.
         -4    1    6    6    0  503  0.11219814581E+03 -0.31775272723E+03  0.14508756294E+03  0.36688638637E+03  0.00000000000E+00 0.  1.
<mgrwt>
<rscale>  0 0.27593239E+04</rscale>
<asrwt>0</asrwt>
<pdfrwt beam="1">  1        2 0.26828834E+00 0.27593239E+04</pdfrwt>
<pdfrwt beam="2">  1       -1 0.16792557E+00 0.27593239E+04</pdfrwt>
<totfact> 0.23484126E+00</totfact>
</mgrwt>
</event>
<event>
12    6  0.1647231E-007  0.1907297E+04  0.7818608E-02  0.8651233E-01
         -1   -1    0    0    0  501 -0.00000000000E+00  0.00000000000E+00  0.85207262349E+03  0.85207262349E+03  0.00000000000E+00 0.  1.
          2   -1    0    0  501    0  0.00000000000E+00 -0.00000000000E+00 -0.10673335086E+04  0.10673335086E+04  0.00000000000E+00 0. -1.
         24    2    1    2    0    0  0.34225630350E+03  0.43500663980E+03  0.40823229366E+03  0.69226376087E+03  0.78774076134E+02 0.  0.
        254    2    1    2    0    0 -0.34225630350E+03 -0.43500663980E+03 -0.62349317876E+03  0.12271423712E+04  0.90042462279E+03 0.  0.
         23    2    4    4    0    0 -0.28129618498E+03  0.93643513901E+02 -0.61336457825E+03  0.68730241361E+03  0.90949714207E+02 0.  0.
         23    2    4    4    0    0 -0.60960118519E+02 -0.52865015370E+03 -0.10128600512E+02  0.53983995762E+03  0.90207927788E+02 0.  0.
          2    1    3    3  502    0  0.42298340160E+02  0.20469296306E+02  0.41994590301E+02  0.63021324059E+02  0.00000000000E+00 0. -1.
         -1    1    3    3    0  502  0.29995796334E+03  0.41453734349E+03  0.36623770336E+03  0.62924243681E+03  0.00000000000E+00 0.  1.
         11    1    5    5    0    0 -0.72517682120E+02 -0.15056858611E+02 -0.12827909482E+03  0.14812511394E+03  0.00000000000E+00 0.  1.
        -11    1    5    5    0    0 -0.20877850286E+03  0.10870037251E+03 -0.48508548343E+03  0.53917729967E+03  0.00000000000E+00 0. -1.
          3    1    6    6  503    0 -0.58886769067E+02 -0.48541355388E+03  0.16081755797E+02  0.48923674507E+03  0.00000000000E+00 0. -1.
         -3    1    6    6    0  503 -0.20733494525E+01 -0.43236599822E+02 -0.26210356308E+02  0.50603212545E+02  0.00000000000E+00 0.  1.
<mgrwt>
<rscale>  0 0.19072972E+04</rscale>
<asrwt>0</asrwt>
<pdfrwt beam="1">  1        2 0.16420516E+00 0.19072972E+04</pdfrwt>
<pdfrwt beam="2">  1       -1 0.13108810E+00 0.19072972E+04</pdfrwt>
<totfact> 0.12103400E+01</totfact>
</mgrwt>
</event>
<event>
12    6  0.1647231E-007  0.2515897E+04  0.7818608E-02  0.8397344E-01
         -1   -1    0    0    0  501 -0.00000000000E+00  0.00000000000E+00  0.14280017689E+04  0.14280017689E+04  0.00000000000E+00 0.  1.
          2   -1    0    0  501    0  0.00000000000E+00 -0.00000000000E+00 -0.11081462626E+04  0.11081462626E+04  0.00000000000E+00 0. -1.
         24    2    1    2    0    0  0.82328236633E+03 -0.29731276633E+02  0.86234921438E+03  0.11950629112E+04  0.76494382824E+02 0.  0.
        254    2    1    2    0    0 -0.82328236633E+03  0.29731276633E+02 -0.54249370807E+03  0.13410851204E+04  0.90858795571E+03 0.  0.
         23    2    4    4    0    0 -0.91274822827E+03  0.26569009262E+03 -0.38217353966E+03  0.10285345364E+04  0.90145020307E+02 0.  0.
         23    2    4    4    0    0  0.89465861939E+02 -0.23595881599E+03 -0.16032016841E+03  0.31255058394E+03  0.91129621008E+02 0.  0.
          2    1    3    3  502    0  0.10506621421E+03 -0.28691067611E+02  0.12331557443E+03  0.16452603936E+03  0.00000000000E+00 0. -1.
         -1    1    3    3    0  502  0.71821615212E+03 -0.10402090222E+01  0.73903363995E+03  0.10305368718E+04  0.00000000000E+00 0.  1.
         11    1    5    5    0    0 -0.85141401827E+03  0.26992417408E+03 -0.36313231854E+03  0.96417320592E+03  0.00000000000E+00 0.  1.
        -11    1    5    5    0    0 -0.61334210008E+02 -0.42340814622E+01 -0.19041221116E+02  0.64361330507E+02  0.00000000000E+00 0. -1.
          4    1    6    6  503    0 -0.15396209259E+01  0.77261318975E+01 -0.23675092147E+01  0.82260954635E+01  0.00000000000E+00 0. -1.
         -4    1    6    6    0  503  0.91005482865E+02 -0.24368494789E+03 -0.15795265920E+03  0.30432448847E+03  0.00000000000E+00 0.  1.
<mgrwt>
<rscale>  0 0.25158973E+04</rscale>
<asrwt>0</asrwt>
<pdfrwt beam="1">  1        2 0.17048404E+00 0.25158973E+04</pdfrwt>
<pdfrwt beam="2">  1       -1 0.21969258E+00 0.25158973E+04</pdfrwt>
<totfact> 0.24176191E+00</totfact>
</mgrwt>
</event>
<event>
12    6  0.1647231E-007  0.2268339E+04  0.7818608E-02  0.8490510E-01
         -1   -1    0    0    0  501 -0.00000000000E+00  0.00000000000E+00  0.39226377755E+03  0.39226377755E+03  0.00000000000E+00 0.  1.
          2   -1    0    0  501    0  0.00000000000E+00 -0.00000000000E+00 -0.32792748865E+04  0.32792748865E+04  0.00000000000E+00 0. -1.
         24    2    1    2    0    0 -0.25419253885E+03 -0.99923751111E+02  0.26379046074E+03  0.38820327351E+03  0.80732716693E+02 0.  0.
        254    2    1    2    0    0  0.25419253885E+03  0.99923751111E+02 -0.31508015696E+04  0.32833353905E+04  0.88212366050E+03 0.  0.
         23    2    4    4    0    0  0.26576926113E+03  0.46128717531E+03 -0.20953569974E+04  0.21639374735E+04  0.93194874074E+02 0.  0.
         23    2    4    4    0    0 -0.11576722284E+02 -0.36136342419E+03 -0.10554445723E+04  0.11193979170E+04  0.91492658678E+02 0.  0.
          2    1    3    3  502    0  0.14075918692E+01  0.61508580594E+01  0.67031598543E+00  0.63453678583E+01  0.00000000000E+00 0. -1.
         -1    1    3    3    0  502 -0.25560013072E+03 -0.10607460917E+03  0.26312014475E+03  0.38185790565E+03  0.00000000000E+00 0.  1.
         11    1    5    5    0    0  0.16538271006E+03  0.36781405114E+03 -0.15706485346E+04  0.16215965701E+04  0.00000000000E+00 0. -1.
        -11    1    5    5    0    0  0.10038655107E+03  0.93473124162E+02 -0.52470846277E+03  0.54234090338E+03  0.00000000000E+00 0.  1.
          3    1    6    6  503    0  0.34710486211E+02 -0.24864653695E+03 -0.70310727043E+03  0.74658539493E+03  0.00000000000E+00 0. -1.
         -3    1    6    6    0  503 -0.46287208495E+02 -0.11271688724E+03 -0.35233730186E+03  0.37281252208E+03  0.00000000000E+00 0.  1.
<mgrwt>
<rscale>  0 0.22683393E+04</rscale>
<asrwt>0</asrwt>
<pdfrwt beam="1">  1        2 0.50450384E+00 0.22683393E+04</pdfrwt>
<pdfrwt beam="2">  1       -1 0.60348273E-01 0.22683393E+04</pdfrwt>
<totfact> 0.33171646E+00</totfact>
</mgrwt>
</event>
<event>
12    6  0.1647231E-007  0.1851699E+04  0.7818608E-02  0.8679280E-01
          2   -1    0    0  501    0  0.00000000000E+00  0.00000000000E+00  0.71462549782E+03  0.71462549782E+03  0.00000000000E+00 0. -1.
         -1   -1    0    0    0  501 -0.00000000000E+00 -0.00000000000E+00 -0.11995055185E+04  0.11995055185E+04  0.00000000000E+00 0.  1.
         24    2    1    2    0    0 -0.34121970621E+03 -0.22573813525E+03 -0.77812053819E+03  0.88258359104E+03  0.78061703884E+02 0.  0.
        254    2    1    2    0    0  0.34121970621E+03  0.22573813525E+03  0.29324051754E+03  0.10315474252E+04  0.90039518867E+03 0.  0.
         23    2    4    4    0    0 -0.79958665012E+02 -0.93091027301E+02  0.44793883647E+03  0.47413290079E+03  0.95359734292E+02 0.  0.
         23    2    4    4    0    0  0.42117837122E+03  0.31882916255E+03 -0.15469831893E+03  0.55741452445E+03  0.87955255171E+02 0.  0.
          4    1    3    3  502    0  0.26901781455E+01  0.23271501118E+01 -0.40713915781E+01  0.54063772972E+01  0.00000000000E+00 0. -1.
         -3    1    3    3    0  502 -0.34390988435E+03 -0.22806528536E+03 -0.77404914661E+03  0.87717721374E+03  0.00000000000E+00 0.  1.
         11    1    5    5    0    0 -0.44211861062E+00 -0.61603682381E+02  0.11588710053E+03  0.13124415881E+03  0.00000000000E+00 0. -1.
        -11    1    5    5    0    0 -0.79516546402E+02 -0.31487344920E+02  0.33205173593E+03  0.34288874198E+03  0.00000000000E+00 0.  1.
          1    1    6    6  503    0  0.19937263780E+03  0.20591360430E+03 -0.84212436698E+02  0.29873331859E+03  0.00000000000E+00 0. -1.
         -1    1    6    6    0  503  0.22180573342E+03  0.11291555825E+03 -0.70485882227E+02  0.25868120586E+03  0.00000000000E+00 0.  1.
<mgrwt>
<rscale>  0 0.18516989E+04</rscale>
<asrwt>0</asrwt>
<pdfrwt beam="1">  1        2 0.10994239E+00 0.18516989E+04</pdfrwt>
<pdfrwt beam="2">  1       -1 0.18453931E+00 0.18516989E+04</pdfrwt>
<totfact> 0.82722809E+00</totfact>
</mgrwt>
</event>
<event>
12    6  0.1647231E-007  0.1159504E+04  0.7818608E-02  0.9149060E-01
         -1   -1    0    0    0  501 -0.00000000000E+00  0.00000000000E+00  0.17607390341E+03  0.17607390341E+03  0.00000000000E+00 0.  1.
          2   -1    0    0  501    0  0.00000000000E+00 -0.00000000000E+00 -0.19089291405E+04  0.19089291405E+04  0.00000000000E+00 0. -1.
         24    2    1    2    0    0  0.23859852364E+02 -0.52243327512E+02 -0.71916664924E+03  0.72588401363E+03  0.80051696069E+02 0.  0.
        254    2    1    2    0    0 -0.23859852364E+02  0.52243327512E+02 -0.10136885878E+04  0.13591190303E+04  0.90351609144E+03 0.  0.
         23    2    4    4    0    0 -0.38620946916E+03  0.44440134330E+02 -0.87225222341E+03  0.95937697067E+03  0.91910559775E+02 0.  0.
         23    2    4    4    0    0  0.36234961680E+03  0.78031931816E+01 -0.14143636444E+03  0.39974205961E+03  0.91822298036E+02 0.  0.
          2    1    3    3  502    0 -0.25539648833E+02 -0.36529916366E+02 -0.40819064746E+03  0.41061699079E+03  0.00000000000E+00 0. -1.
         -1    1    3    3    0  502  0.49399501197E+02 -0.15713411146E+02 -0.31097600178E+03  0.31526702284E+03  0.00000000000E+00 0.  1.
         11    1    5    5    0    0 -0.11281282093E+03  0.24095590759E+02 -0.16938632184E+03  0.20493671239E+03  0.00000000000E+00 0. -1.
        -11    1    5    5    0    0 -0.27339664823E+03  0.20344543571E+02 -0.70286590157E+03  0.75444025828E+03  0.00000000000E+00 0.  1.
          1    1    6    6  503    0  0.15344421418E+03 -0.41833645865E+02 -0.55219002199E+02  0.16835771142E+03  0.00000000000E+00 0. -1.
         -1    1    6    6    0  503  0.20890540262E+03  0.49636839047E+02 -0.86217362244E+02  0.23138434819E+03  0.00000000000E+00 0.  1.
<mgrwt>
<rscale>  0 0.11595044E+04</rscale>
<asrwt>0</asrwt>
<pdfrwt beam="1">  1        2 0.29368142E+00 0.11595044E+04</pdfrwt>
<pdfrwt beam="2">  1       -1 0.27088292E-01 0.11595044E+04</pdfrwt>
<totfact> 0.10328342E+02</totfact>
</mgrwt>
</event>
<event>
12    6  0.1647231E-007  0.2076033E+04  0.7818608E-02  0.8571875E-01
          2   -1    0    0  501    0  0.00000000000E+00  0.00000000000E+00  0.18418534814E+04  0.18418534814E+04  0.00000000000E+00 0. -1.
         -1   -1    0    0    0  501 -0.00000000000E+00 -0.00000000000E+00 -0.58499654191E+03  0.58499654191E+03  0.00000000000E+00 0.  1.
         24    2    1    2    0    0  0.48437569564E+03  0.37213149526E+03 -0.16010306406E+03  0.63644627069E+03  0.79556269786E+02 0.  0.
        254    2    1    2    0    0 -0.48437569564E+03 -0.37213149526E+03  0.14169600035E+04  0.17904037526E+04  0.90811248281E+03 0.  0.
         23    2    4    4    0    0 -0.60408128160E+02 -0.53581332703E+03  0.11025327390E+04  0.12307181937E+04  0.91344230703E+02 0.  0.
         23    2    4    4    0    0 -0.42396756748E+03  0.16368183177E+03  0.31442726456E+03  0.55968555888E+03  0.88561728704E+02 0.  0.
          4    1    3    3  502    0  0.18263807813E+02  0.36162983357E+02 -0.19279037006E+02  0.44866572289E+02  0.00000000000E+00 0. -1.
         -3    1    3    3    0  502  0.46611188783E+03  0.33596851190E+03 -0.14082402705E+03  0.59157969840E+03  0.00000000000E+00 0.  1.
         11    1    5    5    0    0  0.19196666557E+02 -0.23294712274E+03  0.47184012205E+03  0.52656051388E+03  0.00000000000E+00 0. -1.
        -11    1    5    5    0    0 -0.79604794716E+02 -0.30286620429E+03  0.63069261693E+03  0.70415767985E+03  0.00000000000E+00 0.  1.
          3    1    6    6  503    0 -0.28158034269E+03  0.68841419453E+02  0.22285945225E+03  0.36564048719E+03  0.00000000000E+00 0. -1.
         -3    1    6    6    0  503 -0.14238722480E+03  0.94840412316E+02  0.91567812311E+02  0.19404507168E+03  0.00000000000E+00 0.  1.
<mgrwt>
<rscale>  0 0.20760327E+04</rscale>
<asrwt>0</asrwt>
<pdfrwt beam="1">  1        2 0.28336207E+00 0.20760327E+04</pdfrwt>
<pdfrwt beam="2">  1       -1 0.89999468E-01 0.20760327E+04</pdfrwt>
<totfact> 0.10387174E+01</totfact>
</mgrwt>
</event>
<event>
12    6  0.1647231E-007  0.1631522E+04  0.7818608E-02  0.8801414E-01
         -1   -1    0    0    0  501 -0.00000000000E+00  0.00000000000E+00  0.25009463092E+04  0.25009463092E+04  0.00000000000E+00 0.  1.
          2   -1    0    0  501    0  0.00000000000E+00 -0.00000000000E+00 -0.26608557808E+03  0.26608557808E+03  0.00000000000E+00 0. -1.
         24    2    1    2    0    0  0.17248384778E+03  0.40146887780E+03  0.13822833717E+04  0.14519397231E+04  0.80583511278E+02 0.  0.
        254    2    1    2    0    0 -0.17248384778E+03 -0.40146887780E+03  0.85257735946E+03  0.13150921642E+04  0.90091692675E+03 0.  0.
         23    2    4    4    0    0 -0.32811815006E+03  0.11594215884E+03  0.62629666701E+03  0.72236082436E+03  0.91943139295E+02 0.  0.
         23    2    4    4    0    0  0.15563430228E+03 -0.51741103664E+03  0.22628069245E+03  0.59273133985E+03  0.90505649435E+02 0.  0.
          4    1    3    3  502    0  0.15025521529E+03  0.25729675060E+03  0.95943947564E+03  0.10046404108E+04  0.00000000000E+00 0. -1.
         -3    1    3    3    0  502  0.22228632499E+02  0.14417212720E+03  0.42284389602E+03  0.44729931228E+03  0.00000000000E+00 0.  1.
         11    1    5    5    0    0 -0.33258924275E+03  0.11826047161E+03  0.62378031896E+03  0.71673079316E+03  0.00000000000E+00 0.  1.
        -11    1    5    5    0    0  0.44710926805E+01 -0.23183127687E+01  0.25163480489E+01  0.56300312037E+01  0.00000000000E+00 0. -1.
          3    1    6    6  503    0  0.20307163515E+02 -0.34184109433E+02  0.42806882731E+02  0.58423997098E+02  0.00000000000E+00 0. -1.
         -3    1    6    6    0  503  0.13532713877E+03 -0.48322692721E+03  0.18347380972E+03  0.53430734275E+03  0.00000000000E+00 0.  1.
<mgrwt>
<rscale>  0 0.16315217E+04</rscale>
<asrwt>0</asrwt>
<pdfrwt beam="1">  1        2 0.40936244E-01 0.16315217E+04</pdfrwt>
<pdfrwt beam="2">  1       -1 0.38476096E+00 0.16315217E+04</pdfrwt>
<totfact> 0.12549408E+00</totfact>
</mgrwt>
</event>
<event>
12    6  0.1647231E-007  0.2008758E+04  0.7818608E-02  0.8602537E-01
         -1   -1    0    0    0  501 -0.00000000000E+00  0.00000000000E+00  0.10368927502E+04  0.10368927502E+04  0.00000000000E+00 0.  1.
          2   -1    0    0  501    0  0.00000000000E+00 -0.00000000000E+00 -0.97288524333E+03  0.97288524333E+03  0.00000000000E+00 0. -1.
         24    2    1    2    0    0  0.53372300246E+03  0.49057521842E+03 -0.30641457964E+03  0.79130780146E+03  0.82181833448E+02 0.  0.
        254    2    1    2    0    0 -0.53372300246E+03 -0.49057521842E+03  0.37042208653E+03  0.12184701921E+04  0.90660509515E+03 0.  0.
         23    2    4    4    0    0 -0.75669698779E+03 -0.44758917658E+03  0.40333821669E+03  0.97155914323E+03  0.91208823148E+02 0.  0.
         23    2    4    4    0    0  0.22297398533E+03 -0.42986041848E+02 -0.32916130166E+02  0.24691104887E+03  0.91194278877E+02 0.  0.
          4    1    3    3  502    0  0.85971603513E+01  0.15889142898E+02  0.37730752718E+01  0.18455680024E+02  0.00000000000E+00 0. -1.
         -3    1    3    3    0  502  0.52512584211E+03  0.47468607553E+03 -0.31018765491E+03  0.77285212144E+03  0.00000000000E+00 0.  1.
         11    1    5    5    0    0 -0.17090393741E+02 -0.79349153581E+01  0.25826122429E+02  0.31969251472E+02  0.00000000000E+00 0.  1.
        -11    1    5    5    0    0 -0.73960659405E+03 -0.43965426122E+03  0.37751209426E+03  0.93958989175E+03  0.00000000000E+00 0. -1.
          3    1    6    6  503    0  0.17069144259E+03 -0.33917614673E+02  0.15972140008E+02  0.17476007100E+03  0.00000000000E+00 0. -1.
         -3    1    6    6    0  503  0.52282542736E+02 -0.90684271750E+01 -0.48888270174E+02  0.72150977866E+02  0.00000000000E+00 0.  1.
<mgrwt>
<rscale>  0 0.20087585E+04</rscale>
<asrwt>0</asrwt>
<pdfrwt beam="1">  1        2 0.14967465E+00 0.20087585E+04</pdfrwt>
<pdfrwt beam="2">  1       -1 0.15952196E+00 0.20087585E+04</pdfrwt>
<totfact> 0.81861381E+00</totfact>
</mgrwt>
</event>
<event>
12    6  0.1647231E-007  0.1473533E+04  0.7818608E-02  0.8902247E-01
          2   -1    0    0  501    0  0.00000000000E+00  0.00000000000E+00  0.21249463724E+04  0.21249463724E+04  0.00000000000E+00 0. -1.
         -1   -1    0    0    0  501 -0.00000000000E+00 -0.00000000000E+00 -0.25545330340E+03  0.25545330340E+03  0.00000000000E+00 0.  1.
         24    2    1    2    0    0  0.39558636599E+03  0.22939978779E+03  0.63273051587E+03  0.78476573840E+03  0.79978264911E+02 0.  0.
        254    2    1    2    0    0 -0.39558636599E+03 -0.22939978779E+03  0.12367625531E+04  0.15956339374E+04  0.89852836003E+03 0.  0.
         23    2    4    4    0    0 -0.11003667363E+03  0.33522805792E+03  0.36461444059E+03  0.51434189109E+03  0.84368064333E+02 0.  0.
         23    2    4    4    0    0 -0.28554969236E+03 -0.56462784570E+03  0.87214811253E+03  0.10812920463E+04  0.90592098310E+02 0.  0.
          2    1    3    3  502    0  0.77957125796E+02  0.83655612106E+02  0.17050490346E+03  0.20529855577E+03  0.00000000000E+00 0. -1.
         -1    1    3    3    0  502  0.31762924019E+03  0.14574417568E+03  0.46222561241E+03  0.57946718263E+03  0.00000000000E+00 0.  1.
         11    1    5    5    0    0 -0.10477993664E+03  0.33261171521E+03  0.36846334104E+03  0.50732102451E+03  0.00000000000E+00 0. -1.
        -11    1    5    5    0    0 -0.52567369886E+01  0.26163427044E+01 -0.38489004428E+01  0.70208665799E+01  0.00000000000E+00 0.  1.
          2    1    6    6  503    0 -0.24680320286E+03 -0.42467463329E+03  0.71342419442E+03  0.86616075083E+03  0.00000000000E+00 0. -1.
         -2    1    6    6    0  503 -0.38746489505E+02 -0.13995321242E+03  0.15872391811E+03  0.21513129548E+03  0.00000000000E+00 0.  1.
<mgrwt>
<rscale>  0 0.14735326E+04</rscale>
<asrwt>0</asrwt>
<pdfrwt beam="1">  1        2 0.32691481E+00 0.14735326E+04</pdfrwt>
<pdfrwt beam="2">  1       -1 0.39300510E-01 0.14735326E+04</pdfrwt>
<totfact> 0.39505017E+01</totfact>
</mgrwt>
</event>
<event>
12    6  0.1647231E-007  0.1237746E+04  0.7818608E-02  0.9080445E-01
          2   -1    0    0  501    0  0.00000000000E+00  0.00000000000E+00  0.12253734928E+04  0.12253734928E+04  0.00000000000E+00 0. -1.
         -1   -1    0    0    0  501 -0.00000000000E+00 -0.00000000000E+00 -0.31256073693E+03  0.31256073693E+03  0.00000000000E+00 0.  1.
         24    2    1    2    0    0  0.17097189195E+02 -0.36418105538E+02  0.57017619532E+03  0.57758779326E+03  0.82995017501E+02 0.  0.
        254    2    1    2    0    0 -0.17097189195E+02  0.36418105538E+02  0.34263656057E+03  0.96034643647E+03  0.89624041034E+03 0.  0.
         23    2    4    4    0    0  0.27419000694E+03 -0.31779977341E+03  0.15667622878E+03  0.45707752827E+03  0.90529389141E+02 0.  0.
         23    2    4    4    0    0 -0.29128719614E+03  0.35421787895E+03  0.18596033178E+03  0.50326890820E+03  0.91541316196E+02 0.  0.
          2    1    3    3  502    0  0.12175434369E+01 -0.23853998766E+02  0.54385374359E+03  0.54437798457E+03  0.00000000000E+00 0. -1.
         -1    1    3    3    0  502  0.15879645758E+02 -0.12564106771E+02  0.26322451728E+02  0.33209808692E+02  0.00000000000E+00 0.  1.
         11    1    5    5    0    0  0.61160453146E+02 -0.42839442328E+02  0.60754541368E+02  0.96264911286E+02  0.00000000000E+00 0. -1.
        -11    1    5    5    0    0  0.21302955380E+03 -0.27496033108E+03  0.95921687415E+02  0.36081261698E+03  0.00000000000E+00 0.  1.
          1    1    6    6  503    0 -0.77601084688E+02  0.45957583998E+02  0.56738631377E+02  0.10655186607E+03  0.00000000000E+00 0. -1.
         -1    1    6    6    0  503 -0.21368611145E+03  0.30826029495E+03  0.12922170041E+03  0.39671704214E+03  0.00000000000E+00 0.  1.
<mgrwt>
<rscale>  0 0.12377458E+04</rscale>
<asrwt>0</asrwt>
<pdfrwt beam="1">  1        2 0.18851900E+00 0.12377458E+04</pdfrwt>
<pdfrwt beam="2">  1       -1 0.48086268E-01 0.12377458E+04</pdfrwt>
<totfact> 0.88697176E+01</totfact>
</mgrwt>
</event>
<event>
12    6  0.1647231E-007  0.2154032E+04  0.7818608E-02  0.8537808E-01
          2   -1    0    0  501    0  0.00000000000E+00  0.00000000000E+00  0.39296886351E+04  0.39296886351E+04  0.00000000000E+00 0. -1.
         -3   -1    0    0    0  501 -0.00000000000E+00 -0.00000000000E+00 -0.29517948037E+03  0.29517948037E+03  0.00000000000E+00 0.  1.
         24    2    1    2    0    0 -0.29558622516E+03 -0.72961935064E+03  0.74306195345E+03  0.10854666631E+04  0.79882392579E+02 0.  0.
        254    2    1    2    0    0  0.29558622516E+03  0.72961935064E+03  0.28914472013E+04  0.31394014524E+04  0.93576650307E+03 0.  0.
         23    2    4    4    0    0  0.91099894108E+02  0.91588716493E+03  0.20497897355E+04  0.22488876886E+04  0.93324094329E+02 0.  0.
         23    2    4    4    0    0  0.20448633105E+03 -0.18626781429E+03  0.84165746580E+03  0.89051376382E+03  0.90095036504E+02 0.  0.
          2    1    3    3  502    0 -0.93008256570E+02 -0.32615368067E+03  0.34044111287E+03  0.48054855170E+03  0.00000000000E+00 0. -1.
         -1    1    3    3    0  502 -0.20257796859E+03 -0.40346566996E+03  0.40262084059E+03  0.60491811138E+03  0.00000000000E+00 0.  1.
         11    1    5    5    0    0  0.25576270942E+02  0.41108803363E+03  0.81120886539E+03  0.90978422734E+03  0.00000000000E+00 0. -1.
        -11    1    5    5    0    0  0.65523623166E+02  0.50479913130E+03  0.12385808701E+04  0.13391034613E+04  0.00000000000E+00 0.  1.
          2    1    6    6  503    0  0.10631746231E+03 -0.15251808814E+03  0.50064848208E+03  0.53405437234E+03  0.00000000000E+00 0.  1.
         -2    1    6    6    0  503  0.98168868739E+02 -0.33749726149E+02  0.34100898372E+03  0.35645939149E+03  0.00000000000E+00 0. -1.
<mgrwt>
<rscale>  0 0.21540320E+04</rscale>
<asrwt>0</asrwt>
<pdfrwt beam="1">  1        2 0.60456745E+00 0.21540320E+04</pdfrwt>
<pdfrwt beam="2">  1       -3 0.45412230E-01 0.21540320E+04</pdfrwt>
<totfact> 0.11252908E+00</totfact>
</mgrwt>
</event>
<event>
12    6  0.1647231E-007  0.1534000E+04  0.7818608E-02  0.8862153E-01
         -1   -1    0    0    0  501 -0.00000000000E+00  0.00000000000E+00  0.40945014333E+03  0.40945014333E+03  0.00000000000E+00 0.  1.
          2   -1    0    0  501    0  0.00000000000E+00 -0.00000000000E+00 -0.14367775330E+04  0.14367775330E+04  0.00000000000E+00 0. -1.
         24    2    1    2    0    0 -0.30591637258E+03  0.38786015932E+03 -0.33509733746E+03  0.60417506968E+03  0.93364656349E+02 0.  0.
        254    2    1    2    0    0  0.30591637258E+03 -0.38786015932E+03 -0.69223005220E+03  0.12420526066E+04  0.90525792032E+03 0.  0.
         23    2    4    4    0    0 -0.64876391694E+02  0.82832098323E+01  0.17899523120E+03  0.21166306940E+03  0.92110826684E+02 0.  0.
         23    2    4    4    0    0  0.37079276427E+03 -0.39614336915E+03 -0.87122528340E+03  0.10303895372E+04  0.90841956468E+02 0.  0.
          4    1    3    3  502    0 -0.15257464294E+03  0.13846720837E+03 -0.17599027328E+03  0.27097004586E+03  0.00000000000E+00 0. -1.
         -3    1    3    3    0  502 -0.15334172964E+03  0.24939295095E+03 -0.15910706418E+03  0.33320502383E+03  0.00000000000E+00 0.  1.
         11    1    5    5    0    0  0.16193469670E+02  0.20718020790E+01  0.88556130287E+02  0.90048370531E+02  0.00000000000E+00 0. -1.
        -11    1    5    5    0    0 -0.81069861364E+02  0.62114077533E+01  0.90439100913E+02  0.12161469887E+03  0.00000000000E+00 0.  1.
          3    1    6    6  503    0  0.57619045256E+02 -0.10966320391E+03 -0.23364306430E+03  0.26445236653E+03  0.00000000000E+00 0. -1.
         -3    1    6    6    0  503  0.31317371902E+03 -0.28648016524E+03 -0.63758221910E+03  0.76593717071E+03  0.00000000000E+00 0.  1.
<mgrwt>
<rscale>  0 0.15339997E+04</rscale>
<asrwt>0</asrwt>
<pdfrwt beam="1">  1        2 0.22104270E+00 0.15339997E+04</pdfrwt>
<pdfrwt beam="2">  1       -1 0.62992329E-01 0.15339997E+04</pdfrwt>
<totfact> 0.38703756E+01</totfact>
</mgrwt>
</event>
<event>
12    6  0.1647231E-007  0.1314359E+04  0.7818608E-02  0.9018256E-01
         -1   -1    0    0    0  501 -0.00000000000E+00  0.00000000000E+00  0.17918005569E+03  0.17918005569E+03  0.00000000000E+00 0.  1.
          2   -1    0    0  501    0  0.00000000000E+00 -0.00000000000E+00 -0.24103386856E+04  0.24103386856E+04  0.00000000000E+00 0. -1.
         24    2    1    2    0    0  0.19562732985E+03  0.23439199146E+03 -0.32504362437E+03  0.45318007014E+03  0.80679367739E+02 0.  0.
        254    2    1    2    0    0 -0.19562732985E+03 -0.23439199146E+03 -0.19061150055E+04  0.21363386712E+04  0.91512777562E+03 0.  0.
         23    2    4    4    0    0 -0.31405305995E+02  0.23150097403E+03 -0.11506321245E+03  0.27617617701E+03  0.91949680081E+02 0.  0.
         23    2    4    4    0    0 -0.16422202386E+03 -0.46589296549E+03 -0.17910517931E+04  0.18601624941E+04  0.91174836018E+02 0.  0.
          4    1    3    3  502    0  0.10483986374E+03  0.87776010746E+02 -0.19031516855E+03  0.23434139300E+03  0.00000000000E+00 0. -1.
         -3    1    3    3    0  502  0.90787466112E+02  0.14661598072E+03 -0.13472845582E+03  0.21883867714E+03  0.00000000000E+00 0.  1.
         11    1    5    5    0    0  0.21166522929E+02  0.11977160314E+02 -0.18966420607E+02  0.30841517030E+02  0.00000000000E+00 0.  1.
        -11    1    5    5    0    0 -0.52571828924E+02  0.21952381371E+03 -0.96096791845E+02  0.24533465998E+03  0.00000000000E+00 0. -1.
          2    1    6    6  503    0 -0.10915184266E+03 -0.40524981973E+03 -0.14598796699E+04  0.15190096089E+04  0.00000000000E+00 0. -1.
         -2    1    6    6    0  503 -0.55070181200E+02 -0.60643145760E+02 -0.33117212316E+03  0.34115288529E+03  0.00000000000E+00 0.  1.
<mgrwt>
<rscale>  0 0.13143586E+04</rscale>
<asrwt>0</asrwt>
<pdfrwt beam="1">  1        2 0.37082132E+00 0.13143586E+04</pdfrwt>
<pdfrwt beam="2">  1       -1 0.27566164E-01 0.13143586E+04</pdfrwt>
<totfact> 0.51937480E+01</totfact>
</mgrwt>
</event>
<event>
12    6  0.1647231E-007  0.1526426E+04  0.7818608E-02  0.8867068E-01
         -1   -1    0    0    0  501 -0.00000000000E+00  0.00000000000E+00  0.23730627665E+03  0.23730627665E+03  0.00000000000E+00 0.  1.
          2   -1    0    0  501    0  0.00000000000E+00 -0.00000000000E+00 -0.24546088501E+04  0.24546088501E+04  0.00000000000E+00 0. -1.
         24    2    1    2    0    0  0.37399756420E+03 -0.26868331090E+03 -0.10213323986E+04  0.11232260915E+04  0.80324868371E+02 0.  0.
        254    2    1    2    0    0 -0.37399756420E+03  0.26868331090E+03 -0.11959701748E+04  0.15686890353E+04  0.90464121661E+03 0.  0.
         23    2    4    4    0    0 -0.58858945308E+03  0.26227641401E+03 -0.11626842668E+04  0.13324676104E+04  0.91699329174E+02 0.  0.
         23    2    4    4    0    0  0.21459188889E+03  0.64068968876E+01 -0.33285908018E+02  0.23622142485E+03  0.92746335677E+02 0.  0.
          2    1    3    3  502    0  0.13875525050E+03 -0.10221508220E+03 -0.47935255143E+03  0.50939160882E+03  0.00000000000E+00 0. -1.
         -1    1    3    3    0  502  0.23524231370E+03 -0.16646822870E+03 -0.54197984722E+03  0.61383448267E+03  0.00000000000E+00 0.  1.
         11    1    5    5    0    0 -0.52340682033E+03  0.25070456703E+03 -0.10845071047E+04  0.12300256662E+04  0.00000000000E+00 0. -1.
        -11    1    5    5    0    0 -0.65182632750E+02  0.11571846984E+02 -0.78177162141E+02  0.10244194422E+03  0.00000000000E+00 0.  1.
          3    1    6    6  503    0  0.37931926023E+02  0.29964043696E+02 -0.32039940903E+02  0.57993385308E+02  0.00000000000E+00 0.  1.
         -3    1    6    6    0  503  0.17665996286E+03 -0.23557146808E+02 -0.12459671149E+01  0.17822803954E+03  0.00000000000E+00 0. -1.
<mgrwt>
<rscale>  0 0.15264260E+04</rscale>
<asrwt>0</asrwt>
<pdfrwt beam="1">  1        2 0.37763212E+00 0.15264260E+04</pdfrwt>
<pdfrwt beam="2">  1       -1 0.36508659E-01 0.15264260E+04</pdfrwt>
<totfact> 0.29274765E+01</totfact>
</mgrwt>
</event>
<event>
12    6  0.1647231E-007  0.1804198E+04  0.7818608E-02  0.8704070E-01
          2   -1    0    0  501    0  0.00000000000E+00  0.00000000000E+00  0.16739885403E+04  0.16739885403E+04  0.00000000000E+00 0. -1.
         -1   -1    0    0    0  501 -0.00000000000E+00 -0.00000000000E+00 -0.48613380923E+03  0.48613380923E+03  0.00000000000E+00 0.  1.
         24    2    1    2    0    0  0.50683540861E+03  0.29333341393E+03  0.85690581443E+03  0.10409664519E+04  0.79980973083E+02 0.  0.
        254    2    1    2    0    0 -0.50683540861E+03 -0.29333341393E+03  0.33094891666E+03  0.11191558976E+04  0.89445855948E+03 0.  0.
         23    2    4    4    0    0  0.21396669279E+03  0.86439450110E+02  0.91983434874E+02  0.26504733102E+03  0.92388371734E+02 0.  0.
         23    2    4    4    0    0 -0.72080210140E+03 -0.37977286404E+03  0.23896548178E+03  0.85410856661E+03  0.92810799100E+02 0.  0.
          2    1    3    3  502    0  0.67108329152E+02  0.28008495068E+02  0.15527196548E+03  0.17145666188E+03  0.00000000000E+00 0. -1.
         -1    1    3    3    0  502  0.43972707946E+03  0.26532491886E+03  0.70163384895E+03  0.86950979004E+03  0.00000000000E+00 0.  1.
         11    1    5    5    0    0  0.17179885446E+03  0.82581034458E+02  0.10880607515E+03  0.21948402136E+03  0.00000000000E+00 0. -1.
        -11    1    5    5    0    0  0.42167838335E+02  0.38584156520E+01 -0.16822640276E+02  0.45563309658E+02  0.00000000000E+00 0.  1.
          2    1    6    6  503    0 -0.34791716415E+03 -0.15955903063E+03  0.15518614736E+03  0.41302321690E+03  0.00000000000E+00 0.  1.
         -2    1    6    6    0  503 -0.37288493725E+03 -0.22021383341E+03  0.83779334422E+02  0.44108534971E+03  0.00000000000E+00 0. -1.
<mgrwt>
<rscale>  0 0.18041978E+04</rscale>
<asrwt>0</asrwt>
<pdfrwt beam="1">  1        2 0.25753669E+00 0.18041978E+04</pdfrwt>
<pdfrwt beam="2">  1       -1 0.74789818E-01 0.18041978E+04</pdfrwt>
<totfact> 0.19603492E+01</totfact>
</mgrwt>
</event>
<event>
12    6  0.1647231E-007  0.1864444E+04  0.7818608E-02  0.8672760E-01
          4   -1    0    0  501    0  0.00000000000E+00  0.00000000000E+00  0.28547790134E+04  0.28547790134E+04  0.00000000000E+00 0. -1.
         -3   -1    0    0    0  501 -0.00000000000E+00 -0.00000000000E+00 -0.30441511107E+03  0.30441511107E+03  0.00000000000E+00 0.  1.
         24    2    1    2    0    0  0.23523335241E+03  0.18991099524E+03  0.20531603546E+04  0.20774993343E+04  0.95577854216E+02 0.  0.
        254    2    1    2    0    0 -0.23523335241E+03 -0.18991099524E+03  0.49720354767E+03  0.10816947901E+04  0.91183953352E+03 0.  0.
         23    2    4    4    0    0 -0.35364835777E+03 -0.31697370339E+03 -0.63526017712E+02  0.48717622891E+03  0.88122831856E+02 0.  0.
         23    2    4    4    0    0  0.11841500536E+03  0.12706270815E+03  0.56072956538E+03  0.59451856117E+03  0.94168087951E+02 0.  0.
          4    1    3    3  502    0  0.20470357276E+03  0.12111285371E+03  0.16868588725E+04  0.17035447549E+04  0.00000000000E+00 0. -1.
         -3    1    3    3    0  502  0.30529779642E+02  0.68798141526E+02  0.36630148211E+03  0.37395457949E+03  0.00000000000E+00 0.  1.
         11    1    5    5    0    0 -0.33470528490E+03 -0.28050265918E+03 -0.77981822128E+02  0.44361079127E+03  0.00000000000E+00 0. -1.
        -11    1    5    5    0    0 -0.18943072869E+02 -0.36471044214E+02  0.14455804416E+02  0.43565437644E+02  0.00000000000E+00 0.  1.
          2    1    6    6  503    0  0.10938640944E+03  0.58827902886E+02  0.41795818765E+03  0.43602196659E+03  0.00000000000E+00 0. -1.
         -2    1    6    6    0  503  0.90285959229E+01  0.68234805266E+02  0.14277137773E+03  0.15849659458E+03  0.00000000000E+00 0.  1.
<mgrwt>
<rscale>  0 0.18644440E+04</rscale>
<asrwt>0</asrwt>
<pdfrwt beam="1">  1        4 0.43919675E+00 0.18644440E+04</pdfrwt>
<pdfrwt beam="2">  1       -3 0.46833096E-01 0.18644440E+04</pdfrwt>
<totfact> 0.34932910E-02</totfact>
</mgrwt>
</event>
<event>
12    6  0.1647231E-007  0.1146388E+04  0.7818608E-02  0.9161122E-01
         -3   -1    0    0    0  501 -0.00000000000E+00  0.00000000000E+00  0.21739639249E+04  0.21739639249E+04  0.00000000000E+00 0.  1.
          4   -1    0    0  501    0  0.00000000000E+00 -0.00000000000E+00 -0.15113021401E+03  0.15113021401E+03  0.00000000000E+00 0. -1.
         24    2    1    2    0    0 -0.15926442516E+03 -0.54082266708E+02  0.65813976679E+03  0.68390704850E+03  0.79314876690E+02 0.  0.
        254    2    1    2    0    0  0.15926442516E+03  0.54082266708E+02  0.13646939441E+04  0.16411870904E+04  0.89599969640E+03 0.  0.
         23    2    4    4    0    0  0.27763213693E+03  0.36505637890E+03  0.11328829456E+04  0.12256327659E+04  0.91685031994E+02 0.  0.
         23    2    4    4    0    0 -0.11836771177E+03 -0.31097411219E+03  0.23181099852E+03  0.41555432456E+03  0.90737224904E+02 0.  0.
          2    1    3    3  502    0 -0.28409949446E+02  0.10321273228E+02  0.49182543859E+02  0.57728472429E+02  0.00000000000E+00 0. -1.
         -1    1    3    3    0  502 -0.13085447571E+03 -0.64403539936E+02  0.60895722293E+03  0.62617857607E+03  0.00000000000E+00 0.  1.
         11    1    5    5    0    0  0.28082650441E+03  0.36629992005E+03  0.11313446230E+04  0.12218755309E+04  0.00000000000E+00 0.  1.
        -11    1    5    5    0    0 -0.31943674810E+01 -0.12435411486E+01  0.15383226027E+01  0.37572349703E+01  0.00000000000E+00 0. -1.
          4    1    6    6  503    0 -0.17627958883E+02 -0.38121429066E+02  0.72861634245E+02  0.84099976417E+02  0.00000000000E+00 0. -1.
         -4    1    6    6    0  503 -0.10073975289E+03 -0.27285268312E+03  0.15894936428E+03  0.33145434815E+03  0.00000000000E+00 0.  1.
<mgrwt>
<rscale>  0 0.11463885E+04</rscale>
<asrwt>0</asrwt>
<pdfrwt beam="1">  1        4 0.23250804E-01 0.11463885E+04</pdfrwt>
<pdfrwt beam="2">  1       -3 0.33445597E+00 0.11463885E+04</pdfrwt>
<totfact> 0.98223329E-01</totfact>
</mgrwt>
</event>
<event>
12    6  0.1647231E-007  0.1963310E+04  0.7818608E-02  0.8623969E-01
         -1   -1    0    0    0  501 -0.00000000000E+00  0.00000000000E+00  0.40587189764E+03  0.40587189764E+03  0.00000000000E+00 0.  1.
          2   -1    0    0  501    0  0.00000000000E+00 -0.00000000000E+00 -0.23742626825E+04  0.23742626825E+04  0.00000000000E+00 0. -1.
         24    2    1    2    0    0  0.32340853023E+03  0.79865944786E+02 -0.17533412844E+04  0.17864916231E+04  0.79843679465E+02 0.  0.
        254    2    1    2    0    0 -0.32340853023E+03 -0.79865944786E+02 -0.21504950046E+03  0.99364295708E+03  0.91110284377E+03 0.  0.
         23    2    4    4    0    0  0.14013579620E+03  0.11702133336E+03  0.23641532782E+03  0.31138663304E+03  0.87962458873E+02 0.  0.
         23    2    4    4    0    0 -0.46354432643E+03 -0.19688727815E+03 -0.45146482828E+03  0.68225632403E+03  0.89527971263E+02 0.  0.
          2    1    3    3  502    0  0.15943423619E+03  0.61929691215E+02 -0.10659873758E+04  0.10796219930E+04  0.00000000000E+00 0. -1.
         -1    1    3    3    0  502  0.16397429405E+03  0.17936253571E+02 -0.68735390860E+03  0.70686963011E+03  0.00000000000E+00 0.  1.
         11    1    5    5    0    0  0.60039693955E+02  0.96955973823E+02  0.17329927485E+03  0.20745569255E+03  0.00000000000E+00 0. -1.
        -11    1    5    5    0    0  0.80096102245E+02  0.20065359541E+02  0.63116052974E+02  0.10393094049E+03  0.00000000000E+00 0.  1.
          3    1    6    6  503    0 -0.35655162450E+03 -0.16501669882E+03 -0.30118549093E+03  0.49504774696E+03  0.00000000000E+00 0. -1.
         -3    1    6    6    0  503 -0.10699270193E+03 -0.31870579327E+02 -0.15027933735E+03  0.18720857707E+03  0.00000000000E+00 0.  1.
<mgrwt>
<rscale>  0 0.19633100E+04</rscale>
<asrwt>0</asrwt>
<pdfrwt beam="1">  1        2 0.36527118E+00 0.19633100E+04</pdfrwt>
<pdfrwt beam="2">  1       -1 0.62441831E-01 0.19633100E+04</pdfrwt>
<totfact> 0.11353470E+01</totfact>
</mgrwt>
</event>
<event>
12    6  0.1647231E-007  0.1884147E+04  0.7818608E-02  0.8662788E-01
         -1   -1    0    0    0  501 -0.00000000000E+00  0.00000000000E+00  0.79985405380E+03  0.79985405380E+03  0.00000000000E+00 0.  1.
          2   -1    0    0  501    0  0.00000000000E+00 -0.00000000000E+00 -0.11095806144E+04  0.11095806144E+04  0.00000000000E+00 0. -1.
         24    2    1    2    0    0 -0.21883984526E+03 -0.67021599995E+03 -0.34187515786E+03  0.78701523796E+03  0.73715648053E+02 0.  0.
        254    2    1    2    0    0  0.21883984526E+03  0.67021599995E+03  0.32148597219E+02  0.11224194303E+04  0.87276083819E+03 0.  0.
         23    2    4    4    0    0 -0.40059644374E+02  0.76397220181E+03 -0.14329700057E+03  0.78340737215E+03  0.89077382834E+02 0.  0.
         23    2    4    4    0    0  0.25889948963E+03 -0.93756201859E+02  0.17544559779E+03  0.33901205811E+03  0.91262515002E+02 0.  0.
          2    1    3    3  502    0 -0.19423208708E+03 -0.61511027241E+03 -0.33326838225E+03  0.72605410645E+03  0.00000000000E+00 0. -1.
         -1    1    3    3    0  502 -0.24607758174E+02 -0.55105727536E+02 -0.86067756101E+01  0.60961131518E+02  0.00000000000E+00 0.  1.
         11    1    5    5    0    0  0.20463070540E+02  0.66129249202E+02 -0.21088855835E+02  0.72364042842E+02  0.00000000000E+00 0. -1.
        -11    1    5    5    0    0 -0.60522714914E+02  0.69784295260E+03 -0.12220814473E+03  0.71104332931E+03  0.00000000000E+00 0.  1.
          3    1    6    6  503    0  0.17848290067E+03 -0.30511065116E+02  0.76122540511E+02  0.19642228005E+03  0.00000000000E+00 0.  1.
         -3    1    6    6    0  503  0.80416588965E+02 -0.63245136742E+02  0.99323057275E+02  0.14258977807E+03  0.00000000000E+00 0. -1.
<mgrwt>
<rscale>  0 0.18841471E+04</rscale>
<asrwt>0</asrwt>
<pdfrwt beam="1">  1        2 0.17070471E+00 0.18841471E+04</pdfrwt>
<pdfrwt beam="2">  1       -1 0.12305447E+00 0.18841471E+04</pdfrwt>
<totfact> 0.13375922E+01</totfact>
</mgrwt>
</event>
<event>
12    6  0.1647231E-007  0.1537476E+04  0.7818608E-02  0.8859907E-01
          2   -1    0    0  501    0  0.00000000000E+00  0.00000000000E+00  0.20831311039E+04  0.20831311039E+04  0.00000000000E+00 0. -1.
         -1   -1    0    0    0  501 -0.00000000000E+00 -0.00000000000E+00 -0.28368747908E+03  0.28368747908E+03  0.00000000000E+00 0.  1.
         24    2    1    2    0    0 -0.37355570375E+02  0.48872244495E+03  0.48174592748E+03  0.69196879788E+03  0.80601561733E+02 0.  0.
        254    2    1    2    0    0  0.37355570375E+02 -0.48872244495E+03  0.13176976973E+04  0.16748497851E+04  0.91024695234E+03 0.  0.
         23    2    4    4    0    0 -0.18074594426E+03 -0.15782819556E+03  0.12340152139E+04  0.12604965414E+04  0.92082283810E+02 0.  0.
         23    2    4    4    0    0  0.21810151464E+03 -0.33089424939E+03  0.83682483406E+02  0.41435324371E+03  0.87330278697E+02 0.  0.
          2    1    3    3  502    0 -0.53025871098E+02  0.40612015798E+03  0.42682595059E+03  0.59154519508E+03  0.00000000000E+00 0. -1.
         -1    1    3    3    0  502  0.15670300724E+02  0.82602286968E+02  0.54919976898E+02  0.10042360280E+03  0.00000000000E+00 0.  1.
         11    1    5    5    0    0 -0.50795894826E+02 -0.10168768752E+03  0.62434090484E+03  0.63460395066E+03  0.00000000000E+00 0.  1.
        -11    1    5    5    0    0 -0.12995004944E+03 -0.56140508038E+02  0.60967430903E+03  0.62589259070E+03  0.00000000000E+00 0. -1.
          1    1    6    6  503    0  0.20336486236E+03 -0.28834531317E+03  0.99533849507E+02  0.36661597629E+03  0.00000000000E+00 0. -1.
         -1    1    6    6    0  503  0.14736652273E+02 -0.42548936216E+02 -0.15851366101E+02  0.47737267419E+02  0.00000000000E+00 0.  1.
<mgrwt>
<rscale>  0 0.15374761E+04</rscale>
<asrwt>0</asrwt>
<pdfrwt beam="1">  1        2 0.32048170E+00 0.15374761E+04</pdfrwt>
<pdfrwt beam="2">  1       -1 0.43644229E-01 0.15374761E+04</pdfrwt>
<totfact> 0.34186716E+01</totfact>
</mgrwt>
</event>
<event>
12    6  0.1647231E-007  0.1352894E+04  0.7818608E-02  0.8988640E-01
          2   -1    0    0  501    0  0.00000000000E+00  0.00000000000E+00  0.23241065662E+04  0.23241065662E+04  0.00000000000E+00 0. -1.
         -1   -1    0    0    0  501 -0.00000000000E+00 -0.00000000000E+00 -0.19688455823E+03  0.19688455823E+03  0.00000000000E+00 0.  1.
         24    2    1    2    0    0  0.32756410526E+02 -0.30566518997E+03  0.95738444606E+03  0.10086922019E+04  0.79817227614E+02 0.  0.
        254    2    1    2    0    0 -0.32756410526E+02  0.30566518997E+03  0.11698375620E+04  0.15122989226E+04  0.90775763234E+03 0.  0.
         23    2    4    4    0    0  0.11092405446E+03  0.52369238061E+02 -0.11577296356E+03  0.19088992453E+03  0.89380653619E+02 0.  0.
         23    2    4    4    0    0 -0.14368046498E+03  0.25329595191E+03  0.12856105255E+04  0.13214089981E+04  0.92327685637E+02 0.  0.
          4    1    3    3  502    0  0.29328621498E+02 -0.17237535080E+03  0.41852624030E+03  0.45358311633E+03  0.00000000000E+00 0. -1.
         -3    1    3    3    0  502  0.34277890279E+01 -0.13328983917E+03  0.53885820576E+03  0.55510908556E+03  0.00000000000E+00 0.  1.
         11    1    5    5    0    0  0.67259236323E+02  0.19682458325E+02 -0.85610577657E+01  0.70600961372E+02  0.00000000000E+00 0.  1.
        -11    1    5    5    0    0  0.43664818132E+02  0.32686779736E+02 -0.10721190580E+03  0.12028896315E+03  0.00000000000E+00 0. -1.
          1    1    6    6  503    0 -0.14416098056E+03  0.17307932024E+03  0.94062136681E+03  0.96721631247E+03  0.00000000000E+00 0. -1.
         -1    1    6    6    0  503  0.48051558004E+00  0.80216631670E+02  0.34498915871E+03  0.35419268559E+03  0.00000000000E+00 0.  1.
<mgrwt>
<rscale>  0 0.13528942E+04</rscale>
<asrwt>0</asrwt>
<pdfrwt beam="1">  1        2 0.35755484E+00 0.13528942E+04</pdfrwt>
<pdfrwt beam="2">  1       -1 0.30289934E-01 0.13528942E+04</pdfrwt>
<totfact> 0.49151613E+01</totfact>
</mgrwt>
</event>
<event>
12    6  0.1647231E-007  0.1664769E+04  0.7818608E-02  0.8781717E-01
         -1   -1    0    0    0  501 -0.00000000000E+00  0.00000000000E+00  0.13996239565E+04  0.13996239565E+04  0.00000000000E+00 0.  1.
          2   -1    0    0  501    0  0.00000000000E+00 -0.00000000000E+00 -0.49503558429E+03  0.49503558429E+03  0.00000000000E+00 0. -1.
         24    2    1    2    0    0 -0.54607595451E+03 -0.20998340342E+03  0.29794103996E+03  0.66150259608E+03  0.80776503543E+02 0.  0.
        254    2    1    2    0    0  0.54607595451E+03  0.20998340342E+03  0.60664733225E+03  0.12331569447E+04  0.90020169227E+03 0.  0.
         23    2    4    4    0    0 -0.17279065349E+03  0.28600899048E+03  0.20167310769E+03  0.39956814313E+03  0.85585665082E+02 0.  0.
         23    2    4    4    0    0  0.71886660800E+03 -0.76025587061E+02  0.40497422456E+03  0.83358880159E+03  0.91198013088E+02 0.  0.
          4    1    3    3  502    0 -0.42310712088E+03 -0.19475463898E+03  0.22000978135E+03  0.51512455681E+03  0.00000000000E+00 0. -1.
         -3    1    3    3    0  502 -0.12296883363E+03 -0.15228764434E+02  0.77931258612E+02  0.14637803927E+03  0.00000000000E+00 0.  1.
         11    1    5    5    0    0 -0.42213255517E+02  0.57871587690E+02  0.87230743592E+02  0.11287285870E+03  0.00000000000E+00 0.  1.
        -11    1    5    5    0    0 -0.13057739797E+03  0.22813740279E+03  0.11444236410E+03  0.28669528443E+03  0.00000000000E+00 0. -1.
          2    1    6    6  503    0  0.29832190726E+03 -0.66802437968E+02  0.20296359217E+03  0.36695060405E+03  0.00000000000E+00 0. -1.
         -2    1    6    6    0  503  0.42054470074E+03 -0.92231490932E+01  0.20201063239E+03  0.46663819754E+03  0.00000000000E+00 0.  1.
<mgrwt>
<rscale>  0 0.16647686E+04</rscale>
<asrwt>0</asrwt>
<pdfrwt beam="1">  1        2 0.76159321E-01 0.16647686E+04</pdfrwt>
<pdfrwt beam="2">  1       -1 0.21532676E+00 0.16647686E+04</pdfrwt>
<totfact> 0.80377330E+00</totfact>
</mgrwt>
</event>
<event>
12    6  0.1647231E-007  0.5661690E+04  0.7818608E-02  0.7733824E-01
         -1   -1    0    0    0  501 -0.00000000000E+00  0.00000000000E+00  0.16028535632E+04  0.16028535632E+04  0.00000000000E+00 0.  1.
          2   -1    0    0  501    0  0.00000000000E+00 -0.00000000000E+00 -0.49996360333E+04  0.49996360333E+04  0.00000000000E+00 0. -1.
         24    2    1    2    0    0 -0.85026734904E+03  0.12264382216E+04 -0.43593546429E+04  0.46083917857E+04  0.78718936714E+02 0.  0.
        254    2    1    2    0    0  0.85026734904E+03 -0.12264382216E+04  0.96257217286E+03  0.19940978108E+04  0.90706979605E+03 0.  0.
         23    2    4    4    0    0  0.92728894122E+03 -0.12115366679E+04  0.65221262972E+03  0.16612861572E+04  0.82489415554E+02 0.  0.
         23    2    4    4    0    0 -0.77021592176E+02 -0.14901553676E+02  0.31035954314E+03  0.33281165357E+03  0.91028395414E+02 0.  0.
          2    1    3    3  502    0 -0.61714384470E+03  0.93335961504E+03 -0.33376670509E+04  0.35202340886E+04  0.00000000000E+00 0. -1.
         -1    1    3    3    0  502 -0.23312350434E+03  0.29307860653E+03 -0.10216875920E+04  0.10881576970E+04  0.00000000000E+00 0.  1.
         11    1    5    5    0    0  0.76562148331E+03 -0.94603336879E+03  0.51564010518E+03  0.13217564483E+04  0.00000000000E+00 0.  1.
        -11    1    5    5    0    0  0.16166745790E+03 -0.26550329911E+03  0.13657252454E+03  0.33952970892E+03  0.00000000000E+00 0. -1.
          1    1    6    6  503    0  0.17766662837E+02  0.12174156695E+02  0.59487160351E+02  0.63265999133E+02  0.00000000000E+00 0. -1.
         -1    1    6    6    0  503 -0.94788255014E+02 -0.27075710372E+02  0.25087238279E+03  0.26954565444E+03  0.00000000000E+00 0.  1.
<mgrwt>
<rscale>  0 0.56616904E+04</rscale>
<asrwt>0</asrwt>
<pdfrwt beam="1">  1        2 0.76917477E+00 0.56616904E+04</pdfrwt>
<pdfrwt beam="2">  1       -1 0.24659286E+00 0.56616904E+04</pdfrwt>
<totfact> 0.19370177E-03</totfact>
</mgrwt>
</event>
<event>
12    6  0.1647231E-007  0.1206688E+04  0.7818608E-02  0.9107023E-01
         -1   -1    0    0    0  501 -0.00000000000E+00  0.00000000000E+00  0.20846630731E+03  0.20846630731E+03  0.00000000000E+00 0.  1.
          2   -1    0    0  501    0  0.00000000000E+00 -0.00000000000E+00 -0.17462000928E+04  0.17462000928E+04  0.00000000000E+00 0. -1.
         24    2    1    2    0    0 -0.18357995108E+03 -0.17517123479E+03 -0.25720937267E+03  0.36961746941E+03  0.77934923926E+02 0.  0.
        254    2    1    2    0    0  0.18357995108E+03  0.17517123479E+03 -0.12805244128E+04  0.15850489307E+04  0.89902768641E+03 0.  0.
         23    2    4    4    0    0  0.21485066126E+02  0.47179894646E+03 -0.36261616141E+03  0.60243625599E+03  0.91559314453E+02 0.  0.
         23    2    4    4    0    0  0.16209488495E+03 -0.29662771168E+03 -0.91790825139E+03  0.98261267469E+03  0.93323948858E+02 0.  0.
          2    1    3    3  502    0 -0.97881398584E+01 -0.25659332246E+02 -0.64587400172E+02  0.70183625400E+02  0.00000000000E+00 0. -1.
         -1    1    3    3    0  502 -0.17379181122E+03 -0.14951190254E+03 -0.19262197249E+03  0.29943384401E+03  0.00000000000E+00 0.  1.
         11    1    5    5    0    0 -0.26376571536E+02  0.52830922653E+02 -0.52158365454E+02  0.78786578813E+02  0.00000000000E+00 0. -1.
        -11    1    5    5    0    0  0.47861637662E+02  0.41896802381E+03 -0.31045779596E+03  0.52364967718E+03  0.00000000000E+00 0.  1.
          2    1    6    6  503    0  0.64765668523E+02 -0.43821199696E+02 -0.16895863286E+03  0.18617709038E+03  0.00000000000E+00 0. -1.
         -2    1    6    6    0  503  0.97329216431E+02 -0.25280651198E+03 -0.74894961853E+03  0.79643558432E+03  0.00000000000E+00 0.  1.
<mgrwt>
<rscale>  0 0.12066878E+04</rscale>
<asrwt>0</asrwt>
<pdfrwt beam="1">  1        2 0.26864617E+00 0.12066878E+04</pdfrwt>
<pdfrwt beam="2">  1       -1 0.32071740E-01 0.12066878E+04</pdfrwt>
<totfact> 0.94197923E+01</totfact>
</mgrwt>
</event>
<event>
12    6  0.1647231E-007  0.1245295E+04  0.7818608E-02  0.9074109E-01
         -1   -1    0    0    0  501 -0.00000000000E+00  0.00000000000E+00  0.12773399800E+03  0.12773399800E+03  0.00000000000E+00 0.  1.
          2   -1    0    0  501    0  0.00000000000E+00 -0.00000000000E+00 -0.30351335991E+04  0.30351335991E+04  0.00000000000E+00 0. -1.
         24    2    1    2    0    0 -0.10374689427E+03  0.10657040943E+03 -0.13458893808E+04  0.13567663619E+04  0.85299853863E+02 0.  0.
        254    2    1    2    0    0  0.10374689427E+03 -0.10657040943E+03 -0.15615102203E+04  0.18061012352E+04  0.89530264916E+03 0.  0.
         23    2    4    4    0    0  0.99586880084E+02  0.26100847436E+03 -0.12259575262E+03  0.31830451324E+03  0.90802391006E+02 0.  0.
         23    2    4    4    0    0  0.41600141838E+01 -0.36757888379E+03 -0.14389144677E+04  0.14877967220E+04  0.89065701581E+02 0.  0.
          2    1    3    3  502    0 -0.73659584751E+02  0.57040881654E+02 -0.11084059925E+04  0.11123143624E+04  0.00000000000E+00 0. -1.
         -1    1    3    3    0  502 -0.30087309517E+02  0.49529527771E+02 -0.23748338834E+03  0.24445199948E+03  0.00000000000E+00 0.  1.
         11    1    5    5    0    0  0.95954349308E+02  0.25845492833E+03 -0.96896407387E+02  0.29222440160E+03  0.00000000000E+00 0. -1.
        -11    1    5    5    0    0  0.36325307762E+01  0.25535460318E+01 -0.25699345236E+02  0.26080111632E+02  0.00000000000E+00 0.  1.
          4    1    6    6  503    0 -0.61528642851E+01 -0.33299901016E+03 -0.11703101396E+04  0.12167793643E+04  0.00000000000E+00 0. -1.
         -4    1    6    6    0  503  0.10312878469E+02 -0.34579873622E+02 -0.26860432808E+03  0.27101735772E+03  0.00000000000E+00 0.  1.
<mgrwt>
<rscale>  0 0.12452947E+04</rscale>
<asrwt>0</asrwt>
<pdfrwt beam="1">  1        2 0.46694364E+00 0.12452947E+04</pdfrwt>
<pdfrwt beam="2">  1       -1 0.19651384E-01 0.12452947E+04</pdfrwt>
<totfact> 0.39594275E+01</totfact>
</mgrwt>
</event>
<event>
12    6  0.1797699E-007  0.1576767E+04  0.7818608E-02  0.8834949E-01
          2   -1    0    0  501    0  0.00000000000E+00  0.00000000000E+00  0.10932478668E+04  0.10932478668E+04  0.00000000000E+00 0. -1.
         -1   -1    0    0    0  501 -0.00000000000E+00 -0.00000000000E+00 -0.56853388357E+03  0.56853388357E+03  0.00000000000E+00 0.  1.
         24    2    1    2    0    0  0.35811505143E+03 -0.21261567733E+03 -0.16153917375E+03  0.45366713807E+03  0.79165340894E+02 0.  0.
        254    2    1    2    0    0 -0.35811505143E+03  0.21261567733E+03  0.68625315702E+03  0.12081146123E+04  0.90285419902E+03 0.  0.
         23    2    4    4    0    0 -0.20364707662E+03 -0.23250880654E+02 -0.18168895038E+03  0.29089617834E+03  0.97964159866E+02 0.  0.
         23    2    4    4    0    0 -0.15446797482E+03  0.23586655799E+03  0.86794210740E+03  0.91721843398E+03  0.92047625809E+02 0.  0.
          4    1    3    3  502    0 -0.59395040710E+00 -0.80474526730E+01  0.37196819229E+01  0.88853984277E+01  0.00000000000E+00 0. -1.
         -3    1    3    3    0  502  0.35870900184E+03 -0.20456822466E+03 -0.16525885568E+03  0.44478173964E+03  0.00000000000E+00 0.  1.
         11    1    5    5    0    0  0.85468877750E+01 -0.75739921180E+01 -0.22268679506E+02  0.25026160996E+02  0.00000000000E+00 0.  1.
        -11    1    5    5    0    0 -0.21219396439E+03 -0.15676888536E+02 -0.15942027088E+03  0.26587001735E+03  0.00000000000E+00 0. -1.
          2    1    6    6  503    0  0.12205136613E+02  0.13023527617E+02  0.65771935204E+02  0.68150752687E+02  0.00000000000E+00 0.  1.
         -2    1    6    6    0  503 -0.16667311143E+03  0.22284303037E+03  0.80217017220E+03  0.84906768129E+03  0.00000000000E+00 0. -1.
<mgrwt>
<rscale>  0 0.15767669E+04</rscale>
<asrwt>0</asrwt>
<pdfrwt beam="1">  1        2 0.16819198E+00 0.15767669E+04</pdfrwt>
<pdfrwt beam="2">  1       -1 0.87466751E-01 0.15767669E+04</pdfrwt>
<totfact> 0.31007095E+01</totfact>
</mgrwt>
</event>
<event>
12    6  0.1647231E-007  0.1372525E+04  0.7818608E-02  0.8973950E-01
         -1   -1    0    0    0  501 -0.00000000000E+00  0.00000000000E+00  0.15708724514E+04  0.15708724514E+04  0.00000000000E+00 0.  1.
          2   -1    0    0  501    0  0.00000000000E+00 -0.00000000000E+00 -0.29980559892E+03  0.29980559892E+03  0.00000000000E+00 0. -1.
         24    2    1    2    0    0  0.19299507624E+03  0.28917892220E+03  0.13501738756E+03  0.38144737890E+03  0.80005371246E+02 0.  0.
        254    2    1    2    0    0 -0.19299507624E+03 -0.28917892220E+03  0.11360494649E+04  0.14892306714E+04  0.89795771473E+03 0.  0.
         23    2    4    4    0    0  0.27563995248E+03 -0.13905806999E+02  0.83051499098E+02  0.30157884755E+03  0.88777783926E+02 0.  0.
         23    2    4    4    0    0 -0.46863502872E+03 -0.27527311520E+03  0.10529979658E+04  0.11876518239E+04  0.79486228990E+02 0.  0.
          4    1    3    3  502    0 -0.23786038834E+01  0.29075731863E+02 -0.15837619772E+00  0.29173292972E+02  0.00000000000E+00 0. -1.
         -3    1    3    3    0  502  0.19537368013E+03  0.26010319034E+03  0.13517576376E+03  0.35227408593E+03  0.00000000000E+00 0.  1.
         11    1    5    5    0    0  0.13153006368E+03  0.92171738752E+01  0.82668472710E+02  0.15562515968E+03  0.00000000000E+00 0. -1.
        -11    1    5    5    0    0  0.14410988880E+03 -0.23122980874E+02  0.38302638810E+00  0.14595368787E+03  0.00000000000E+00 0.  1.
          1    1    6    6  503    0 -0.20545422617E+03 -0.11271458506E+03  0.37152730353E+03  0.43925909666E+03  0.00000000000E+00 0. -1.
         -1    1    6    6    0  503 -0.26318080255E+03 -0.16255853014E+03  0.68147066229E+03  0.74839272720E+03  0.00000000000E+00 0.  1.
<mgrwt>
<rscale>  0 0.13725252E+04</rscale>
<asrwt>0</asrwt>
<pdfrwt beam="1">  1        2 0.46123939E-01 0.13725252E+04</pdfrwt>
<pdfrwt beam="2">  1       -1 0.24167268E+00 0.13725252E+04</pdfrwt>
<totfact> 0.97096102E+00</totfact>
</mgrwt>
</event>
<event>
12    6  0.1647231E-007  0.1206768E+04  0.7818608E-02  0.9106953E-01
         -3   -1    0    0    0  501 -0.00000000000E+00  0.00000000000E+00  0.17151657433E+04  0.17151657433E+04  0.00000000000E+00 0.  1.
          4   -1    0    0  501    0  0.00000000000E+00 -0.00000000000E+00 -0.21226648345E+03  0.21226648345E+03  0.00000000000E+00 0. -1.
         24    2    1    2    0    0 -0.10451562429E+03 -0.14977801761E+03  0.61777575031E+03  0.64998527640E+03  0.86469714802E+02 0.  0.
        254    2    1    2    0    0  0.10451562429E+03  0.14977801761E+03  0.88512350956E+03  0.12774469504E+04  0.90281233573E+03 0.  0.
         23    2    4    4    0    0  0.30708411471E+03  0.44639842996E+03  0.49716352141E+03  0.74082381853E+03  0.89867409516E+02 0.  0.
         23    2    4    4    0    0 -0.20256849042E+03 -0.29662041235E+03  0.38795998814E+03  0.53662313184E+03  0.91835564436E+02 0.  0.
          2    1    3    3  502    0  0.89323040283E+01 -0.50115094661E+00  0.78852223207E+01  0.11925348572E+02  0.00000000000E+00 0. -1.
         -1    1    3    3    0  502 -0.11344792832E+03 -0.14927686667E+03  0.60989052799E+03  0.63805992783E+03  0.00000000000E+00 0.  1.
         11    1    5    5    0    0  0.70168223358E+01  0.90660925489E+01 -0.29552792623E+01  0.11839066911E+02  0.00000000000E+00 0. -1.
        -11    1    5    5    0    0  0.30006729237E+03  0.43733233741E+03  0.50011880068E+03  0.72898475162E+03  0.00000000000E+00 0.  1.
          3    1    6    6  503    0 -0.29485561394E+02 -0.56647105459E+02  0.12679311356E+03  0.14196755451E+03  0.00000000000E+00 0. -1.
         -3    1    6    6    0  503 -0.17308292902E+03 -0.23997330689E+03  0.26116687459E+03  0.39465557733E+03  0.00000000000E+00 0.  1.
<mgrwt>
<rscale>  0 0.12067679E+04</rscale>
<asrwt>0</asrwt>
<pdfrwt beam="1">  1        4 0.32656383E-01 0.12067679E+04</pdfrwt>
<pdfrwt beam="2">  1       -3 0.26387164E+00 0.12067679E+04</pdfrwt>
<totfact> 0.12609195E+00</totfact>
</mgrwt>
</event>
<event>
12    6  0.1647231E-007  0.1229933E+04  0.7818608E-02  0.9087052E-01
          2   -1    0    0  501    0  0.00000000000E+00  0.00000000000E+00  0.11059109533E+04  0.11059109533E+04  0.00000000000E+00 0. -1.
         -1   -1    0    0    0  501 -0.00000000000E+00 -0.00000000000E+00 -0.34196589853E+03  0.34196589853E+03  0.00000000000E+00 0.  1.
         24    2    1    2    0    0  0.44860029629E+02 -0.24735202751E+02 -0.15126262285E+03  0.17871647505E+03  0.80218108116E+02 0.  0.
        254    2    1    2    0    0 -0.44860029629E+02  0.24735202751E+02  0.91520767766E+03  0.12691603768E+04  0.87780334719E+03 0.  0.
         23    2    4    4    0    0 -0.11463763077E+03  0.32169485215E+03  0.62102108593E+02  0.35841635043E+03  0.89309820729E+02 0.  0.
         23    2    4    4    0    0  0.69777601141E+02 -0.29695964940E+03  0.85310556907E+03  0.91074402639E+03  0.92798828891E+02 0.  0.
          4    1    3    3  502    0 -0.28647129808E+00  0.19621592667E+02 -0.64158729862E+01  0.20645880721E+02  0.00000000000E+00 0. -1.
         -3    1    3    3    0  502  0.45146500927E+02 -0.44356795417E+02 -0.14484674986E+03  0.15807059433E+03  0.00000000000E+00 0.  1.
         11    1    5    5    0    0  0.13505658456E+02  0.34860378307E+02 -0.32763231733E+01  0.37528430283E+02  0.00000000000E+00 0. -1.
        -11    1    5    5    0    0 -0.12814328923E+03  0.28683447384E+03  0.65378431766E+02  0.32088792015E+03  0.00000000000E+00 0.  1.
          2    1    6    6  503    0  0.64436432670E+01  0.44630546242E-01  0.15057536262E+01  0.66173880362E+01  0.00000000000E+00 0. -1.
         -2    1    6    6    0  503  0.63333957874E+02 -0.29700427994E+03  0.85159981544E+03  0.90412663836E+03  0.00000000000E+00 0.  1.
<mgrwt>
<rscale>  0 0.12299331E+04</rscale>
<asrwt>0</asrwt>
<pdfrwt beam="1">  1        2 0.17014015E+00 0.12299331E+04</pdfrwt>
<pdfrwt beam="2">  1       -1 0.52610139E-01 0.12299331E+04</pdfrwt>
<totfact> 0.88316648E+01</totfact>
</mgrwt>
</event>
<event>
12    6  0.1647231E-007  0.2509432E+04  0.7818608E-02  0.8399633E-01
         -1   -1    0    0    0  501 -0.00000000000E+00  0.00000000000E+00  0.92672464964E+03  0.92672464964E+03  0.00000000000E+00 0.  1.
          2   -1    0    0  501    0  0.00000000000E+00 -0.00000000000E+00 -0.16987922318E+04  0.16987922318E+04  0.00000000000E+00 0. -1.
         24    2    1    2    0    0 -0.83878942296E+02 -0.31459107134E+03  0.75527579914E+03  0.82592847217E+03  0.75584980207E+02 0.  0.
        254    2    1    2    0    0  0.83878942296E+02  0.31459107134E+03 -0.15273433813E+04  0.17995884093E+04  0.89428039186E+03 0.  0.
         23    2    4    4    0    0 -0.90719579598E+02  0.55655593538E+03 -0.63357285316E+03  0.85306758261E+03  0.91242473163E+02 0.  0.
         23    2    4    4    0    0  0.17459852189E+03 -0.24196486404E+03 -0.89377052814E+03  0.94652082666E+03  0.89689905040E+02 0.  0.
          4    1    3    3  502    0 -0.44975049814E+02 -0.11973051355E+03  0.21369551214E+03  0.24904602564E+03  0.00000000000E+00 0. -1.
         -3    1    3    3    0  502 -0.38903892482E+02 -0.19486055779E+03  0.54158028701E+03  0.57688244652E+03  0.00000000000E+00 0.  1.
         11    1    5    5    0    0 -0.51114023393E+02  0.22373631679E+03 -0.32223645913E+03  0.39560955301E+03  0.00000000000E+00 0.  1.
        -11    1    5    5    0    0 -0.39605556205E+02  0.33281961859E+03 -0.31133639404E+03  0.45745802960E+03  0.00000000000E+00 0. -1.
          4    1    6    6  503    0  0.16469260070E+03 -0.16756785903E+03 -0.71572532077E+03  0.75330297683E+03  0.00000000000E+00 0. -1.
         -4    1    6    6    0  503  0.99059211903E+01 -0.74397005010E+02 -0.17804520736E+03  0.19321784983E+03  0.00000000000E+00 0.  1.
<mgrwt>
<rscale>  0 0.25094323E+04</rscale>
<asrwt>0</asrwt>
<pdfrwt beam="1">  1        2 0.26135265E+00 0.25094323E+04</pdfrwt>
<pdfrwt beam="2">  1       -1 0.14257302E+00 0.25094323E+04</pdfrwt>
<totfact> 0.39819908E+00</totfact>
</mgrwt>
</event>
<event>
12    6  0.1647231E-007  0.1786401E+04  0.7818608E-02  0.8713565E-01
         -1   -1    0    0    0  501 -0.00000000000E+00  0.00000000000E+00  0.53968381818E+03  0.53968381818E+03  0.00000000000E+00 0.  1.
          2   -1    0    0  501    0  0.00000000000E+00 -0.00000000000E+00 -0.14782864641E+04  0.14782864641E+04  0.00000000000E+00 0. -1.
         24    2    1    2    0    0  0.57483872177E+03 -0.14611643099E+03 -0.69248628034E+03  0.91526090532E+03  0.79848036279E+02 0.  0.
        254    2    1    2    0    0 -0.57483872177E+03  0.14611643099E+03 -0.24611636556E+03  0.11027093769E+04  0.89644025855E+03 0.  0.
         23    2    4    4    0    0 -0.26284195282E+03  0.32934418699E+03  0.23735347743E+03  0.49198943860E+03  0.90351805650E+02 0.  0.
         23    2    4    4    0    0 -0.31199676895E+03 -0.18322775600E+03 -0.48346984299E+03  0.61071993834E+03  0.91221486524E+02 0.  0.
          4    1    3    3  502    0  0.37217051082E+03 -0.98465060401E+02 -0.38956348834E+03  0.54769149044E+03  0.00000000000E+00 0. -1.
         -3    1    3    3    0  502  0.20266821095E+03 -0.47651370588E+02 -0.30292279199E+03  0.36756941488E+03  0.00000000000E+00 0.  1.
         11    1    5    5    0    0 -0.11621515926E+03  0.11556573138E+03  0.47394826027E+02  0.17060970384E+03  0.00000000000E+00 0.  1.
        -11    1    5    5    0    0 -0.14662679356E+03  0.21377845561E+03  0.18995865140E+03  0.32137973476E+03  0.00000000000E+00 0. -1.
          3    1    6    6  503    0 -0.31171037022E+03 -0.18318939688E+03 -0.48735446107E+03  0.60682458813E+03  0.00000000000E+00 0. -1.
         -3    1    6    6    0  503 -0.28639872774E+00 -0.38359116021E-01  0.38846180793E+01  0.38953502121E+01  0.00000000000E+00 0.  1.
<mgrwt>
<rscale>  0 0.17864012E+04</rscale>
<asrwt>0</asrwt>
<pdfrwt beam="1">  1        2 0.22742868E+00 0.17864012E+04</pdfrwt>
<pdfrwt beam="2">  1       -1 0.83028281E-01 0.17864012E+04</pdfrwt>
<totfact> 0.20256863E+01</totfact>
</mgrwt>
</event>
<event>
12    6  0.1647231E-007  0.1575843E+04  0.7818608E-02  0.8835527E-01
         -1   -1    0    0    0  501 -0.00000000000E+00  0.00000000000E+00  0.40741202501E+03  0.40741202501E+03  0.00000000000E+00 0.  1.
          2   -1    0    0  501    0  0.00000000000E+00 -0.00000000000E+00 -0.15238150608E+04  0.15238150608E+04  0.00000000000E+00 0. -1.
         24    2    1    2    0    0 -0.91037074941E+02  0.24682629927E+03  0.17943980458E+03  0.32811343817E+03  0.79049439019E+02 0.  0.
        254    2    1    2    0    0  0.91037074941E+02 -0.24682629927E+03 -0.12958428404E+04  0.16031136477E+04  0.90639601129E+03 0.  0.
         23    2    4    4    0    0  0.12880920981E+03 -0.56960152457E+03 -0.68212089137E+03  0.90232688456E+03  0.88697163625E+02 0.  0.
         23    2    4    4    0    0 -0.37772134866E+02  0.32277522530E+03 -0.61372194902E+03  0.70078676309E+03  0.94004661458E+02 0.  0.
          4    1    3    3  502    0 -0.47176057481E+02  0.37458448863E+02  0.48212077670E+02  0.77156465859E+02  0.00000000000E+00 0. -1.
         -3    1    3    3    0  502 -0.43861017460E+02  0.20936785041E+03  0.13122772691E+03  0.25095697231E+03  0.00000000000E+00 0.  1.
         11    1    5    5    0    0  0.14008706321E+03 -0.48800524342E+03 -0.57234924104E+03  0.76508637199E+03  0.00000000000E+00 0. -1.
        -11    1    5    5    0    0 -0.11277853405E+02 -0.81596281155E+02 -0.10977165033E+03  0.13724051257E+03  0.00000000000E+00 0.  1.
          1    1    6    6  503    0 -0.19416266626E+02  0.27761945628E+03 -0.44230145814E+03  0.52257069741E+03  0.00000000000E+00 0. -1.
         -1    1    6    6    0  503 -0.18355868240E+02  0.45155769017E+02 -0.17142049088E+03  0.17821606568E+03  0.00000000000E+00 0.  1.
<mgrwt>
<rscale>  0 0.15758434E+04</rscale>
<asrwt>0</asrwt>
<pdfrwt beam="1">  1        2 0.23443309E+00 0.15758434E+04</pdfrwt>
<pdfrwt beam="2">  1       -1 0.62678773E-01 0.15758434E+04</pdfrwt>
<totfact> 0.34780525E+01</totfact>
</mgrwt>
</event>
<event>
12    6  0.1647231E-007  0.1640321E+04  0.7818608E-02  0.8796153E-01
          2   -1    0    0  501    0  0.00000000000E+00  0.00000000000E+00  0.22460150405E+04  0.22460150405E+04  0.00000000000E+00 0. -1.
         -1   -1    0    0    0  501 -0.00000000000E+00 -0.00000000000E+00 -0.29949175228E+03  0.29949175228E+03  0.00000000000E+00 0.  1.
         24    2    1    2    0    0 -0.15950364869E+03 -0.49055659876E+03  0.30346709260E+03  0.60457590168E+03  0.85630333810E+02 0.  0.
        254    2    1    2    0    0  0.15950364869E+03  0.49055659876E+03  0.16430561957E+04  0.19409308911E+04  0.89526078410E+03 0.  0.
         23    2    4    4    0    0  0.28882193245E+03  0.38333266390E+03  0.16765073466E+04  0.17462751666E+04  0.91858774002E+02 0.  0.
         23    2    4    4    0    0 -0.12931828376E+03  0.10722393486E+03 -0.33451150927E+02  0.19465572456E+03  0.92475298786E+02 0.  0.
          2    1    3    3  502    0 -0.10414123234E+02 -0.35676619083E+01 -0.12501767052E+01  0.11079039489E+02  0.00000000000E+00 0. -1.
         -3    1    3    3    0  502 -0.14908952546E+03 -0.48698893685E+03  0.30471726931E+03  0.59349686219E+03  0.00000000000E+00 0.  1.
         11    1    5    5    0    0  0.53593896145E+02  0.11373483882E+03  0.33311144480E+03  0.35604937006E+03  0.00000000000E+00 0. -1.
        -11    1    5    5    0    0  0.23522803630E+03  0.26959782509E+03  0.13433959018E+04  0.13902257965E+04  0.00000000000E+00 0.  1.
          1    1    6    6  503    0 -0.18375481047E+02  0.19344659052E+02  0.29482656295E+02  0.39763062756E+02  0.00000000000E+00 0. -1.
         -1    1    6    6    0  503 -0.11094280271E+03  0.87879275807E+02 -0.62933807222E+02  0.15489266181E+03  0.00000000000E+00 0.  1.
<mgrwt>
<rscale>  0 0.16403207E+04</rscale>
<asrwt>0</asrwt>
<pdfrwt beam="1">  1        2 0.34554077E+00 0.16403207E+04</pdfrwt>
<pdfrwt beam="2">  1       -1 0.46075656E-01 0.16403207E+04</pdfrwt>
<totfact> 0.24833032E+01</totfact>
</mgrwt>
</event>
<event>
12    6  0.1647231E-007  0.2957241E+04  0.7818608E-02  0.8256047E-01
         -1   -1    0    0    0  501 -0.00000000000E+00  0.00000000000E+00  0.13917993884E+04  0.13917993884E+04  0.00000000000E+00 0.  1.
          2   -1    0    0  501    0  0.00000000000E+00 -0.00000000000E+00 -0.15708577194E+04  0.15708577194E+04  0.00000000000E+00 0. -1.
         24    2    1    2    0    0  0.93186875082E+03  0.47975914958E+03  0.75785668244E+03  0.12958684822E+04  0.79875914789E+02 0.  0.
        254    2    1    2    0    0 -0.93186875082E+03 -0.47975914958E+03 -0.93691501338E+03  0.16667886255E+04  0.89544758058E+03 0.  0.
         23    2    4    4    0    0 -0.22255012804E+03 -0.57140477248E+03 -0.62891918967E+03  0.88279583089E+03  0.88074731857E+02 0.  0.
         23    2    4    4    0    0 -0.70931862278E+03  0.91645622903E+02 -0.30799582371E+03  0.78399279465E+03  0.90837469280E+02 0.  0.
          2    1    3    3  502    0  0.31354471306E+03  0.17950013463E+03  0.30406264824E+03  0.47221253634E+03  0.00000000000E+00 0. -1.
         -1    1    3    3    0  502  0.61832403777E+03  0.30025901495E+03  0.45379403420E+03  0.82365594590E+03  0.00000000000E+00 0.  1.
         11    1    5    5    0    0 -0.18838295392E+03 -0.53252840873E+03 -0.59753605609E+03  0.82226758525E+03  0.00000000000E+00 0. -1.
        -11    1    5    5    0    0 -0.34167174126E+02 -0.38876363757E+02 -0.31383133580E+02  0.60528245638E+02  0.00000000000E+00 0.  1.
          3    1    6    6  503    0 -0.30125877391E+03 -0.54767731493E+01 -0.13770810235E+03  0.33128592689E+03  0.00000000000E+00 0. -1.
         -3    1    6    6    0  503 -0.40805984887E+03  0.97122396053E+02 -0.17028772137E+03  0.45270686776E+03  0.00000000000E+00 0.  1.
<mgrwt>
<rscale>  0 0.29572412E+04</rscale>
<asrwt>0</asrwt>
<pdfrwt beam="1">  1        2 0.24167042E+00 0.29572412E+04</pdfrwt>
<pdfrwt beam="2">  1       -1 0.21412298E+00 0.29572412E+04</pdfrwt>
<totfact> 0.13652081E+00</totfact>
</mgrwt>
</event>
<event>
12    6  0.1647231E-007  0.1692126E+04  0.7818608E-02  0.8765868E-01
         -1   -1    0    0    0  501 -0.00000000000E+00  0.00000000000E+00  0.25041936779E+03  0.25041936779E+03  0.00000000000E+00 0.  1.
          2   -1    0    0  501    0  0.00000000000E+00 -0.00000000000E+00 -0.28584955566E+04  0.28584955566E+04  0.00000000000E+00 0. -1.
         24    2    1    2    0    0  0.15493356849E+03 -0.57800580938E+03 -0.10595286272E+04  0.12193608900E+04  0.78389680478E+02 0.  0.
        254    2    1    2    0    0 -0.15493356849E+03  0.57800580938E+03 -0.15485475617E+04  0.18895540344E+04  0.90239668210E+03 0.  0.
         23    2    4    4    0    0  0.29333424457E+03  0.89826235010E+02 -0.18788907234E+03  0.37328413631E+03  0.99624351354E+02 0.  0.
         23    2    4    4    0    0 -0.44826781306E+03  0.48817957437E+03 -0.13606584893E+04  0.15162698981E+04  0.91758107071E+02 0.  0.
          4    1    3    3  502    0  0.34100025351E+02 -0.16534020321E+03 -0.23376292401E+03  0.28834926594E+03  0.00000000000E+00 0. -1.
         -3    1    3    3    0  502  0.12083354314E+03 -0.41266560617E+03 -0.82576570318E+03  0.93101162410E+03  0.00000000000E+00 0.  1.
         11    1    5    5    0    0  0.42081064889E+02 -0.15350495716E+02 -0.47131195164E+01  0.45040728640E+02  0.00000000000E+00 0.  1.
        -11    1    5    5    0    0  0.25125317968E+03  0.10517673073E+03 -0.18317595282E+03  0.32824340767E+03  0.00000000000E+00 0. -1.
          2    1    6    6  503    0 -0.16572913046E+03  0.14137815155E+03 -0.37131342325E+03  0.43049690441E+03  0.00000000000E+00 0. -1.
         -2    1    6    6    0  503 -0.28253868260E+03  0.34680142282E+03 -0.98934506607E+03  0.10857729937E+04  0.00000000000E+00 0.  1.
<mgrwt>
<rscale>  0 0.16921261E+04</rscale>
<asrwt>0</asrwt>
<pdfrwt beam="1">  1        2 0.43976856E+00 0.16921261E+04</pdfrwt>
<pdfrwt beam="2">  1       -1 0.38526055E-01 0.16921261E+04</pdfrwt>
<totfact> 0.15124684E+01</totfact>
</mgrwt>
</event>
<event>
12    6  0.1647231E-007  0.1410153E+04  0.7818608E-02  0.8946502E-01
          2   -1    0    0  501    0  0.00000000000E+00  0.00000000000E+00  0.24982904199E+04  0.24982904199E+04  0.00000000000E+00 0. -1.
         -1   -1    0    0    0  501 -0.00000000000E+00 -0.00000000000E+00 -0.19898909570E+03  0.19898909570E+03  0.00000000000E+00 0.  1.
         24    2    1    2    0    0 -0.21332571236E+02  0.25874411707E+03  0.68825962842E+02  0.28030581812E+03  0.80191906049E+02 0.  0.
        254    2    1    2    0    0  0.21332571236E+02 -0.25874411707E+03  0.22304753614E+04  0.24169736975E+04  0.89405700040E+03 0.  0.
         23    2    4    4    0    0  0.81792440090E+02 -0.57393185075E+03  0.15885238143E+04  0.16934983197E+04  0.91874249093E+02 0.  0.
         23    2    4    4    0    0 -0.60459868854E+02  0.31518773368E+03  0.64195154713E+03  0.72347537785E+03  0.91192819299E+02 0.  0.
          2    1    3    3  502    0 -0.32446542996E+02  0.44045259184E+02  0.28081629263E+02  0.61492608589E+02  0.00000000000E+00 0. -1.
         -1    1    3    3    0  502  0.11113971760E+02  0.21469885788E+03  0.40744333579E+02  0.21881320953E+03  0.00000000000E+00 0.  1.
         11    1    5    5    0    0  0.68749340557E+02 -0.46128176769E+03  0.13715865300E+04  0.14487087182E+04  0.00000000000E+00 0. -1.
        -11    1    5    5    0    0  0.13043099534E+02 -0.11265008306E+03  0.21693728426E+03  0.24478960141E+03  0.00000000000E+00 0.  1.
          2    1    6    6  503    0  0.14156278773E+02  0.14719871259E+03  0.32539150898E+03  0.35741781619E+03  0.00000000000E+00 0.  1.
         -2    1    6    6    0  503 -0.74616147627E+02  0.16798902109E+03  0.31656003816E+03  0.36605756166E+03  0.00000000000E+00 0. -1.
<mgrwt>
<rscale>  0 0.14101525E+04</rscale>
<asrwt>0</asrwt>
<pdfrwt beam="1">  1        2 0.38435235E+00 0.14101525E+04</pdfrwt>
<pdfrwt beam="2">  1       -1 0.30613709E-01 0.14101525E+04</pdfrwt>
<totfact> 0.38191119E+01</totfact>
</mgrwt>
</event>
<event>
12    6  0.1647231E-007  0.5651805E+04  0.7818608E-02  0.7735139E-01
         -1   -1    0    0    0  501 -0.00000000000E+00  0.00000000000E+00  0.23277666689E+04  0.23277666689E+04  0.00000000000E+00 0.  1.
          2   -1    0    0  501    0  0.00000000000E+00 -0.00000000000E+00 -0.34306381430E+04  0.34306381430E+04  0.00000000000E+00 0. -1.
         24    2    1    2    0    0  0.24474588241E+04  0.99297040011E+03  0.24594249191E+03  0.26538533546E+04  0.80031289730E+02 0.  0.
        254    2    1    2    0    0 -0.24474588241E+04 -0.99297040011E+03 -0.13488139660E+04  0.31045514573E+04  0.91809352756E+03 0.  0.
         23    2    4    4    0    0 -0.56940812356E+03  0.11878637680E+03 -0.12922210413E+03  0.60276486865E+03  0.91056686696E+02 0.  0.
         23    2    4    4    0    0 -0.18780507005E+04 -0.11117567769E+04 -0.12195918618E+04  0.25017865887E+04  0.91947056030E+02 0.  0.
          4    1    3    3  502    0  0.88534722830E+03  0.38856514814E+03  0.62600233082E+02  0.96888666943E+03  0.00000000000E+00 0. -1.
         -3    1    3    3    0  502  0.15621115958E+04  0.60440525197E+03  0.18334225882E+03  0.16849666852E+04  0.00000000000E+00 0.  1.
         11    1    5    5    0    0 -0.40486426937E+03  0.12473401994E+03 -0.82362718029E+02  0.43157533486E+03  0.00000000000E+00 0. -1.
        -11    1    5    5    0    0 -0.16454385419E+03 -0.59476431466E+01 -0.46859386102E+02  0.17118953379E+03  0.00000000000E+00 0.  1.
          4    1    6    6  503    0 -0.10718912649E+04 -0.63059194206E+03 -0.64281179800E+03  0.13999300300E+04  0.00000000000E+00 0. -1.
         -4    1    6    6    0  503 -0.80615943561E+03 -0.48116483485E+03 -0.57678006384E+03  0.11018565587E+04  0.00000000000E+00 0.  1.
<mgrwt>
<rscale>  0 0.56518051E+04</rscale>
<asrwt>0</asrwt>
<pdfrwt beam="1">  1        2 0.52779048E+00 0.56518051E+04</pdfrwt>
<pdfrwt beam="2">  1       -1 0.35811795E+00 0.56518051E+04</pdfrwt>
<totfact> 0.97820836E-03</totfact>
</mgrwt>
</event>
<event>
12    6  0.1647231E-007  0.2645890E+04  0.7818608E-02  0.8352778E-01
         -1   -1    0    0    0  501 -0.00000000000E+00  0.00000000000E+00  0.84061550192E+03  0.84061550192E+03  0.00000000000E+00 0.  1.
          2   -1    0    0  501    0  0.00000000000E+00 -0.00000000000E+00 -0.20820264102E+04  0.20820264102E+04  0.00000000000E+00 0. -1.
         24    2    1    2    0    0  0.10687021481E+04  0.43742446602E+03 -0.40846676011E+03  0.12276807837E+04  0.83009443411E+02 0.  0.
        254    2    1    2    0    0 -0.10687021481E+04 -0.43742446602E+03 -0.83294414820E+03  0.16949611284E+04  0.91958296413E+03 0.  0.
         23    2    4    4    0    0 -0.12044987783E+04 -0.29426125310E+03 -0.61677241214E+03  0.13878736467E+04  0.91531736766E+02 0.  0.
         23    2    4    4    0    0  0.13579663015E+03 -0.14316321292E+03 -0.21617173606E+03  0.30708748172E+03  0.92930466827E+02 0.  0.
          4    1    3    3  502    0  0.35888928562E+03  0.13579445674E+03 -0.96019356619E+02  0.39555198225E+03  0.00000000000E+00 0. -1.
         -3    1    3    3    0  502  0.70981286253E+03  0.30163000928E+03 -0.31244740349E+03  0.83212880148E+03  0.00000000000E+00 0.  1.
         11    1    5    5    0    0 -0.18103112317E+02 -0.16665778215E+02 -0.16219091457E+02  0.29470829082E+02  0.00000000000E+00 0. -1.
        -11    1    5    5    0    0 -0.11863956660E+04 -0.27759547488E+03 -0.60055332069E+03  0.13584028176E+04  0.00000000000E+00 0.  1.
          2    1    6    6  503    0  0.19548360810E+02  0.36536016182E+00 -0.66628557488E+02  0.69438005237E+02  0.00000000000E+00 0. -1.
         -2    1    6    6    0  503  0.11624826934E+03 -0.14352857308E+03 -0.14954317857E+03  0.23764947648E+03  0.00000000000E+00 0.  1.
<mgrwt>
<rscale>  0 0.26458902E+04</rscale>
<asrwt>0</asrwt>
<pdfrwt beam="1">  1        2 0.32031175E+00 0.26458902E+04</pdfrwt>
<pdfrwt beam="2">  1       -1 0.12932546E+00 0.26458902E+04</pdfrwt>
<totfact> 0.30973929E+00</totfact>
</mgrwt>
</event>
<event>
12    6  0.1647231E-007  0.1983654E+04  0.7818608E-02  0.8614301E-01
         -1   -1    0    0    0  501 -0.00000000000E+00  0.00000000000E+00  0.50506301583E+03  0.50506301583E+03  0.00000000000E+00 0.  1.
          2   -1    0    0  501    0  0.00000000000E+00 -0.00000000000E+00 -0.19477180751E+04  0.19477180751E+04  0.00000000000E+00 0. -1.
         24    2    1    2    0    0 -0.61663746102E+03  0.36008722616E+03 -0.22263236976E+03  0.75500651400E+03  0.10278664963E+03 0.  0.
        254    2    1    2    0    0  0.61663746102E+03 -0.36008722616E+03 -0.12200226895E+04  0.16977745769E+04  0.94025453061E+03 0.  0.
         23    2    4    4    0    0  0.10507572611E+03  0.25586289845E+03 -0.78521394152E+02  0.30054216089E+03  0.87482856101E+02 0.  0.
         23    2    4    4    0    0  0.51156173491E+03 -0.61595012462E+03 -0.11415012953E+04  0.13972324160E+04  0.90239971573E+02 0.  0.
          2    1    3    3  502    0 -0.33426583603E+03  0.18195589635E+03 -0.66133616967E+02  0.38628390161E+03  0.00000000000E+00 0. -1.
         -1    1    3    3    0  502 -0.28237162499E+03  0.17813132981E+03 -0.15649875279E+03  0.36872261239E+03  0.00000000000E+00 0.  1.
         11    1    5    5    0    0  0.32993636718E+01  0.36638917236E+01 -0.22289942947E+02  0.22828741967E+02  0.00000000000E+00 0. -1.
        -11    1    5    5    0    0  0.10177636244E+03  0.25219900673E+03 -0.56231451205E+02  0.27771341893E+03  0.00000000000E+00 0.  1.
          1    1    6    6  503    0  0.14088983543E+03 -0.17324336468E+03 -0.39166818505E+03  0.45085161230E+03  0.00000000000E+00 0. -1.
         -1    1    6    6    0  503  0.37067189949E+03 -0.44270675994E+03 -0.74983311027E+03  0.94638080371E+03  0.00000000000E+00 0.  1.
<mgrwt>
<rscale>  0 0.19836536E+04</rscale>
<asrwt>0</asrwt>
<pdfrwt beam="1">  1        2 0.29964893E+00 0.19836536E+04</pdfrwt>
<pdfrwt beam="2">  1       -1 0.77702004E-01 0.19836536E+04</pdfrwt>
<totfact> 0.12557221E+01</totfact>
</mgrwt>
</event>
<event>
12    6  0.1647231E-007  0.1163314E+04  0.7818608E-02  0.9145588E-01
         -1   -1    0    0    0  501 -0.00000000000E+00  0.00000000000E+00  0.69684643729E+03  0.69684643729E+03  0.00000000000E+00 0.  1.
          2   -1    0    0  501    0  0.00000000000E+00 -0.00000000000E+00 -0.48550832927E+03  0.48550832927E+03  0.00000000000E+00 0. -1.
         24    2    1    2    0    0 -0.18459028584E+03 -0.60384617765E+02 -0.12444273187E+03  0.24376095778E+03  0.78825981341E+02 0.  0.
        254    2    1    2    0    0  0.18459028584E+03  0.60384617765E+02  0.33578083989E+03  0.93859380879E+03  0.85468689575E+03 0.  0.
         23    2    4    4    0    0  0.34685577539E+03  0.26332513836E+03 -0.65808138896E+02  0.45159807347E+03  0.99805067011E+02 0.  0.
         23    2    4    4    0    0 -0.16226548955E+03 -0.20294052060E+03  0.40158897879E+03  0.48699573531E+03  0.91521551179E+02 0.  0.
          2    1    3    3  502    0 -0.18507627377E+03 -0.56992109454E+02 -0.13274311935E+03  0.23478088378E+03  0.00000000000E+00 0. -1.
         -1    1    3    3    0  502  0.48598792956E+00 -0.33925083109E+01  0.83003874763E+01  0.89800740066E+01  0.00000000000E+00 0.  1.
         11    1    5    5    0    0  0.27730584084E+03  0.25350599512E+03 -0.65339361804E+02  0.38135685536E+03  0.00000000000E+00 0.  1.
        -11    1    5    5    0    0  0.69549934551E+02  0.98191432403E+01 -0.46877709206E+00  0.70241218113E+02  0.00000000000E+00 0. -1.
          2    1    6    6  503    0 -0.14900293227E+03 -0.20314213693E+03  0.33532910355E+03  0.41942127903E+03  0.00000000000E+00 0.  1.
         -2    1    6    6    0  503 -0.13262557284E+02  0.20161632928E+00  0.66259875239E+02  0.67574456280E+02  0.00000000000E+00 0. -1.
<mgrwt>
<rscale>  0 0.11633138E+04</rscale>
<asrwt>0</asrwt>
<pdfrwt beam="1">  1        2 0.74693589E-01 0.11633138E+04</pdfrwt>
<pdfrwt beam="2">  1       -1 0.10720714E+00 0.11633138E+04</pdfrwt>
<totfact> 0.58482313E+01</totfact>
</mgrwt>
</event>
<event>
12    6  0.1647231E-007  0.3740729E+04  0.7818608E-02  0.8058995E-01
          2   -1    0    0  501    0  0.00000000000E+00  0.00000000000E+00  0.11007186250E+04  0.11007186250E+04  0.00000000000E+00 0. -1.
         -1   -1    0    0    0  501 -0.00000000000E+00 -0.00000000000E+00 -0.31781634810E+04  0.31781634810E+04  0.00000000000E+00 0.  1.
         24    2    1    2    0    0 -0.16379643634E+04 -0.49462266079E+03 -0.14591258667E+04  0.22500878098E+04  0.79170859067E+02 0.  0.
        254    2    1    2    0    0  0.16379643634E+04  0.49462266079E+03 -0.61831898935E+03  0.20287942962E+04  0.89783578197E+03 0.  0.
         23    2    4    4    0    0  0.13463154526E+03  0.37767273769E+03 -0.22058837664E+03  0.46662967197E+03  0.91223182819E+02 0.  0.
         23    2    4    4    0    0  0.15033328181E+04  0.11694992310E+03 -0.39773061270E+03  0.15621646242E+04  0.92096831126E+02 0.  0.
          4    1    3    3  502    0 -0.12059572566E+04 -0.39477462605E+03 -0.11054424300E+04  0.16829090516E+04  0.00000000000E+00 0. -1.
         -3    1    3    3    0  502 -0.43200710682E+03 -0.99848034735E+02 -0.35368343667E+03  0.56717875821E+03  0.00000000000E+00 0.  1.
         11    1    5    5    0    0  0.15167380787E+02  0.10842977725E+02  0.55395144979E+01  0.19450085521E+02  0.00000000000E+00 0. -1.
        -11    1    5    5    0    0  0.11946416447E+03  0.36682975996E+03 -0.22612789114E+03  0.44717958645E+03  0.00000000000E+00 0.  1.
          3    1    6    6  503    0  0.64717124098E+02 -0.13654738339E+02 -0.18629875555E+02  0.68715575336E+02  0.00000000000E+00 0. -1.
         -3    1    6    6    0  503  0.14386156940E+04  0.13060466144E+03 -0.37910073715E+03  0.14934490489E+04  0.00000000000E+00 0.  1.
<mgrwt>
<rscale>  0 0.37407292E+04</rscale>
<asrwt>0</asrwt>
<pdfrwt beam="1">  1        2 0.16934133E+00 0.37407292E+04</pdfrwt>
<pdfrwt beam="2">  1       -1 0.48894822E+00 0.37407292E+04</pdfrwt>
<totfact> 0.35168933E-02</totfact>
</mgrwt>
</event>
<event>
12    6  0.1647231E-007  0.1613290E+04  0.7818608E-02  0.8812425E-01
         -1   -1    0    0    0  501 -0.00000000000E+00  0.00000000000E+00  0.43157729629E+03  0.43157729629E+03  0.00000000000E+00 0.  1.
          2   -1    0    0  501    0  0.00000000000E+00 -0.00000000000E+00 -0.15076699384E+04  0.15076699384E+04  0.00000000000E+00 0. -1.
         24    2    1    2    0    0 -0.28292752028E+03  0.43255563620E+03 -0.59773015559E+03  0.79430068897E+03  0.80497735673E+02 0.  0.
        254    2    1    2    0    0  0.28292752028E+03 -0.43255563620E+03 -0.47836248652E+03  0.11449465457E+04  0.90272895373E+03 0.  0.
         23    2    4    4    0    0 -0.28870504105E+03 -0.21463068824E+03 -0.35603417772E+03  0.51443735798E+03  0.92024597346E+02 0.  0.
         23    2    4    4    0    0  0.57163256133E+03 -0.21792494796E+03 -0.12232830880E+03  0.63050918775E+03  0.91228025214E+02 0.  0.
          2    1    3    3  502    0 -0.17120740371E+03  0.29969653084E+03 -0.44439846677E+03  0.56268995277E+03  0.00000000000E+00 0. -1.
         -1    1    3    3    0  502 -0.11172011657E+03  0.13285910536E+03 -0.15333168882E+03  0.23161073620E+03  0.00000000000E+00 0.  1.
         11    1    5    5    0    0 -0.23722329954E+03 -0.18133929812E+03 -0.23956951075E+03  0.38282161037E+03  0.00000000000E+00 0.  1.
        -11    1    5    5    0    0 -0.51481741506E+02 -0.33291390118E+02 -0.11646466697E+03  0.13161574760E+03  0.00000000000E+00 0. -1.
          2    1    6    6  503    0  0.54041044560E+02 -0.27378145665E+01  0.88345962460E+01  0.54826820230E+02  0.00000000000E+00 0. -1.
         -2    1    6    6    0  503  0.51759151677E+03 -0.21518713339E+03 -0.13116290505E+03  0.57568236752E+03  0.00000000000E+00 0.  1.
<mgrwt>
<rscale>  0 0.16132900E+04</rscale>
<asrwt>0</asrwt>
<pdfrwt beam="1">  1        2 0.23194922E+00 0.16132900E+04</pdfrwt>
<pdfrwt beam="2">  1       -1 0.66396507E-01 0.16132900E+04</pdfrwt>
<totfact> 0.31533003E+01</totfact>
</mgrwt>
</event>
<event>
12    6  0.1647231E-007  0.2340127E+04  0.7818608E-02  0.8462266E-01
         -1   -1    0    0    0  501 -0.00000000000E+00  0.00000000000E+00  0.10344831887E+04  0.10344831887E+04  0.00000000000E+00 0.  1.
          2   -1    0    0  501    0  0.00000000000E+00 -0.00000000000E+00 -0.13234126991E+04  0.13234126991E+04  0.00000000000E+00 0. -1.
         24    2    1    2    0    0  0.89576907112E+03  0.16778081996E+03 -0.52592585184E+03  0.10551250256E+04  0.78346573858E+02 0.  0.
        254    2    1    2    0    0 -0.89576907112E+03 -0.16778081996E+03  0.23699634138E+03  0.13027708623E+04  0.90027330373E+03 0.  0.
         23    2    4    4    0    0 -0.25659509216E+03 -0.13165332948E+03  0.51594227594E+03  0.59864319566E+03  0.94887318065E+02 0.  0.
         23    2    4    4    0    0 -0.63917397896E+03 -0.36127490482E+02 -0.27894593456E+03  0.70412766660E+03  0.90201804400E+02 0.  0.
          2    1    3    3  502    0  0.68794145189E+03  0.15826860669E+03 -0.38805065748E+03  0.80554062956E+03  0.00000000000E+00 0. -1.
         -1    1    3    3    0  502  0.20782761923E+03  0.95122132647E+01 -0.13787519435E+03  0.24958439601E+03  0.00000000000E+00 0.  1.
         11    1    5    5    0    0 -0.19005932330E+03 -0.10078640829E+03  0.45495287151E+03  0.50325198634E+03  0.00000000000E+00 0. -1.
        -11    1    5    5    0    0 -0.66535768867E+02 -0.30866921189E+02  0.60989404429E+02  0.95391209318E+02  0.00000000000E+00 0.  1.
          1    1    6    6  503    0 -0.60110784328E+03 -0.46340743405E+02 -0.24056466419E+03  0.64911436698E+03  0.00000000000E+00 0. -1.
         -1    1    6    6    0  503 -0.38066135674E+02  0.10213252922E+02 -0.38381270367E+02  0.55013299623E+02  0.00000000000E+00 0.  1.
<mgrwt>
<rscale>  0 0.23401267E+04</rscale>
<asrwt>0</asrwt>
<pdfrwt beam="1">  1        2 0.20360195E+00 0.23401267E+04</pdfrwt>
<pdfrwt beam="2">  1       -1 0.15915126E+00 0.23401267E+04</pdfrwt>
<totfact> 0.48934461E+00</totfact>
</mgrwt>
</event>
<event>
12    6  0.1647231E-007  0.1846861E+04  0.7818608E-02  0.8681769E-01
         -1   -1    0    0    0  501 -0.00000000000E+00  0.00000000000E+00  0.67520282218E+03  0.67520282218E+03  0.00000000000E+00 0.  1.
          2   -1    0    0  501    0  0.00000000000E+00 -0.00000000000E+00 -0.12629148415E+04  0.12629148415E+04  0.00000000000E+00 0. -1.
         24    2    1    2    0    0 -0.22036273757E+03 -0.76725249332E+02  0.47116704343E+03  0.53203109237E+03  0.81315437862E+02 0.  0.
        254    2    1    2    0    0  0.22036273757E+03  0.76725249332E+02 -0.10588790627E+04  0.14060865713E+04  0.89521398362E+03 0.  0.
         23    2    4    4    0    0 -0.22252685488E+02 -0.75047998933E+02 -0.10958910965E+04  0.11024661938E+04  0.91252555816E+02 0.  0.
         23    2    4    4    0    0  0.24261542306E+03  0.15177324827E+03  0.37012033795E+02  0.30362037746E+03  0.94435589531E+02 0.  0.
          2    1    3    3  502    0 -0.11880902869E+03 -0.83520269317E+02  0.26985939456E+03  0.30645605479E+03  0.00000000000E+00 0. -1.
         -1    1    3    3    0  502 -0.10155370888E+03  0.67950199845E+01  0.20130764887E+03  0.22557503758E+03  0.00000000000E+00 0.  1.
         11    1    5    5    0    0  0.31507745001E+02 -0.57297831525E+01 -0.25151302213E+03  0.25354362289E+03  0.00000000000E+00 0.  1.
        -11    1    5    5    0    0 -0.53760430489E+02 -0.69318215781E+02 -0.84437807437E+03  0.84892257091E+03  0.00000000000E+00 0. -1.
          1    1    6    6  503    0  0.18033442101E+03  0.10750907162E+03 -0.16100368379E+02  0.21056572785E+03  0.00000000000E+00 0. -1.
         -1    1    6    6    0  503  0.62281002045E+02  0.44264176643E+02  0.53112402175E+02  0.93054649611E+02  0.00000000000E+00 0.  1.
<mgrwt>
<rscale>  0 0.18468608E+04</rscale>
<asrwt>0</asrwt>
<pdfrwt beam="1">  1        2 0.19429459E+00 0.18468608E+04</pdfrwt>
<pdfrwt beam="2">  1       -1 0.10387736E+00 0.18468608E+04</pdfrwt>
<totfact> 0.16269754E+01</totfact>
</mgrwt>
</event>
<event>
12    6  0.1647231E-007  0.1130541E+04  0.7818608E-02  0.9175925E-01
         -1   -1    0    0    0  501 -0.00000000000E+00  0.00000000000E+00  0.59677132892E+03  0.59677132892E+03  0.00000000000E+00 0.  1.
          2   -1    0    0  501    0  0.00000000000E+00 -0.00000000000E+00 -0.53543253877E+03  0.53543253877E+03  0.00000000000E+00 0. -1.
         24    2    1    2    0    0 -0.23836396772E+02 -0.17424471086E+03  0.71140569736E+02  0.20557563347E+03  0.79189439577E+02 0.  0.
        254    2    1    2    0    0  0.23836396772E+02  0.17424471086E+03 -0.98017795869E+01  0.92662823422E+03  0.90973315676E+03 0.  0.
         23    2    4    4    0    0  0.20026675374E+03 -0.32086835883E+03  0.40283358086E+02  0.39078727178E+03  0.89602826388E+02 0.  0.
         23    2    4    4    0    0 -0.17643035697E+03  0.49511306969E+03 -0.50085137673E+02  0.53584096244E+03  0.91391429442E+02 0.  0.
          2    1    3    3  502    0  0.57940879572E+01 -0.15027116049E+03  0.38100781823E+02  0.15513433761E+03  0.00000000000E+00 0. -1.
         -1    1    3    3    0  502 -0.29630484730E+02 -0.23973550371E+02  0.33039787914E+02  0.50441295860E+02  0.00000000000E+00 0.  1.
         11    1    5    5    0    0  0.13124339321E+03 -0.18130193839E+03  0.65158120014E+02  0.23311113600E+03  0.00000000000E+00 0.  1.
        -11    1    5    5    0    0  0.69023360533E+02 -0.13956642044E+03 -0.24874761928E+02  0.15767613578E+03  0.00000000000E+00 0. -1.
          3    1    6    6  503    0 -0.18621002305E+03  0.47915484976E+03 -0.53405068712E+02  0.51683231720E+03  0.00000000000E+00 0. -1.
         -3    1    6    6    0  503  0.97796660806E+01  0.15958219930E+02  0.33199310396E+01  0.19008645246E+02  0.00000000000E+00 0.  1.
<mgrwt>
<rscale>  0 0.11305411E+04</rscale>
<asrwt>0</asrwt>
<pdfrwt beam="1">  1        2 0.82374237E-01 0.11305411E+04</pdfrwt>
<pdfrwt beam="2">  1       -1 0.91810973E-01 0.11305411E+04</pdfrwt>
<totfact> 0.74465292E+01</totfact>
</mgrwt>
</event>
<event>
12    6  0.1647231E-007  0.2200856E+04  0.7818608E-02  0.8518072E-01
          2   -1    0    0  501    0  0.00000000000E+00  0.00000000000E+00  0.87922180858E+03  0.87922180858E+03  0.00000000000E+00 0. -1.
         -1   -1    0    0    0  501 -0.00000000000E+00 -0.00000000000E+00 -0.13772880606E+04  0.13772880606E+04  0.00000000000E+00 0.  1.
         24    2    1    2    0    0 -0.12438858556E+03  0.76904922395E+03 -0.69984380875E+03  0.10502087960E+04  0.79043844866E+02 0.  0.
        254    2    1    2    0    0  0.12438858556E+03 -0.76904922395E+03  0.20177755677E+03  0.12063010732E+04  0.89863166403E+03 0.  0.
         23    2    4    4    0    0 -0.19634261878E+03  0.52887966808E+02 -0.13199586764E+03  0.25850423623E+03  0.89743913954E+02 0.  0.
         23    2    4    4    0    0  0.32073120434E+03 -0.82193719076E+03  0.33377342441E+03  0.94779683693E+03  0.92004860004E+02 0.  0.
          4    1    3    3  502    0 -0.24609247111E+02  0.15266670917E+03 -0.98658774302E+02  0.18342925852E+03  0.00000000000E+00 0. -1.
         -3    1    3    3    0  502 -0.99779338454E+02  0.61638251478E+03 -0.60118503445E+03  0.86677953746E+03  0.00000000000E+00 0.  1.
         11    1    5    5    0    0 -0.91125344667E+01  0.97957142776E+01  0.12341369750E+02  0.18201750188E+02  0.00000000000E+00 0. -1.
        -11    1    5    5    0    0 -0.18723008431E+03  0.43092252530E+02 -0.14433723739E+03  0.24030248604E+03  0.00000000000E+00 0.  1.
          3    1    6    6  503    0  0.26204336882E+03 -0.74648469710E+03  0.28942708753E+03  0.84242161009E+03  0.00000000000E+00 0. -1.
         -3    1    6    6    0  503  0.58687835522E+02 -0.75452493658E+02  0.44346336886E+02  0.10537522685E+03  0.00000000000E+00 0.  1.
<mgrwt>
<rscale>  0 0.22008559E+04</rscale>
<asrwt>0</asrwt>
<pdfrwt beam="1">  1        2 0.13526489E+00 0.22008559E+04</pdfrwt>
<pdfrwt beam="2">  1       -1 0.21189047E+00 0.22008559E+04</pdfrwt>
<totfact> 0.39420323E+00</totfact>
</mgrwt>
</event>
<event>
12    6  0.1647231E-007  0.1247259E+04  0.7818608E-02  0.9072468E-01
          2   -1    0    0  501    0  0.00000000000E+00  0.00000000000E+00  0.15672182343E+04  0.15672182343E+04  0.00000000000E+00 0. -1.
         -1   -1    0    0    0  501 -0.00000000000E+00 -0.00000000000E+00 -0.24815544065E+03  0.24815544065E+03  0.00000000000E+00 0.  1.
         24    2    1    2    0    0  0.20075932714E+03 -0.14865501759E+03  0.53208088182E+03  0.59320602746E+03  0.79879312256E+02 0.  0.
        254    2    1    2    0    0 -0.20075932714E+03  0.14865501759E+03  0.78698191179E+03  0.12221676475E+04  0.90108301910E+03 0.  0.
         23    2    4    4    0    0 -0.27041723994E+03 -0.15801635599E+03 -0.45813598290E+02  0.32709799839E+03  0.82459458813E+02 0.  0.
         23    2    4    4    0    0  0.69657912802E+02  0.30667137358E+03  0.83279551008E+03  0.89506964906E+03  0.93283218608E+02 0.  0.
          2    1    3    3  502    0  0.19818578342E+03 -0.15606890215E+03  0.49816055601E+03  0.55838969057E+03  0.00000000000E+00 0. -1.
         -1    1    3    3    0  502  0.25735437225E+01  0.74138845590E+01  0.33920325807E+02  0.34816336889E+02  0.00000000000E+00 0.  1.
         11    1    5    5    0    0 -0.11899347282E+03 -0.23538236621E+02 -0.14203289296E+02  0.12212791894E+03  0.00000000000E+00 0. -1.
        -11    1    5    5    0    0 -0.15142376712E+03 -0.13447811937E+03 -0.31610308994E+02  0.20497007945E+03  0.00000000000E+00 0.  1.
          3    1    6    6  503    0  0.22936189158E+02  0.26101878444E+02  0.41042738940E+02  0.53776233143E+02  0.00000000000E+00 0. -1.
         -3    1    6    6    0  503  0.46721723644E+02  0.28056949513E+03  0.79175277114E+03  0.84129341592E+03  0.00000000000E+00 0.  1.
<mgrwt>
<rscale>  0 0.12472590E+04</rscale>
<asrwt>0</asrwt>
<pdfrwt beam="1">  1        2 0.24111049E+00 0.12472590E+04</pdfrwt>
<pdfrwt beam="2">  1       -1 0.38177761E-01 0.12472590E+04</pdfrwt>
<totfact> 0.86448282E+01</totfact>
</mgrwt>
</event>
<event>
12    6  0.1647231E-007  0.1755707E+04  0.7818608E-02  0.8730215E-01
         -1   -1    0    0    0  501 -0.00000000000E+00  0.00000000000E+00  0.54286578901E+03  0.54286578901E+03  0.00000000000E+00 0.  1.
          2   -1    0    0  501    0  0.00000000000E+00 -0.00000000000E+00 -0.14195534919E+04  0.14195534919E+04  0.00000000000E+00 0. -1.
         24    2    1    2    0    0 -0.41944471481E+03  0.39093644023E+03 -0.68069064035E+03  0.89355628924E+03  0.79611086540E+02 0.  0.
        254    2    1    2    0    0  0.41944471481E+03 -0.39093644023E+03 -0.19599706255E+03  0.10688629917E+04  0.88050444484E+03 0.  0.
         23    2    4    4    0    0  0.30623182842E+03 -0.66649339554E+03 -0.12571718812E+03  0.75052632110E+03  0.97434943607E+02 0.  0.
         23    2    4    4    0    0  0.11321288640E+03  0.27555695532E+03 -0.70279874425E+02  0.31833667058E+03  0.87465317805E+02 0.  0.
          2    1    3    3  502    0 -0.40222605162E+03  0.38160187631E+03 -0.67425318633E+03  0.87293937240E+03  0.00000000000E+00 0. -1.
         -1    1    3    3    0  502 -0.17218663199E+02  0.93345639181E+01 -0.64374540141E+01  0.20616916843E+02  0.00000000000E+00 0.  1.
         11    1    5    5    0    0  0.63328987220E+02 -0.74159152146E+02  0.27541847205E+01  0.97558833545E+02  0.00000000000E+00 0.  1.
        -11    1    5    5    0    0  0.24290284120E+03 -0.59233424340E+03 -0.12847137284E+03  0.65296748756E+03  0.00000000000E+00 0. -1.
          3    1    6    6  503    0  0.96248450623E+02  0.13271857410E+03 -0.58275752625E+02  0.17399438928E+03  0.00000000000E+00 0. -1.
         -3    1    6    6    0  503  0.16964435772E+02  0.14283838122E+03 -0.12004121800E+02  0.14434228130E+03  0.00000000000E+00 0.  1.
<mgrwt>
<rscale>  0 0.17557073E+04</rscale>
<asrwt>0</asrwt>
<pdfrwt beam="1">  1        2 0.21839284E+00 0.17557073E+04</pdfrwt>
<pdfrwt beam="2">  1       -1 0.83517816E-01 0.17557073E+04</pdfrwt>
<totfact> 0.21657076E+01</totfact>
</mgrwt>
</event>
<event>
12    6  0.1647231E-007  0.1798186E+04  0.7818608E-02  0.8707264E-01
         -1   -1    0    0    0  501 -0.00000000000E+00  0.00000000000E+00  0.50289022009E+03  0.50289022009E+03  0.00000000000E+00 0.  1.
          2   -1    0    0  501    0  0.00000000000E+00 -0.00000000000E+00 -0.16074455273E+04  0.16074455273E+04  0.00000000000E+00 0. -1.
         24    2    1    2    0    0  0.42111301613E+03  0.44544686830E+03 -0.72026527088E+03  0.94884653028E+03  0.75951252542E+02 0.  0.
        254    2    1    2    0    0 -0.42111301613E+03 -0.44544686830E+03 -0.38429003637E+03  0.11614892172E+04  0.90863594727E+03 0.  0.
         23    2    4    4    0    0 -0.23074814000E+03 -0.18433149801E+03  0.28017139485E+03  0.41708997010E+03  0.90803234489E+02 0.  0.
         23    2    4    4    0    0 -0.19036487612E+03 -0.26111537029E+03 -0.66446143122E+03  0.74439924705E+03  0.90560602752E+02 0.  0.
          4    1    3    3  502    0  0.38628875915E+03  0.43052063965E+03 -0.65928134728E+03  0.87705126503E+03  0.00000000000E+00 0. -1.
         -3    1    3    3    0  502  0.34824256979E+02  0.14926228650E+02 -0.60983923598E+02  0.71795265257E+02  0.00000000000E+00 0.  1.
         11    1    5    5    0    0 -0.15711542273E+03 -0.94798362274E+02  0.21999829547E+03  0.28648077694E+03  0.00000000000E+00 0.  1.
        -11    1    5    5    0    0 -0.73632717278E+02 -0.89533135740E+02  0.60173099380E+02  0.13060919316E+03  0.00000000000E+00 0. -1.
          3    1    6    6  503    0 -0.36352108166E+02 -0.56651418392E+02 -0.23486873544E+03  0.24432392814E+03  0.00000000000E+00 0. -1.
         -3    1    6    6    0  503 -0.15401276796E+03 -0.20446395190E+03 -0.42959269578E+03  0.50007531891E+03  0.00000000000E+00 0.  1.
<mgrwt>
<rscale>  0 0.17981865E+04</rscale>
<asrwt>0</asrwt>
<pdfrwt beam="1">  1        2 0.24729931E+00 0.17981865E+04</pdfrwt>
<pdfrwt beam="2">  1       -1 0.77367726E-01 0.17981865E+04</pdfrwt>
<totfact> 0.19897431E+01</totfact>
</mgrwt>
</event>
<event>
12    6  0.1647231E-007  0.2277229E+04  0.7818608E-02  0.8486954E-01
          2   -1    0    0  501    0  0.00000000000E+00  0.00000000000E+00  0.10173298717E+04  0.10173298717E+04  0.00000000000E+00 0. -1.
         -1   -1    0    0    0  501 -0.00000000000E+00 -0.00000000000E+00 -0.12743580775E+04  0.12743580775E+04  0.00000000000E+00 0.  1.
         24    2    1    2    0    0 -0.57989500073E+02  0.88082783453E+03  0.20294776219E+03  0.90937220424E+03  0.80929323956E+02 0.  0.
        254    2    1    2    0    0  0.57989500073E+02 -0.88082783453E+03 -0.45997596799E+03  0.13823157450E+04  0.95916550794E+03 0.  0.
         23    2    4    4    0    0 -0.10090886311E+03  0.17002980499E+03 -0.17290137423E+03  0.27772951130E+03  0.90255542754E+02 0.  0.
         23    2    4    4    0    0  0.15889836318E+03 -0.10508576395E+04 -0.28707459376E+03  0.11045862337E+04  0.90268804205E+02 0.  0.
          2    1    3    3  502    0 -0.38131992901E+02  0.82084915899E+03  0.20193953666E+03  0.84618376678E+03  0.00000000000E+00 0. -1.
         -1    1    3    3    0  502 -0.19857507172E+02  0.59978675536E+02  0.10082255322E+01  0.63188437462E+02  0.00000000000E+00 0.  1.
         11    1    5    5    0    0 -0.35837762104E+02  0.94824692525E+02 -0.34047610695E+02  0.10693599627E+03  0.00000000000E+00 0.  1.
        -11    1    5    5    0    0 -0.65071101005E+02  0.75205112461E+02 -0.13885376354E+03  0.17079351503E+03  0.00000000000E+00 0. -1.
          3    1    6    6  503    0  0.16139453193E+03 -0.84240513090E+03 -0.21834766173E+03  0.88508208709E+03  0.00000000000E+00 0. -1.
         -3    1    6    6    0  503 -0.24961687438E+01 -0.20845250861E+03 -0.68726932025E+02  0.21950414664E+03  0.00000000000E+00 0.  1.
<mgrwt>
<rscale>  0 0.22772286E+04</rscale>
<asrwt>0</asrwt>
<pdfrwt beam="1">  1        2 0.15651229E+00 0.22772286E+04</pdfrwt>
<pdfrwt beam="2">  1       -1 0.19605509E+00 0.22772286E+04</pdfrwt>
<totfact> 0.40759310E+00</totfact>
</mgrwt>
</event>
<event>
12    6  0.1647231E-007  0.1410786E+04  0.7818608E-02  0.8946048E-01
         -1   -1    0    0    0  501 -0.00000000000E+00  0.00000000000E+00  0.21122725370E+03  0.21122725370E+03  0.00000000000E+00 0.  1.
          2   -1    0    0  501    0  0.00000000000E+00 -0.00000000000E+00 -0.23556584111E+04  0.23556584111E+04  0.00000000000E+00 0. -1.
         24    2    1    2    0    0  0.23151178312E+03 -0.18385394873E+03 -0.10673556401E+04  0.11104788981E+04  0.80717658941E+02 0.  0.
        254    2    1    2    0    0 -0.23151178312E+03  0.18385394873E+03 -0.10770755173E+04  0.14564067667E+04  0.93468123976E+03 0.  0.
         23    2    4    4    0    0 -0.54479186511E+03  0.26689345263E+03 -0.86534510784E+03  0.10604320408E+04  0.87542367611E+02 0.  0.
         23    2    4    4    0    0  0.31328008199E+03 -0.83039503895E+02 -0.21173040943E+03  0.39597472590E+03  0.83224084809E+02 0.  0.
          2    1    3    3  502    0  0.35293869645E+02 -0.13513870195E+02 -0.24928610929E+03  0.25213457955E+03  0.00000000000E+00 0. -1.
         -3    1    3    3    0  502  0.19621791347E+03 -0.17034007854E+03 -0.81806953080E+03  0.85834431853E+03  0.00000000000E+00 0.  1.
         11    1    5    5    0    0 -0.15542011779E+03  0.57874298314E+02 -0.30076146096E+03  0.34345640745E+03  0.00000000000E+00 0. -1.
        -11    1    5    5    0    0 -0.38937174732E+03  0.20901915431E+03 -0.56458364688E+03  0.71697563334E+03  0.00000000000E+00 0.  1.
          2    1    6    6  503    0  0.38222347803E+01 -0.16462543708E+02 -0.40208979868E+01  0.17372174437E+02  0.00000000000E+00 0. -1.
         -2    1    6    6    0  503  0.30945784721E+03 -0.66576960187E+02 -0.20770951145E+03  0.37860255146E+03  0.00000000000E+00 0.  1.
<mgrwt>
<rscale>  0 0.14107860E+04</rscale>
<asrwt>0</asrwt>
<pdfrwt beam="1">  1        2 0.36240897E+00 0.14107860E+04</pdfrwt>
<pdfrwt beam="2">  1       -1 0.32496502E-01 0.14107860E+04</pdfrwt>
<totfact> 0.41462972E+01</totfact>
</mgrwt>
</event>
<event>
12    6  0.1647231E-007  0.1131542E+04  0.7818608E-02  0.9174983E-01
          2   -1    0    0  501    0  0.00000000000E+00  0.00000000000E+00  0.23561792550E+04  0.23561792550E+04  0.00000000000E+00 0. -1.
         -1   -1    0    0    0  501 -0.00000000000E+00 -0.00000000000E+00 -0.13585424340E+03  0.13585424340E+03  0.00000000000E+00 0.  1.
         24    2    1    2    0    0 -0.13889624332E+03 -0.11319138965E+02  0.71422351266E+03  0.73200467755E+03  0.79343131963E+02 0.  0.
        254    2    1    2    0    0  0.13889624332E+03  0.11319138965E+02  0.15061014989E+04  0.17600288208E+04  0.89996635261E+03 0.  0.
         23    2    4    4    0    0  0.30176354138E+03 -0.51277520523E+02  0.92607678596E+02  0.33286694966E+03  0.92377513629E+02 0.  0.
         23    2    4    4    0    0 -0.16286729806E+03  0.62596659488E+02  0.14134938203E+04  0.14271618712E+04  0.91553961686E+02 0.  0.
          4    1    3    3  502    0 -0.14333449090E+03  0.13175361316E+01  0.59459507498E+03  0.61162882157E+03  0.00000000000E+00 0. -1.
         -3    1    3    3    0  502  0.44382475821E+01 -0.12636675097E+02  0.11962843768E+03  0.12037585598E+03  0.00000000000E+00 0.  1.
         11    1    5    5    0    0  0.16031835999E+03 -0.51340866796E+02  0.91112016381E+02  0.19141384663E+03  0.00000000000E+00 0. -1.
        -11    1    5    5    0    0  0.14144518139E+03  0.63346272820E-01  0.14956622160E+01  0.14145310303E+03  0.00000000000E+00 0.  1.
          2    1    6    6  503    0 -0.12927460712E+03  0.83533868480E+02  0.99969579115E+03  0.10114749162E+04  0.00000000000E+00 0. -1.
         -2    1    6    6    0  503 -0.33592690947E+02 -0.20937208992E+02  0.41379802916E+03  0.41568695498E+03  0.00000000000E+00 0.  1.
<mgrwt>
<rscale>  0 0.11315422E+04</rscale>
<asrwt>0</asrwt>
<pdfrwt beam="1">  1        2 0.36248909E+00 0.11315422E+04</pdfrwt>
<pdfrwt beam="2">  1       -1 0.20900655E-01 0.11315422E+04</pdfrwt>
<totfact> 0.90838699E+01</totfact>
</mgrwt>
</event>
<event>
12    6  0.1647231E-007  0.2094833E+04  0.7818608E-02  0.8563523E-01
         -1   -1    0    0    0  501 -0.00000000000E+00  0.00000000000E+00  0.66207268695E+03  0.66207268695E+03  0.00000000000E+00 0.  1.
          2   -1    0    0  501    0  0.00000000000E+00 -0.00000000000E+00 -0.16570399994E+04  0.16570399994E+04  0.00000000000E+00 0. -1.
         24    2    1    2    0    0  0.24473521322E+03 -0.81698810926E+02 -0.13064046093E+04  0.13340312689E+04  0.79852381754E+02 0.  0.
        254    2    1    2    0    0 -0.24473521322E+03  0.81698810926E+02  0.31143729678E+03  0.98508141754E+03  0.89823281450E+03 0.  0.
         23    2    4    4    0    0  0.89050392065E+02 -0.20122559250E+03 -0.19374462934E+03  0.31036956624E+03  0.10183601939E+03 0.  0.
         23    2    4    4    0    0 -0.33378560529E+03  0.28292440343E+03  0.50518192612E+03  0.67471185130E+03  0.92564871548E+02 0.  0.
          2    1    3    3  502    0  0.73192884163E+02 -0.57711515821E+01 -0.23099792278E+03  0.24238511673E+03  0.00000000000E+00 0. -1.
         -1    1    3    3    0  502  0.17154232906E+03 -0.75927659344E+02 -0.10754066865E+04  0.10916461521E+04  0.00000000000E+00 0.  1.
         11    1    5    5    0    0  0.11000293609E+03 -0.17755896527E+03 -0.18064815848E+03  0.27615500948E+03  0.00000000000E+00 0. -1.
        -11    1    5    5    0    0 -0.20952544025E+02 -0.23666627230E+02 -0.13096470860E+02  0.34214556764E+02  0.00000000000E+00 0.  1.
          2    1    6    6  503    0 -0.32865549469E+03  0.25559840913E+03  0.45089486128E+03  0.61371911887E+03  0.00000000000E+00 0. -1.
         -2    1    6    6    0  503 -0.51301105963E+01  0.27325994297E+02  0.54287064847E+02  0.60992732426E+02  0.00000000000E+00 0.  1.
<mgrwt>
<rscale>  0 0.20948326E+04</rscale>
<asrwt>0</asrwt>
<pdfrwt beam="1">  1        2 0.25492923E+00 0.20948326E+04</pdfrwt>
<pdfrwt beam="2">  1       -1 0.10185734E+00 0.20948326E+04</pdfrwt>
<totfact> 0.99407734E+00</totfact>
</mgrwt>
</event>
<event>
12    6  0.1647231E-007  0.1592504E+04  0.7818608E-02  0.8825166E-01
         -1   -1    0    0    0  501 -0.00000000000E+00  0.00000000000E+00  0.91369069741E+03  0.91369069741E+03  0.00000000000E+00 0.  1.
          2   -1    0    0  501    0  0.00000000000E+00 -0.00000000000E+00 -0.69390823762E+03  0.69390823762E+03  0.00000000000E+00 0. -1.
         24    2    1    2    0    0 -0.19444069109E+03 -0.13685923856E+03 -0.41071744653E+03  0.48139527629E+03  0.80715287407E+02 0.  0.
        254    2    1    2    0    0  0.19444069109E+03  0.13685923856E+03  0.63049990632E+03  0.11262036587E+04  0.90236739500E+03 0.  0.
         23    2    4    4    0    0  0.26313135000E+03  0.13387843665E+03 -0.14576325096E+03  0.34141913436E+03  0.90324729859E+02 0.  0.
         23    2    4    4    0    0 -0.68690658919E+02  0.29808019077E+01  0.77626315728E+03  0.78478452438E+03  0.92601126114E+02 0.  0.
          4    1    3    3  502    0 -0.12762617206E+03 -0.12837260814E+03 -0.32888252858E+03  0.37540868919E+03  0.00000000000E+00 0. -1.
         -1    1    3    3    0  502 -0.66814519027E+02 -0.84866304159E+01 -0.81834917942E+02  0.10598658709E+03  0.00000000000E+00 0.  1.
         11    1    5    5    0    0  0.16176066670E+03  0.12422891323E+03 -0.11898253725E+03  0.23612746631E+03  0.00000000000E+00 0. -1.
        -11    1    5    5    0    0  0.10137068330E+03  0.96495234217E+01 -0.26780713706E+02  0.10529166805E+03  0.00000000000E+00 0.  1.
          4    1    6    6  503    0  0.62241887974E+01  0.11689228792E+02  0.15911302202E+02  0.20701404148E+02  0.00000000000E+00 0.  1.
         -4    1    6    6    0  503 -0.74914847716E+02 -0.87084268841E+01  0.76035185508E+03  0.76408312024E+03  0.00000000000E+00 0. -1.
<mgrwt>
<rscale>  0 0.15925043E+04</rscale>
<asrwt>0</asrwt>
<pdfrwt beam="1">  1        2 0.10675511E+00 0.15925043E+04</pdfrwt>
<pdfrwt beam="2">  1       -1 0.14056780E+00 0.15925043E+04</pdfrwt>
<totfact> 0.18831520E+01</totfact>
</mgrwt>
</event>
<event>
12    6  0.1647231E-007  0.2492675E+04  0.7818608E-02  0.8405600E-01
          2   -1    0    0  501    0  0.00000000000E+00  0.00000000000E+00  0.17448818191E+04  0.17448818191E+04  0.00000000000E+00 0. -1.
         -1   -1    0    0    0  501 -0.00000000000E+00 -0.00000000000E+00 -0.89023661561E+03  0.89023661561E+03  0.00000000000E+00 0.  1.
         24    2    1    2    0    0 -0.63341557467E+03 -0.59833430124E+02  0.13034948699E+04  0.14526829854E+04  0.79960306817E+02 0.  0.
        254    2    1    2    0    0  0.63341557467E+03  0.59833430124E+02 -0.44884966638E+03  0.11824354493E+04  0.88988327279E+03 0.  0.
         23    2    4    4    0    0  0.51634657614E+03  0.41373251829E+03 -0.43889514073E+03  0.79869316258E+03  0.86564658028E+02 0.  0.
         23    2    4    4    0    0  0.11706899853E+03 -0.35389908817E+03 -0.99545256552E+01  0.38374228673E+03  0.90605380756E+02 0.  0.
          2    1    3    3  502    0 -0.37474642104E+03  0.39739922348E+01  0.75292975793E+03  0.84104333602E+03  0.00000000000E+00 0. -1.
         -1    1    3    3    0  502 -0.25866915363E+03 -0.63807422359E+02  0.55056511198E+03  0.61163964940E+03  0.00000000000E+00 0.  1.
         11    1    5    5    0    0  0.39581597459E+03  0.36099469144E+03 -0.34995503571E+03  0.63988747449E+03  0.00000000000E+00 0. -1.
        -11    1    5    5    0    0  0.12053060155E+03  0.52737826856E+02 -0.88940105022E+02  0.15880568810E+03  0.00000000000E+00 0.  1.
          2    1    6    6  503    0  0.36667775728E+02 -0.43745616556E+02 -0.26453346745E+02  0.62912513053E+02  0.00000000000E+00 0. -1.
         -2    1    6    6    0  503  0.80401222806E+02 -0.31015347161E+03  0.16498821090E+02  0.32082977368E+03  0.00000000000E+00 0.  1.
<mgrwt>
<rscale>  0 0.24926754E+04</rscale>
<asrwt>0</asrwt>
<pdfrwt beam="1">  1        2 0.26844336E+00 0.24926754E+04</pdfrwt>
<pdfrwt beam="2">  1       -1 0.13695948E+00 0.24926754E+04</pdfrwt>
<totfact> 0.41752285E+00</totfact>
</mgrwt>
</event>
<event>
12    6  0.1647231E-007  0.2700255E+04  0.7818608E-02  0.8334922E-01
         -1   -1    0    0    0  501 -0.00000000000E+00  0.00000000000E+00  0.19656199811E+04  0.19656199811E+04  0.00000000000E+00 0.  1.
          2   -1    0    0  501    0  0.00000000000E+00 -0.00000000000E+00 -0.92736324120E+03  0.92736324120E+03  0.00000000000E+00 0. -1.
         24    2    1    2    0    0  0.65951247668E+03 -0.48107074551E+03  0.14047945551E+04  0.16266513849E+04  0.78493420612E+02 0.  0.
        254    2    1    2    0    0 -0.65951247668E+03  0.48107074551E+03 -0.36653781520E+03  0.12663318373E+04  0.89602487869E+03 0.  0.
         23    2    4    4    0    0 -0.22130469869E+03  0.39947114352E+02  0.27544741329E+03  0.36766124846E+03  0.93445034766E+02 0.  0.
         23    2    4    4    0    0 -0.43820777799E+03  0.44112363115E+03 -0.64198522849E+03  0.89867058888E+03  0.94062102187E+02 0.  0.
          2    1    3    3  502    0  0.24594118047E+03 -0.20876218025E+03  0.49520569794E+03  0.59101387076E+03  0.00000000000E+00 0. -1.
         -1    1    3    3    0  502  0.41357129620E+03 -0.27230856526E+03  0.90958885713E+03  0.10356375142E+04  0.00000000000E+00 0.  1.
         11    1    5    5    0    0 -0.13288758581E+03  0.18247403904E+02  0.91361128274E+02  0.16229274159E+03  0.00000000000E+00 0. -1.
        -11    1    5    5    0    0 -0.88417112877E+02  0.21699710449E+02  0.18408628502E+03  0.20536850687E+03  0.00000000000E+00 0.  1.
          4    1    6    6  503    0 -0.24600145637E+02  0.28465207211E+02 -0.12064918899E+02  0.39509460323E+02  0.00000000000E+00 0. -1.
         -4    1    6    6    0  503 -0.41360763235E+03  0.41265842394E+03 -0.62992030959E+03  0.85916112856E+03  0.00000000000E+00 0.  1.
<mgrwt>
<rscale>  0 0.27002546E+04</rscale>
<asrwt>0</asrwt>
<pdfrwt beam="1">  1        2 0.14267127E+00 0.27002546E+04</pdfrwt>
<pdfrwt beam="2">  1       -1 0.30240307E+00 0.27002546E+04</pdfrwt>
<totfact> 0.89554500E-01</totfact>
</mgrwt>
</event>
<event>
12    6  0.1647231E-007  0.1825802E+04  0.7818608E-02  0.8692697E-01
          2   -1    0    0  501    0  0.00000000000E+00  0.00000000000E+00  0.18128089994E+04  0.18128089994E+04  0.00000000000E+00 0. -1.
         -1   -1    0    0    0  501 -0.00000000000E+00 -0.00000000000E+00 -0.45972212948E+03  0.45972212948E+03  0.00000000000E+00 0.  1.
         24    2    1    2    0    0 -0.23787539908E+03  0.13925143110E+02  0.13462649255E+04  0.13695243479E+04  0.79931689353E+02 0.  0.
        254    2    1    2    0    0  0.23787539908E+03 -0.13925143110E+02  0.68219444264E+01  0.90300678091E+03  0.87097422025E+03 0.  0.
         23    2    4    4    0    0 -0.17099317425E+03 -0.20638497496E+03 -0.24722605627E+03  0.37611508334E+03  0.92241040186E+02 0.  0.
         23    2    4    4    0    0  0.40886857333E+03  0.19245983185E+03  0.25404800069E+03  0.52689169756E+03  0.94128514144E+02 0.  0.
          4    1    3    3  502    0 -0.12791117836E+03 -0.26868703684E+02  0.81972424406E+03  0.83007893185E+03  0.00000000000E+00 0. -1.
         -3    1    3    3    0  502 -0.10996422071E+03  0.40793846794E+02  0.52654068141E+03  0.53944541610E+03  0.00000000000E+00 0.  1.
         11    1    5    5    0    0 -0.28358521684E+02 -0.36224510388E-01 -0.48113979510E+02  0.55849459162E+02  0.00000000000E+00 0. -1.
        -11    1    5    5    0    0 -0.14263465256E+03 -0.20634875045E+03 -0.19911207676E+03  0.32026562418E+03  0.00000000000E+00 0.  1.
          3    1    6    6  503    0 -0.22255154994E+01  0.17731109557E+00 -0.41737192321E+01  0.47333170918E+01  0.00000000000E+00 0. -1.
         -3    1    6    6    0  503  0.41109408883E+03  0.19228252075E+03  0.25822171992E+03  0.52215838047E+03  0.00000000000E+00 0.  1.
<mgrwt>
<rscale>  0 0.18258022E+04</rscale>
<asrwt>0</asrwt>
<pdfrwt beam="1">  1        2 0.27889369E+00 0.18258022E+04</pdfrwt>
<pdfrwt beam="2">  1       -1 0.70726483E-01 0.18258022E+04</pdfrwt>
<totfact> 0.18396474E+01</totfact>
</mgrwt>
</event>
<event>
12    6  0.1647231E-007  0.1561845E+04  0.7818608E-02  0.8844337E-01
         -1   -1    0    0    0  501 -0.00000000000E+00  0.00000000000E+00  0.31507807161E+03  0.31507807161E+03  0.00000000000E+00 0.  1.
          2   -1    0    0  501    0  0.00000000000E+00 -0.00000000000E+00 -0.19355200840E+04  0.19355200840E+04  0.00000000000E+00 0. -1.
         24    2    1    2    0    0  0.16141506123E+02  0.15443156237E+03 -0.12448872094E+04  0.12570468103E+04  0.79453531513E+02 0.  0.
        254    2    1    2    0    0 -0.16141506123E+02 -0.15443156237E+03 -0.37555480301E+03  0.99355134527E+03  0.90663841190E+03 0.  0.
         23    2    4    4    0    0  0.26655951120E+03 -0.32099015882E+03  0.70597404917E+02  0.43240487207E+03  0.88889396072E+02 0.  0.
         23    2    4    4    0    0 -0.28270101733E+03  0.16655859645E+03 -0.44615220793E+03  0.56114647320E+03  0.90398785898E+02 0.  0.
          2    1    3    3  502    0 -0.15993774345E+02  0.10290229914E+03 -0.57015933837E+03  0.57959154162E+03  0.00000000000E+00 0. -1.
         -1    1    3    3    0  502  0.32135280469E+02  0.51529263228E+02 -0.67472787100E+03  0.67745526872E+03  0.00000000000E+00 0.  1.
         11    1    5    5    0    0  0.18935275739E+03 -0.27519385631E+03  0.75618637796E+02  0.34249715862E+03  0.00000000000E+00 0. -1.
        -11    1    5    5    0    0  0.77206753807E+02 -0.45796302517E+02 -0.50212328790E+01  0.89907713447E+02  0.00000000000E+00 0.  1.
          4    1    6    6  503    0 -0.23671073566E+03  0.17178796883E+03 -0.36505109019E+03  0.46776637016E+03  0.00000000000E+00 0. -1.
         -4    1    6    6    0  503 -0.45990281665E+02 -0.52293723755E+01 -0.81101117743E+02  0.93380103032E+02  0.00000000000E+00 0.  1.
<mgrwt>
<rscale>  0 0.15618450E+04</rscale>
<asrwt>0</asrwt>
<pdfrwt beam="1">  1        2 0.29777232E+00 0.15618450E+04</pdfrwt>
<pdfrwt beam="2">  1       -1 0.48473550E-01 0.15618450E+04</pdfrwt>
<totfact> 0.33849113E+01</totfact>
</mgrwt>
</event>
<event>
12    6  0.1647231E-007  0.2938313E+04  0.7818608E-02  0.8261569E-01
         -3   -1    0    0    0  501 -0.00000000000E+00  0.00000000000E+00  0.28773441837E+04  0.28773441837E+04  0.00000000000E+00 0.  1.
          2   -1    0    0  501    0  0.00000000000E+00 -0.00000000000E+00 -0.75014355958E+03  0.75014355958E+03  0.00000000000E+00 0. -1.
         24    2    1    2    0    0 -0.22342189111E+02 -0.11986287809E+04  0.16761927953E+04  0.20622544662E+04  0.77852865474E+02 0.  0.
        254    2    1    2    0    0  0.22342189111E+02  0.11986287809E+04  0.45100782885E+03  0.15652332771E+04  0.89963160351E+03 0.  0.
         23    2    4    4    0    0 -0.18781522274E+03  0.12455261895E+04  0.35709230865E+03  0.13123970032E+04  0.90889660088E+02 0.  0.
         23    2    4    4    0    0  0.21015741185E+03 -0.46897408617E+02  0.93915520202E+02  0.25283627388E+03  0.93490918089E+02 0.  0.
          2    1    3    3  502    0 -0.39664601783E+02 -0.40048035433E+03  0.59244963355E+03  0.71620832383E+03  0.00000000000E+00 0. -1.
         -1    1    3    3    0  502  0.17322412673E+02 -0.79814842660E+03  0.10837431617E+04  0.13460461424E+04  0.00000000000E+00 0.  1.
         11    1    5    5    0    0 -0.13397215525E+03  0.66314962422E+03  0.15987535876E+03  0.69518061885E+03  0.00000000000E+00 0.  1.
        -11    1    5    5    0    0 -0.53843067489E+02  0.58237656533E+03  0.19721694989E+03  0.61721638433E+03  0.00000000000E+00 0. -1.
          1    1    6    6  503    0  0.11700099753E+03  0.89272471682E+01  0.14368739763E+02  0.11821755304E+03  0.00000000000E+00 0.  1.
         -1    1    6    6    0  503  0.93156414324E+02 -0.55824655785E+02  0.79546780439E+02  0.13461872084E+03  0.00000000000E+00 0. -1.
<mgrwt>
<rscale>  0 0.29383133E+04</rscale>
<asrwt>0</asrwt>
<pdfrwt beam="1">  1        2 0.11540670E+00 0.29383133E+04</pdfrwt>
<pdfrwt beam="2">  1       -3 0.44266833E+00 0.29383133E+04</pdfrwt>
<totfact> 0.12366390E-01</totfact>
</mgrwt>
</event>
<event>
12    6  0.1647231E-007  0.3961539E+04  0.7818608E-02  0.8012351E-01
         -1   -1    0    0    0  501 -0.00000000000E+00  0.00000000000E+00  0.20999101290E+04  0.20999101290E+04  0.00000000000E+00 0.  1.
          2   -1    0    0  501    0  0.00000000000E+00 -0.00000000000E+00 -0.18683886619E+04  0.18683886619E+04  0.00000000000E+00 0. -1.
         24    2    1    2    0    0  0.12183765357E+04  0.13823469806E+04 -0.26003419186E+03  0.18625975941E+04  0.79545327242E+02 0.  0.
        254    2    1    2    0    0 -0.12183765357E+04 -0.13823469806E+04  0.49155565890E+03  0.21057011968E+04  0.89276313018E+03 0.  0.
         23    2    4    4    0    0  0.88162156508E+01 -0.30870678328E+03 -0.14525498293E+03  0.35293982844E+03  0.89943919910E+02 0.  0.
         23    2    4    4    0    0 -0.12271927514E+04 -0.10736401974E+04  0.63681064183E+03  0.17527613683E+04  0.89102740513E+02 0.  0.
          4    1    3    3  502    0  0.51074417281E+03  0.53348601579E+03 -0.79563764856E+02  0.74283062119E+03  0.00000000000E+00 0. -1.
         -3    1    3    3    0  502  0.70763236291E+03  0.84886096485E+03 -0.18047042701E+03  0.11197669730E+04  0.00000000000E+00 0.  1.
         11    1    5    5    0    0  0.18265683866E+02 -0.11417322808E+02  0.84202786996E+00  0.21556889343E+02  0.00000000000E+00 0. -1.
        -11    1    5    5    0    0 -0.94494682153E+01 -0.29728946047E+03 -0.14609701080E+03  0.33138293909E+03  0.00000000000E+00 0.  1.
          4    1    6    6  503    0 -0.10360171694E+04 -0.94426484824E+03  0.53356536629E+03  0.14998865554E+04  0.00000000000E+00 0. -1.
         -4    1    6    6    0  503 -0.19117558202E+03 -0.12937534912E+03  0.10324527555E+03  0.25287481299E+03  0.00000000000E+00 0.  1.
<mgrwt>
<rscale>  0 0.39615392E+04</rscale>
<asrwt>0</asrwt>
<pdfrwt beam="1">  1        2 0.28744441E+00 0.39615392E+04</pdfrwt>
<pdfrwt beam="2">  1       -1 0.32306310E+00 0.39615392E+04</pdfrwt>
<totfact> 0.16639562E-01</totfact>
</mgrwt>
</event>
<event>
12    6  0.1647231E-007  0.3832998E+04  0.7818608E-02  0.8039111E-01
          2   -1    0    0  501    0  0.00000000000E+00  0.00000000000E+00  0.17929282424E+04  0.17929282424E+04  0.00000000000E+00 0. -1.
         -1   -1    0    0    0  501 -0.00000000000E+00 -0.00000000000E+00 -0.20485860654E+04  0.20485860654E+04  0.00000000000E+00 0.  1.
         24    2    1    2    0    0 -0.33559966485E+03  0.54029802339E+03 -0.18195533217E+04  0.19291229318E+04  0.78688667303E+02 0.  0.
        254    2    1    2    0    0  0.33559966485E+03 -0.54029802339E+03  0.15638954987E+04  0.19123913761E+04  0.89828868154E+03 0.  0.
         23    2    4    4    0    0  0.51466518848E+03 -0.27271984418E+03  0.14360188851E+04  0.15525587165E+04  0.95036625110E+02 0.  0.
         23    2    4    4    0    0 -0.17906552363E+03 -0.26757817921E+03  0.12787661358E+03  0.35983265960E+03  0.97286026086E+02 0.  0.
          2    1    3    3  502    0 -0.69634062846E+02  0.11374266824E+03 -0.29272602323E+03  0.32167502540E+03  0.00000000000E+00 0. -1.
         -1    1    3    3    0  502 -0.26596560201E+03  0.42655535515E+03 -0.15268272984E+04  0.16074479064E+04  0.00000000000E+00 0.  1.
         11    1    5    5    0    0  0.36488845832E+03 -0.18690089666E+03  0.88961310838E+03  0.97953408047E+03  0.00000000000E+00 0.  1.
        -11    1    5    5    0    0  0.14977673017E+03 -0.85818947521E+02  0.54640577670E+03  0.57302463600E+03  0.00000000000E+00 0. -1.
          1    1    6    6  503    0 -0.13842015571E+03 -0.24098939898E+03  0.74625731715E+02  0.28775863108E+03  0.00000000000E+00 0. -1.
         -1    1    6    6    0  503 -0.40645367924E+02 -0.26588780231E+02  0.53250881867E+02  0.72074028522E+02  0.00000000000E+00 0.  1.
<mgrwt>
<rscale>  0 0.38329977E+04</rscale>
<asrwt>0</asrwt>
<pdfrwt beam="1">  1        2 0.27583511E+00 0.38329977E+04</pdfrwt>
<pdfrwt beam="2">  1       -1 0.31516709E+00 0.38329977E+04</pdfrwt>
<totfact> 0.20851195E-01</totfact>
</mgrwt>
</event>
<event>
12    6  0.1647231E-007  0.1651185E+04  0.7818608E-02  0.8789705E-01
         -1   -1    0    0    0  501 -0.00000000000E+00  0.00000000000E+00  0.37726022236E+03  0.37726022236E+03  0.00000000000E+00 0.  1.
          2   -1    0    0  501    0  0.00000000000E+00 -0.00000000000E+00 -0.18067193428E+04  0.18067193428E+04  0.00000000000E+00 0. -1.
         24    2    1    2    0    0 -0.27834026183E+03  0.10454401501E+03  0.15214389858E+03  0.34866064738E+03  0.10006862007E+03 0.  0.
        254    2    1    2    0    0  0.27834026183E+03 -0.10454401501E+03 -0.15816030190E+04  0.18353189177E+04  0.88234044888E+03 0.  0.
         23    2    4    4    0    0  0.34646274833E+02  0.15980105784E+03  0.25712884100E+02  0.18565885026E+03  0.84091104303E+02 0.  0.
         23    2    4    4    0    0  0.24369398700E+03 -0.26434507286E+03 -0.16073159031E+04  0.16496600675E+04  0.92999188687E+02 0.  0.
          2    1    3    3  502    0 -0.38138861778E+02  0.53363623805E+02  0.50868473447E+02  0.83005124626E+02  0.00000000000E+00 0. -1.
         -1    1    3    3    0  502 -0.24020140006E+03  0.51180391209E+02  0.10127542513E+03  0.26565552275E+03  0.00000000000E+00 0.  1.
         11    1    5    5    0    0  0.18869104305E+02  0.14900212619E+03  0.46684374620E+02  0.15728034696E+03  0.00000000000E+00 0. -1.
        -11    1    5    5    0    0  0.15777170528E+02  0.10798931650E+02 -0.20971490519E+02  0.28378503295E+02  0.00000000000E+00 0.  1.
          1    1    6    6  503    0  0.25081150627E+03 -0.25940174469E+03 -0.15881830659E+04  0.16286562337E+04  0.00000000000E+00 0. -1.
         -1    1    6    6    0  503 -0.71175192729E+01 -0.49433281624E+01 -0.19132837177E+02  0.21003833754E+02  0.00000000000E+00 0.  1.
<mgrwt>
<rscale>  0 0.16511854E+04</rscale>
<asrwt>0</asrwt>
<pdfrwt beam="1">  1        2 0.27795682E+00 0.16511854E+04</pdfrwt>
<pdfrwt beam="2">  1       -1 0.58040034E-01 0.16511854E+04</pdfrwt>
<totfact> 0.27993632E+01</totfact>
</mgrwt>
</event>
<event>
12    6  0.1647231E-007  0.1983701E+04  0.7818608E-02  0.8614279E-01
          2   -1    0    0  501    0  0.00000000000E+00  0.00000000000E+00  0.27459493387E+04  0.27459493387E+04  0.00000000000E+00 0. -1.
         -1   -1    0    0    0  501 -0.00000000000E+00 -0.00000000000E+00 -0.35826115210E+03  0.35826115210E+03  0.00000000000E+00 0.  1.
         24    2    1    2    0    0 -0.63821508636E+03 -0.45698169693E+03  0.10492654378E+04  0.13127699854E+04  0.79096826713E+02 0.  0.
        254    2    1    2    0    0  0.63821508636E+03  0.45698169693E+03  0.13384227488E+04  0.17914405054E+04  0.89539536622E+03 0.  0.
         23    2    4    4    0    0 -0.12381225247E+01  0.44279990666E+03  0.22690631027E+03  0.50570804053E+03  0.90448097470E+02 0.  0.
         23    2    4    4    0    0  0.63945320889E+03  0.14181790274E+02  0.11115164386E+04  0.12857324648E+04  0.92399395956E+02 0.  0.
          4    1    3    3  502    0 -0.16340689309E+03 -0.10793147738E+03  0.20853613316E+03  0.28607400327E+03  0.00000000000E+00 0. -1.
         -3    1    3    3    0  502 -0.47480819328E+03 -0.34905021955E+03  0.84072930459E+03  0.10266959822E+04  0.00000000000E+00 0.  1.
         11    1    5    5    0    0 -0.22307002260E+02  0.35161974633E+03  0.21130696688E+03  0.41083413029E+03  0.00000000000E+00 0.  1.
        -11    1    5    5    0    0  0.21068879735E+02  0.91180160323E+02  0.15599343389E+02  0.94873910239E+02  0.00000000000E+00 0. -1.
          4    1    6    6  503    0  0.16902768995E+03 -0.76147023246E+01  0.22067772862E+03  0.27807733380E+03  0.00000000000E+00 0. -1.
         -4    1    6    6    0  503  0.47042551894E+03  0.21796492599E+02  0.89083870995E+03  0.10076551310E+04  0.00000000000E+00 0.  1.
<mgrwt>
<rscale>  0 0.19837006E+04</rscale>
<asrwt>0</asrwt>
<pdfrwt beam="1">  1        2 0.42245373E+00 0.19837006E+04</pdfrwt>
<pdfrwt beam="2">  1       -1 0.55117102E-01 0.19837006E+04</pdfrwt>
<totfact> 0.87944996E+00</totfact>
</mgrwt>
</event>
<event>
12    6  0.1647231E-007  0.2604745E+04  0.7818608E-02  0.8366591E-01
         -1   -1    0    0    0  501 -0.00000000000E+00  0.00000000000E+00  0.16974318349E+04  0.16974318349E+04  0.00000000000E+00 0.  1.
          2   -1    0    0  501    0  0.00000000000E+00 -0.00000000000E+00 -0.99925881047E+03  0.99925881047E+03  0.00000000000E+00 0. -1.
         24    2    1    2    0    0 -0.92654437149E+03 -0.60437907350E+03 -0.12799607603E+01  0.11097591966E+04  0.88347604541E+02 0.  0.
        254    2    1    2    0    0  0.92654437149E+03  0.60437907350E+03  0.69945298518E+03  0.15869314488E+04  0.89741763292E+03 0.  0.
         23    2    4    4    0    0  0.27649714390E+03  0.69562057418E+03  0.28930435762E+03  0.80779651451E+03  0.92192970007E+02 0.  0.
         23    2    4    4    0    0  0.65004722759E+03 -0.91241500674E+02  0.41014862757E+03  0.77913493429E+03  0.89123170859E+02 0.  0.
          4    1    3    3  502    0 -0.25931029927E+02 -0.37487134578E+02  0.15281191315E+00  0.45582089942E+02  0.00000000000E+00 0. -1.
         -3    1    3    3    0  502 -0.90061334156E+03 -0.56689193892E+03 -0.14327726735E+01  0.10641771066E+04  0.00000000000E+00 0.  1.
         11    1    5    5    0    0  0.26497004420E+03  0.57642398930E+03  0.24684522857E+03  0.68073952922E+03  0.00000000000E+00 0.  1.
        -11    1    5    5    0    0  0.11527099694E+02  0.11919658487E+03  0.42459129042E+02  0.12705698529E+03  0.00000000000E+00 0. -1.
          1    1    6    6  503    0  0.19819230656E+03  0.12601308425E+02  0.11393973635E+03  0.22895686684E+03  0.00000000000E+00 0. -1.
         -1    1    6    6    0  503  0.45185492103E+03 -0.10384280910E+03  0.29620889122E+03  0.55017806744E+03  0.00000000000E+00 0.  1.
<mgrwt>
<rscale>  0 0.26047447E+04</rscale>
<asrwt>0</asrwt>
<pdfrwt beam="1">  1        2 0.15373212E+00 0.26047447E+04</pdfrwt>
<pdfrwt beam="2">  1       -1 0.26114336E+00 0.26047447E+04</pdfrwt>
<totfact> 0.14991675E+00</totfact>
</mgrwt>
</event>
<event>
12    6  0.1647231E-007  0.1245806E+04  0.7818608E-02  0.9073681E-01
          2   -1    0    0  501    0  0.00000000000E+00  0.00000000000E+00  0.13002663700E+04  0.13002663700E+04  0.00000000000E+00 0. -1.
         -1   -1    0    0    0  501 -0.00000000000E+00 -0.00000000000E+00 -0.29840652246E+03  0.29840652246E+03  0.00000000000E+00 0.  1.
         24    2    1    2    0    0  0.26564704352E+03 -0.24513476717E+02  0.39063408527E+03  0.47970473099E+03  0.79701807308E+02 0.  0.
        254    2    1    2    0    0 -0.26564704352E+03  0.24513476717E+02  0.61122576232E+03  0.11189681615E+04  0.89851185395E+03 0.  0.
         23    2    4    4    0    0 -0.48835269277E+03  0.15874011637E+03  0.89404428250E+02  0.52914380977E+03  0.91176984720E+02 0.  0.
         23    2    4    4    0    0  0.22270564925E+03 -0.13422663965E+03  0.52182133407E+03  0.58982435175E+03  0.89334563447E+02 0.  0.
          4    1    3    3  502    0  0.25743656844E+03 -0.35171459528E+02  0.38633518601E+03  0.46558081391E+03  0.00000000000E+00 0. -1.
         -3    1    3    3    0  502  0.82104750814E+01  0.10657982811E+02  0.42988992536E+01  0.14123917072E+02  0.00000000000E+00 0.  1.
         11    1    5    5    0    0 -0.17102139098E+03  0.93842906138E+02  0.59087500370E+02  0.20382870236E+03  0.00000000000E+00 0. -1.
        -11    1    5    5    0    0 -0.31733130179E+03  0.64897210230E+02  0.30316927880E+02  0.32531510741E+03  0.00000000000E+00 0.  1.
          2    1    6    6  503    0  0.21032691478E+03 -0.14544185569E+03  0.46592438428E+03  0.53148497282E+03  0.00000000000E+00 0. -1.
         -2    1    6    6    0  503  0.12378734472E+02  0.11215216041E+02  0.55896949793E+02  0.58339378932E+02  0.00000000000E+00 0.  1.
<mgrwt>
<rscale>  0 0.12458057E+04</rscale>
<asrwt>0</asrwt>
<pdfrwt beam="1">  1        2 0.20004098E+00 0.12458057E+04</pdfrwt>
<pdfrwt beam="2">  1       -1 0.45908697E-01 0.12458057E+04</pdfrwt>
<totfact> 0.87380676E+01</totfact>
</mgrwt>
</event>
<event>
12    6  0.1647231E-007  0.2374860E+04  0.7818608E-02  0.8448976E-01
         -1   -1    0    0    0  501 -0.00000000000E+00  0.00000000000E+00  0.54332132263E+03  0.54332132263E+03  0.00000000000E+00 0.  1.
          2   -1    0    0  501    0  0.00000000000E+00 -0.00000000000E+00 -0.25951312197E+04  0.25951312197E+04  0.00000000000E+00 0. -1.
         24    2    1    2    0    0 -0.24997398967E+02 -0.99702776119E+03 -0.11208681769E+04  0.15025583261E+04  0.81528074508E+02 0.  0.
        254    2    1    2    0    0  0.24997398967E+02  0.99702776119E+03 -0.93094172020E+03  0.16358942162E+04  0.90266725523E+03 0.  0.
         23    2    4    4    0    0 -0.28467173956E+03  0.86625616616E+03 -0.90292960014E+03  0.12865690213E+04  0.92413414263E+02 0.  0.
         23    2    4    4    0    0  0.30966913852E+03  0.13077159503E+03 -0.28012120068E+02  0.34932519488E+03  0.90814247144E+02 0.  0.
          2    1    3    3  502    0 -0.34905116574E+02 -0.95212743989E+03 -0.10869877013E+04  0.14454436314E+04  0.00000000000E+00 0. -1.
         -1    1    3    3    0  502  0.99077176072E+01 -0.44900321300E+02 -0.33880475567E+02  0.57114694656E+02  0.00000000000E+00 0.  1.
         11    1    5    5    0    0 -0.34365354947E+02  0.13533353832E+03 -0.18603800124E+03  0.23260757107E+03  0.00000000000E+00 0. -1.
        -11    1    5    5    0    0 -0.25030638461E+03  0.73092262784E+03 -0.71689159890E+03  0.10539614503E+04  0.00000000000E+00 0.  1.
          3    1    6    6  503    0  0.18352912495E+03  0.89866257702E+02 -0.59880957015E+02  0.21294274581E+03  0.00000000000E+00 0. -1.
         -3    1    6    6    0  503  0.12614001357E+03  0.40905337327E+02  0.31868836947E+02  0.13638244907E+03  0.00000000000E+00 0.  1.
<mgrwt>
<rscale>  0 0.23748601E+04</rscale>
<asrwt>0</asrwt>
<pdfrwt beam="1">  1        2 0.39925095E+00 0.23748601E+04</pdfrwt>
<pdfrwt beam="2">  1       -1 0.83587897E-01 0.23748601E+04</pdfrwt>
<totfact> 0.44578551E+00</totfact>
</mgrwt>
</event>
<event>
12    6  0.1647231E-007  0.2094151E+04  0.7818608E-02  0.8563824E-01
         -1   -1    0    0    0  501 -0.00000000000E+00  0.00000000000E+00  0.12684116873E+04  0.12684116873E+04  0.00000000000E+00 0.  1.
          2   -1    0    0  501    0  0.00000000000E+00 -0.00000000000E+00 -0.86436250937E+03  0.86436250937E+03  0.00000000000E+00 0. -1.
         24    2    1    2    0    0  0.17692113829E+03 -0.82283046563E+03  0.33406941546E+02  0.84641972745E+03  0.83422220929E+02 0.  0.
        254    2    1    2    0    0 -0.17692113829E+03  0.82283046563E+03  0.37064223642E+03  0.12863544692E+04  0.89943376010E+03 0.  0.
         23    2    4    4    0    0  0.23201518376E+03  0.53241272329E+03  0.48641505879E+03  0.76314539888E+03  0.92178831665E+02 0.  0.
         23    2    4    4    0    0 -0.40893632204E+03  0.29041774234E+03 -0.11577282237E+03  0.52320907036E+03  0.93664317429E+02 0.  0.
          2    1    3    3  502    0  0.16827084013E+03 -0.81779005835E+03  0.37105709973E+02  0.83574666549E+03  0.00000000000E+00 0. -1.
         -1    1    3    3    0  502  0.86502981584E+01 -0.50404072797E+01 -0.36987684276E+01  0.10673061962E+02  0.00000000000E+00 0.  1.
         11    1    5    5    0    0  0.60380621984E+02  0.19835029791E+03  0.22241699927E+03  0.30406904110E+03  0.00000000000E+00 0.  1.
        -11    1    5    5    0    0  0.17163456177E+03  0.33406242538E+03  0.26399805952E+03  0.45907635778E+03  0.00000000000E+00 0. -1.
          3    1    6    6  503    0 -0.41030441910E+03  0.27702500030E+03 -0.11940694449E+03  0.50926474993E+03  0.00000000000E+00 0. -1.
         -3    1    6    6    0  503  0.13680970584E+01  0.13392742035E+02  0.36341221208E+01  0.13944320434E+02  0.00000000000E+00 0.  1.
<mgrwt>
<rscale>  0 0.20941514E+04</rscale>
<asrwt>0</asrwt>
<pdfrwt beam="1">  1        2 0.13297885E+00 0.20941514E+04</pdfrwt>
<pdfrwt beam="2">  1       -1 0.19514026E+00 0.20941514E+04</pdfrwt>
<totfact> 0.53065973E+00</totfact>
</mgrwt>
</event>
<event>
12    6  0.1647231E-007  0.1604091E+04  0.7818608E-02  0.8818038E-01
          2   -1    0    0  501    0  0.00000000000E+00  0.00000000000E+00  0.52574562117E+04  0.52574562117E+04  0.00000000000E+00 0. -1.
         -1   -1    0    0    0  501 -0.00000000000E+00 -0.00000000000E+00 -0.12235524397E+03  0.12235524397E+03  0.00000000000E+00 0.  1.
         24    2    1    2    0    0  0.17128780363E+03  0.50254020279E+03  0.16433994202E+04  0.17292687344E+04  0.87877950901E+02 0.  0.
        254    2    1    2    0    0 -0.17128780363E+03 -0.50254020279E+03  0.34917015475E+04  0.36505427213E+04  0.92336141133E+03 0.  0.
         23    2    4    4    0    0 -0.41469427512E+03 -0.62680820683E+03  0.21853514227E+04  0.23128687201E+04  0.93493345298E+02 0.  0.
         23    2    4    4    0    0  0.24340647149E+03  0.12426800404E+03  0.13063501248E+04  0.13376740012E+04  0.90176702831E+02 0.  0.
          4    1    3    3  502    0  0.95429728213E+02  0.33099177045E+03  0.93430866836E+03  0.99578866880E+03  0.00000000000E+00 0. -1.
         -3    1    3    3    0  502  0.75858075417E+02  0.17154843234E+03  0.70909075184E+03  0.73348006557E+03  0.00000000000E+00 0.  1.
         11    1    5    5    0    0 -0.41757311288E+03 -0.61521426952E+03  0.21245257603E+04  0.22508810738E+04  0.00000000000E+00 0. -1.
        -11    1    5    5    0    0  0.28788377537E+01 -0.11593937313E+02  0.60825662400E+02  0.61987646315E+02  0.00000000000E+00 0.  1.
          1    1    6    6  503    0  0.10867209629E+03  0.64409906511E+02  0.40188929423E+03  0.42127575932E+03  0.00000000000E+00 0. -1.
         -1    1    6    6    0  503  0.13473437520E+03  0.59858097531E+02  0.90446083053E+03  0.91639824185E+03  0.00000000000E+00 0.  1.
<mgrwt>
<rscale>  0 0.16040914E+04</rscale>
<asrwt>0</asrwt>
<pdfrwt beam="1">  1        2 0.80883924E+00 0.16040914E+04</pdfrwt>
<pdfrwt beam="2">  1       -1 0.18823888E-01 0.16040914E+04</pdfrwt>
<totfact> 0.39557283E-01</totfact>
</mgrwt>
</event>
<event>
12    6  0.1647231E-007  0.2701055E+04  0.7818608E-02  0.8334663E-01
         -1   -1    0    0    0  501 -0.00000000000E+00  0.00000000000E+00  0.11294828589E+04  0.11294828589E+04  0.00000000000E+00 0.  1.
          2   -1    0    0  501    0  0.00000000000E+00 -0.00000000000E+00 -0.16148317022E+04  0.16148317022E+04  0.00000000000E+00 0. -1.
         24    2    1    2    0    0  0.55167339086E+03 -0.66752187610E+03  0.62913991934E+03  0.10735026654E+04  0.81620765035E+02 0.  0.
        254    2    1    2    0    0 -0.55167339086E+03  0.66752187610E+03 -0.11144887627E+04  0.16708118957E+04  0.89420255180E+03 0.  0.
         23    2    4    4    0    0 -0.20729035825E+03  0.78844349325E+03 -0.96219517178E+03  0.12644590243E+04  0.91785842289E+02 0.  0.
         23    2    4    4    0    0 -0.34438303261E+03 -0.12092161715E+03 -0.15229359087E+03  0.40635287146E+03  0.93314563047E+02 0.  0.
          4    1    3    3  502    0  0.17747594581E+03 -0.26232026172E+03  0.26064415781E+03  0.41017680097E+03  0.00000000000E+00 0. -1.
         -3    1    3    3    0  502  0.37419744505E+03 -0.40520161438E+03  0.36849576153E+03  0.66332586445E+03  0.00000000000E+00 0.  1.
         11    1    5    5    0    0 -0.13246195304E+03  0.54586377911E+03 -0.59710808016E+03  0.81978746864E+03  0.00000000000E+00 0. -1.
        -11    1    5    5    0    0 -0.74828405212E+02  0.24257971414E+03 -0.36508709162E+03  0.44467155565E+03  0.00000000000E+00 0.  1.
          1    1    6    6  503    0 -0.81990637951E+02 -0.73227347265E+02 -0.48992160743E+02  0.12035340009E+03  0.00000000000E+00 0. -1.
         -1    1    6    6    0  503 -0.26239239466E+03 -0.47694269883E+02 -0.10330143013E+03  0.28599947137E+03  0.00000000000E+00 0.  1.
<mgrwt>
<rscale>  0 0.27010551E+04</rscale>
<asrwt>0</asrwt>
<pdfrwt beam="1">  1        2 0.24843565E+00 0.27010551E+04</pdfrwt>
<pdfrwt beam="2">  1       -1 0.17376659E+00 0.27010551E+04</pdfrwt>
<totfact> 0.25234879E+00</totfact>
</mgrwt>
</event>
<event>
12    6  0.1647231E-007  0.1436409E+04  0.7818608E-02  0.8927877E-01
          2   -1    0    0  501    0  0.00000000000E+00  0.00000000000E+00  0.18348685927E+04  0.18348685927E+04  0.00000000000E+00 0. -1.
         -1   -1    0    0    0  501 -0.00000000000E+00 -0.00000000000E+00 -0.28111984745E+03  0.28111984745E+03  0.00000000000E+00 0.  1.
         24    2    1    2    0    0  0.29391367672E+03  0.22825176093E+03  0.78725244030E+03  0.87441450289E+03  0.79688157075E+02 0.  0.
        254    2    1    2    0    0 -0.29391367672E+03 -0.22825176093E+03  0.76649630496E+03  0.12415739373E+04  0.90305323235E+03 0.  0.
         23    2    4    4    0    0 -0.45499770428E+03 -0.26958706759E+03  0.96890039864E+02  0.54571301393E+03  0.93353713538E+02 0.  0.
         23    2    4    4    0    0  0.16108402756E+03  0.41335306660E+02  0.66960626509E+03  0.69586092334E+03  0.90516312739E+02 0.  0.
          4    1    3    3  502    0  0.15681512385E+03  0.90393808983E+02  0.45152753721E+03  0.48645569236E+03  0.00000000000E+00 0. -1.
         -3    1    3    3    0  502  0.13709855287E+03  0.13785795195E+03  0.33572490308E+03  0.38795881053E+03  0.00000000000E+00 0.  1.
         11    1    5    5    0    0 -0.30689434043E+03 -0.21809726743E+03  0.38767084979E+02  0.37848836326E+03  0.00000000000E+00 0.  1.
        -11    1    5    5    0    0 -0.14810336386E+03 -0.51489800159E+02  0.58122954885E+02  0.16722465067E+03  0.00000000000E+00 0. -1.
          2    1    6    6  503    0  0.16423030384E+03  0.56547841272E+02  0.62091349744E+03  0.64475020152E+03  0.00000000000E+00 0.  1.
         -2    1    6    6    0  503 -0.31462762855E+01 -0.15212534612E+02  0.48692767652E+02  0.51110721824E+02  0.00000000000E+00 0. -1.
<mgrwt>
<rscale>  0 0.14364094E+04</rscale>
<asrwt>0</asrwt>
<pdfrwt beam="1">  1        2 0.28228747E+00 0.14364094E+04</pdfrwt>
<pdfrwt beam="2">  1       -1 0.43249208E-01 0.14364094E+04</pdfrwt>
<totfact> 0.48132026E+01</totfact>
</mgrwt>
</event>
<event>
12    6  0.1647231E-007  0.1705077E+04  0.7818608E-02  0.8758474E-01
          2   -1    0    0  501    0  0.00000000000E+00  0.00000000000E+00  0.68964105204E+03  0.68964105204E+03  0.00000000000E+00 0. -1.
         -1   -1    0    0    0  501 -0.00000000000E+00 -0.00000000000E+00 -0.10539130101E+04  0.10539130101E+04  0.00000000000E+00 0.  1.
         24    2    1    2    0    0 -0.26522579351E+03 -0.48117719675E+03  0.12732253530E+03  0.56935901783E+03  0.77990044051E+02 0.  0.
        254    2    1    2    0    0  0.26522579351E+03  0.48117719675E+03 -0.49159449338E+03  0.11741950443E+04  0.91388874596E+03 0.  0.
         23    2    4    4    0    0  0.40695958513E+03  0.36039212898E+03  0.88280551534E+02  0.55846671707E+03  0.92698585418E+02 0.  0.
         23    2    4    4    0    0 -0.14173379162E+03  0.12078506777E+03 -0.57987504491E+03  0.61572832726E+03  0.90492016138E+02 0.  0.
          4    1    3    3  502    0 -0.13125873783E+03 -0.25910212105E+03  0.10576726348E+03  0.30911078825E+03  0.00000000000E+00 0. -1.
         -1    1    3    3    0  502 -0.13396705568E+03 -0.22207507570E+03  0.21555271825E+02  0.26024822958E+03  0.00000000000E+00 0.  1.
         11    1    5    5    0    0  0.25598280965E+03  0.17203870402E+03  0.70774885771E+02  0.31643893403E+03  0.00000000000E+00 0.  1.
        -11    1    5    5    0    0  0.15097677549E+03  0.18835342496E+03  0.17505665763E+02  0.24202778304E+03  0.00000000000E+00 0. -1.
          1    1    6    6  503    0 -0.13550181118E+03  0.68968118854E+02 -0.47213754506E+03  0.49601532608E+03  0.00000000000E+00 0. -1.
         -1    1    6    6    0  503 -0.62319804461E+01  0.51816948919E+02 -0.10773749986E+03  0.11971300118E+03  0.00000000000E+00 0.  1.
<mgrwt>
<rscale>  0 0.17050767E+04</rscale>
<asrwt>0</asrwt>
<pdfrwt beam="1">  1        2 0.10609862E+00 0.17050767E+04</pdfrwt>
<pdfrwt beam="2">  1       -1 0.16214046E+00 0.17050767E+04</pdfrwt>
<totfact> 0.12769637E+01</totfact>
</mgrwt>
</event>
<event>
12    6  0.1647231E-007  0.2371637E+04  0.7818608E-02  0.8450199E-01
          2   -1    0    0  501    0  0.00000000000E+00  0.00000000000E+00  0.12946642283E+04  0.12946642283E+04  0.00000000000E+00 0. -1.
         -1   -1    0    0    0  501 -0.00000000000E+00 -0.00000000000E+00 -0.10861241011E+04  0.10861241011E+04  0.00000000000E+00 0.  1.
         24    2    1    2    0    0  0.65647144207E+03  0.11153597047E+03  0.86341455332E+03  0.10930402852E+04  0.76533308588E+02 0.  0.
        254    2    1    2    0    0 -0.65647144207E+03 -0.11153597047E+03 -0.65487442617E+03  0.12877480442E+04  0.88658867820E+03 0.  0.
         23    2    4    4    0    0 -0.11573954247E+03  0.26154664145E+03 -0.53483454877E+03  0.61373034631E+03  0.93886399891E+02 0.  0.
         23    2    4    4    0    0 -0.54073189960E+03 -0.37308261192E+03 -0.12003987740E+03  0.67401769788E+03  0.91151864111E+02 0.  0.
          2    1    3    3  502    0  0.19065597863E+03  0.14478499054E+02  0.29785775698E+03  0.35394713237E+03  0.00000000000E+00 0. -1.
         -1    1    3    3    0  502  0.46581546344E+03  0.97057471420E+02  0.56555679635E+03  0.73909315287E+03  0.00000000000E+00 0.  1.
         11    1    5    5    0    0 -0.16096621902E+02  0.45228522193E+02 -0.18063291495E+03  0.18690363939E+03  0.00000000000E+00 0. -1.
        -11    1    5    5    0    0 -0.99642920569E+02  0.21631811925E+03 -0.35420163382E+03  0.42682670692E+03  0.00000000000E+00 0.  1.
          1    1    6    6  503    0 -0.17521038683E+03 -0.17365778806E+03 -0.37334148771E+02  0.24949858852E+03  0.00000000000E+00 0. -1.
         -1    1    6    6    0  503 -0.36552151277E+03 -0.19942482386E+03 -0.82705728631E+02  0.42451910937E+03  0.00000000000E+00 0.  1.
<mgrwt>
<rscale>  0 0.23716374E+04</rscale>
<asrwt>0</asrwt>
<pdfrwt beam="1">  1        2 0.19917911E+00 0.23716374E+04</pdfrwt>
<pdfrwt beam="2">  1       -1 0.16709602E+00 0.23716374E+04</pdfrwt>
<totfact> 0.44216766E+00</totfact>
</mgrwt>
</event>
<event>
12    6  0.1647231E-007  0.1561827E+04  0.7818608E-02  0.8844349E-01
          2   -1    0    0  501    0  0.00000000000E+00  0.00000000000E+00  0.14235403892E+04  0.14235403892E+04  0.00000000000E+00 0. -1.
         -1   -1    0    0    0  501 -0.00000000000E+00 -0.00000000000E+00 -0.42838657870E+03  0.42838657870E+03  0.00000000000E+00 0.  1.
         24    2    1    2    0    0 -0.36386596959E+03 -0.13437654966E+03  0.74289569008E+03  0.84233859877E+03  0.84763245038E+02 0.  0.
        254    2    1    2    0    0  0.36386596959E+03  0.13437654966E+03  0.25225812039E+03  0.10095883691E+04  0.89731767774E+03 0.  0.
         23    2    4    4    0    0  0.47656681973E+03  0.35625683802E+03 -0.53878429517E+02  0.60451440823E+03  0.92194990594E+02 0.  0.
         23    2    4    4    0    0 -0.11270085013E+03 -0.22188028835E+03  0.30613654991E+03  0.40507396087E+03  0.91831272475E+02 0.  0.
          4    1    3    3  502    0 -0.34271986094E+03 -0.10556315754E+03  0.64297421108E+03  0.73621757614E+03  0.00000000000E+00 0. -1.
         -3    1    3    3    0  502 -0.21146108651E+02 -0.28813392125E+02  0.99921479001E+02  0.10612102262E+03  0.00000000000E+00 0.  1.
         11    1    5    5    0    0  0.99530782504E+02  0.70785896828E+02 -0.48930871434E+02  0.13157222364E+03  0.00000000000E+00 0.  1.
        -11    1    5    5    0    0  0.37703603722E+03  0.28547094119E+03 -0.49475580832E+01  0.47294218458E+03  0.00000000000E+00 0. -1.
          1    1    6    6  503    0 -0.58544910025E+02 -0.19627321385E+03  0.24734929770E+03  0.32114226760E+03  0.00000000000E+00 0. -1.
         -1    1    6    6    0  503 -0.54155940108E+02 -0.25607074508E+02  0.58787252208E+02  0.83931693275E+02  0.00000000000E+00 0.  1.
<mgrwt>
<rscale>  0 0.15618266E+04</rscale>
<asrwt>0</asrwt>
<pdfrwt beam="1">  1        2 0.21900621E+00 0.15618266E+04</pdfrwt>
<pdfrwt beam="2">  1       -1 0.65905628E-01 0.15618266E+04</pdfrwt>
<totfact> 0.35878721E+01</totfact>
</mgrwt>
</event>
<event>
12    6  0.1647231E-007  0.1588328E+04  0.7818608E-02  0.8827751E-01
         -1   -1    0    0    0  501 -0.00000000000E+00  0.00000000000E+00  0.11118697643E+04  0.11118697643E+04  0.00000000000E+00 0.  1.
          2   -1    0    0  501    0  0.00000000000E+00 -0.00000000000E+00 -0.56723953570E+03  0.56723953570E+03  0.00000000000E+00 0. -1.
         24    2    1    2    0    0  0.26713515393E+03  0.41924624340E+03  0.41149295544E+03  0.65036504171E+03  0.80744238400E+02 0.  0.
        254    2    1    2    0    0 -0.26713515393E+03 -0.41924624340E+03  0.13313727317E+03  0.10287442583E+04  0.89076406101E+03 0.  0.
         23    2    4    4    0    0  0.92037420595E+02 -0.26277726044E+02 -0.30560709093E+03  0.33279314086E+03  0.90521681940E+02 0.  0.
         23    2    4    4    0    0 -0.35917257452E+03 -0.39296851736E+03  0.43874436410E+03  0.69595111742E+03  0.91772255551E+02 0.  0.
          2    1    3    3  502    0  0.37260617053E+02  0.11383082264E+03  0.76729475732E+02  0.14224353136E+03  0.00000000000E+00 0. -1.
         -1    1    3    3    0  502  0.22987453688E+03  0.30541542076E+03  0.33476347971E+03  0.50812151036E+03  0.00000000000E+00 0.  1.
         11    1    5    5    0    0  0.14334683874E+02 -0.21288325407E+02 -0.10743879199E+02  0.27822776653E+02  0.00000000000E+00 0.  1.
        -11    1    5    5    0    0  0.77702736721E+02 -0.49894006371E+01 -0.29486321173E+03  0.30497036421E+03  0.00000000000E+00 0. -1.
          4    1    6    6  503    0 -0.19941516421E+03 -0.18449867623E+03  0.17165186885E+03  0.32135732966E+03  0.00000000000E+00 0. -1.
         -4    1    6    6    0  503 -0.15975741031E+03 -0.20846984113E+03  0.26709249526E+03  0.37459378777E+03  0.00000000000E+00 0.  1.
<mgrwt>
<rscale>  0 0.15883280E+04</rscale>
<asrwt>0</asrwt>
<pdfrwt beam="1">  1        2 0.87267621E-01 0.15883280E+04</pdfrwt>
<pdfrwt beam="2">  1       -1 0.17105689E+00 0.15883280E+04</pdfrwt>
<totfact> 0.14065896E+01</totfact>
</mgrwt>
</event>
<event>
12    6  0.1647231E-007  0.1357790E+04  0.7818608E-02  0.8984952E-01
         -1   -1    0    0    0  501 -0.00000000000E+00  0.00000000000E+00  0.36921396941E+03  0.36921396941E+03  0.00000000000E+00 0.  1.
          2   -1    0    0  501    0  0.00000000000E+00 -0.00000000000E+00 -0.12483237294E+04  0.12483237294E+04  0.00000000000E+00 0. -1.
         24    2    1    2    0    0  0.34041224592E+03 -0.14756598476E+03 -0.29397132820E+03  0.48005195034E+03  0.79840567315E+02 0.  0.
        254    2    1    2    0    0 -0.34041224592E+03  0.14756598476E+03 -0.58513843178E+03  0.11374857485E+04  0.90212561573E+03 0.  0.
         23    2    4    4    0    0 -0.47500033590E+03  0.34985399443E+03 -0.63667787999E+03  0.87262460802E+03  0.89954694894E+02 0.  0.
         23    2    4    4    0    0  0.13458808998E+03 -0.20228800967E+03  0.51539448209E+02  0.26486114043E+03  0.91982151360E+02 0.  0.
          4    1    3    3  502    0  0.30934596952E+03 -0.13318760259E+03 -0.29201260099E+03  0.44576364306E+03  0.00000000000E+00 0. -1.
         -3    1    3    3    0  502  0.31066276403E+02 -0.14378382174E+02 -0.19587272081E+01  0.34288307275E+02  0.00000000000E+00 0.  1.
         11    1    5    5    0    0 -0.17144513252E+00  0.12858853756E+02 -0.57701286647E+01  0.14095172867E+02  0.00000000000E+00 0. -1.
        -11    1    5    5    0    0 -0.47482889077E+03  0.33699514067E+03 -0.63090775133E+03  0.85852943516E+03  0.00000000000E+00 0.  1.
          4    1    6    6  503    0  0.31329898889E+02  0.12925559406E+01  0.31128467474E+01  0.31510682000E+02  0.00000000000E+00 0. -1.
         -4    1    6    6    0  503  0.10325819109E+03 -0.20358056561E+03  0.48426601461E+02  0.23335045843E+03  0.00000000000E+00 0.  1.
<mgrwt>
<rscale>  0 0.13577902E+04</rscale>
<asrwt>0</asrwt>
<pdfrwt beam="1">  1        2 0.19204980E+00 0.13577902E+04</pdfrwt>
<pdfrwt beam="2">  1       -1 0.56802150E-01 0.13577902E+04</pdfrwt>
<totfact> 0.61898190E+01</totfact>
</mgrwt>
</event>
<event>
12    6  0.1647231E-007  0.1293888E+04  0.7818608E-02  0.9034426E-01
          2   -1    0    0  501    0  0.00000000000E+00  0.00000000000E+00  0.13515843407E+04  0.13515843407E+04  0.00000000000E+00 0. -1.
         -1   -1    0    0    0  501 -0.00000000000E+00 -0.00000000000E+00 -0.30966353982E+03  0.30966353982E+03  0.00000000000E+00 0.  1.
         24    2    1    2    0    0  0.38256141605E+01 -0.26445255873E+03  0.14803296798E+02  0.27675060273E+03  0.80137178465E+02 0.  0.
        254    2    1    2    0    0 -0.38256141605E+01  0.26445255873E+03  0.10271175041E+04  0.13844972778E+04  0.88989468695E+03 0.  0.
         23    2    4    4    0    0 -0.14649631276E+03 -0.73635350134E+02  0.98646024297E+03  0.10040792902E+04  0.90487985557E+02 0.  0.
         23    2    4    4    0    0  0.14267069860E+03  0.33808790887E+03  0.40657261089E+02  0.38041798761E+03  0.91686804148E+02 0.  0.
          4    1    3    3  502    0  0.28030262184E+02 -0.55169850605E+02 -0.15785394649E+02  0.63863813682E+02  0.00000000000E+00 0. -1.
         -3    1    3    3    0  502 -0.24204648023E+02 -0.20928270813E+03  0.30588691446E+02  0.21288678905E+03  0.00000000000E+00 0.  1.
         11    1    5    5    0    0 -0.27294569490E+01 -0.32075514283E+02  0.28629837220E+03  0.28810249301E+03  0.00000000000E+00 0.  1.
        -11    1    5    5    0    0 -0.14376685581E+03 -0.41559835851E+02  0.70016187077E+03  0.71597679715E+03  0.00000000000E+00 0. -1.
          4    1    6    6  503    0  0.15238452151E+03  0.33483977803E+03  0.41054526938E+02  0.37016779105E+03  0.00000000000E+00 0. -1.
         -4    1    6    6    0  503 -0.97138229062E+01  0.32481308371E+01 -0.39726584946E+00  0.10250196561E+02  0.00000000000E+00 0.  1.
<mgrwt>
<rscale>  0 0.12938878E+04</rscale>
<asrwt>0</asrwt>
<pdfrwt beam="1">  1        2 0.20793605E+00 0.12938878E+04</pdfrwt>
<pdfrwt beam="2">  1       -1 0.47640545E-01 0.12938878E+04</pdfrwt>
<totfact> 0.75844391E+01</totfact>
</mgrwt>
</event>
<event>
12    6  0.1647231E-007  0.1987902E+04  0.7818608E-02  0.8612298E-01
         -3   -1    0    0    0  501 -0.00000000000E+00  0.00000000000E+00  0.47290228736E+03  0.47290228736E+03  0.00000000000E+00 0.  1.
          2   -1    0    0  501    0  0.00000000000E+00 -0.00000000000E+00 -0.20890970400E+04  0.20890970400E+04  0.00000000000E+00 0. -1.
         24    2    1    2    0    0  0.34029772274E+03  0.87661070442E+02  0.26940820498E+03  0.44983779902E+03  0.79285945442E+02 0.  0.
        254    2    1    2    0    0 -0.34029772274E+03 -0.87661070442E+02 -0.18856029577E+04  0.21121615284E+04  0.88444378264E+03 0.  0.
         23    2    4    4    0    0 -0.19821067329E+03 -0.47233232193E+03 -0.11865602097E+04  0.12955347835E+04  0.89999724900E+02 0.  0.
         23    2    4    4    0    0 -0.14208704945E+03  0.38467125148E+03 -0.69904274793E+03  0.81662674493E+03  0.10028846271E+03 0.  0.
          2    1    3    3  502    0  0.11752112090E+03  0.62864477700E+02  0.12811877709E+03  0.18487178653E+03  0.00000000000E+00 0. -1.
         -1    1    3    3    0  502  0.22277660184E+03  0.24796592742E+02  0.14128942790E+03  0.26496601249E+03  0.00000000000E+00 0.  1.
         11    1    5    5    0    0 -0.93028113605E+02 -0.12490575642E+03 -0.31483887116E+03  0.35125374404E+03  0.00000000000E+00 0. -1.
        -11    1    5    5    0    0 -0.10518255969E+03 -0.34742656550E+03 -0.87172133857E+03  0.94428103941E+03  0.00000000000E+00 0.  1.
          1    1    6    6  503    0  0.86424017701E+01  0.70490139912E+02 -0.15585270087E+03  0.17127059088E+03  0.00000000000E+00 0. -1.
         -1    1    6    6    0  503 -0.15072945122E+03  0.31418111157E+03 -0.54319004707E+03  0.64535615404E+03  0.00000000000E+00 0.  1.
<mgrwt>
<rscale>  0 0.19879022E+04</rscale>
<asrwt>0</asrwt>
<pdfrwt beam="1">  1        2 0.32139954E+00 0.19879022E+04</pdfrwt>
<pdfrwt beam="2">  1       -3 0.72754198E-01 0.19879022E+04</pdfrwt>
<totfact> 0.63638728E+00</totfact>
</mgrwt>
</event>
<event>
12    6  0.1647231E-007  0.1224341E+04  0.7818608E-02  0.9091814E-01
          2   -1    0    0  501    0  0.00000000000E+00  0.00000000000E+00  0.66889428084E+03  0.66889428084E+03  0.00000000000E+00 0. -1.
         -1   -1    0    0    0  501 -0.00000000000E+00 -0.00000000000E+00 -0.56025663972E+03  0.56025663972E+03  0.00000000000E+00 0.  1.
         24    2    1    2    0    0  0.26146103693E+03 -0.47393649781E+02  0.63682959165E+02  0.28468059413E+03  0.79871706575E+02 0.  0.
        254    2    1    2    0    0 -0.26146103693E+03  0.47393649781E+02  0.44954681956E+02  0.94447032642E+03  0.90520453058E+03 0.  0.
         23    2    4    4    0    0 -0.41249563634E+03  0.16328377877E+03  0.35135256941E+03  0.57332400355E+03  0.91856097285E+02 0.  0.
         23    2    4    4    0    0  0.15103459941E+03 -0.11589012899E+03 -0.30639788745E+03  0.37114632287E+03  0.87338166521E+02 0.  0.
          4    1    3    3  502    0  0.19535744672E+03 -0.21058701306E+02  0.79202662893E+02  0.21185151097E+03  0.00000000000E+00 0. -1.
         -3    1    3    3    0  502  0.66103590214E+02 -0.26334948475E+02 -0.15519703728E+02  0.72829083162E+02  0.00000000000E+00 0.  1.
         11    1    5    5    0    0 -0.53862122331E+02 -0.85059386416E+01  0.54420908409E+02  0.77039694225E+02  0.00000000000E+00 0. -1.
        -11    1    5    5    0    0 -0.35863351401E+03  0.17178971742E+03  0.29693166100E+03  0.49628430933E+03  0.00000000000E+00 0.  1.
          3    1    6    6  503    0  0.37254498674E+02 -0.36574032313E+02 -0.26005034377E+02  0.58325117437E+02  0.00000000000E+00 0. -1.
         -3    1    6    6    0  503  0.11378010073E+03 -0.79316096681E+02 -0.28039285307E+03  0.31282120543E+03  0.00000000000E+00 0.  1.
<mgrwt>
<rscale>  0 0.12243406E+04</rscale>
<asrwt>0</asrwt>
<pdfrwt beam="1">  1        2 0.10290681E+00 0.12243406E+04</pdfrwt>
<pdfrwt beam="2">  1       -1 0.86193329E-01 0.12243406E+04</pdfrwt>
<totfact> 0.64889073E+01</totfact>
</mgrwt>
</event>
<event>
12    6  0.1647231E-007  0.3506745E+04  0.7818608E-02  0.8112193E-01
         -1   -1    0    0    0  501 -0.00000000000E+00  0.00000000000E+00  0.29646321257E+04  0.29646321257E+04  0.00000000000E+00 0.  1.
          2   -1    0    0  501    0  0.00000000000E+00 -0.00000000000E+00 -0.10369973874E+04  0.10369973874E+04  0.00000000000E+00 0. -1.
         24    2    1    2    0    0 -0.15923155123E+04  0.22165702023E+03  0.57384486723E+03  0.17089069771E+04  0.80402733834E+02 0.  0.
        254    2    1    2    0    0  0.15923155123E+04 -0.22165702023E+03  0.13537898711E+04  0.22927225361E+04  0.91609447498E+03 0.  0.
         23    2    4    4    0    0  0.29541847859E+03 -0.26523217744E+03 -0.10324669223E+02  0.40774955249E+03  0.92373769661E+02 0.  0.
         23    2    4    4    0    0  0.12968970337E+04  0.43575157210E+02  0.13641145403E+04  0.18849729836E+04  0.92054111369E+02 0.  0.
          2    1    3    3  502    0 -0.12068478693E+04  0.17835137578E+03  0.46994173444E+03  0.13073393694E+04  0.00000000000E+00 0. -1.
         -1    1    3    3    0  502 -0.38546764295E+03  0.43305644450E+02  0.10390313279E+03  0.40156760776E+03  0.00000000000E+00 0.  1.
         11    1    5    5    0    0  0.58734817868E+02 -0.10182899097E+02  0.91345880244E+00  0.59617989492E+02  0.00000000000E+00 0.  1.
        -11    1    5    5    0    0  0.23668366072E+03 -0.25504927834E+03 -0.11238128026E+02  0.34813156300E+03  0.00000000000E+00 0. -1.
          1    1    6    6  503    0  0.52721790207E+03  0.59503812299E+02  0.53146418612E+03  0.75096844213E+03  0.00000000000E+00 0. -1.
         -1    1    6    6    0  503  0.76967913161E+03 -0.15928655090E+02  0.83265035418E+03  0.11340045414E+04  0.00000000000E+00 0.  1.
<mgrwt>
<rscale>  0 0.35067454E+04</rscale>
<asrwt>0</asrwt>
<pdfrwt beam="1">  1        2 0.15953806E+00 0.35067454E+04</pdfrwt>
<pdfrwt beam="2">  1       -1 0.45609725E+00 0.35067454E+04</pdfrwt>
<totfact> 0.65524935E-02</totfact>
</mgrwt>
</event>
<event>
12    6  0.1647231E-007  0.1864855E+04  0.7818608E-02  0.8672551E-01
         -1   -1    0    0    0  501 -0.00000000000E+00  0.00000000000E+00  0.74306489648E+03  0.74306489648E+03  0.00000000000E+00 0.  1.
          2   -1    0    0  501    0  0.00000000000E+00 -0.00000000000E+00 -0.11700470037E+04  0.11700470037E+04  0.00000000000E+00 0. -1.
         24    2    1    2    0    0  0.22525267425E+03 -0.65726314487E+02 -0.84856064226E+03  0.88362157126E+03  0.75320660778E+02 0.  0.
        254    2    1    2    0    0 -0.22525267425E+03  0.65726314487E+02  0.42157853508E+03  0.10294903289E+04  0.90943012944E+03 0.  0.
         23    2    4    4    0    0 -0.94236303188E+02 -0.33371871696E+03  0.47671991173E+03  0.59615453620E+03  0.88823948923E+02 0.  0.
         23    2    4    4    0    0 -0.13101637106E+03  0.39944503145E+03 -0.55141376649E+02  0.43333579268E+03  0.89541695113E+02 0.  0.
          2    1    3    3  502    0  0.17950744485E+03 -0.81555205443E+02 -0.64997441019E+03  0.67922080960E+03  0.00000000000E+00 0. -1.
         -1    1    3    3    0  502  0.45745229401E+02  0.15828890957E+02 -0.19858623207E+03  0.20440076166E+03  0.00000000000E+00 0.  1.
         11    1    5    5    0    0 -0.40980028207E+02 -0.12866254377E+03  0.26063853520E+03  0.29354021686E+03  0.00000000000E+00 0.  1.
        -11    1    5    5    0    0 -0.53256274981E+02 -0.20505617319E+03  0.21608137653E+03  0.30261431934E+03  0.00000000000E+00 0. -1.
          2    1    6    6  503    0 -0.14043819666E+03  0.38585116987E+03 -0.43085333306E+02  0.41286845159E+03  0.00000000000E+00 0. -1.
         -2    1    6    6    0  503  0.94218255990E+01  0.13593861578E+02 -0.12056043344E+02  0.20467341091E+02  0.00000000000E+00 0.  1.
<mgrwt>
<rscale>  0 0.18648548E+04</rscale>
<asrwt>0</asrwt>
<pdfrwt beam="1">  1        2 0.18000723E+00 0.18648548E+04</pdfrwt>
<pdfrwt beam="2">  1       -1 0.11431768E+00 0.18648548E+04</pdfrwt>
<totfact> 0.14723692E+01</totfact>
</mgrwt>
</event>
<event>
12    6  0.1647231E-007  0.2427452E+04  0.7818608E-02  0.8429297E-01
          2   -1    0    0  501    0  0.00000000000E+00  0.00000000000E+00  0.10832048177E+04  0.10832048177E+04  0.00000000000E+00 0. -1.
         -1   -1    0    0    0  501 -0.00000000000E+00 -0.00000000000E+00 -0.13599746969E+04  0.13599746969E+04  0.00000000000E+00 0.  1.
         24    2    1    2    0    0  0.80159114709E+03  0.33623432543E+03  0.44932743284E+03  0.98196782303E+03  0.82242172188E+02 0.  0.
        254    2    1    2    0    0 -0.80159114709E+03 -0.33623432543E+03 -0.72609731199E+03  0.14612116915E+04  0.92321200834E+03 0.  0.
         23    2    4    4    0    0 -0.56944603836E+03 -0.64890277844E+03 -0.49430403148E+03  0.99914969115E+03  0.92844080612E+02 0.  0.
         23    2    4    4    0    0 -0.23214510872E+03  0.31266845301E+03 -0.23179328051E+03  0.46206200040E+03  0.90112453679E+02 0.  0.
          2    1    3    3  502    0  0.77107542464E+03  0.31493060532E+03  0.44546500055E+03  0.94455156734E+03  0.00000000000E+00 0. -1.
         -1    1    3    3    0  502  0.30515722449E+02  0.21303720111E+02  0.38624322933E+01  0.37416255696E+02  0.00000000000E+00 0.  1.
         11    1    5    5    0    0 -0.48429011213E+03 -0.50677217310E+03 -0.37494409280E+03  0.79494529425E+03  0.00000000000E+00 0.  1.
        -11    1    5    5    0    0 -0.85155926234E+02 -0.14213060535E+03 -0.11935993868E+03  0.20420439690E+03  0.00000000000E+00 0. -1.
          1    1    6    6  503    0 -0.14027077454E+03  0.11372400511E+03 -0.10391252828E+03  0.20834311378E+03  0.00000000000E+00 0. -1.
         -1    1    6    6    0  503 -0.91874334186E+02  0.19894444790E+03 -0.12788075223E+03  0.25371888662E+03  0.00000000000E+00 0.  1.
<mgrwt>
<rscale>  0 0.24274523E+04</rscale>
<asrwt>0</asrwt>
<pdfrwt beam="1">  1        2 0.16664690E+00 0.24274523E+04</pdfrwt>
<pdfrwt beam="2">  1       -1 0.20922688E+00 0.24274523E+04</pdfrwt>
<totfact> 0.29699041E+00</totfact>
</mgrwt>
</event>
<event>
12    6  0.1647231E-007  0.2081169E+04  0.7818608E-02  0.8569584E-01
         -1   -1    0    0    0  501 -0.00000000000E+00  0.00000000000E+00  0.40337519128E+03  0.40337519128E+03  0.00000000000E+00 0.  1.
          2   -1    0    0  501    0  0.00000000000E+00 -0.00000000000E+00 -0.26843882954E+04  0.26843882954E+04  0.00000000000E+00 0. -1.
         24    2    1    2    0    0 -0.65144365738E+03  0.40890894811E+03 -0.40985641002E+03  0.87408947652E+03  0.66818930998E+02 0.  0.
        254    2    1    2    0    0  0.65144365738E+03 -0.40890894811E+03 -0.18711566941E+04  0.22136740101E+04  0.89863222889E+03 0.  0.
         23    2    4    4    0    0  0.62834980861E+03 -0.48165852035E+03 -0.77700296820E+03  0.11130139486E+04  0.90818637731E+02 0.  0.
         23    2    4    4    0    0  0.23093848778E+02  0.72749572241E+02 -0.10941537259E+04  0.11006600615E+04  0.91947643470E+02 0.  0.
          2    1    3    3  502    0 -0.23871591793E+03  0.15674192442E+03 -0.18849368875E+03  0.34217421154E+03  0.00000000000E+00 0. -1.
         -1    1    3    3    0  502 -0.41272773946E+03  0.25216702369E+03 -0.22136272127E+03  0.53191526498E+03  0.00000000000E+00 0.  1.
         11    1    5    5    0    0  0.46049437636E+03 -0.30470792847E+03 -0.51519349432E+03  0.75519952921E+03  0.00000000000E+00 0.  1.
        -11    1    5    5    0    0  0.16785543225E+03 -0.17695059188E+03 -0.26180947388E+03  0.35781441938E+03  0.00000000000E+00 0. -1.
          4    1    6    6  503    0 -0.30628373032E+02  0.22690211882E+01 -0.25689833365E+03  0.25872765512E+03  0.00000000000E+00 0. -1.
         -4    1    6    6    0  503  0.53722221809E+02  0.70480551052E+02 -0.83725539222E+03  0.84193240642E+03  0.00000000000E+00 0.  1.
<mgrwt>
<rscale>  0 0.20811686E+04</rscale>
<asrwt>0</asrwt>
<pdfrwt beam="1">  1        2 0.41298283E+00 0.20811686E+04</pdfrwt>
<pdfrwt beam="2">  1       -1 0.62057720E-01 0.20811686E+04</pdfrwt>
<totfact> 0.75116100E+00</totfact>
</mgrwt>
</event>
<event>
12    6  0.1647231E-007  0.1353144E+04  0.7818608E-02  0.8988452E-01
          2   -1    0    0  501    0  0.00000000000E+00  0.00000000000E+00  0.31907795661E+04  0.31907795661E+04  0.00000000000E+00 0. -1.
         -1   -1    0    0    0  501 -0.00000000000E+00 -0.00000000000E+00 -0.14346006522E+03  0.14346006522E+03  0.00000000000E+00 0.  1.
         24    2    1    2    0    0 -0.65941185824E+02  0.29230114037E+02  0.13652309359E+04  0.13694405910E+04  0.79431632547E+02 0.  0.
        254    2    1    2    0    0  0.65941185824E+02 -0.29230114037E+02  0.16820885650E+04  0.19647990404E+04  0.10128231282E+04 0.  0.
         23    2    4    4    0    0  0.18040966556E+03  0.42958670262E+03  0.11649726457E+04  0.12579686168E+04  0.90727024939E+02 0.  0.
         23    2    4    4    0    0 -0.11446847974E+03 -0.45881681666E+03  0.51711591930E+03  0.70683042361E+03  0.92652413068E+02 0.  0.
          2    1    3    3  502    0 -0.56383593676E+02  0.39600174586E+01  0.12418787295E+04  0.12431643376E+04  0.00000000000E+00 0. -1.
         -1    1    3    3    0  502 -0.95575921473E+01  0.25270096579E+02  0.12335220640E+03  0.12627625340E+03  0.00000000000E+00 0.  1.
         11    1    5    5    0    0  0.12213509532E+03  0.36849794957E+03  0.99847934837E+03  0.10712930176E+04  0.00000000000E+00 0.  1.
        -11    1    5    5    0    0  0.58274570236E+02  0.61088753054E+02  0.16649329732E+03  0.18667559920E+03  0.00000000000E+00 0. -1.
          1    1    6    6  503    0 -0.83731810498E+02 -0.17916592351E+03  0.17670452274E+03  0.26520922419E+03  0.00000000000E+00 0. -1.
         -1    1    6    6    0  503 -0.30736669238E+02 -0.27965089315E+03  0.34041139655E+03  0.44162119942E+03  0.00000000000E+00 0.  1.
<mgrwt>
<rscale>  0 0.13531437E+04</rscale>
<asrwt>0</asrwt>
<pdfrwt beam="1">  1        2 0.49088911E+00 0.13531437E+04</pdfrwt>
<pdfrwt beam="2">  1       -1 0.22070782E-01 0.13531437E+04</pdfrwt>
<totfact> 0.25670508E+01</totfact>
</mgrwt>
</event>
<event>
12    6  0.1647231E-007  0.1411685E+04  0.7818608E-02  0.8945403E-01
         -1   -1    0    0    0  501 -0.00000000000E+00  0.00000000000E+00  0.53291439278E+03  0.53291439278E+03  0.00000000000E+00 0.  1.
          2   -1    0    0  501    0  0.00000000000E+00 -0.00000000000E+00 -0.93488518229E+03  0.93488518229E+03  0.00000000000E+00 0. -1.
         24    2    1    2    0    0 -0.27224973634E+03 -0.27201256774E+03  0.12519597686E+03  0.41188412625E+03  0.76575093118E+02 0.  0.
        254    2    1    2    0    0  0.27224973634E+03  0.27201256774E+03 -0.52716676636E+03  0.10559154488E+04  0.83002522827E+03 0.  0.
         23    2    4    4    0    0  0.11528088410E+03  0.25207025566E+03  0.16718018328E+03  0.33795804011E+03  0.97145906573E+02 0.  0.
         23    2    4    4    0    0  0.15696885224E+03  0.19942312084E+02 -0.69434694964E+03  0.71795740871E+03  0.91149535728E+02 0.  0.
          4    1    3    3  502    0 -0.20271814074E+02 -0.45731561325E+02 -0.21392618345E+01  0.50068938358E+02  0.00000000000E+00 0. -1.
         -3    1    3    3    0  502 -0.25197792227E+03 -0.22628100642E+03  0.12733523869E+03  0.36181518789E+03  0.00000000000E+00 0.  1.
         11    1    5    5    0    0  0.71669329694E+02  0.21813474931E+03  0.98592790516E+02  0.24987957103E+03  0.00000000000E+00 0. -1.
        -11    1    5    5    0    0  0.43611554406E+02  0.33935506349E+02  0.68587392767E+02  0.88078469079E+02  0.00000000000E+00 0.  1.
          1    1    6    6  503    0  0.43184630521E+02 -0.98399684004E+01 -0.71534622838E+02  0.84136434177E+02  0.00000000000E+00 0. -1.
         -1    1    6    6    0  503  0.11378422172E+03  0.29782280485E+02 -0.62281232681E+03  0.63382097454E+03  0.00000000000E+00 0.  1.
<mgrwt>
<rscale>  0 0.14116852E+04</rscale>
<asrwt>0</asrwt>
<pdfrwt beam="1">  1        2 0.14382849E+00 0.14116852E+04</pdfrwt>
<pdfrwt beam="2">  1       -1 0.81986830E-01 0.14116852E+04</pdfrwt>
<totfact> 0.45647837E+01</totfact>
</mgrwt>
</event>
<event>
12    6  0.1647231E-007  0.2975747E+04  0.7818608E-02  0.8250691E-01
          2   -1    0    0  501    0  0.00000000000E+00  0.00000000000E+00  0.10191892469E+04  0.10191892469E+04  0.00000000000E+00 0. -1.
         -1   -1    0    0    0  501 -0.00000000000E+00 -0.00000000000E+00 -0.21720867802E+04  0.21720867802E+04  0.00000000000E+00 0.  1.
         24    2    1    2    0    0 -0.12126326162E+04 -0.58705402289E+03 -0.59311913735E+03  0.14741634541E+04  0.79103038074E+02 0.  0.
        254    2    1    2    0    0  0.12126326162E+04  0.58705402289E+03 -0.55977839587E+03  0.17171125730E+04  0.90554593929E+03 0.  0.
         23    2    4    4    0    0  0.76687634135E+03 -0.11984486147E+03 -0.28962497571E+03  0.83415288179E+03  0.97294860631E+02 0.  0.
         23    2    4    4    0    0  0.44575627486E+03  0.70689888436E+03 -0.27015342016E+03  0.88295969121E+03  0.90720761578E+02 0.  0.
          4    1    3    3  502    0 -0.86095243211E+02 -0.26333923091E+02 -0.24635282192E+02  0.93342185199E+02  0.00000000000E+00 0. -1.
         -3    1    3    3    0  502 -0.11265373730E+04 -0.56072009980E+03 -0.56848385515E+03  0.13808212689E+04  0.00000000000E+00 0.  1.
         11    1    5    5    0    0  0.27877626805E+03  0.63303745760E+00 -0.86099883078E+02  0.29177011196E+03  0.00000000000E+00 0.  1.
        -11    1    5    5    0    0  0.48810007329E+03 -0.12047789893E+03 -0.20352509263E+03  0.54238276983E+03  0.00000000000E+00 0. -1.
          3    1    6    6  503    0  0.11036566623E+03  0.11702851288E+03 -0.33414547778E+02  0.16429481158E+03  0.00000000000E+00 0. -1.
         -3    1    6    6    0  503  0.33539060863E+03  0.58987037148E+03 -0.23673887238E+03  0.71866487962E+03  0.00000000000E+00 0.  1.
<mgrwt>
<rscale>  0 0.29757470E+04</rscale>
<asrwt>0</asrwt>
<pdfrwt beam="1">  1        2 0.15679835E+00 0.29757470E+04</pdfrwt>
<pdfrwt beam="2">  1       -1 0.33416719E+00 0.29757470E+04</pdfrwt>
<totfact> 0.47298885E-01</totfact>
</mgrwt>
</event>
<event>
12    6  0.1647231E-007  0.2722328E+04  0.7818608E-02  0.8327797E-01
          2   -1    0    0  501    0  0.00000000000E+00  0.00000000000E+00  0.16077655329E+04  0.16077655329E+04  0.00000000000E+00 0. -1.
         -1   -1    0    0    0  501 -0.00000000000E+00 -0.00000000000E+00 -0.11523863735E+04  0.11523863735E+04  0.00000000000E+00 0.  1.
         24    2    1    2    0    0 -0.10550946239E+04  0.53156391367E+03  0.41086797172E+03  0.12534752264E+04  0.81257574471E+02 0.  0.
        254    2    1    2    0    0  0.10550946239E+04 -0.53156391367E+03  0.44511187666E+02  0.15066766799E+04  0.93397457800E+03 0.  0.
         23    2    4    4    0    0  0.26133862939E+03  0.23150780494E+03 -0.13901033101E+03  0.38667516312E+03  0.91104701771E+02 0.  0.
         23    2    4    4    0    0  0.79375599450E+03 -0.76307171861E+03  0.18352151867E+03  0.11200015168E+04  0.91630908017E+02 0.  0.
          4    1    3    3  502    0 -0.94696336779E+03  0.48566166690E+03  0.39384297012E+03  0.11347771410E+04  0.00000000000E+00 0. -1.
         -3    1    3    3    0  502 -0.10813125611E+03  0.45902246775E+02  0.17025001604E+02  0.11869808543E+03  0.00000000000E+00 0.  1.
         11    1    5    5    0    0  0.97749557390E+01 -0.20969773293E+01 -0.21686545031E+02  0.23879977156E+02  0.00000000000E+00 0. -1.
        -11    1    5    5    0    0  0.25156367365E+03  0.23360478227E+03 -0.11732378598E+03  0.36279518596E+03  0.00000000000E+00 0.  1.
          1    1    6    6  503    0  0.43727762219E+02 -0.49857149656E+02 -0.10007398820E+02  0.67067134959E+02  0.00000000000E+00 0. -1.
         -1    1    6    6    0  503  0.75002823228E+03 -0.71321456895E+03  0.19352891750E+03  0.10529343819E+04  0.00000000000E+00 0.  1.
<mgrwt>
<rscale>  0 0.27223277E+04</rscale>
<asrwt>0</asrwt>
<pdfrwt beam="1">  1        2 0.24734854E+00 0.27223277E+04</pdfrwt>
<pdfrwt beam="2">  1       -1 0.17729021E+00 0.27223277E+04</pdfrwt>
<totfact> 0.23965160E+00</totfact>
</mgrwt>
</event>
<event>
12    6  0.1647231E-007  0.2277887E+04  0.7818608E-02  0.8486691E-01
         -1   -1    0    0    0  501 -0.00000000000E+00  0.00000000000E+00  0.96764875333E+03  0.96764875333E+03  0.00000000000E+00 0.  1.
          2   -1    0    0  501    0  0.00000000000E+00 -0.00000000000E+00 -0.13405613487E+04  0.13405613487E+04  0.00000000000E+00 0. -1.
         24    2    1    2    0    0  0.42822330659E+03  0.66479246127E+03 -0.76633253573E+03  0.11039477232E+04  0.78171627699E+02 0.  0.
        254    2    1    2    0    0 -0.42822330659E+03 -0.66479246127E+03  0.39341994034E+03  0.12042623789E+04  0.81862348537E+03 0.  0.
         23    2    4    4    0    0 -0.47089762303E+03 -0.13553803177E+03  0.43814352350E+03  0.66380550831E+03  0.92481761729E+02 0.  0.
         23    2    4    4    0    0  0.42674316442E+02 -0.52925442950E+03 -0.44723583162E+02  0.54045687054E+03  0.90344239397E+02 0.  0.
          4    1    3    3  502    0  0.41060377136E+03  0.64635464856E+03 -0.75707685277E+03  0.10768171385E+04  0.00000000000E+00 0. -1.
         -1    1    3    3    0  502  0.17619535230E+02  0.18437812710E+02 -0.92556829646E+01  0.27130584704E+02  0.00000000000E+00 0.  1.
         11    1    5    5    0    0 -0.39714791726E+03 -0.14499572325E+03  0.35312829404E+03  0.55086279598E+03  0.00000000000E+00 0.  1.
        -11    1    5    5    0    0 -0.73749705773E+02  0.94576914796E+01  0.85015229457E+02  0.11294271233E+03  0.00000000000E+00 0. -1.
          3    1    6    6  503    0  0.34660309856E+02 -0.89814111433E+02 -0.29466966258E+02  0.10067876535E+03  0.00000000000E+00 0. -1.
         -3    1    6    6    0  503  0.80140065861E+01 -0.43944031807E+03 -0.15256616904E+02  0.43977810519E+03  0.00000000000E+00 0.  1.
<mgrwt>
<rscale>  0 0.22778872E+04</rscale>
<asrwt>0</asrwt>
<pdfrwt beam="1">  1        2 0.20624021E+00 0.22778872E+04</pdfrwt>
<pdfrwt beam="2">  1       -1 0.14886904E+00 0.22778872E+04</pdfrwt>
<totfact> 0.57710365E+00</totfact>
</mgrwt>
</event>
<event>
12    6  0.1647231E-007  0.1463307E+04  0.7818608E-02  0.8909227E-01
         -1   -1    0    0    0  501 -0.00000000000E+00  0.00000000000E+00  0.29653788685E+03  0.29653788685E+03  0.00000000000E+00 0.  1.
          2   -1    0    0  501    0  0.00000000000E+00 -0.00000000000E+00 -0.18052224415E+04  0.18052224415E+04  0.00000000000E+00 0. -1.
         24    2    1    2    0    0 -0.37729539762E+02 -0.11706728391E+03 -0.10545006668E+04  0.10644358352E+04  0.76965731522E+02 0.  0.
        254    2    1    2    0    0  0.37729539762E+02  0.11706728391E+03 -0.45418388790E+03  0.10373244932E+04  0.92446245627E+03 0.  0.
         23    2    4    4    0    0  0.16804077398E+03 -0.33609945759E+03 -0.15438739894E+02  0.38669744038E+03  0.89977822785E+02 0.  0.
         23    2    4    4    0    0 -0.13031123421E+03  0.45316674150E+03 -0.43874514801E+03  0.65062705283E+03  0.92071404960E+02 0.  0.
          2    1    3    3  502    0 -0.49885387945E+02 -0.11894704850E+03 -0.86813623833E+03  0.87766592766E+03  0.00000000000E+00 0. -1.
         -1    1    3    3    0  502  0.12155848183E+02  0.18797645942E+01 -0.18636442846E+03  0.18676990752E+03  0.00000000000E+00 0.  1.
         11    1    5    5    0    0  0.10430734214E+03 -0.14071011665E+03  0.25900756622E+02  0.17705989875E+03  0.00000000000E+00 0. -1.
        -11    1    5    5    0    0  0.63733431835E+02 -0.19538934094E+03 -0.41339496516E+02  0.20963754162E+03  0.00000000000E+00 0.  1.
          1    1    6    6  503    0 -0.37656552563E+02  0.99333883037E+02 -0.15404009585E+03  0.18711917967E+03  0.00000000000E+00 0. -1.
         -1    1    6    6    0  503 -0.92654681651E+02  0.35383285846E+03 -0.28470505216E+03  0.46350787316E+03  0.00000000000E+00 0.  1.
<mgrwt>
<rscale>  0 0.14633070E+04</rscale>
<asrwt>0</asrwt>
<pdfrwt beam="1">  1        2 0.27772653E+00 0.14633070E+04</pdfrwt>
<pdfrwt beam="2">  1       -1 0.45621213E-01 0.14633070E+04</pdfrwt>
<totfact> 0.45158199E+01</totfact>
</mgrwt>
</event>
<event>
12    6  0.1647231E-007  0.1931944E+04  0.7818608E-02  0.8639117E-01
          2   -1    0    0  501    0  0.00000000000E+00  0.00000000000E+00  0.13977722185E+04  0.13977722185E+04  0.00000000000E+00 0. -1.
         -1   -1    0    0    0  501 -0.00000000000E+00 -0.00000000000E+00 -0.66756360486E+03  0.66756360486E+03  0.00000000000E+00 0.  1.
         24    2    1    2    0    0 -0.13528763561E+03  0.43868894403E+03  0.92215593665E+03  0.10331633087E+04  0.79398468974E+02 0.  0.
        254    2    1    2    0    0  0.13528763561E+03 -0.43868894403E+03 -0.19194732300E+03  0.10321725147E+04  0.90431498462E+03 0.  0.
         23    2    4    4    0    0  0.24831743619E+03 -0.50763658871E+03 -0.45020239511E+03  0.72819862692E+03  0.90744632727E+02 0.  0.
         23    2    4    4    0    0 -0.11302980058E+03  0.68947644686E+02  0.25825507211E+03  0.30397388782E+03  0.90415312185E+02 0.  0.
          4    1    3    3  502    0 -0.88041048551E+02  0.26975015104E+03  0.48174279193E+03  0.55909971186E+03  0.00000000000E+00 0. -1.
         -3    1    3    3    0  502 -0.47246587059E+02  0.16893879299E+03  0.44041314472E+03  0.47406359680E+03  0.00000000000E+00 0.  1.
         11    1    5    5    0    0  0.16454037926E+03 -0.41128082614E+03 -0.32533697305E+03  0.54960858836E+03  0.00000000000E+00 0. -1.
        -11    1    5    5    0    0  0.83777056934E+02 -0.96355762568E+02 -0.12486542205E+03  0.17859003856E+03  0.00000000000E+00 0.  1.
          3    1    6    6  503    0 -0.11307048530E+03  0.86138623202E+02  0.21856844645E+03  0.26072392072E+03  0.00000000000E+00 0. -1.
         -3    1    6    6    0  503  0.40684716351E-01 -0.17190978516E+02  0.39686625663E+02  0.43249967099E+02  0.00000000000E+00 0.  1.
<mgrwt>
<rscale>  0 0.19319440E+04</rscale>
<asrwt>0</asrwt>
<pdfrwt beam="1">  1        2 0.21504188E+00 0.19319440E+04</pdfrwt>
<pdfrwt beam="2">  1       -1 0.10270209E+00 0.19319440E+04</pdfrwt>
<totfact> 0.13849591E+01</totfact>
</mgrwt>
</event>
<event>
12    6  0.1647231E-007  0.1761470E+04  0.7818608E-02  0.8727062E-01
         -1   -1    0    0    0  501 -0.00000000000E+00  0.00000000000E+00  0.35699706880E+03  0.35699706880E+03  0.00000000000E+00 0.  1.
          2   -1    0    0  501    0  0.00000000000E+00 -0.00000000000E+00 -0.21728315537E+04  0.21728315537E+04  0.00000000000E+00 0. -1.
         24    2    1    2    0    0  0.50589175191E+02  0.34198415744E+03 -0.14381567871E+04  0.14813797630E+04  0.81722882324E+02 0.  0.
        254    2    1    2    0    0 -0.50589175191E+02 -0.34198415744E+03 -0.37767769778E+03  0.10484488594E+04  0.91492739541E+03 0.  0.
         23    2    4    4    0    0  0.26424153905E+03  0.17340511592E+03  0.26974356372E+01  0.32879693404E+03  0.90593722102E+02 0.  0.
         23    2    4    4    0    0 -0.31483071424E+03 -0.51538927336E+03 -0.38037513342E+03  0.71965192540E+03  0.92028092918E+02 0.  0.
          4    1    3    3  502    0  0.71608841397E+02  0.29520134220E+03 -0.12131466302E+04  0.12505984187E+04  0.00000000000E+00 0. -1.
         -3    1    3    3    0  502 -0.21019666207E+02  0.46782815239E+02 -0.22501015689E+03  0.23078134429E+03  0.00000000000E+00 0.  1.
         11    1    5    5    0    0  0.40285491932E+02  0.72503482306E+02 -0.43651510255E+01  0.83058595884E+02  0.00000000000E+00 0.  1.
        -11    1    5    5    0    0  0.22395604712E+03  0.10090163362E+03  0.70625866626E+01  0.24573833815E+03  0.00000000000E+00 0. -1.
          4    1    6    6  503    0 -0.29992997204E+03 -0.46778781293E+03 -0.31962636541E+03  0.64104948289E+03  0.00000000000E+00 0. -1.
         -4    1    6    6    0  503 -0.14900742197E+02 -0.47601460433E+02 -0.60748768012E+02  0.78602442509E+02  0.00000000000E+00 0.  1.
<mgrwt>
<rscale>  0 0.17614704E+04</rscale>
<asrwt>0</asrwt>
<pdfrwt beam="1">  1        2 0.33428178E+00 0.17614704E+04</pdfrwt>
<pdfrwt beam="2">  1       -1 0.54922625E-01 0.17614704E+04</pdfrwt>
<totfact> 0.19330260E+01</totfact>
</mgrwt>
</event>
<event>
12    6  0.1647231E-007  0.2880672E+04  0.7818608E-02  0.8278652E-01
          2   -1    0    0  501    0  0.00000000000E+00  0.00000000000E+00  0.12459643618E+04  0.12459643618E+04  0.00000000000E+00 0. -1.
         -1   -1    0    0    0  501 -0.00000000000E+00 -0.00000000000E+00 -0.16650292406E+04  0.16650292406E+04  0.00000000000E+00 0.  1.
         24    2    1    2    0    0  0.47032708016E+03 -0.99352736511E+03 -0.88828227111E+03  0.14154949199E+04  0.79223024469E+02 0.  0.
        254    2    1    2    0    0 -0.47032708016E+03  0.99352736511E+03  0.46921739228E+03  0.14954986824E+04  0.89891443440E+03 0.  0.
         23    2    4    4    0    0 -0.58615374178E+03  0.10876324310E+04  0.45225894845E+03  0.13189652497E+04  0.92793639114E+02 0.  0.
         23    2    4    4    0    0  0.11582666163E+03 -0.94105065875E+02  0.16958443830E+02  0.17653343275E+03  0.92762519884E+02 0.  0.
          2    1    3    3  502    0  0.11643727950E+03 -0.17660610942E+03 -0.15845695327E+03  0.26430278845E+03  0.00000000000E+00 0. -1.
         -1    1    3    3    0  502  0.35388980065E+03 -0.81692125569E+03 -0.72982531784E+03  0.11511921315E+04  0.00000000000E+00 0.  1.
         11    1    5    5    0    0 -0.26136381548E+02  0.19104797903E+02  0.16070880928E+02  0.36143837057E+02  0.00000000000E+00 0.  1.
        -11    1    5    5    0    0 -0.56001736023E+03  0.10685276331E+04  0.43618806752E+03  0.12828214126E+04  0.00000000000E+00 0. -1.
          3    1    6    6  503    0  0.11973945921E+03 -0.51423120710E+02 -0.33574659519E+00  0.13031495755E+03  0.00000000000E+00 0. -1.
         -3    1    6    6    0  503 -0.39127975788E+01 -0.42681945165E+02  0.17294190426E+02  0.46218475207E+02  0.00000000000E+00 0.  1.
<mgrwt>
<rscale>  0 0.28806715E+04</rscale>
<asrwt>0</asrwt>
<pdfrwt beam="1">  1        2 0.19168683E+00 0.28806715E+04</pdfrwt>
<pdfrwt beam="2">  1       -1 0.25615834E+00 0.28806715E+04</pdfrwt>
<totfact> 0.11131545E+00</totfact>
</mgrwt>
</event>
<event>
12    6  0.1647231E-007  0.1589334E+04  0.7818608E-02  0.8827127E-01
          2   -1    0    0  501    0  0.00000000000E+00  0.00000000000E+00  0.75962086235E+03  0.75962086235E+03  0.00000000000E+00 0. -1.
         -1   -1    0    0    0  501 -0.00000000000E+00 -0.00000000000E+00 -0.83133015448E+03  0.83133015448E+03  0.00000000000E+00 0.  1.
         24    2    1    2    0    0  0.39768586332E+03  0.11452952082E+03 -0.37802675903E+03  0.56594234206E+03  0.78201323320E+02 0.  0.
        254    2    1    2    0    0 -0.39768586332E+03 -0.11452952082E+03  0.30631746691E+03  0.10250086748E+04  0.88630769814E+03 0.  0.
         23    2    4    4    0    0  0.16824157421E+03 -0.10547298557E+03 -0.17375692136E+03  0.27749053977E+03  0.85905494363E+02 0.  0.
         23    2    4    4    0    0 -0.56592743753E+03 -0.90565352464E+01  0.48007438827E+03  0.74751813500E+03  0.89196740448E+02 0.  0.
          2    1    3    3  502    0  0.24376079449E+03  0.94202656931E+02 -0.19581581073E+03  0.32655366670E+03  0.00000000000E+00 0. -1.
         -1    1    3    3    0  502  0.15392506883E+03  0.20326863890E+02 -0.18221094830E+03  0.23938867536E+03  0.00000000000E+00 0.  1.
         11    1    5    5    0    0  0.53593029103E+02 -0.53331376229E+02 -0.18997659781E+02  0.77957421302E+02  0.00000000000E+00 0. -1.
        -11    1    5    5    0    0  0.11464854510E+03 -0.52141609345E+02 -0.15475926158E+03  0.19953311846E+03  0.00000000000E+00 0.  1.
          4    1    6    6  503    0 -0.45858371284E+03  0.21948425906E+02  0.35932328076E+03  0.58300426686E+03  0.00000000000E+00 0. -1.
         -4    1    6    6    0  503 -0.10734372469E+03 -0.31004961152E+02  0.12075110751E+03  0.16451386814E+03  0.00000000000E+00 0.  1.
<mgrwt>
<rscale>  0 0.15893341E+04</rscale>
<asrwt>0</asrwt>
<pdfrwt beam="1">  1        2 0.11686475E+00 0.15893341E+04</pdfrwt>
<pdfrwt beam="2">  1       -1 0.12789695E+00 0.15893341E+04</pdfrwt>
<totfact> 0.21362588E+01</totfact>
</mgrwt>
</event>
<event>
12    6  0.1647231E-007  0.1482575E+04  0.7818608E-02  0.8896124E-01
         -1   -1    0    0    0  501 -0.00000000000E+00  0.00000000000E+00  0.21956740919E+03  0.21956740919E+03  0.00000000000E+00 0.  1.
          2   -1    0    0  501    0  0.00000000000E+00 -0.00000000000E+00 -0.25026799970E+04  0.25026799970E+04  0.00000000000E+00 0. -1.
         24    2    1    2    0    0  0.43147597562E+03 -0.16492050492E+03 -0.81842159043E+03  0.94312649014E+03  0.79393867799E+02 0.  0.
        254    2    1    2    0    0 -0.43147597562E+03  0.16492050492E+03 -0.14646909974E+04  0.17791209161E+04  0.89809867258E+03 0.  0.
         23    2    4    4    0    0 -0.15793386281E+02  0.37950025746E+03 -0.11336540692E+04  0.11990638521E+04  0.91173989323E+02 0.  0.
         23    2    4    4    0    0 -0.41568258934E+03 -0.21457975254E+03 -0.33103692816E+03  0.58005706395E+03  0.89689822983E+02 0.  0.
          2    1    3    3  502    0  0.63405780200E+02 -0.44148961591E+02 -0.18719827962E+03  0.20251572695E+03  0.00000000000E+00 0. -1.
         -1    1    3    3    0  502  0.36807019542E+03 -0.12077154333E+03 -0.63122331081E+03  0.74061076319E+03  0.00000000000E+00 0.  1.
         11    1    5    5    0    0  0.36966308406E+02  0.11270367616E+03 -0.33607319913E+03  0.35638998548E+03  0.00000000000E+00 0.  1.
        -11    1    5    5    0    0 -0.52759694687E+02  0.26679658130E+03 -0.79758087012E+03  0.84267386667E+03  0.00000000000E+00 0. -1.
          4    1    6    6  503    0 -0.71749733083E+02 -0.74093960346E+02 -0.52590805154E+02  0.11577448745E+03  0.00000000000E+00 0. -1.
         -4    1    6    6    0  503 -0.34393285626E+03 -0.14048579220E+03 -0.27844612301E+03  0.46428257650E+03  0.00000000000E+00 0.  1.
<mgrwt>
<rscale>  0 0.14825747E+04</rscale>
<asrwt>0</asrwt>
<pdfrwt beam="1">  1        2 0.38502771E+00 0.14825747E+04</pdfrwt>
<pdfrwt beam="2">  1       -1 0.33779599E-01 0.14825747E+04</pdfrwt>
<totfact> 0.31695749E+01</totfact>
</mgrwt>
</event>
<event>
12    6  0.1647231E-007  0.3689291E+04  0.7818608E-02  0.8070339E-01
         -1   -1    0    0    0  501 -0.00000000000E+00  0.00000000000E+00  0.16282482515E+04  0.16282482515E+04  0.00000000000E+00 0.  1.
          2   -1    0    0  501    0  0.00000000000E+00 -0.00000000000E+00 -0.20898028566E+04  0.20898028566E+04  0.00000000000E+00 0. -1.
         24    2    1    2    0    0  0.75916582203E+03 -0.15189019541E+04  0.12709619178E+03  0.17046228865E+04  0.78675611642E+02 0.  0.
        254    2    1    2    0    0 -0.75916582203E+03  0.15189019541E+04 -0.58865079690E+03  0.20134282216E+04  0.90773760044E+03 0.  0.
         23    2    4    4    0    0  0.40045284334E+02 -0.44371857891E+02 -0.17829287258E+03  0.20810596859E+03  0.89147401423E+02 0.  0.
         23    2    4    4    0    0 -0.79921110636E+03  0.15632738120E+04 -0.41035792432E+03  0.18053222530E+04  0.90727103384E+02 0.  0.
          4    1    3    3  502    0  0.20492235234E+03 -0.34167709882E+03  0.43155419614E+02  0.40074780173E+03  0.00000000000E+00 0. -1.
         -3    1    3    3    0  502  0.55424346968E+03 -0.11772248553E+04  0.83940772167E+02  0.13038750848E+04  0.00000000000E+00 0.  1.
         11    1    5    5    0    0  0.50829277391E+02 -0.17937457057E+02 -0.40591579869E+02  0.67476248873E+02  0.00000000000E+00 0.  1.
        -11    1    5    5    0    0 -0.10783993056E+02 -0.26434400834E+02 -0.13770129271E+03  0.14062971972E+03  0.00000000000E+00 0. -1.
          3    1    6    6  503    0 -0.67671331479E+03  0.12595277613E+04 -0.35417909581E+03  0.14730220378E+04  0.00000000000E+00 0. -1.
         -3    1    6    6    0  503 -0.12249779157E+03  0.30374605064E+03 -0.56178828507E+02  0.33230021515E+03  0.00000000000E+00 0.  1.
<mgrwt>
<rscale>  0 0.36892914E+04</rscale>
<asrwt>0</asrwt>
<pdfrwt beam="1">  1        2 0.32150813E+00 0.36892914E+04</pdfrwt>
<pdfrwt beam="2">  1       -1 0.25049973E+00 0.36892914E+04</pdfrwt>
<totfact> 0.37911086E-01</totfact>
</mgrwt>
</event>
<event>
12    6  0.1647231E-007  0.1142860E+04  0.7818608E-02  0.9164396E-01
          2   -1    0    0  501    0  0.00000000000E+00  0.00000000000E+00  0.26269131961E+03  0.26269131961E+03  0.00000000000E+00 0. -1.
         -1   -1    0    0    0  501 -0.00000000000E+00 -0.00000000000E+00 -0.12430256194E+04  0.12430256194E+04  0.00000000000E+00 0.  1.
         24    2    1    2    0    0 -0.53730964448E+02 -0.19657134926E+03 -0.18489862448E+03  0.28662463728E+03  0.80242566458E+02 0.  0.
        254    2    1    2    0    0  0.53730964448E+02  0.19657134926E+03 -0.79543567532E+03  0.12190923017E+04  0.90107758526E+03 0.  0.
         23    2    4    4    0    0  0.26041133139E+03 -0.81783127301E+02 -0.81105890357E+03  0.86055399058E+03  0.90741854859E+02 0.  0.
         23    2    4    4    0    0 -0.20668036695E+03  0.27835447656E+03  0.15623228249E+02  0.35853831114E+03  0.90042471042E+02 0.  0.
          4    1    3    3  502    0 -0.30140387663E+02 -0.11403896304E+03 -0.53141059675E+02  0.12937271847E+03  0.00000000000E+00 0. -1.
         -3    1    3    3    0  502 -0.23590576785E+02 -0.82532386222E+02 -0.13175756480E+03  0.15725191882E+03  0.00000000000E+00 0.  1.
         11    1    5    5    0    0  0.17293134152E+03 -0.35261505053E+02 -0.39130388236E+03  0.42926373125E+03  0.00000000000E+00 0. -1.
        -11    1    5    5    0    0  0.87479989873E+02 -0.46521622248E+02 -0.41975502121E+03  0.43129025933E+03  0.00000000000E+00 0.  1.
          4    1    6    6  503    0 -0.89143913588E+02  0.64626813889E+02 -0.20395131329E+02  0.11197867558E+03  0.00000000000E+00 0. -1.
         -4    1    6    6    0  503 -0.11753645336E+03  0.21372766268E+03  0.36018359578E+02  0.24655963556E+03  0.00000000000E+00 0.  1.
<mgrwt>
<rscale>  0 0.11428596E+04</rscale>
<asrwt>0</asrwt>
<pdfrwt beam="1">  1        2 0.40414049E-01 0.11428596E+04</pdfrwt>
<pdfrwt beam="2">  1       -1 0.19123471E+00 0.11428596E+04</pdfrwt>
<totfact> 0.25050764E+01</totfact>
</mgrwt>
</event>
<event>
12    6  0.1647231E-007  0.2374534E+04  0.7818608E-02  0.8449099E-01
          2   -1    0    0  501    0  0.00000000000E+00  0.00000000000E+00  0.18031219054E+04  0.18031219054E+04  0.00000000000E+00 0. -1.
         -1   -1    0    0    0  501 -0.00000000000E+00 -0.00000000000E+00 -0.78175712061E+03  0.78175712061E+03  0.00000000000E+00 0.  1.
         24    2    1    2    0    0 -0.78894829918E+03  0.30817639901E+03  0.10678228280E+04  0.13652569497E+04  0.79175974017E+02 0.  0.
        254    2    1    2    0    0  0.78894829918E+03 -0.30817639901E+03 -0.46458043222E+02  0.12196220764E+04  0.87630334228E+03 0.  0.
         23    2    4    4    0    0  0.60114961715E+03  0.21857974341E+03  0.35159105970E+02  0.64723179853E+03  0.92276063333E+02 0.  0.
         23    2    4    4    0    0  0.18779868204E+03 -0.52675614242E+03 -0.81617149192E+02  0.57239027784E+03  0.90713243661E+02 0.  0.
          4    1    3    3  502    0 -0.72009960458E+03  0.25686837848E+03  0.97042682301E+03  0.12354161336E+04  0.00000000000E+00 0. -1.
         -3    1    3    3    0  502 -0.68848694604E+02  0.51308020526E+02  0.97396005009E+02  0.12984081604E+03  0.00000000000E+00 0.  1.
         11    1    5    5    0    0  0.59077865511E+03  0.21392051159E+03  0.47919583804E+02  0.63014100892E+03  0.00000000000E+00 0.  1.
        -11    1    5    5    0    0  0.10370962037E+02  0.46592318168E+01 -0.12760477834E+02  0.17090789603E+02  0.00000000000E+00 0. -1.
          1    1    6    6  503    0  0.22729969885E+02 -0.18971484362E+03 -0.34313136283E+02  0.19412821728E+03  0.00000000000E+00 0. -1.
         -1    1    6    6    0  503  0.16506871215E+03 -0.33704129880E+03 -0.47304012910E+02  0.37826206056E+03  0.00000000000E+00 0.  1.
<mgrwt>
<rscale>  0 0.23745344E+04</rscale>
<asrwt>0</asrwt>
<pdfrwt beam="1">  1        2 0.27740337E+00 0.23745344E+04</pdfrwt>
<pdfrwt beam="2">  1       -1 0.12027033E+00 0.23745344E+04</pdfrwt>
<totfact> 0.54278334E+00</totfact>
</mgrwt>
</event>
<event>
12    6  0.1647231E-007  0.1198886E+04  0.7818608E-02  0.9113833E-01
          2   -1    0    0  501    0  0.00000000000E+00  0.00000000000E+00  0.15268929757E+04  0.15268929757E+04  0.00000000000E+00 0. -1.
         -1   -1    0    0    0  501 -0.00000000000E+00 -0.00000000000E+00 -0.23533519509E+03  0.23533519509E+03  0.00000000000E+00 0.  1.
         24    2    1    2    0    0 -0.23842788996E+03  0.64247150689E+02  0.34215439412E+03  0.42960013301E+03  0.80691324112E+02 0.  0.
        254    2    1    2    0    0  0.23842788996E+03 -0.64247150689E+02  0.94940338645E+03  0.13326280377E+04  0.90197291627E+03 0.  0.
         23    2    4    4    0    0  0.22636293373E+03 -0.43563863023E+03  0.31103282807E+03  0.58835369468E+03  0.91637634125E+02 0.  0.
         23    2    4    4    0    0  0.12064956230E+02  0.37139147954E+03  0.63837055837E+03  0.74427434306E+03  0.91379065966E+02 0.  0.
          2    1    3    3  502    0 -0.14448089624E+03  0.20245407177E+02  0.13908769176E+03  0.20156882668E+03  0.00000000000E+00 0. -1.
         -1    1    3    3    0  502 -0.93946993721E+02  0.44001743511E+02  0.20306670236E+03  0.22803130633E+03  0.00000000000E+00 0.  1.
         11    1    5    5    0    0  0.47451369776E+02 -0.17967962106E+03  0.95803104701E+02  0.20908044764E+03  0.00000000000E+00 0. -1.
        -11    1    5    5    0    0  0.17891156395E+03 -0.25595900917E+03  0.21522972337E+03  0.37927324703E+03  0.00000000000E+00 0.  1.
          4    1    6    6  503    0 -0.14287772915E+01  0.18645887019E+02  0.53009460285E+01  0.19437348998E+02  0.00000000000E+00 0. -1.
         -4    1    6    6    0  503  0.13493733522E+02  0.35274559252E+03  0.63306961235E+03  0.72483699406E+03  0.00000000000E+00 0.  1.
<mgrwt>
<rscale>  0 0.11988856E+04</rscale>
<asrwt>0</asrwt>
<pdfrwt beam="1">  1        2 0.23490661E+00 0.11988856E+04</pdfrwt>
<pdfrwt beam="2">  1       -1 0.36205416E-01 0.11988856E+04</pdfrwt>
<totfact> 0.10057860E+02</totfact>
</mgrwt>
</event>
<event>
12    6  0.1647231E-007  0.1421660E+04  0.7818608E-02  0.8938287E-01
         -1   -1    0    0    0  501 -0.00000000000E+00  0.00000000000E+00  0.26092313448E+03  0.26092313448E+03  0.00000000000E+00 0.  1.
          2   -1    0    0  501    0  0.00000000000E+00 -0.00000000000E+00 -0.19365069551E+04  0.19365069551E+04  0.00000000000E+00 0. -1.
         24    2    1    2    0    0 -0.21832211930E+03 -0.25583214410E+03 -0.90399307387E+03  0.96785373422E+03  0.80141995937E+02 0.  0.
        254    2    1    2    0    0  0.21832211930E+03  0.25583214410E+03 -0.77159074673E+03  0.12295763553E+04  0.89632086858E+03 0.  0.
         23    2    4    4    0    0  0.12350706184E+03  0.51832415724E+03 -0.18122468014E+03  0.57018928115E+03  0.91430330578E+02 0.  0.
         23    2    4    4    0    0  0.94815057461E+02 -0.26249201314E+03 -0.59036606659E+03  0.65938707419E+03  0.91472777046E+02 0.  0.
          4    1    3    3  502    0 -0.18221448108E+03 -0.17272594486E+03 -0.72480408483E+03  0.76705757967E+03  0.00000000000E+00 0. -1.
         -3    1    3    3    0  502 -0.36107638222E+02 -0.83106199239E+02 -0.17918898904E+03  0.20079615456E+03  0.00000000000E+00 0.  1.
         11    1    5    5    0    0  0.23946059740E+02  0.38351176924E+02  0.56941468336E+01  0.45570273827E+02  0.00000000000E+00 0.  1.
        -11    1    5    5    0    0  0.99561002100E+02  0.47997298031E+03 -0.18691882697E+03  0.52461900732E+03  0.00000000000E+00 0. -1.
          2    1    6    6  503    0  0.52673801931E+02 -0.19175298249E+03 -0.49466465301E+03  0.53313868237E+03  0.00000000000E+00 0. -1.
         -2    1    6    6    0  503  0.42141255531E+02 -0.70739030650E+02 -0.95701413586E+02  0.12624839182E+03  0.00000000000E+00 0.  1.
<mgrwt>
<rscale>  0 0.14216602E+04</rscale>
<asrwt>0</asrwt>
<pdfrwt beam="1">  1        2 0.29792414E+00 0.14216602E+04</pdfrwt>
<pdfrwt beam="2">  1       -1 0.40142022E-01 0.14216602E+04</pdfrwt>
<totfact> 0.48565611E+01</totfact>
</mgrwt>
</event>
<event>
12    6  0.1647231E-007  0.2166857E+04  0.7818608E-02  0.8532351E-01
          2   -1    0    0  501    0  0.00000000000E+00  0.00000000000E+00  0.20249656266E+04  0.20249656266E+04  0.00000000000E+00 0. -1.
         -1   -1    0    0    0  501 -0.00000000000E+00 -0.00000000000E+00 -0.57967274635E+03  0.57967274635E+03  0.00000000000E+00 0.  1.
         24    2    1    2    0    0  0.21882434386E+03  0.12428663206E+03  0.16389105278E+04  0.16599440225E+04  0.77815032716E+02 0.  0.
        254    2    1    2    0    0 -0.21882434386E+03 -0.12428663206E+03 -0.19361764760E+03  0.94469435041E+03  0.88973499530E+03 0.  0.
         23    2    4    4    0    0 -0.16527190548E+03  0.49332612245E+02 -0.52250545559E+03  0.55792997113E+03  0.92333050421E+02 0.  0.
         23    2    4    4    0    0 -0.53552438373E+02 -0.17361924430E+03  0.32888780799E+03  0.38676437928E+03  0.91695088119E+02 0.  0.
          4    1    3    3  502    0  0.22450044177E+03  0.11573645558E+03  0.15930894193E+04  0.16129876855E+04  0.00000000000E+00 0. -1.
         -3    1    3    3    0  502 -0.56760979124E+01  0.85501764789E+01  0.45821108475E+02  0.46956337029E+02  0.00000000000E+00 0.  1.
         11    1    5    5    0    0 -0.90496405248E+02  0.44083216311E+02 -0.17021180885E+03  0.19774981466E+03  0.00000000000E+00 0.  1.
        -11    1    5    5    0    0 -0.74775500235E+02  0.52493959344E+01 -0.35229364673E+03  0.36018015648E+03  0.00000000000E+00 0. -1.
          1    1    6    6  503    0 -0.17700934299E+02 -0.11773725087E+03  0.28015696667E+03  0.30440648694E+03  0.00000000000E+00 0. -1.
         -1    1    6    6    0  503 -0.35851504073E+02 -0.55881993431E+02  0.48730841317E+02  0.82357892333E+02  0.00000000000E+00 0.  1.
<mgrwt>
<rscale>  0 0.21668571E+04</rscale>
<asrwt>0</asrwt>
<pdfrwt beam="1">  1        2 0.31153317E+00 0.21668571E+04</pdfrwt>
<pdfrwt beam="2">  1       -1 0.89180423E-01 0.21668571E+04</pdfrwt>
<totfact> 0.83201086E+00</totfact>
</mgrwt>
</event>
<event>
12    6  0.1647231E-007  0.1729198E+04  0.7818608E-02  0.8744885E-01
          2   -1    0    0  501    0  0.00000000000E+00  0.00000000000E+00  0.82217045484E+03  0.82217045484E+03  0.00000000000E+00 0. -1.
         -1   -1    0    0    0  501 -0.00000000000E+00 -0.00000000000E+00 -0.90921703491E+03  0.90921703491E+03  0.00000000000E+00 0.  1.
         24    2    1    2    0    0 -0.43446675180E+03 -0.45735672663E+02 -0.45970546401E+03  0.63924100645E+03  0.80292219481E+02 0.  0.
        254    2    1    2    0    0  0.43446675180E+03  0.45735672663E+02  0.37265888394E+03  0.10921464833E+04  0.92900817382E+03 0.  0.
         23    2    4    4    0    0  0.63284105092E+03  0.32885486331E+02 -0.22319778187E+02  0.64064363560E+03  0.91415777647E+02 0.  0.
         23    2    4    4    0    0 -0.19837429912E+03  0.12850186332E+02  0.39497866213E+03  0.45150284769E+03  0.91264385723E+02 0.  0.
          2    1    3    3  502    0 -0.19027672461E+03 -0.25537816912E+02 -0.25966678637E+03  0.32293072317E+03  0.00000000000E+00 0. -1.
         -1    1    3    3    0  502 -0.24419002720E+03 -0.20197855751E+02 -0.20003867763E+03  0.31631028328E+03  0.00000000000E+00 0.  1.
         11    1    5    5    0    0 -0.23410879794E+01  0.10812059831E+01  0.32538650647E+01  0.41517872253E+01  0.00000000000E+00 0. -1.
        -11    1    5    5    0    0  0.63518213890E+03  0.31804280348E+02 -0.25573643252E+02  0.63649184838E+03  0.00000000000E+00 0.  1.
          4    1    6    6  503    0 -0.11971560436E+03  0.89382123410E+01  0.32383760298E+03  0.34537300224E+03  0.00000000000E+00 0.  1.
         -4    1    6    6    0  503 -0.78658694753E+02  0.39119739908E+01  0.71141059144E+02  0.10612984546E+03  0.00000000000E+00 0. -1.
<mgrwt>
<rscale>  0 0.17291979E+04</rscale>
<asrwt>0</asrwt>
<pdfrwt beam="1">  1        2 0.12648776E+00 0.17291979E+04</pdfrwt>
<pdfrwt beam="2">  1       -1 0.13987954E+00 0.17291979E+04</pdfrwt>
<totfact> 0.15119694E+01</totfact>
</mgrwt>
</event>
<event>
12    6  0.1647231E-007  0.1226898E+04  0.7818608E-02  0.9089633E-01
         -1   -1    0    0    0  501 -0.00000000000E+00  0.00000000000E+00  0.14279189702E+04  0.14279189702E+04  0.00000000000E+00 0.  1.
          2   -1    0    0  501    0  0.00000000000E+00 -0.00000000000E+00 -0.26354425248E+03  0.26354425248E+03  0.00000000000E+00 0. -1.
         24    2    1    2    0    0 -0.23618392596E+03  0.24258173837E+02  0.94715065768E+02  0.26811903434E+03  0.80904678563E+02 0.  0.
        254    2    1    2    0    0  0.23618392596E+03 -0.24258173837E+02  0.10696596520E+04  0.14233441884E+04  0.90849634100E+03 0.  0.
         23    2    4    4    0    0  0.28916243453E+03 -0.31403553245E+03  0.10221087983E+04  0.11114640242E+04  0.91720511588E+02 0.  0.
         23    2    4    4    0    0 -0.52978508567E+02  0.28977735861E+03  0.47550853675E+02  0.31188016421E+03  0.90722175949E+02 0.  0.
          2    1    3    3  502    0 -0.21938684212E+03 -0.22567173601E+01  0.81142547122E+02  0.23392262016E+03  0.00000000000E+00 0. -1.
         -1    1    3    3    0  502 -0.16797083844E+02  0.26514891197E+02  0.13572518646E+02  0.34196414187E+02  0.00000000000E+00 0.  1.
         11    1    5    5    0    0  0.34383877257E+02 -0.75628576262E+01  0.12392799967E+03  0.12883166122E+03  0.00000000000E+00 0.  1.
        -11    1    5    5    0    0  0.25477855727E+03 -0.30647267482E+03  0.89818079865E+03  0.98263236295E+03  0.00000000000E+00 0. -1.
          2    1    6    6  503    0 -0.52289184001E+02  0.12849304983E+03 -0.13602009429E+02  0.13939023380E+03  0.00000000000E+00 0.  1.
         -2    1    6    6    0  503 -0.68932456591E+00  0.16128430878E+03  0.61152863104E+02  0.17248993041E+03  0.00000000000E+00 0. -1.
<mgrwt>
<rscale>  0 0.12268983E+04</rscale>
<asrwt>0</asrwt>
<pdfrwt beam="1">  1        2 0.40545271E-01 0.12268983E+04</pdfrwt>
<pdfrwt beam="2">  1       -1 0.21967984E+00 0.12268983E+04</pdfrwt>
<totfact> 0.15855579E+01</totfact>
</mgrwt>
</event>
<event>
12    6  0.1647231E-007  0.1402055E+04  0.7818608E-02  0.8952332E-01
         -1   -1    0    0    0  501 -0.00000000000E+00  0.00000000000E+00  0.22879742000E+03  0.22879742000E+03  0.00000000000E+00 0.  1.
          2   -1    0    0  501    0  0.00000000000E+00 -0.00000000000E+00 -0.21479255946E+04  0.21479255946E+04  0.00000000000E+00 0. -1.
         24    2    1    2    0    0 -0.29266327539E+03  0.48758982414E+02 -0.10105437476E+04  0.10587949765E+04  0.10871478862E+03 0.  0.
        254    2    1    2    0    0  0.29266327539E+03 -0.48758982414E+02 -0.90858442698E+03  0.13179280381E+04  0.90740256863E+03 0.  0.
         23    2    4    4    0    0 -0.21506419664E+03 -0.20723163124E+03 -0.68998667740E+02  0.31986750910E+03  0.91415805864E+02 0.  0.
         23    2    4    4    0    0  0.50772747203E+03  0.15847264883E+03 -0.83958575924E+03  0.99806052901E+03  0.91212971467E+02 0.  0.
          4    1    3    3  502    0 -0.19405149503E+03  0.37409027866E+02 -0.82530822806E+03  0.84863955210E+03  0.00000000000E+00 0. -1.
         -1    1    3    3    0  502 -0.98611780359E+02  0.11349954548E+02 -0.18523551955E+03  0.21015542438E+03  0.00000000000E+00 0.  1.
         11    1    5    5    0    0 -0.20190090895E+03 -0.14462476050E+03 -0.55671848456E+02  0.25451847300E+03  0.00000000000E+00 0.  1.
        -11    1    5    5    0    0 -0.13163287690E+02 -0.62606870748E+02 -0.13326819284E+02  0.65349036105E+02  0.00000000000E+00 0. -1.
          3    1    6    6  503    0  0.27572270887E+03  0.38459588870E+02 -0.43988130123E+03  0.52057440519E+03  0.00000000000E+00 0. -1.
         -3    1    6    6    0  503  0.23200476317E+03  0.12001305996E+03 -0.39970445801E+03  0.47748612382E+03  0.00000000000E+00 0.  1.
<mgrwt>
<rscale>  0 0.14020554E+04</rscale>
<asrwt>0</asrwt>
<pdfrwt beam="1">  1        2 0.33045008E+00 0.14020554E+04</pdfrwt>
<pdfrwt beam="2">  1       -1 0.35199604E-01 0.14020554E+04</pdfrwt>
<totfact> 0.47088629E+01</totfact>
</mgrwt>
</event>
<event>
12    6  0.1647231E-007  0.2350473E+04  0.7818608E-02  0.8458282E-01
         -1   -1    0    0    0  501 -0.00000000000E+00  0.00000000000E+00  0.48312932021E+03  0.48312932021E+03  0.00000000000E+00 0.  1.
          2   -1    0    0  501    0  0.00000000000E+00 -0.00000000000E+00 -0.28588226808E+04  0.28588226808E+04  0.00000000000E+00 0. -1.
         24    2    1    2    0    0  0.62916285333E+03  0.54105909794E+03 -0.22012614193E+03  0.86217999684E+03  0.79422824954E+02 0.  0.
        254    2    1    2    0    0 -0.62916285333E+03 -0.54105909794E+03 -0.21555672187E+04  0.24797720042E+04  0.90233492395E+03 0.  0.
         23    2    4    4    0    0 -0.80064252649E+02 -0.37092674282E+03 -0.16893954375E+04  0.17340268284E+04  0.93782535934E+02 0.  0.
         23    2    4    4    0    0 -0.54909860068E+03 -0.17013235512E+03 -0.46617178113E+03  0.74574517580E+03  0.91462813073E+02 0.  0.
          4    1    3    3  502    0  0.27580318315E+03  0.28809036563E+03 -0.95854113367E+02  0.41018467263E+03  0.00000000000E+00 0. -1.
         -3    1    3    3    0  502  0.35335967017E+03  0.25296873231E+03 -0.12427202856E+03  0.45199532422E+03  0.00000000000E+00 0.  1.
         11    1    5    5    0    0 -0.63266521816E+02 -0.36841356507E+03 -0.16234079076E+04  0.16658884843E+04  0.00000000000E+00 0.  1.
        -11    1    5    5    0    0 -0.16797730833E+02 -0.25131777461E+01 -0.65987529972E+02  0.68138344090E+02  0.00000000000E+00 0. -1.
          3    1    6    6  503    0 -0.96972260446E+02 -0.66358717389E+02 -0.10919840792E+03  0.16041007126E+03  0.00000000000E+00 0. -1.
         -3    1    6    6    0  503 -0.45212634023E+03 -0.10377363773E+03 -0.35697337321E+03  0.58533510453E+03  0.00000000000E+00 0.  1.
<mgrwt>
<rscale>  0 0.23504732E+04</rscale>
<asrwt>0</asrwt>
<pdfrwt beam="1">  1        2 0.43981889E+00 0.23504732E+04</pdfrwt>
<pdfrwt beam="2">  1       -1 0.74327585E-01 0.23504732E+04</pdfrwt>
<totfact> 0.39862033E+00</totfact>
</mgrwt>
</event>
<event>
12    6  0.1647231E-007  0.1698174E+04  0.7818608E-02  0.8762406E-01
          2   -1    0    0  501    0  0.00000000000E+00  0.00000000000E+00  0.51533546511E+03  0.51533546511E+03  0.00000000000E+00 0. -1.
         -1   -1    0    0    0  501 -0.00000000000E+00 -0.00000000000E+00 -0.13989898126E+04  0.13989898126E+04  0.00000000000E+00 0.  1.
         24    2    1    2    0    0  0.16930206766E+03 -0.22871120836E+03 -0.92588276499E+03  0.97207295593E+03  0.81822553166E+02 0.  0.
        254    2    1    2    0    0 -0.16930206766E+03  0.22871120836E+03  0.42228417483E+02  0.94225232180E+03  0.89726483925E+03 0.  0.
         23    2    4    4    0    0 -0.11960384909E+03  0.56712438868E+03  0.50687230802E+02  0.58886569704E+03  0.90876074075E+02 0.  0.
         23    2    4    4    0    0 -0.49698218570E+02 -0.33841318032E+03 -0.84588133190E+01  0.35338662476E+03  0.88414713117E+02 0.  0.
          2    1    3    3  502    0 -0.37401411573E+01  0.87159860707E+00 -0.51433700184E+02  0.51576873254E+02  0.00000000000E+00 0. -1.
         -1    1    3    3    0  502  0.17304220881E+03 -0.22958280697E+03 -0.87444906480E+03  0.92049608268E+03  0.00000000000E+00 0.  1.
         11    1    5    5    0    0 -0.65680600739E+02  0.45967084820E+03  0.19920558113E+02  0.46476667118E+03  0.00000000000E+00 0. -1.
        -11    1    5    5    0    0 -0.53923248346E+02  0.10745354047E+03  0.30766672688E+02  0.12409902587E+03  0.00000000000E+00 0.  1.
          4    1    6    6  503    0 -0.78926178796E+01 -0.28639277040E+03 -0.91126811045E+01  0.28664639072E+03  0.00000000000E+00 0.  1.
         -4    1    6    6    0  503 -0.41805600691E+02 -0.52020409916E+02  0.65386778544E+00  0.66740234042E+02  0.00000000000E+00 0. -1.
<mgrwt>
<rscale>  0 0.16981744E+04</rscale>
<asrwt>0</asrwt>
<pdfrwt beam="1">  1        2 0.79282379E-01 0.16981744E+04</pdfrwt>
<pdfrwt beam="2">  1       -1 0.21522920E+00 0.16981744E+04</pdfrwt>
<totfact> 0.76598255E+00</totfact>
</mgrwt>
</event>
<event>
12    6  0.1647231E-007  0.1197311E+04  0.7818608E-02  0.9115214E-01
         -3   -1    0    0    0  501 -0.00000000000E+00  0.00000000000E+00  0.70067587203E+03  0.70067587203E+03  0.00000000000E+00 0.  1.
          4   -1    0    0  501    0  0.00000000000E+00 -0.00000000000E+00 -0.51148943241E+03  0.51148943241E+03  0.00000000000E+00 0. -1.
         24    2    1    2    0    0  0.32891479315E+01 -0.17501521285E+03  0.20940575742E+03  0.28419854567E+03  0.79226882412E+02 0.  0.
        254    2    1    2    0    0 -0.32891479315E+01  0.17501521285E+03 -0.20219317791E+02  0.92796675878E+03  0.91108305953E+03 0.  0.
         23    2    4    4    0    0 -0.22121392534E+03 -0.12626119527E+03 -0.33615785638E+03  0.43165993441E+03  0.91927712750E+02 0.  0.
         23    2    4    4    0    0  0.21792477740E+03  0.30127640812E+03  0.31593853859E+03  0.49630682437E+03  0.90799895676E+02 0.  0.
          4    1    3    3  502    0  0.22740386326E+02 -0.98624379505E+02  0.66839996895E+02  0.12129088419E+03  0.00000000000E+00 0. -1.
         -3    1    3    3    0  502 -0.19451238394E+02 -0.76390833344E+02  0.14256576052E+03  0.16290766147E+03  0.00000000000E+00 0.  1.
         11    1    5    5    0    0 -0.25832795330E+02 -0.56113792174E+02 -0.59412469174E+02  0.85708415456E+02  0.00000000000E+00 0.  1.
        -11    1    5    5    0    0 -0.19538113001E+03 -0.70147403097E+02 -0.27674538721E+03  0.34595151895E+03  0.00000000000E+00 0. -1.
          1    1    6    6  503    0  0.15306036900E+03  0.16916294813E+03  0.23834598470E+03  0.32992785272E+03  0.00000000000E+00 0. -1.
         -1    1    6    6    0  503  0.64864408401E+02  0.13211345999E+03  0.77592553891E+02  0.16637897165E+03  0.00000000000E+00 0.  1.
<mgrwt>
<rscale>  0 0.11973108E+04</rscale>
<asrwt>0</asrwt>
<pdfrwt beam="1">  1        4 0.78690681E-01 0.11973108E+04</pdfrwt>
<pdfrwt beam="2">  1       -3 0.10779629E+00 0.11973108E+04</pdfrwt>
<totfact> 0.23780236E+00</totfact>
</mgrwt>
</event>
<event>
12    6  0.1647231E-007  0.1378136E+04  0.7818608E-02  0.8969799E-01
         -1   -1    0    0    0  501 -0.00000000000E+00  0.00000000000E+00  0.39650410614E+03  0.39650410614E+03  0.00000000000E+00 0.  1.
          2   -1    0    0  501    0  0.00000000000E+00 -0.00000000000E+00 -0.11975027786E+04  0.11975027786E+04  0.00000000000E+00 0. -1.
         24    2    1    2    0    0  0.36507038074E+03  0.39241018861E+02 -0.90800925907E+02  0.38923955089E+03  0.91904185858E+02 0.  0.
        254    2    1    2    0    0 -0.36507038074E+03 -0.39241018861E+02 -0.71019774660E+03  0.12047673339E+04  0.90125870264E+03 0.  0.
         23    2    4    4    0    0 -0.49365371280E+03 -0.15026191745E+03 -0.61062024353E+02  0.52755569314E+03  0.91180077584E+02 0.  0.
         23    2    4    4    0    0  0.12858333206E+03  0.11102089859E+03 -0.64913572224E+03  0.67721164075E+03  0.91537463738E+02 0.  0.
          2    1    3    3  502    0  0.14698083407E+03  0.11699890072E+02 -0.83170455306E+02  0.16928549154E+03  0.00000000000E+00 0. -1.
         -1    1    3    3    0  502  0.21808954667E+03  0.27541128790E+02 -0.76304706010E+01  0.21995405935E+03  0.00000000000E+00 0.  1.
         11    1    5    5    0    0 -0.46589737417E+03 -0.11729548598E+03 -0.49778443849E+02  0.48300775125E+03  0.00000000000E+00 0.  1.
        -11    1    5    5    0    0 -0.27756338627E+02 -0.32966431470E+02 -0.11283580505E+02  0.44547941892E+02  0.00000000000E+00 0. -1.
          3    1    6    6  503    0  0.95877134135E+01  0.38203140853E+02 -0.59925873306E+02  0.71711327634E+02  0.00000000000E+00 0. -1.
         -3    1    6    6    0  503  0.11899561865E+03  0.72817757739E+02 -0.58920984894E+03  0.60550031312E+03  0.00000000000E+00 0.  1.
<mgrwt>
<rscale>  0 0.13781361E+04</rscale>
<asrwt>0</asrwt>
<pdfrwt beam="1">  1        2 0.18423120E+00 0.13781361E+04</pdfrwt>
<pdfrwt beam="2">  1       -1 0.61000631E-01 0.13781361E+04</pdfrwt>
<totfact> 0.57576382E+01</totfact>
</mgrwt>
</event>
<event>
12    6  0.1647231E-007  0.1185236E+04  0.7818608E-02  0.9125878E-01
         -1   -1    0    0    0  501 -0.00000000000E+00  0.00000000000E+00  0.60388187466E+03  0.60388187466E+03  0.00000000000E+00 0.  1.
          2   -1    0    0  501    0  0.00000000000E+00 -0.00000000000E+00 -0.58156424355E+03  0.58156424355E+03  0.00000000000E+00 0. -1.
         24    2    1    2    0    0  0.15220094057E+03  0.63813676813E+02  0.18019009985E+03  0.25661512724E+03  0.78393493233E+02 0.  0.
        254    2    1    2    0    0 -0.15220094057E+03 -0.63813676813E+02 -0.15787246875E+03  0.92883099097E+03  0.90031437939E+03 0.  0.
         23    2    4    4    0    0 -0.13923081615E+03  0.32532497555E+03  0.17804005464E+03  0.40658896267E+03  0.91622942664E+02 0.  0.
         23    2    4    4    0    0 -0.12970124428E+02 -0.38913865236E+03 -0.33591252340E+03  0.52224202831E+03  0.91117494838E+02 0.  0.
          2    1    3    3  502    0  0.40222630247E+02  0.87205853320E+01  0.49134273610E+01  0.41449371056E+02  0.00000000000E+00 0. -1.
         -1    1    3    3    0  502  0.11197831033E+03  0.55093091481E+02  0.17527667249E+03  0.21516575618E+03  0.00000000000E+00 0.  1.
         11    1    5    5    0    0 -0.12219588897E+03  0.20342218185E+03  0.14873366038E+03  0.28006092387E+03  0.00000000000E+00 0. -1.
        -11    1    5    5    0    0 -0.17034927176E+02  0.12190279370E+03  0.29306394262E+02  0.12652803880E+03  0.00000000000E+00 0.  1.
          2    1    6    6  503    0  0.34432830442E+02 -0.90559988539E+02 -0.94788165984E+02  0.13554160891E+03  0.00000000000E+00 0. -1.
         -2    1    6    6    0  503 -0.47402954870E+02 -0.29857866382E+03 -0.24112435741E+03  0.38670041939E+03  0.00000000000E+00 0.  1.
<mgrwt>
<rscale>  0 0.11852360E+04</rscale>
<asrwt>0</asrwt>
<pdfrwt beam="1">  1        2 0.89471422E-01 0.11852360E+04</pdfrwt>
<pdfrwt beam="2">  1       -1 0.92904904E-01 0.11852360E+04</pdfrwt>
<totfact> 0.65480086E+01</totfact>
</mgrwt>
</event>
<event>
12    6  0.1647231E-007  0.1173871E+04  0.7818608E-02  0.9136039E-01
          2   -1    0    0  501    0  0.00000000000E+00  0.00000000000E+00  0.11417570936E+04  0.11417570936E+04  0.00000000000E+00 0. -1.
         -1   -1    0    0    0  501 -0.00000000000E+00 -0.00000000000E+00 -0.30172220819E+03  0.30172220819E+03  0.00000000000E+00 0.  1.
         24    2    1    2    0    0 -0.69663081354E+02  0.25604245198E+03  0.49405167418E+03  0.56663156969E+03  0.81077721313E+02 0.  0.
        254    2    1    2    0    0  0.69663081354E+02 -0.25604245198E+03  0.34598321122E+03  0.87684773208E+03  0.76075415259E+03 0.  0.
         23    2    4    4    0    0 -0.18990525218E+03 -0.18610543568E+03 -0.14021468668E+03  0.31397561006E+03  0.90671314949E+02 0.  0.
         23    2    4    4    0    0  0.25956833354E+03 -0.69937016296E+02  0.48619789789E+03  0.56287212202E+03  0.90386524493E+02 0.  0.
          2    1    3    3  502    0 -0.86918248442E+02  0.23102899664E+03  0.43228813049E+03  0.49779735532E+03  0.00000000000E+00 0. -1.
         -1    1    3    3    0  502  0.17255167088E+02  0.25013455339E+02  0.61763543686E+02  0.68834214370E+02  0.00000000000E+00 0.  1.
         11    1    5    5    0    0 -0.45822109390E+01 -0.50235118057E+02 -0.33923489799E+02  0.60789529554E+02  0.00000000000E+00 0. -1.
        -11    1    5    5    0    0 -0.18532304124E+03 -0.13587031763E+03 -0.10629119688E+03  0.25318608050E+03  0.00000000000E+00 0.  1.
          1    1    6    6  503    0  0.94798631864E+02 -0.27215704039E+02  0.27165916820E+03  0.28900895975E+03  0.00000000000E+00 0. -1.
         -1    1    6    6    0  503  0.16476970167E+03 -0.42721312257E+02  0.21453872970E+03  0.27386316227E+03  0.00000000000E+00 0.  1.
<mgrwt>
<rscale>  0 0.11738713E+04</rscale>
<asrwt>0</asrwt>
<pdfrwt beam="1">  1        2 0.17565494E+00 0.11738713E+04</pdfrwt>
<pdfrwt beam="2">  1       -1 0.46418802E-01 0.11738713E+04</pdfrwt>
<totfact> 0.10689015E+02</totfact>
</mgrwt>
</event>
<event>
12    6  0.1647231E-007  0.2121992E+04  0.7818608E-02  0.8551617E-01
          2   -1    0    0  501    0  0.00000000000E+00  0.00000000000E+00  0.18000676893E+04  0.18000676893E+04  0.00000000000E+00 0. -1.
         -1   -1    0    0    0  501 -0.00000000000E+00 -0.00000000000E+00 -0.62537231552E+03  0.62537231552E+03  0.00000000000E+00 0.  1.
         24    2    1    2    0    0  0.69673151068E+02  0.58830231020E+03  0.12059516677E+04  0.13459442287E+04  0.79325189829E+02 0.  0.
        254    2    1    2    0    0 -0.69673151068E+02 -0.58830231020E+03 -0.31256293890E+02  0.10794957762E+04  0.90187594418E+03 0.  0.
         23    2    4    4    0    0 -0.40334065856E+02 -0.81687935997E+03  0.31850433627E+02  0.82373456258E+03  0.92765585499E+02 0.  0.
         23    2    4    4    0    0 -0.29339085212E+02  0.22857704977E+03 -0.63106727517E+02  0.25576121359E+03  0.91230969072E+02 0.  0.
          2    1    3    3  502    0  0.66163214914E+02  0.44860297442E+03  0.98724511290E+03  0.10864046726E+04  0.00000000000E+00 0. -1.
         -1    1    3    3    0  502  0.35099361540E+01  0.13969933578E+03  0.21870655478E+03  0.25953955609E+03  0.00000000000E+00 0.  1.
         11    1    5    5    0    0 -0.37887701309E+02 -0.23865716182E+03 -0.23904595153E+02  0.24282534561E+03  0.00000000000E+00 0. -1.
        -11    1    5    5    0    0 -0.24463645470E+01 -0.57822219814E+03  0.55755028780E+02  0.58090921697E+03  0.00000000000E+00 0.  1.
          2    1    6    6  503    0 -0.10898950620E+02 -0.16351848265E+01 -0.16991276454E+02  0.20252516623E+02  0.00000000000E+00 0. -1.
         -2    1    6    6    0  503 -0.18440134592E+02  0.23021223459E+03 -0.46115451063E+02  0.23550869697E+03  0.00000000000E+00 0.  1.
<mgrwt>
<rscale>  0 0.21219920E+04</rscale>
<asrwt>0</asrwt>
<pdfrwt beam="1">  1        2 0.27693349E+00 0.21219920E+04</pdfrwt>
<pdfrwt beam="2">  1       -1 0.96211126E-01 0.21219920E+04</pdfrwt>
<totfact> 0.94040454E+00</totfact>
</mgrwt>
</event>
<event>
12    6  0.2505882E-007  0.2800034E+04  0.7818608E-02  0.8303258E-01
         -1   -1    0    0    0  501 -0.00000000000E+00  0.00000000000E+00  0.99405195180E+03  0.99405195180E+03  0.00000000000E+00 0.  1.
          2   -1    0    0  501    0  0.00000000000E+00 -0.00000000000E+00 -0.19717764912E+04  0.19717764912E+04  0.00000000000E+00 0. -1.
         24    2    1    2    0    0 -0.22222953166E+03 -0.75908649701E+03 -0.14590629611E+04  0.16615574201E+04  0.79435894717E+02 0.  0.
        254    2    1    2    0    0  0.22222953166E+03  0.75908649701E+03  0.48133842163E+03  0.13042710229E+04  0.91860652641E+03 0.  0.
         23    2    4    4    0    0 -0.26776715386E+02  0.65554181139E+03  0.68655604526E+03  0.95386490780E+03  0.89705072825E+02 0.  0.
         23    2    4    4    0    0  0.24900624705E+03  0.10354468562E+03 -0.20521762363E+03  0.35040611510E+03  0.89132258279E+02 0.  0.
          2    1    3    3  502    0 -0.21324330200E+03 -0.63989291049E+03 -0.12666391211E+04  0.14350297229E+04  0.00000000000E+00 0. -1.
         -3    1    3    3    0  502 -0.89862296555E+01 -0.11919358651E+03 -0.19242384001E+03  0.22652769719E+03  0.00000000000E+00 0.  1.
         11    1    5    5    0    0 -0.20808054916E+01  0.10179454484E+03  0.63790422326E+02  0.12014856259E+03  0.00000000000E+00 0.  1.
        -11    1    5    5    0    0 -0.24695909895E+02  0.55374726655E+03  0.62276562293E+03  0.83371634522E+03  0.00000000000E+00 0. -1.
          2    1    6    6  503    0  0.29893322024E+02  0.22146122623E+01  0.48874984602E+01  0.30371085761E+02  0.00000000000E+00 0.  1.
         -2    1    6    6    0  503  0.21911292502E+03  0.10133007335E+03 -0.21010512209E+03  0.32003502934E+03  0.00000000000E+00 0. -1.
<mgrwt>
<rscale>  0 0.28000345E+04</rscale>
<asrwt>0</asrwt>
<pdfrwt beam="1">  1        2 0.30335023E+00 0.28000345E+04</pdfrwt>
<pdfrwt beam="2">  1       -1 0.15293107E+00 0.28000345E+04</pdfrwt>
<totfact> 0.22703171E+00</totfact>
</mgrwt>
</event>
<event>
12    6  0.1647231E-007  0.2010774E+04  0.7818608E-02  0.8601600E-01
         -1   -1    0    0    0  501 -0.00000000000E+00  0.00000000000E+00  0.67697891531E+03  0.67697891531E+03  0.00000000000E+00 0.  1.
          2   -1    0    0  501    0  0.00000000000E+00 -0.00000000000E+00 -0.14931090973E+04  0.14931090973E+04  0.00000000000E+00 0. -1.
         24    2    1    2    0    0  0.29614015482E+03  0.74089567503E+03 -0.41934935845E+03  0.90501408084E+03  0.81062997226E+02 0.  0.
        254    2    1    2    0    0 -0.29614015482E+03 -0.74089567503E+03 -0.39678082351E+03  0.12650739317E+04  0.89797084490E+03 0.  0.
         23    2    4    4    0    0 -0.18972263069E+03 -0.42364674210E+03  0.24698616927E+03  0.53374652450E+03  0.91716661071E+02 0.  0.
         23    2    4    4    0    0 -0.10641752414E+03 -0.31724893293E+03 -0.64376699278E+03  0.73132740724E+03  0.91827341795E+02 0.  0.
          4    1    3    3  502    0  0.27522437529E+03  0.64173556483E+03 -0.38857921085E+03  0.79910374485E+03  0.00000000000E+00 0. -1.
         -3    1    3    3    0  502  0.20915779534E+02  0.99160110198E+02 -0.30770147599E+02  0.10591033600E+03  0.00000000000E+00 0.  1.
         11    1    5    5    0    0 -0.18297103815E+03 -0.31951555649E+03  0.18095898946E+03  0.41026180361E+03  0.00000000000E+00 0. -1.
        -11    1    5    5    0    0 -0.67515925432E+01 -0.10413118561E+03  0.66027179808E+02  0.12348472089E+03  0.00000000000E+00 0.  1.
          3    1    6    6  503    0 -0.70995632483E+02 -0.25326485799E+03 -0.41667033006E+03  0.49274499701E+03  0.00000000000E+00 0. -1.
         -3    1    6    6    0  503 -0.35421891652E+02 -0.63984074939E+02 -0.22709666272E+03  0.23858241023E+03  0.00000000000E+00 0.  1.
<mgrwt>
<rscale>  0 0.20107744E+04</rscale>
<asrwt>0</asrwt>
<pdfrwt beam="1">  1        2 0.22970909E+00 0.20107744E+04</pdfrwt>
<pdfrwt beam="2">  1       -1 0.10415060E+00 0.20107744E+04</pdfrwt>
<totfact> 0.11753434E+01</totfact>
</mgrwt>
</event>
<event>
12    6  0.1647231E-007  0.1057987E+04  0.7818608E-02  0.9247137E-01
          2   -1    0    0  501    0  0.00000000000E+00  0.00000000000E+00  0.52646356497E+03  0.52646356497E+03  0.00000000000E+00 0. -1.
         -1   -1    0    0    0  501 -0.00000000000E+00 -0.00000000000E+00 -0.53153532366E+03  0.53153532366E+03  0.00000000000E+00 0.  1.
         24    2    1    2    0    0  0.44033776914E+02 -0.56953978416E+02 -0.10467542845E+03  0.14887763488E+03  0.77620072653E+02 0.  0.
        254    2    1    2    0    0 -0.44033776914E+02  0.56953978416E+02  0.99603669756E+02  0.90912125376E+03  0.90077623961E+03 0.  0.
         23    2    4    4    0    0  0.44744449778E+02 -0.79870142758E+02  0.47355252159E+03  0.49109237782E+03  0.92403611205E+02 0.  0.
         23    2    4    4    0    0 -0.88778226691E+02  0.13682412117E+03 -0.37394885183E+03  0.41802887593E+03  0.91148141278E+02 0.  0.
          2    1    3    3  502    0  0.19001008211E+02 -0.15757981186E+01  0.81424991174E+01  0.20732142789E+02  0.00000000000E+00 0. -1.
         -1    1    3    3    0  502  0.25032768703E+02 -0.55378180298E+02 -0.11281792757E+03  0.12814549209E+03  0.00000000000E+00 0.  1.
         11    1    5    5    0    0  0.45434194604E+02 -0.62787981179E+01  0.95498390846E+02  0.10594164431E+03  0.00000000000E+00 0.  1.
        -11    1    5    5    0    0 -0.68974482670E+00 -0.73591344641E+02  0.37805413074E+03  0.38515073351E+03  0.00000000000E+00 0. -1.
          3    1    6    6  503    0 -0.45876516930E+02  0.22657404952E+02 -0.19407162728E+03  0.20070328677E+03  0.00000000000E+00 0. -1.
         -3    1    6    6    0  503 -0.42901709761E+02  0.11416671622E+03 -0.17987722455E+03  0.21732558917E+03  0.00000000000E+00 0.  1.
<mgrwt>
<rscale>  0 0.10579867E+04</rscale>
<asrwt>0</asrwt>
<pdfrwt beam="1">  1        2 0.80994394E-01 0.10579867E+04</pdfrwt>
<pdfrwt beam="2">  1       -1 0.81774665E-01 0.10579867E+04</pdfrwt>
<totfact> 0.98242873E+01</totfact>
</mgrwt>
</event>
<event>
12    6  0.1849561E-007  0.2210199E+04  0.7818608E-02  0.8514195E-01
          2   -1    0    0  501    0  0.00000000000E+00  0.00000000000E+00  0.15204326152E+04  0.15204326152E+04  0.00000000000E+00 0. -1.
         -1   -1    0    0    0  501 -0.00000000000E+00 -0.00000000000E+00 -0.80322195190E+03  0.80322195190E+03  0.00000000000E+00 0.  1.
         24    2    1    2    0    0  0.24496748317E+03 -0.21313821682E+03 -0.59941482854E+03  0.68583759547E+03  0.75087305260E+02 0.  0.
        254    2    1    2    0    0 -0.24496748317E+03  0.21313821682E+03  0.13166254918E+04  0.16378169716E+04  0.91842516269E+03 0.  0.
         23    2    4    4    0    0  0.93468753331E+02 -0.30497824485E+03  0.32098598489E+03  0.46195916158E+03  0.92876944316E+02 0.  0.
         23    2    4    4    0    0 -0.33843623650E+03  0.51811646167E+03  0.99563950691E+03  0.11758578100E+04  0.91431983458E+02 0.  0.
          4    1    3    3  502    0  0.39256185286E+02 -0.42217554059E+01 -0.58606421570E+02  0.70665295238E+02  0.00000000000E+00 0. -1.
         -3    1    3    3    0  502  0.20571129789E+03 -0.20891646141E+03 -0.54080840697E+03  0.61517230023E+03  0.00000000000E+00 0.  1.
         11    1    5    5    0    0 -0.10661640714E+02 -0.12722083593E+02  0.40280688621E+02  0.43566683021E+02  0.00000000000E+00 0. -1.
        -11    1    5    5    0    0  0.10413039404E+03 -0.29225616126E+03  0.28070529627E+03  0.41839247855E+03  0.00000000000E+00 0.  1.
          1    1    6    6  503    0 -0.14574223493E+02  0.15138201233E+02  0.10960084000E+02  0.23700138571E+02  0.00000000000E+00 0. -1.
         -1    1    6    6    0  503 -0.32386201301E+03  0.50297826044E+03  0.98467942291E+03  0.11521576714E+04  0.00000000000E+00 0.  1.
<mgrwt>
<rscale>  0 0.22101990E+04</rscale>
<asrwt>0</asrwt>
<pdfrwt beam="1">  1        2 0.23391271E+00 0.22101990E+04</pdfrwt>
<pdfrwt beam="2">  1       -1 0.12357261E+00 0.22101990E+04</pdfrwt>
<totfact> 0.74056203E+00</totfact>
</mgrwt>
</event>
<event>
12    6  0.1647231E-007  0.1165813E+04  0.7818608E-02  0.9143318E-01
         -1   -1    0    0    0  501 -0.00000000000E+00  0.00000000000E+00  0.29261555203E+03  0.29261555203E+03  0.00000000000E+00 0.  1.
          2   -1    0    0  501    0  0.00000000000E+00 -0.00000000000E+00 -0.11611816351E+04  0.11611816351E+04  0.00000000000E+00 0. -1.
         24    2    1    2    0    0  0.20551340383E+02 -0.77811914417E+02 -0.44201259983E+03  0.45608097040E+03  0.78470768636E+02 0.  0.
        254    2    1    2    0    0 -0.20551340383E+02  0.77811914417E+02 -0.42655348325E+03  0.99771621675E+03  0.89833886896E+03 0.  0.
         23    2    4    4    0    0 -0.11612803109E+03 -0.38309076683E+03 -0.27460806677E+03  0.49380290148E+03  0.90484584040E+02 0.  0.
         23    2    4    4    0    0  0.95576690704E+02  0.46090268124E+03 -0.15194541648E+03  0.50391331527E+03  0.96306979655E+02 0.  0.
          4    1    3    3  502    0 -0.24716893436E+02 -0.57474546388E+02 -0.23244075200E+03  0.24071342192E+03  0.00000000000E+00 0. -1.
         -3    1    3    3    0  502  0.45268233819E+02 -0.20337368029E+02 -0.20957184783E+03  0.21536754848E+03  0.00000000000E+00 0.  1.
         11    1    5    5    0    0 -0.59622495886E+02 -0.30400914730E+03 -0.18067766140E+03  0.35863745062E+03  0.00000000000E+00 0.  1.
        -11    1    5    5    0    0 -0.56505535200E+02 -0.79081619528E+02 -0.93930405367E+02  0.13516545087E+03  0.00000000000E+00 0. -1.
          3    1    6    6  503    0  0.49437318903E+02  0.11739579489E+03 -0.50596872824E+01  0.12748106367E+03  0.00000000000E+00 0. -1.
         -3    1    6    6    0  503  0.46139371801E+02  0.34350688635E+03 -0.14688572920E+03  0.37643225160E+03  0.00000000000E+00 0.  1.
<mgrwt>
<rscale>  0 0.11658127E+04</rscale>
<asrwt>0</asrwt>
<pdfrwt beam="1">  1        2 0.17864333E+00 0.11658127E+04</pdfrwt>
<pdfrwt beam="2">  1       -1 0.45017777E-01 0.11658127E+04</pdfrwt>
<totfact> 0.11022309E+02</totfact>
</mgrwt>
</event>
<event>
12    6  0.1647231E-007  0.1839065E+04  0.7818608E-02  0.8685796E-01
         -1   -1    0    0    0  501 -0.00000000000E+00  0.00000000000E+00  0.49960900223E+03  0.49960900223E+03  0.00000000000E+00 0.  1.
          2   -1    0    0  501    0  0.00000000000E+00 -0.00000000000E+00 -0.16924041409E+04  0.16924041409E+04  0.00000000000E+00 0. -1.
         24    2    1    2    0    0 -0.25154625709E+03 -0.57022671799E+03 -0.66806458189E+02  0.63142194981E+03  0.76135054244E+02 0.  0.
        254    2    1    2    0    0  0.25154625709E+03  0.57022671799E+03 -0.11259886805E+04  0.15605911933E+04  0.88270059179E+03 0.  0.
         23    2    4    4    0    0 -0.31308818127E+03  0.30014788622E+03 -0.53674827588E+03  0.69609923501E+03  0.91337125318E+02 0.  0.
         23    2    4    4    0    0  0.56463443835E+03  0.27007883177E+03 -0.58924040461E+03  0.86449195833E+03  0.91583116614E+02 0.  0.
          4    1    3    3  502    0 -0.19910068249E+02 -0.36210565022E+02 -0.23937121134E+02  0.47755644746E+02  0.00000000000E+00 0. -1.
         -3    1    3    3    0  502 -0.23163618884E+03 -0.53401615297E+03 -0.42869337054E+02  0.58366630507E+03  0.00000000000E+00 0.  1.
         11    1    5    5    0    0 -0.15418657947E+03  0.18774539655E+03 -0.24218142972E+03  0.34303597496E+03  0.00000000000E+00 0.  1.
        -11    1    5    5    0    0 -0.15890160180E+03  0.11240248968E+03 -0.29456684616E+03  0.35306326005E+03  0.00000000000E+00 0. -1.
          3    1    6    6  503    0  0.35175345889E+03  0.21240819225E+03 -0.40745302516E+03  0.57867581916E+03  0.00000000000E+00 0. -1.
         -3    1    6    6    0  503  0.21288097946E+03  0.57670639519E+02 -0.18178737945E+03  0.28581613916E+03  0.00000000000E+00 0.  1.
<mgrwt>
<rscale>  0 0.18390654E+04</rscale>
<asrwt>0</asrwt>
<pdfrwt beam="1">  1        2 0.26036987E+00 0.18390654E+04</pdfrwt>
<pdfrwt beam="2">  1       -1 0.76862924E-01 0.18390654E+04</pdfrwt>
<totfact> 0.18025543E+01</totfact>
</mgrwt>
</event>
<event>
12    6  0.1647231E-007  0.2796652E+04  0.7818608E-02  0.8304308E-01
          2   -1    0    0  501    0  0.00000000000E+00  0.00000000000E+00  0.18008245959E+04  0.18008245959E+04  0.00000000000E+00 0. -1.
         -1   -1    0    0    0  501 -0.00000000000E+00 -0.00000000000E+00 -0.10857891439E+04  0.10857891439E+04  0.00000000000E+00 0.  1.
         24    2    1    2    0    0 -0.11465855260E+04 -0.26497998726E+03 -0.11450933258E+03  0.11851092457E+04  0.80614979003E+02 0.  0.
        254    2    1    2    0    0  0.11465855260E+04  0.26497998726E+03  0.82954478457E+03  0.17015044941E+04  0.90669743119E+03 0.  0.
         23    2    4    4    0    0  0.92599241473E+03  0.57441335509E+03  0.61473473758E+03  0.12547611860E+04  0.95468223360E+02 0.  0.
         23    2    4    4    0    0  0.22059311130E+03 -0.30943336784E+03  0.21481004700E+03  0.44674330811E+03  0.95004721821E+02 0.  0.
          2    1    3    3  502    0 -0.23629477362E+03 -0.27892654651E+02 -0.42466624574E+02  0.24169533389E+03  0.00000000000E+00 0. -1.
         -1    1    3    3    0  502 -0.91029075241E+03 -0.23708733260E+03 -0.72042708002E+02  0.94341391180E+03  0.00000000000E+00 0.  1.
         11    1    5    5    0    0  0.11870750869E+03  0.11129060796E+03  0.10442648246E+03  0.19334415502E+03  0.00000000000E+00 0. -1.
        -11    1    5    5    0    0  0.80728490604E+03  0.46312274713E+03  0.51030825511E+03  0.10614170310E+04  0.00000000000E+00 0.  1.
          3    1    6    6  503    0 -0.48399368081E+01 -0.59717807636E+01  0.20085494807E+02  0.21506144598E+02  0.00000000000E+00 0. -1.
         -3    1    6    6    0  503  0.22543304811E+03 -0.30346158707E+03  0.19472455219E+03  0.42523716351E+03  0.00000000000E+00 0.  1.
<mgrwt>
<rscale>  0 0.27966521E+04</rscale>
<asrwt>0</asrwt>
<pdfrwt beam="1">  1        2 0.27704994E+00 0.27966521E+04</pdfrwt>
<pdfrwt beam="2">  1       -1 0.16704448E+00 0.27966521E+04</pdfrwt>
<totfact> 0.22094534E+00</totfact>
</mgrwt>
</event>
<event>
12    6  0.1647231E-007  0.2001867E+04  0.7818608E-02  0.8605748E-01
          2   -1    0    0  501    0  0.00000000000E+00  0.00000000000E+00  0.13710964068E+04  0.13710964068E+04  0.00000000000E+00 0. -1.
         -3   -1    0    0    0  501 -0.00000000000E+00 -0.00000000000E+00 -0.73070532557E+03  0.73070532557E+03  0.00000000000E+00 0.  1.
         24    2    1    2    0    0  0.42654661597E+02  0.17061880335E+03  0.10781377920E+04  0.10953519514E+04  0.80527030912E+02 0.  0.
        254    2    1    2    0    0 -0.42654661597E+02 -0.17061880335E+03 -0.43774671074E+03  0.10064497810E+04  0.88903812216E+03 0.  0.
         23    2    4    4    0    0 -0.13910183102E+03  0.73329287905E+02  0.22375881897E+03  0.28905677379E+03  0.93591161686E+02 0.  0.
         23    2    4    4    0    0  0.96447169424E+02 -0.24394809125E+03 -0.66150552971E+03  0.71739300720E+03  0.90831895362E+02 0.  0.
          4    1    3    3  502    0 -0.17423644226E+02  0.91037601191E+02  0.46328637227E+03  0.47246766126E+03  0.00000000000E+00 0. -1.
         -3    1    3    3    0  502  0.60078305823E+02  0.79581202155E+02  0.61485141974E+03  0.62288429016E+03  0.00000000000E+00 0.  1.
         11    1    5    5    0    0 -0.63963813381E+02 -0.13467916656E+02  0.10646990969E+03  0.12493436625E+03  0.00000000000E+00 0.  1.
        -11    1    5    5    0    0 -0.75138017640E+02  0.86797204561E+02  0.11728890928E+03  0.16412240753E+03  0.00000000000E+00 0. -1.
          4    1    6    6  503    0  0.10523897833E+03 -0.16395029943E+03 -0.42384227499E+03  0.46647316891E+03  0.00000000000E+00 0. -1.
         -4    1    6    6    0  503 -0.87918089012E+01 -0.79997791816E+02 -0.23766325472E+03  0.25091983829E+03  0.00000000000E+00 0.  1.
<mgrwt>
<rscale>  0 0.20018666E+04</rscale>
<asrwt>0</asrwt>
<pdfrwt beam="1">  1        2 0.21093791E+00 0.20018666E+04</pdfrwt>
<pdfrwt beam="2">  1       -3 0.11241620E+00 0.20018666E+04</pdfrwt>
<totfact> 0.58712699E+00</totfact>
</mgrwt>
</event>
<event>
12    6  0.1647231E-007  0.1384546E+04  0.7818608E-02  0.8965082E-01
         -1   -1    0    0    0  501 -0.00000000000E+00  0.00000000000E+00  0.17362363618E+03  0.17362363618E+03  0.00000000000E+00 0.  1.
          2   -1    0    0  501    0  0.00000000000E+00 -0.00000000000E+00 -0.27602325273E+04  0.27602325273E+04  0.00000000000E+00 0. -1.
         24    2    1    2    0    0  0.31077034240E+03  0.24242093254E+03 -0.58416770163E+03  0.70933370237E+03  0.80970880186E+02 0.  0.
        254    2    1    2    0    0 -0.31077034240E+03 -0.24242093254E+03 -0.20024411895E+04  0.22245224611E+04  0.88508945785E+03 0.  0.
         23    2    4    4    0    0  0.19748114564E+03 -0.35193583612E+03 -0.63497991206E+03  0.75846592713E+03  0.95986656666E+02 0.  0.
         23    2    4    4    0    0 -0.50825148804E+03  0.10951490358E+03 -0.13674612774E+04  0.14660565340E+04  0.95175240414E+02 0.  0.
          4    1    3    3  502    0  0.43529458784E+01  0.10395638103E+02 -0.15769079742E+01  0.11379985419E+02  0.00000000000E+00 0. -1.
         -3    1    3    3    0  502  0.30641739653E+03  0.23202529444E+03 -0.58259079365E+03  0.69795371695E+03  0.00000000000E+00 0.  1.
         11    1    5    5    0    0  0.11553055915E+03 -0.21428606747E+03 -0.46512842519E+03  0.52498598146E+03  0.00000000000E+00 0.  1.
        -11    1    5    5    0    0  0.81950586489E+02 -0.13764976865E+03 -0.16985148688E+03  0.23347994567E+03  0.00000000000E+00 0. -1.
          3    1    6    6  503    0 -0.21456348510E+03  0.79507125303E+02 -0.69345980940E+03  0.73023652289E+03  0.00000000000E+00 0. -1.
         -3    1    6    6    0  503 -0.29368800294E+03  0.30007778280E+02 -0.67400146802E+03  0.73582001109E+03  0.00000000000E+00 0.  1.
<mgrwt>
<rscale>  0 0.13845456E+04</rscale>
<asrwt>0</asrwt>
<pdfrwt beam="1">  1        2 0.42465111E+00 0.13845456E+04</pdfrwt>
<pdfrwt beam="2">  1       -1 0.26711331E-01 0.13845456E+04</pdfrwt>
<totfact> 0.34106291E+01</totfact>
</mgrwt>
</event>
<event>
12    6  0.1647231E-007  0.1491699E+04  0.7818608E-02  0.8889992E-01
         -1   -1    0    0    0  501 -0.00000000000E+00  0.00000000000E+00  0.23780510657E+03  0.23780510657E+03  0.00000000000E+00 0.  1.
          2   -1    0    0  501    0  0.00000000000E+00 -0.00000000000E+00 -0.23392748023E+04  0.23392748023E+04  0.00000000000E+00 0. -1.
         24    2    1    2    0    0  0.46014808859E+03 -0.14848939697E+03 -0.62823193566E+03  0.79678489635E+03  0.80034002967E+02 0.  0.
        254    2    1    2    0    0 -0.46014808859E+03  0.14848939697E+03 -0.14732377601E+04  0.17802950125E+04  0.87477738277E+03 0.  0.
         23    2    4    4    0    0 -0.42205057283E+03  0.30625381798E+03 -0.33079094692E+03  0.62281738551E+03  0.80998506627E+02 0.  0.
         23    2    4    4    0    0 -0.38097515751E+02 -0.15776442101E+03 -0.11424468131E+04  0.11574776270E+04  0.90712198038E+02 0.  0.
          2    1    3    3  502    0  0.37545083112E+03 -0.11477125016E+03 -0.45450247994E+03  0.60058993559E+03  0.00000000000E+00 0. -1.
         -1    1    3    3    0  502  0.84697257463E+02 -0.33718146812E+02 -0.17372945572E+03  0.19619496077E+03  0.00000000000E+00 0.  1.
         11    1    5    5    0    0 -0.58418619565E+02  0.70145117407E+02 -0.83361159575E+02  0.12362101574E+03  0.00000000000E+00 0. -1.
        -11    1    5    5    0    0 -0.36363195327E+03  0.23610870057E+03 -0.24742978735E+03  0.49919636977E+03  0.00000000000E+00 0.  1.
          4    1    6    6  503    0  0.87638086695E+01 -0.14880833848E+02 -0.37728386739E+03  0.37767891145E+03  0.00000000000E+00 0.  1.
         -4    1    6    6    0  503 -0.46861324421E+02 -0.14288358716E+03 -0.76516294575E+03  0.77979871554E+03  0.00000000000E+00 0. -1.
<mgrwt>
<rscale>  0 0.14916990E+04</rscale>
<asrwt>0</asrwt>
<pdfrwt beam="1">  1        2 0.35988843E+00 0.14916990E+04</pdfrwt>
<pdfrwt beam="2">  1       -1 0.36585401E-01 0.14916990E+04</pdfrwt>
<totfact> 0.34034765E+01</totfact>
</mgrwt>
</event>
<event>
12    6  0.1647231E-007  0.2089851E+04  0.7818608E-02  0.8565727E-01
          2   -1    0    0  501    0  0.00000000000E+00  0.00000000000E+00  0.94304287204E+03  0.94304287204E+03  0.00000000000E+00 0. -1.
         -1   -1    0    0    0  501 -0.00000000000E+00 -0.00000000000E+00 -0.11578156219E+04  0.11578156219E+04  0.00000000000E+00 0.  1.
         24    2    1    2    0    0  0.14181782566E+03  0.49426424312E+03  0.57909709730E+03  0.77848716995E+03  0.79242589448E+02 0.  0.
        254    2    1    2    0    0 -0.14181782566E+03 -0.49426424312E+03 -0.79386984712E+03  0.13223713239E+04  0.92413589181E+03 0.  0.
         23    2    4    4    0    0  0.32279907128E+03 -0.46335224120E+02 -0.50860641779E+03  0.61116057903E+03  0.92144298430E+02 0.  0.
         23    2    4    4    0    0 -0.46461689693E+03 -0.44792901900E+03 -0.28526342933E+03  0.71121074492E+03  0.89085535267E+02 0.  0.
          2    1    3    3  502    0  0.13999896618E+03  0.47016124124E+03  0.52122536536E+03  0.71577034360E+03  0.00000000000E+00 0. -1.
         -1    1    3    3    0  502  0.18188594779E+01  0.24103001886E+02  0.57871731938E+02  0.62716826349E+02  0.00000000000E+00 0.  1.
         11    1    5    5    0    0  0.29797391384E+03 -0.16401953994E+02 -0.42932284975E+03  0.52285331283E+03  0.00000000000E+00 0.  1.
        -11    1    5    5    0    0  0.24825157439E+02 -0.29933270126E+02 -0.79283568040E+02  0.88307266199E+02  0.00000000000E+00 0. -1.
          3    1    6    6  503    0 -0.94142651017E+02 -0.70398814614E+02 -0.87349726292E+02  0.14645411064E+03  0.00000000000E+00 0. -1.
         -3    1    6    6    0  503 -0.37047424592E+03 -0.37753020439E+03 -0.19791370303E+03  0.56475663428E+03  0.00000000000E+00 0.  1.
<mgrwt>
<rscale>  0 0.20898514E+04</rscale>
<asrwt>0</asrwt>
<pdfrwt beam="1">  1        2 0.14508352E+00 0.20898514E+04</pdfrwt>
<pdfrwt beam="2">  1       -1 0.17812548E+00 0.20898514E+04</pdfrwt>
<totfact> 0.61976682E+00</totfact>
</mgrwt>
</event>
<event>
12    6  0.1647231E-007  0.1708253E+04  0.7818608E-02  0.8756671E-01
         -1   -1    0    0    0  501 -0.00000000000E+00  0.00000000000E+00  0.13788421698E+04  0.13788421698E+04  0.00000000000E+00 0.  1.
          2   -1    0    0  501    0  0.00000000000E+00 -0.00000000000E+00 -0.52909025630E+03  0.52909025630E+03  0.00000000000E+00 0. -1.
         24    2    1    2    0    0  0.38923284413E+03  0.16923830864E+03 -0.18453956046E+03  0.46960387441E+03  0.79555876123E+02 0.  0.
        254    2    1    2    0    0 -0.38923284413E+03 -0.16923830864E+03  0.10342914739E+04  0.14383285517E+04  0.90492339864E+03 0.  0.
         23    2    4    4    0    0  0.16229250623E+03  0.16033802657E+03  0.62674913493E+03  0.67275443507E+03  0.87959714829E+02 0.  0.
         23    2    4    4    0    0 -0.55152535036E+03 -0.32957633521E+03  0.40754233900E+03  0.76557411658E+03  0.84924655346E+02 0.  0.
          4    1    3    3  502    0  0.24474185708E+03  0.72300550812E+02 -0.84094870187E+02  0.26869665693E+03  0.00000000000E+00 0. -1.
         -3    1    3    3    0  502  0.14449098706E+03  0.96937757825E+02 -0.10044469028E+03  0.20090721749E+03  0.00000000000E+00 0.  1.
         11    1    5    5    0    0  0.78524703066E+02  0.12533646349E+03  0.31391040556E+03  0.34700879065E+03  0.00000000000E+00 0. -1.
        -11    1    5    5    0    0  0.83767803161E+02  0.35001563080E+02  0.31283872937E+03  0.32574564442E+03  0.00000000000E+00 0.  1.
          3    1    6    6  503    0 -0.50592799716E+03 -0.27220403151E+03  0.35400972122E+03  0.67481927640E+03  0.00000000000E+00 0. -1.
         -3    1    6    6    0  503 -0.45597353197E+02 -0.57372303698E+02  0.53532617778E+02  0.90754840181E+02  0.00000000000E+00 0.  1.
<mgrwt>
<rscale>  0 0.17082529E+04</rscale>
<asrwt>0</asrwt>
<pdfrwt beam="1">  1        2 0.81398501E-01 0.17082529E+04</pdfrwt>
<pdfrwt beam="2">  1       -1 0.21212956E+00 0.17082529E+04</pdfrwt>
<totfact> 0.77868652E+00</totfact>
</mgrwt>
</event>
<event>
12    6  0.1647231E-007  0.1723517E+04  0.7818608E-02  0.8748064E-01
          2   -1    0    0  501    0  0.00000000000E+00  0.00000000000E+00  0.28202571543E+04  0.28202571543E+04  0.00000000000E+00 0. -1.
         -1   -1    0    0    0  501 -0.00000000000E+00 -0.00000000000E+00 -0.26331917135E+03  0.26331917135E+03  0.00000000000E+00 0.  1.
         24    2    1    2    0    0 -0.69171540523E+02  0.31186782008E+03 -0.29730331856E+02  0.33088747708E+03  0.80971542138E+02 0.  0.
        254    2    1    2    0    0  0.69171540523E+02 -0.31186782008E+03  0.25866683148E+04  0.27526888486E+04  0.88566172268E+03 0.  0.
         23    2    4    4    0    0 -0.33148100493E+03 -0.32307814874E+02  0.17154538007E+04  0.17498300621E+04  0.90554140195E+02 0.  0.
         23    2    4    4    0    0  0.40065254545E+03 -0.27956000521E+03  0.87121451412E+03  0.10028587865E+04  0.89636808089E+02 0.  0.
          4    1    3    3  502    0  0.48917041848E+01  0.72920300899E+02  0.20127191354E+02  0.75805032055E+02  0.00000000000E+00 0. -1.
         -3    1    3    3    0  502 -0.74063244707E+02  0.23894751918E+03 -0.49857523209E+02  0.25508244503E+03  0.00000000000E+00 0.  1.
         11    1    5    5    0    0  0.17880624669E+01 -0.10001055825E+02  0.77805195265E+02  0.78465703943E+02  0.00000000000E+00 0.  1.
        -11    1    5    5    0    0 -0.33326906739E+03 -0.22306759049E+02  0.16376486055E+04  0.16713643582E+04  0.00000000000E+00 0. -1.
          4    1    6    6  503    0  0.46725861251E+02 -0.62304584382E+02  0.97991770407E+02  0.12517010191E+03  0.00000000000E+00 0.  1.
         -4    1    6    6    0  503  0.35392668420E+03 -0.21725542083E+03  0.77322274371E+03  0.87768868459E+03  0.00000000000E+00 0. -1.
<mgrwt>
<rscale>  0 0.17235171E+04</rscale>
<asrwt>0</asrwt>
<pdfrwt beam="1">  1        2 0.43388570E+00 0.17235171E+04</pdfrwt>
<pdfrwt beam="2">  1       -1 0.40510644E-01 0.17235171E+04</pdfrwt>
<totfact> 0.14513926E+01</totfact>
</mgrwt>
</event>
<event>
12    6  0.1647231E-007  0.1667270E+04  0.7818608E-02  0.8780255E-01
         -1   -1    0    0    0  501 -0.00000000000E+00  0.00000000000E+00  0.48209814171E+03  0.48209814171E+03  0.00000000000E+00 0.  1.
          2   -1    0    0  501    0  0.00000000000E+00 -0.00000000000E+00 -0.14415065946E+04  0.14415065946E+04  0.00000000000E+00 0. -1.
         24    2    1    2    0    0  0.11161338128E+03 -0.48071415967E+02 -0.10198596817E+04  0.10301228069E+04  0.79188503048E+02 0.  0.
        254    2    1    2    0    0 -0.11161338128E+03  0.48071415967E+02  0.60451228723E+02  0.89348192949E+03  0.88311222354E+03 0.  0.
         23    2    4    4    0    0  0.24950854019E+03 -0.51097776365E+02 -0.27328837386E+03  0.38355052351E+03  0.86942362650E+02 0.  0.
         23    2    4    4    0    0 -0.36112192147E+03  0.99169192332E+02  0.33373960259E+03  0.50993140598E+03  0.91675218017E+02 0.  0.
          2    1    3    3  502    0  0.54108533614E+02  0.16704355167E+02 -0.48500746060E+03  0.48830216642E+03  0.00000000000E+00 0. -1.
         -1    1    3    3    0  502  0.57504847667E+02 -0.64775771134E+02 -0.53485222107E+03  0.54182064044E+03  0.00000000000E+00 0.  1.
         11    1    5    5    0    0  0.19539033551E+03 -0.23943634925E+01 -0.18468443572E+03  0.26887070682E+03  0.00000000000E+00 0.  1.
        -11    1    5    5    0    0  0.54118204675E+02 -0.48703412873E+02 -0.88603938144E+02  0.11467981670E+03  0.00000000000E+00 0. -1.
          2    1    6    6  503    0 -0.59028426981E+02  0.47973050126E+02  0.93782978395E+02  0.12075187687E+03  0.00000000000E+00 0. -1.
         -2    1    6    6    0  503 -0.30209349449E+03  0.51196142206E+02  0.23995662419E+03  0.38917952911E+03  0.00000000000E+00 0.  1.
<mgrwt>
<rscale>  0 0.16672704E+04</rscale>
<asrwt>0</asrwt>
<pdfrwt beam="1">  1        2 0.22177024E+00 0.16672704E+04</pdfrwt>
<pdfrwt beam="2">  1       -1 0.74168946E-01 0.16672704E+04</pdfrwt>
<totfact> 0.27261580E+01</totfact>
</mgrwt>
</event>
<event>
12    6  0.1647231E-007  0.1226723E+04  0.7818608E-02  0.9089782E-01
         -1   -1    0    0    0  501 -0.00000000000E+00  0.00000000000E+00  0.52673485901E+03  0.52673485901E+03  0.00000000000E+00 0.  1.
          2   -1    0    0  501    0  0.00000000000E+00 -0.00000000000E+00 -0.71423474529E+03  0.71423474529E+03  0.00000000000E+00 0. -1.
         24    2    1    2    0    0  0.20635215463E+03  0.58048847366E+02 -0.19918984928E+03  0.30315658683E+03  0.79223984252E+02 0.  0.
        254    2    1    2    0    0 -0.20635215463E+03 -0.58048847366E+02  0.11689962998E+02  0.93781301748E+03  0.91291057619E+03 0.  0.
         23    2    4    4    0    0 -0.15099011009E+03  0.12050623028E+03  0.42465350780E+03  0.47532448493E+03  0.91010985117E+02 0.  0.
         23    2    4    4    0    0 -0.55362044545E+02 -0.17855507765E+03 -0.41296354480E+03  0.46248853254E+03  0.91705406991E+02 0.  0.
          4    1    3    3  502    0  0.17621333038E+03  0.17995847589E+02 -0.14132912493E+03  0.22660297855E+03  0.00000000000E+00 0. -1.
         -3    1    3    3    0  502  0.30138824249E+02  0.40052999777E+02 -0.57860724347E+02  0.76553608276E+02  0.00000000000E+00 0.  1.
         11    1    5    5    0    0 -0.16332922274E+03  0.11367315201E+03  0.40349215963E+03  0.44989325775E+03  0.00000000000E+00 0. -1.
        -11    1    5    5    0    0  0.12339112651E+02  0.68330782670E+01  0.21161348167E+02  0.25431227180E+02  0.00000000000E+00 0.  1.
          1    1    6    6  503    0 -0.16653250978E+02  0.59313060961E+01 -0.57214330563E+02  0.59883142719E+02  0.00000000000E+00 0.  1.
         -1    1    6    6    0  503 -0.38708793567E+02 -0.18448638374E+03 -0.35574921424E+03  0.40260538982E+03  0.00000000000E+00 0. -1.
<mgrwt>
<rscale>  0 0.12267230E+04</rscale>
<asrwt>0</asrwt>
<pdfrwt beam="1">  1        2 0.10988227E+00 0.12267230E+04</pdfrwt>
<pdfrwt beam="2">  1       -1 0.81036132E-01 0.12267230E+04</pdfrwt>
<totfact> 0.68216398E+01</totfact>
</mgrwt>
</event>
<event>
12    6  0.1647231E-007  0.2760318E+04  0.7818608E-02  0.8315695E-01
          2   -1    0    0  501    0  0.00000000000E+00  0.00000000000E+00  0.82594697937E+03  0.82594697937E+03  0.00000000000E+00 0. -1.
         -1   -1    0    0    0  501 -0.00000000000E+00 -0.00000000000E+00 -0.23062477582E+04  0.23062477582E+04  0.00000000000E+00 0.  1.
         24    2    1    2    0    0  0.76320341193E+03 -0.82196581620E+03 -0.10890607848E+04  0.15654546582E+04  0.80545905746E+02 0.  0.
        254    2    1    2    0    0 -0.76320341193E+03  0.82196581620E+03 -0.39123999405E+03  0.15667400794E+04  0.10215177396E+04 0.  0.
         23    2    4    4    0    0 -0.45424450717E+03  0.65704168845E+03 -0.71989820868E+03  0.10782853142E+04  0.80024591903E+02 0.  0.
         23    2    4    4    0    0 -0.30895890477E+03  0.16492412775E+03  0.32865821463E+03  0.48845476518E+03  0.88973382703E+02 0.  0.
          4    1    3    3  502    0  0.21925454636E+03 -0.26067392530E+03 -0.37745824387E+03  0.50842716027E+03  0.00000000000E+00 0. -1.
         -3    1    3    3    0  502  0.54394886557E+03 -0.56129189090E+03 -0.71160254089E+03  0.10570274979E+04  0.00000000000E+00 0.  1.
         11    1    5    5    0    0 -0.12977610062E+03  0.22161144481E+03 -0.27509556681E+03  0.37633899564E+03  0.00000000000E+00 0.  1.
        -11    1    5    5    0    0 -0.32446840655E+03  0.43543024364E+03 -0.44480264187E+03  0.70194631856E+03  0.00000000000E+00 0. -1.
          3    1    6    6  503    0 -0.11329946237E+03  0.70474702721E+02  0.18459121686E+03  0.22776604057E+03  0.00000000000E+00 0. -1.
         -3    1    6    6    0  503 -0.19565944240E+03  0.94449425029E+02  0.14406699777E+03  0.26068872460E+03  0.00000000000E+00 0.  1.
<mgrwt>
<rscale>  0 0.27603176E+04</rscale>
<asrwt>0</asrwt>
<pdfrwt beam="1">  1        2 0.12706877E+00 0.27603176E+04</pdfrwt>
<pdfrwt beam="2">  1       -1 0.35480735E+00 0.27603176E+04</pdfrwt>
<totfact> 0.47417081E-01</totfact>
</mgrwt>
</event>
<event>
12    6  0.1647231E-007  0.1328364E+04  0.7818608E-02  0.9007370E-01
         -1   -1    0    0    0  501 -0.00000000000E+00  0.00000000000E+00  0.17273651882E+03  0.17273651882E+03  0.00000000000E+00 0.  1.
          2   -1    0    0  501    0  0.00000000000E+00 -0.00000000000E+00 -0.25538191035E+04  0.25538191035E+04  0.00000000000E+00 0. -1.
         24    2    1    2    0    0  0.12567923514E+03 -0.31796309041E+03 -0.58346305508E+03  0.68109020095E+03  0.80987210014E+02 0.  0.
        254    2    1    2    0    0 -0.12567923514E+03  0.31796309041E+03 -0.17976195296E+04  0.20454654213E+04  0.91410996044E+03 0.  0.
         23    2    4    4    0    0  0.28986483463E+03  0.33774685579E+02 -0.12872834466E+04  0.13232003021E+04  0.92725485649E+02 0.  0.
         23    2    4    4    0    0 -0.41554406977E+03  0.28418840483E+03 -0.51033608296E+03  0.72226511928E+03  0.88227329117E+02 0.  0.
          4    1    3    3  502    0  0.13470101692E+03 -0.30859732055E+03 -0.54645948993E+03  0.64186808952E+03  0.00000000000E+00 0. -1.
         -3    1    3    3    0  502 -0.90217817783E+01 -0.93657698537E+01 -0.37003565151E+02  0.39222111433E+02  0.00000000000E+00 0.  1.
         11    1    5    5    0    0  0.27103711771E+03  0.41152293036E+01 -0.11417570826E+04  0.11734936259E+04  0.00000000000E+00 0. -1.
        -11    1    5    5    0    0  0.18827716914E+02  0.29659456276E+02 -0.14552636401E+03  0.14970667618E+03  0.00000000000E+00 0.  1.
          2    1    6    6  503    0 -0.34943672758E+03  0.26445881924E+03 -0.40738920755E+03  0.59833975305E+03  0.00000000000E+00 0. -1.
         -2    1    6    6    0  503 -0.66107342189E+02  0.19729585592E+02 -0.10294687541E+03  0.12392536623E+03  0.00000000000E+00 0.  1.
<mgrwt>
<rscale>  0 0.13283641E+04</rscale>
<asrwt>0</asrwt>
<pdfrwt beam="1">  1        2 0.39289524E+00 0.13283641E+04</pdfrwt>
<pdfrwt beam="2">  1       -1 0.26574850E-01 0.13283641E+04</pdfrwt>
<totfact> 0.45720882E+01</totfact>
</mgrwt>
</event>
<event>
12    6  0.1647231E-007  0.1638947E+04  0.7818608E-02  0.8796972E-01
         -1   -1    0    0    0  501 -0.00000000000E+00  0.00000000000E+00  0.24223151373E+03  0.24223151373E+03  0.00000000000E+00 0.  1.
          2   -1    0    0  501    0  0.00000000000E+00 -0.00000000000E+00 -0.27722928459E+04  0.27722928459E+04  0.00000000000E+00 0. -1.
         24    2    1    2    0    0 -0.42278532978E+03 -0.36711626589E+03 -0.75230483273E+03  0.94132321389E+03  0.81271421172E+02 0.  0.
        254    2    1    2    0    0  0.42278532978E+03  0.36711626589E+03 -0.17777564994E+04  0.20732011457E+04  0.90786729844E+03 0.  0.
         23    2    4    4    0    0  0.36337693387E+03 -0.11310890241E+03 -0.13963921473E+04  0.14503837836E+04  0.94157691234E+02 0.  0.
         23    2    4    4    0    0  0.59408395913E+02  0.48022516830E+03 -0.38136435215E+03  0.62281736214E+03  0.91198287900E+02 0.  0.
          4    1    3    3  502    0 -0.34601337287E+03 -0.28207022702E+03 -0.54530558399E+03  0.70473189732E+03  0.00000000000E+00 0. -1.
         -1    1    3    3    0  502 -0.76771956918E+02 -0.85046038874E+02 -0.20699924874E+03  0.23659131657E+03  0.00000000000E+00 0.  1.
         11    1    5    5    0    0  0.11542097905E+03 -0.69617538007E+01 -0.55119134340E+03  0.56318945787E+03  0.00000000000E+00 0.  1.
        -11    1    5    5    0    0  0.24795595482E+03 -0.10614714861E+03 -0.84520080386E+03  0.88719432569E+03  0.00000000000E+00 0. -1.
          4    1    6    6  503    0  0.14114255318E+02  0.39756015536E+03 -0.29912456492E+03  0.49772361273E+03  0.00000000000E+00 0. -1.
         -4    1    6    6    0  503  0.45294140595E+02  0.82665012941E+02 -0.82239787233E+02  0.12509374941E+03  0.00000000000E+00 0.  1.
<mgrwt>
<rscale>  0 0.16389468E+04</rscale>
<asrwt>0</asrwt>
<pdfrwt beam="1">  1        2 0.42650659E+00 0.16389468E+04</pdfrwt>
<pdfrwt beam="2">  1       -1 0.37266387E-01 0.16389468E+04</pdfrwt>
<totfact> 0.18196796E+01</totfact>
</mgrwt>
</event>
<event>
12    6  0.1647231E-007  0.1886309E+04  0.7818608E-02  0.8661702E-01
         -1   -1    0    0    0  501 -0.00000000000E+00  0.00000000000E+00  0.54484920126E+03  0.54484920126E+03  0.00000000000E+00 0.  1.
          2   -1    0    0  501    0  0.00000000000E+00 -0.00000000000E+00 -0.16326351734E+04  0.16326351734E+04  0.00000000000E+00 0. -1.
         24    2    1    2    0    0  0.33034921932E+03  0.34294394597E+03 -0.10530556078E+04  0.11584304450E+04  0.79333637379E+02 0.  0.
        254    2    1    2    0    0 -0.33034921932E+03 -0.34294394597E+03 -0.34730364261E+02  0.10190539296E+04  0.90029081768E+03 0.  0.
         23    2    4    4    0    0 -0.61442791603E+03 -0.22657091721E+03  0.10620416856E+03  0.66934654956E+03  0.88822482868E+02 0.  0.
         23    2    4    4    0    0  0.28407869671E+03 -0.11637302876E+03 -0.14093453282E+03  0.34970738002E+03  0.90494869230E+02 0.  0.
          4    1    3    3  502    0  0.32501099579E+03  0.30942264980E+03 -0.98298771538E+03  0.10805736311E+04  0.00000000000E+00 0. -1.
         -3    1    3    3    0  502  0.53382235359E+01  0.33521296171E+02 -0.70067892462E+02  0.77856813970E+02  0.00000000000E+00 0.  1.
         11    1    5    5    0    0 -0.52963226009E+02 -0.21820001281E+02 -0.15727092910E+02  0.59401660049E+02  0.00000000000E+00 0.  1.
        -11    1    5    5    0    0 -0.56146469002E+03 -0.20475091593E+03  0.12193126147E+03  0.60994488951E+03  0.00000000000E+00 0. -1.
          3    1    6    6  503    0  0.14585620946E+03 -0.40664821503E+02 -0.11466203290E+03  0.18993431321E+03  0.00000000000E+00 0. -1.
         -3    1    6    6    0  503  0.13822248725E+03 -0.75708207253E+02 -0.26272499916E+02  0.15977306681E+03  0.00000000000E+00 0.  1.
<mgrwt>
<rscale>  0 0.18863085E+04</rscale>
<asrwt>0</asrwt>
<pdfrwt beam="1">  1        2 0.25117464E+00 0.18863085E+04</pdfrwt>
<pdfrwt beam="2">  1       -1 0.83822955E-01 0.18863085E+04</pdfrwt>
<totfact> 0.16115224E+01</totfact>
</mgrwt>
</event>
<event>
12    6  0.1647231E-007  0.1812545E+04  0.7818608E-02  0.8699656E-01
          2   -1    0    0  501    0  0.00000000000E+00  0.00000000000E+00  0.26463547439E+04  0.26463547439E+04  0.00000000000E+00 0. -1.
         -1   -1    0    0    0  501 -0.00000000000E+00 -0.00000000000E+00 -0.31036276854E+03  0.31036276854E+03  0.00000000000E+00 0.  1.
         24    2    1    2    0    0  0.23039098629E+03 -0.63114980461E+03  0.92422850495E+03  0.11455365757E+04  0.81398001055E+02 0.  0.
        254    2    1    2    0    0 -0.23039098629E+03  0.63114980461E+03  0.14117634704E+04  0.18111809367E+04  0.91425937603E+03 0.  0.
         23    2    4    4    0    0  0.96542159880E+02  0.64301084244E+03  0.46000346115E+03  0.80064617163E+03  0.81533893275E+02 0.  0.
         23    2    4    4    0    0 -0.32693314617E+03 -0.11861037821E+02  0.95176000927E+03  0.10105347651E+04  0.91145103591E+02 0.  0.
          4    1    3    3  502    0  0.12197566598E+03 -0.40969222348E+03  0.53530509798E+03  0.68503819528E+03  0.00000000000E+00 0. -1.
         -3    1    3    3    0  502  0.10841532030E+03 -0.22145758114E+03  0.38892340696E+03  0.46049838046E+03  0.00000000000E+00 0.  1.
         11    1    5    5    0    0  0.72208512026E+02  0.59155563802E+03  0.39883878011E+03  0.71709449489E+03  0.00000000000E+00 0. -1.
        -11    1    5    5    0    0  0.24333647854E+02  0.51455204417E+02  0.61164681044E+02  0.83551676744E+02  0.00000000000E+00 0.  1.
          2    1    6    6  503    0 -0.12877736297E+03  0.15201990961E+02  0.26149762772E+03  0.29188305714E+03  0.00000000000E+00 0.  1.
         -2    1    6    6    0  503 -0.19815578320E+03 -0.27063028782E+02  0.69026238155E+03  0.71865170794E+03  0.00000000000E+00 0. -1.
<mgrwt>
<rscale>  0 0.18125452E+04</rscale>
<asrwt>0</asrwt>
<pdfrwt beam="1">  1        2 0.40713149E+00 0.18125452E+04</pdfrwt>
<pdfrwt beam="2">  1       -1 0.47748120E-01 0.18125452E+04</pdfrwt>
<totfact> 0.13466009E+01</totfact>
</mgrwt>
</event>
<event>
12    6  0.1647231E-007  0.1642069E+04  0.7818608E-02  0.8795112E-01
         -1   -1    0    0    0  501 -0.00000000000E+00  0.00000000000E+00  0.48309463428E+03  0.48309463428E+03  0.00000000000E+00 0.  1.
          2   -1    0    0  501    0  0.00000000000E+00 -0.00000000000E+00 -0.13953738393E+04  0.13953738393E+04  0.00000000000E+00 0. -1.
         24    2    1    2    0    0  0.48150555532E+03 -0.26333616293E+03 -0.10266551784E+03  0.56309426855E+03  0.73084965671E+02 0.  0.
        254    2    1    2    0    0 -0.48150555532E+03  0.26333616293E+03 -0.80961368715E+03  0.13153742050E+04  0.87951204782E+03 0.  0.
         23    2    4    4    0    0 -0.66612783761E+03  0.12552015833E+03 -0.29575258637E+03  0.74518940795E+03  0.91411460953E+02 0.  0.
         23    2    4    4    0    0  0.18462228229E+03  0.13781600461E+03 -0.51386110077E+03  0.57018479705E+03  0.89324317300E+02 0.  0.
          2    1    3    3  502    0  0.89292163129E+01 -0.20335656874E+02 -0.25820621024E+01  0.22359268529E+02  0.00000000000E+00 0. -1.
         -1    1    3    3    0  502  0.47257633901E+03 -0.24300050606E+03 -0.10008345574E+03  0.54073500002E+03  0.00000000000E+00 0.  1.
         11    1    5    5    0    0 -0.23290476527E+03  0.59828083417E+02 -0.60961728967E+02  0.24807329894E+03  0.00000000000E+00 0.  1.
        -11    1    5    5    0    0 -0.43322307234E+03  0.65692074909E+02 -0.23479085741E+03  0.49711610901E+03  0.00000000000E+00 0. -1.
          2    1    6    6  503    0  0.14491168044E+03  0.12831120990E+03 -0.33660138914E+03  0.38828295981E+03  0.00000000000E+00 0. -1.
         -2    1    6    6    0  503  0.39710601847E+02  0.95047947076E+01 -0.17725971164E+03  0.18190183724E+03  0.00000000000E+00 0.  1.
<mgrwt>
<rscale>  0 0.16420690E+04</rscale>
<asrwt>0</asrwt>
<pdfrwt beam="1">  1        2 0.21467290E+00 0.16420690E+04</pdfrwt>
<pdfrwt beam="2">  1       -1 0.74322252E-01 0.16420690E+04</pdfrwt>
<totfact> 0.28902455E+01</totfact>
</mgrwt>
</event>
<event>
12    6  0.1647231E-007  0.1668385E+04  0.7818608E-02  0.8779604E-01
          2   -1    0    0  501    0  0.00000000000E+00  0.00000000000E+00  0.24091116780E+04  0.24091116780E+04  0.00000000000E+00 0. -1.
         -1   -1    0    0    0  501 -0.00000000000E+00 -0.00000000000E+00 -0.28885207889E+03  0.28885207889E+03  0.00000000000E+00 0.  1.
         24    2    1    2    0    0 -0.41346161048E+03 -0.28109639065E+03  0.12353933592E+04  0.13353795450E+04  0.84119517567E+02 0.  0.
        254    2    1    2    0    0  0.41346161048E+03  0.28109639065E+03  0.88486623993E+03  0.13625842118E+04  0.90756916410E+03 0.  0.
         23    2    4    4    0    0  0.25455198414E+03 -0.14431691217E+03  0.84369757608E+03  0.89751441957E+03  0.89902445409E+02 0.  0.
         23    2    4    4    0    0  0.15890962634E+03  0.42541330281E+03  0.41168663855E+02  0.46506979228E+03  0.91467509254E+02 0.  0.
          4    1    3    3  502    0 -0.80908836046E+02 -0.35364560063E+02  0.15237716222E+03  0.17611272363E+03  0.00000000000E+00 0. -1.
         -3    1    3    3    0  502 -0.33255277443E+03 -0.24573183059E+03  0.10830161969E+04  0.11592668214E+04  0.00000000000E+00 0.  1.
         11    1    5    5    0    0  0.22810075298E+03 -0.10977834293E+03  0.62110682659E+03  0.67071225434E+03  0.00000000000E+00 0.  1.
        -11    1    5    5    0    0  0.26451231157E+02 -0.34538569236E+02  0.22259074949E+03  0.22680216523E+03  0.00000000000E+00 0. -1.
          2    1    6    6  503    0  0.15791841924E+03  0.33009434219E+03  0.50057346474E+02  0.36933215378E+03  0.00000000000E+00 0. -1.
         -2    1    6    6    0  503  0.99120710381E+00  0.95318960625E+02 -0.88886826191E+01  0.95737638496E+02  0.00000000000E+00 0.  1.
<mgrwt>
<rscale>  0 0.16683847E+04</rscale>
<asrwt>0</asrwt>
<pdfrwt beam="1">  1        2 0.37063255E+00 0.16683847E+04</pdfrwt>
<pdfrwt beam="2">  1       -1 0.44438783E-01 0.16683847E+04</pdfrwt>
<totfact> 0.21421149E+01</totfact>
</mgrwt>
</event>
<event>
12    6  0.1647231E-007  0.1667385E+04  0.7818608E-02  0.8780188E-01
          2   -1    0    0  501    0  0.00000000000E+00  0.00000000000E+00  0.65462190781E+03  0.65462190781E+03  0.00000000000E+00 0. -1.
         -1   -1    0    0    0  501 -0.00000000000E+00 -0.00000000000E+00 -0.10617471287E+04  0.10617471287E+04  0.00000000000E+00 0.  1.
         24    2    1    2    0    0 -0.32756640295E+03 -0.48716376506E+03 -0.18398992111E+03  0.62018350978E+03  0.78402885137E+02 0.  0.
        254    2    1    2    0    0  0.32756640295E+03  0.48716376506E+03 -0.22313529977E+03  0.10961855267E+04  0.89844591639E+03 0.  0.
         23    2    4    4    0    0  0.20188723488E+03  0.65331512886E+03  0.10360430763E+03  0.69776483599E+03  0.92535401734E+02 0.  0.
         23    2    4    4    0    0  0.12567916808E+03 -0.16615136380E+03 -0.32673960741E+03  0.39842069074E+03  0.92621524418E+02 0.  0.
          2    1    3    3  502    0 -0.22207519741E+03 -0.26821418343E+03 -0.90521386228E+02  0.35979211062E+03  0.00000000000E+00 0. -1.
         -1    1    3    3    0  502 -0.10549120554E+03 -0.21894958163E+03 -0.93468534880E+02  0.26039139916E+03  0.00000000000E+00 0.  1.
         11    1    5    5    0    0  0.58588943696E+02  0.80533953493E+02  0.15885991693E+02  0.10085012008E+03  0.00000000000E+00 0. -1.
        -11    1    5    5    0    0  0.14329829118E+03  0.57278117537E+03  0.87718315941E+02  0.59691471590E+03  0.00000000000E+00 0.  1.
          2    1    6    6  503    0  0.11512738853E+03 -0.93697469229E+02 -0.25979911532E+03  0.29921415683E+03  0.00000000000E+00 0.  1.
         -2    1    6    6    0  503  0.10551779546E+02 -0.72453894568E+02 -0.66940492090E+02  0.99206533912E+02  0.00000000000E+00 0. -1.
<mgrwt>
<rscale>  0 0.16673847E+04</rscale>
<asrwt>0</asrwt>
<pdfrwt beam="1">  1        2 0.10071106E+00 0.16673847E+04</pdfrwt>
<pdfrwt beam="2">  1       -1 0.16334571E+00 0.16673847E+04</pdfrwt>
<totfact> 0.13390600E+01</totfact>
</mgrwt>
</event>
<event>
12    6  0.1647231E-007  0.1416647E+04  0.7818608E-02  0.8941856E-01
         -1   -1    0    0    0  501 -0.00000000000E+00  0.00000000000E+00  0.74364198033E+03  0.74364198033E+03  0.00000000000E+00 0.  1.
          2   -1    0    0  501    0  0.00000000000E+00 -0.00000000000E+00 -0.67468222403E+03  0.67468222403E+03  0.00000000000E+00 0. -1.
         24    2    1    2    0    0  0.26811141339E+03 -0.30745381979E+03 -0.57780426689E+02  0.41947899005E+03  0.78819186087E+02 0.  0.
        254    2    1    2    0    0 -0.26811141339E+03  0.30745381979E+03  0.12674018299E+03  0.99884521431E+03  0.90289374063E+03 0.  0.
         23    2    4    4    0    0  0.22588019194E+03 -0.16507802934E+03  0.91865526493E+02  0.30804177500E+03  0.90431428720E+02 0.  0.
         23    2    4    4    0    0 -0.49399160533E+03  0.47253184913E+03  0.34874656500E+02  0.69080343931E+03  0.93161663364E+02 0.  0.
          2    1    3    3  502    0  0.13204204350E+03 -0.10287554110E+03 -0.45565773273E+02  0.17347829231E+03  0.00000000000E+00 0. -1.
         -1    1    3    3    0  502  0.13606936989E+03 -0.20457827869E+03 -0.12214653416E+02  0.24600069774E+03  0.00000000000E+00 0.  1.
         11    1    5    5    0    0  0.11734503327E+03 -0.68622162151E+02 -0.52549920663E+00  0.13593797895E+03  0.00000000000E+00 0.  1.
        -11    1    5    5    0    0  0.10853515868E+03 -0.96455867193E+02  0.92391025700E+02  0.17210379605E+03  0.00000000000E+00 0. -1.
          1    1    6    6  503    0 -0.15235179255E+03  0.16121734037E+03 -0.30840234807E+02  0.22394914515E+03  0.00000000000E+00 0. -1.
         -1    1    6    6    0  503 -0.34163981278E+03  0.31131450876E+03  0.65714891307E+02  0.46685429416E+03  0.00000000000E+00 0.  1.
<mgrwt>
<rscale>  0 0.14166468E+04</rscale>
<asrwt>0</asrwt>
<pdfrwt beam="1">  1        2 0.10379727E+00 0.14166468E+04</pdfrwt>
<pdfrwt beam="2">  1       -1 0.11440646E+00 0.14166468E+04</pdfrwt>
<totfact> 0.33138992E+01</totfact>
</mgrwt>
</event>
<event>
12    6  0.1647231E-007  0.1934537E+04  0.7818608E-02  0.8637854E-01
          2   -1    0    0  501    0  0.00000000000E+00  0.00000000000E+00  0.84235107937E+03  0.84235107937E+03  0.00000000000E+00 0. -1.
         -1   -1    0    0    0  501 -0.00000000000E+00 -0.00000000000E+00 -0.11107107698E+04  0.11107107698E+04  0.00000000000E+00 0.  1.
         24    2    1    2    0    0  0.73150025873E+03  0.12371987751E+03 -0.26645143275E+03  0.79232374047E+03  0.79883083759E+02 0.  0.
        254    2    1    2    0    0 -0.73150025873E+03 -0.12371987751E+03 -0.19082576652E+01  0.11607381087E+04  0.89269820147E+03 0.  0.
         23    2    4    4    0    0  0.69878787409E+02  0.53207003130E+02  0.26438483200E+03  0.29310729803E+03  0.91096205520E+02 0.  0.
         23    2    4    4    0    0 -0.80137904614E+03 -0.17692688064E+03 -0.26629308966E+03  0.86763081066E+03  0.91431489715E+02 0.  0.
          2    1    3    3  502    0  0.15243208235E+03  0.24646533237E+02 -0.21830223780E+02  0.15594726673E+03  0.00000000000E+00 0. -1.
         -1    1    3    3    0  502  0.57906817639E+03  0.99073344276E+02 -0.24462120897E+03  0.63637647374E+03  0.00000000000E+00 0.  1.
         11    1    5    5    0    0  0.46068938097E+02  0.43861691189E+02  0.61037690091E+02  0.88157782543E+02  0.00000000000E+00 0. -1.
        -11    1    5    5    0    0  0.23809849312E+02  0.93453119410E+01  0.20334714190E+03  0.20494951549E+03  0.00000000000E+00 0.  1.
          4    1    6    6  503    0 -0.13760784652E+03 -0.31909937236E+02 -0.83301059547E+02  0.16399155478E+03  0.00000000000E+00 0.  1.
         -4    1    6    6    0  503 -0.66377119963E+03 -0.14501694341E+03 -0.18299203011E+03  0.70363925588E+03  0.00000000000E+00 0. -1.
<mgrwt>
<rscale>  0 0.19345371E+04</rscale>
<asrwt>0</asrwt>
<pdfrwt beam="1">  1        2 0.12959247E+00 0.19345371E+04</pdfrwt>
<pdfrwt beam="2">  1       -1 0.17087858E+00 0.19345371E+04</pdfrwt>
<totfact> 0.83029244E+00</totfact>
</mgrwt>
</event>
<event>
12    6  0.1647231E-007  0.1863260E+04  0.7818608E-02  0.8673363E-01
          2   -1    0    0  501    0  0.00000000000E+00  0.00000000000E+00  0.41570089262E+03  0.41570089262E+03  0.00000000000E+00 0. -1.
         -1   -1    0    0    0  501 -0.00000000000E+00 -0.00000000000E+00 -0.20878831634E+04  0.20878831634E+04  0.00000000000E+00 0.  1.
         24    2    1    2    0    0  0.48418052949E+02  0.15112624534E+03 -0.15778853130E+04  0.15876880889E+04  0.76471935097E+02 0.  0.
        254    2    1    2    0    0 -0.48418052949E+02 -0.15112624534E+03 -0.94296957809E+02  0.91589596713E+03  0.89710091766E+03 0.  0.
         23    2    4    4    0    0 -0.10095513224E+03  0.34350192961E+03  0.86179122408E+02  0.37979806711E+03  0.92920483586E+02 0.  0.
         23    2    4    4    0    0  0.52537079287E+02 -0.49462817495E+03 -0.18047608022E+03  0.53609790002E+03  0.86093941253E+02 0.  0.
          2    1    3    3  502    0  0.43944961123E+01 -0.39261817141E+01 -0.24812512710E+03  0.24819509503E+03  0.00000000000E+00 0. -1.
         -1    1    3    3    0  502  0.44023556837E+02  0.15505242706E+03 -0.13297601859E+04  0.13394929939E+04  0.00000000000E+00 0.  1.
         11    1    5    5    0    0 -0.97750332947E+02  0.29783901732E+03  0.10459207826E+03  0.33045833424E+03  0.00000000000E+00 0. -1.
        -11    1    5    5    0    0 -0.32047992891E+01  0.45662912283E+02 -0.18412955848E+02  0.49339732870E+02  0.00000000000E+00 0.  1.
          1    1    6    6  503    0  0.43799082488E+02 -0.35745002846E+03 -0.88912386871E+02  0.37093704993E+03  0.00000000000E+00 0. -1.
         -1    1    6    6    0  503  0.87379967995E+01 -0.13717814649E+03 -0.91563693347E+02  0.16516085009E+03  0.00000000000E+00 0.  1.
<mgrwt>
<rscale>  0 0.18632605E+04</rscale>
<asrwt>0</asrwt>
<pdfrwt beam="1">  1        2 0.63953984E-01 0.18632605E+04</pdfrwt>
<pdfrwt beam="2">  1       -1 0.32121279E+00 0.18632605E+04</pdfrwt>
<totfact> 0.19674089E+00</totfact>
</mgrwt>
</event>
<event>
12    6  0.1647231E-007  0.1535396E+04  0.7818608E-02  0.8861250E-01
          2   -1    0    0  501    0  0.00000000000E+00  0.00000000000E+00  0.21361785639E+04  0.21361785639E+04  0.00000000000E+00 0. -1.
         -1   -1    0    0    0  501 -0.00000000000E+00 -0.00000000000E+00 -0.27589465641E+03  0.27589465641E+03  0.00000000000E+00 0.  1.
         24    2    1    2    0    0  0.88801205286E+02 -0.76254123999E+02  0.13812368824E+04  0.13882539416E+04  0.75718792965E+02 0.  0.
        254    2    1    2    0    0 -0.88801205286E+02  0.76254123999E+02  0.47904702516E+03  0.10238192788E+04  0.89722879902E+03 0.  0.
         23    2    4    4    0    0 -0.14769712787E+03 -0.38594309894E+03  0.28831301069E+03  0.51203835229E+03  0.91062422950E+02 0.  0.
         23    2    4    4    0    0  0.58895922584E+02  0.46219722294E+03  0.19073401447E+03  0.51178092650E+03  0.91898040538E+02 0.  0.
          2    1    3    3  502    0  0.41332013651E+02 -0.47914941596E+02  0.10887925098E+04  0.10906297751E+04  0.00000000000E+00 0. -1.
         -1    1    3    3    0  502  0.47469191635E+02 -0.28339182403E+02  0.29244437256E+03  0.29762416645E+03  0.00000000000E+00 0.  1.
         11    1    5    5    0    0 -0.67260704544E+02 -0.13941116332E+03  0.16031917142E+03  0.22284907799E+03  0.00000000000E+00 0. -1.
        -11    1    5    5    0    0 -0.80436423327E+02 -0.24653193562E+03  0.12799383928E+03  0.28918927430E+03  0.00000000000E+00 0.  1.
          3    1    6    6  503    0  0.32994646657E+02  0.21786645194E+03  0.41243356706E+02  0.22417727820E+03  0.00000000000E+00 0. -1.
         -3    1    6    6    0  503  0.25901275927E+02  0.24433077101E+03  0.14949065776E+03  0.28760364830E+03  0.00000000000E+00 0.  1.
<mgrwt>
<rscale>  0 0.15353960E+04</rscale>
<asrwt>0</asrwt>
<pdfrwt beam="1">  1        2 0.32864285E+00 0.15353960E+04</pdfrwt>
<pdfrwt beam="2">  1       -1 0.42445333E-01 0.15353960E+04</pdfrwt>
<totfact> 0.33632617E+01</totfact>
</mgrwt>
</event>
<event>
12    6  0.1647231E-007  0.1975003E+04  0.7818608E-02  0.8618398E-01
         -1   -1    0    0    0  501 -0.00000000000E+00  0.00000000000E+00  0.36838398576E+03  0.36838398576E+03  0.00000000000E+00 0.  1.
          2   -1    0    0  501    0  0.00000000000E+00 -0.00000000000E+00 -0.26471261619E+04  0.26471261619E+04  0.00000000000E+00 0. -1.
         24    2    1    2    0    0  0.13484089294E+03  0.35199848695E+03  0.13656037845E+03  0.40875741186E+03  0.79679881786E+02 0.  0.
        254    2    1    2    0    0 -0.13484089294E+03 -0.35199848695E+03 -0.24153025546E+04  0.26067527358E+04  0.90520074800E+03 0.  0.
         23    2    4    4    0    0 -0.51894389175E+02 -0.29330810456E+03 -0.24466055866E+04  0.24666141843E+04  0.97897732552E+02 0.  0.
         23    2    4    4    0    0 -0.82946503770E+02 -0.58690382394E+02  0.31303031982E+02  0.14013855152E+03  0.91292115418E+02 0.  0.
          2    1    3    3  502    0  0.88954941944E+00  0.15934569930E+01  0.13985531464E+02  0.14104094927E+02  0.00000000000E+00 0. -1.
         -1    1    3    3    0  502  0.13395134353E+03  0.35040502996E+03  0.12257484698E+03  0.39465331693E+03  0.00000000000E+00 0.  1.
         11    1    5    5    0    0 -0.40721985796E+02 -0.24503819004E+03 -0.22575322283E+04  0.22711569203E+04  0.00000000000E+00 0. -1.
        -11    1    5    5    0    0 -0.11172403379E+02 -0.48269914523E+02 -0.18907335826E+03  0.19545726400E+03  0.00000000000E+00 0.  1.
          4    1    6    6  503    0 -0.76561715325E+02 -0.25289787405E+01  0.23688702122E+01  0.76640090899E+02  0.00000000000E+00 0. -1.
         -4    1    6    6    0  503 -0.63847884452E+01 -0.56161403654E+02  0.28934161770E+02  0.63498460620E+02  0.00000000000E+00 0.  1.
<mgrwt>
<rscale>  0 0.19750027E+04</rscale>
<asrwt>0</asrwt>
<pdfrwt beam="1">  1        2 0.40725021E+00 0.19750027E+04</pdfrwt>
<pdfrwt beam="2">  1       -1 0.56674456E-01 0.19750027E+04</pdfrwt>
<totfact> 0.95429877E+00</totfact>
</mgrwt>
</event>
<event>
12    6  0.1647231E-007  0.1994111E+04  0.7818608E-02  0.8609379E-01
         -1   -1    0    0    0  501 -0.00000000000E+00  0.00000000000E+00  0.11641732192E+04  0.11641732192E+04  0.00000000000E+00 0.  1.
          2   -1    0    0  501    0  0.00000000000E+00 -0.00000000000E+00 -0.85392795718E+03  0.85392795718E+03  0.00000000000E+00 0. -1.
         24    2    1    2    0    0  0.77206264996E+02 -0.11040052057E+03 -0.66234850307E+03  0.68059391886E+03  0.79708597897E+02 0.  0.
        254    2    1    2    0    0 -0.77206264996E+02  0.11040052057E+03  0.97259376506E+03  0.13375072575E+04  0.90820589611E+03 0.  0.
         23    2    4    4    0    0  0.11907816853E+03 -0.29055329492E+03  0.77481048770E+03  0.84105676204E+03  0.91893186496E+02 0.  0.
         23    2    4    4    0    0 -0.19628443353E+03  0.40095381549E+03  0.19778327737E+03  0.49645049546E+03  0.89740340059E+02 0.  0.
          4    1    3    3  502    0  0.73886810253E+02 -0.12058602372E+03 -0.55587454004E+03  0.57358238651E+03  0.00000000000E+00 0. -1.
         -3    1    3    3    0  502  0.33194547422E+01  0.10185503148E+02 -0.10647396303E+03  0.10701153235E+03  0.00000000000E+00 0.  1.
         11    1    5    5    0    0  0.13315612292E+02 -0.15016527504E+03  0.38435973833E+03  0.41286719876E+03  0.00000000000E+00 0. -1.
        -11    1    5    5    0    0  0.10576255624E+03 -0.14038801988E+03  0.39045074936E+03  0.42818956328E+03  0.00000000000E+00 0.  1.
          3    1    6    6  503    0 -0.30927056776E+02  0.13579600062E+03  0.32817564934E+02  0.14308748790E+03  0.00000000000E+00 0. -1.
         -3    1    6    6    0  503 -0.16535737675E+03  0.26515781487E+03  0.16496571243E+03  0.35336300756E+03  0.00000000000E+00 0.  1.
<mgrwt>
<rscale>  0 0.19941114E+04</rscale>
<asrwt>0</asrwt>
<pdfrwt beam="1">  1        2 0.13137353E+00 0.19941114E+04</pdfrwt>
<pdfrwt beam="2">  1       -1 0.17910357E+00 0.19941114E+04</pdfrwt>
<totfact> 0.70656823E+00</totfact>
</mgrwt>
</event>
<event>
12    6  0.1647231E-007  0.1327413E+04  0.7818608E-02  0.9008105E-01
         -1   -1    0    0    0  501 -0.00000000000E+00  0.00000000000E+00  0.37987262338E+03  0.37987262338E+03  0.00000000000E+00 0.  1.
          2   -1    0    0  501    0  0.00000000000E+00 -0.00000000000E+00 -0.11596156618E+04  0.11596156618E+04  0.00000000000E+00 0. -1.
         24    2    1    2    0    0  0.30005419265E+02 -0.27410838457E+03  0.26383247602E+02  0.28818708377E+03  0.79498351047E+02 0.  0.
        254    2    1    2    0    0 -0.30005419265E+02  0.27410838457E+03 -0.80612628598E+03  0.12513012014E+04  0.91644933079E+03 0.  0.
         23    2    4    4    0    0 -0.36433452741E+03 -0.15443917619E+03 -0.34269296330E+03  0.53120313920E+03  0.90261846861E+02 0.  0.
         23    2    4    4    0    0  0.33432910814E+03  0.42854756076E+03 -0.46343332268E+03  0.72009806216E+03  0.91333510709E+02 0.  0.
          4    1    3    3  502    0 -0.27112421869E+02 -0.89190557043E+02  0.33196862337E+01  0.93279468277E+02  0.00000000000E+00 0. -1.
         -3    1    3    3    0  502  0.57117841134E+02 -0.18491782753E+03  0.23063561368E+02  0.19490761549E+03  0.00000000000E+00 0.  1.
         11    1    5    5    0    0 -0.73931946856E+02 -0.59339694471E+02 -0.12081662309E+03  0.15357014202E+03  0.00000000000E+00 0.  1.
        -11    1    5    5    0    0 -0.29040258055E+03 -0.95099481718E+02 -0.22187634021E+03  0.37763299718E+03  0.00000000000E+00 0. -1.
          3    1    6    6  503    0  0.26759623309E+03  0.39276919519E+03 -0.40582854841E+03  0.62495775486E+03  0.00000000000E+00 0. -1.
         -3    1    6    6    0  503  0.66732875049E+02  0.35778365569E+02 -0.57604774273E+02  0.95140307305E+02  0.00000000000E+00 0.  1.
<mgrwt>
<rscale>  0 0.13274129E+04</rscale>
<asrwt>0</asrwt>
<pdfrwt beam="1">  1        2 0.17840241E+00 0.13274129E+04</pdfrwt>
<pdfrwt beam="2">  1       -1 0.58441942E-01 0.13274129E+04</pdfrwt>
<totfact> 0.66295265E+01</totfact>
</mgrwt>
</event>
<event>
12    6  0.1647231E-007  0.1882028E+04  0.7818608E-02  0.8663854E-01
          2   -1    0    0  501    0  0.00000000000E+00  0.00000000000E+00  0.35891472459E+04  0.35891472459E+04  0.00000000000E+00 0. -1.
         -1   -1    0    0    0  501 -0.00000000000E+00 -0.00000000000E+00 -0.24671811925E+03  0.24671811925E+03  0.00000000000E+00 0.  1.
         24    2    1    2    0    0  0.34725850961E+03 -0.37278727360E+03  0.23519356958E+04  0.24077827667E+04  0.79104429925E+02 0.  0.
        254    2    1    2    0    0 -0.34725850961E+03  0.37278727360E+03  0.99049343086E+03  0.14280825984E+04  0.89374708247E+03 0.  0.
         23    2    4    4    0    0  0.16051784916E+03  0.27734197990E+03  0.31231033037E+02  0.33463290194E+03  0.91209911307E+02 0.  0.
         23    2    4    4    0    0 -0.50777635877E+03  0.95445293704E+02  0.95926239782E+03  0.10934496965E+04  0.92202257024E+02 0.  0.
          2    1    3    3  502    0  0.31808412252E+03 -0.31815179369E+03  0.19589399499E+04  0.20099362677E+04  0.00000000000E+00 0. -1.
         -1    1    3    3    0  502  0.29174387083E+02 -0.54635479908E+02  0.39299574583E+03  0.39784649900E+03  0.00000000000E+00 0.  1.
         11    1    5    5    0    0  0.63616626636E+02  0.12799140643E+03  0.58662689303E+02  0.15449979424E+03  0.00000000000E+00 0. -1.
        -11    1    5    5    0    0  0.96901222528E+02  0.14935057347E+03 -0.27431656266E+02  0.18013310769E+03  0.00000000000E+00 0.  1.
          4    1    6    6  503    0 -0.21986823845E+03  0.50798573769E+01  0.34623860169E+03  0.41018168722E+03  0.00000000000E+00 0. -1.
         -4    1    6    6    0  503 -0.28790812032E+03  0.90365436327E+02  0.61302379613E+03  0.68326800924E+03  0.00000000000E+00 0.  1.
<mgrwt>
<rscale>  0 0.18820283E+04</rscale>
<asrwt>0</asrwt>
<pdfrwt beam="1">  1        2 0.55217646E+00 0.18820283E+04</pdfrwt>
<pdfrwt beam="2">  1       -1 0.37956636E-01 0.18820283E+04</pdfrwt>
<totfact> 0.50701318E+00</totfact>
</mgrwt>
</event>
<event>
12    6  0.1647231E-007  0.1214920E+04  0.7818608E-02  0.9099896E-01
          2   -1    0    0  501    0  0.00000000000E+00  0.00000000000E+00  0.23120718298E+04  0.23120718298E+04  0.00000000000E+00 0. -1.
         -1   -1    0    0    0  501 -0.00000000000E+00 -0.00000000000E+00 -0.15960043411E+03  0.15960043411E+03  0.00000000000E+00 0.  1.
         24    2    1    2    0    0 -0.21942115170E+03  0.87633386788E+02  0.69558970254E+03  0.73895601275E+03  0.79910588841E+02 0.  0.
        254    2    1    2    0    0  0.21942115170E+03 -0.87633386788E+02  0.14568816931E+04  0.17327162512E+04  0.90773128563E+03 0.  0.
         23    2    4    4    0    0  0.14007379082E+03  0.20214922253E+03  0.21278608012E+02  0.26326959652E+03  0.91504788106E+02 0.  0.
         23    2    4    4    0    0  0.79347360887E+02 -0.28978260932E+03  0.14356030851E+04  0.14694466546E+04  0.89706680104E+02 0.  0.
          2    1    3    3  502    0 -0.16383691307E+03  0.38579098241E+02  0.39514727919E+03  0.42950233196E+03  0.00000000000E+00 0. -1.
         -1    1    3    3    0  502 -0.55584238630E+02  0.49054288546E+02  0.30044242334E+03  0.30945368079E+03  0.00000000000E+00 0.  1.
         11    1    5    5    0    0  0.17319360409E+02 -0.78195696736E+01 -0.10219659969E+01  0.19030247748E+02  0.00000000000E+00 0.  1.
        -11    1    5    5    0    0  0.12275443041E+03  0.20996879221E+03  0.22300574009E+02  0.24423934877E+03  0.00000000000E+00 0. -1.
          3    1    6    6  503    0  0.80436187913E+02 -0.28398446207E+03  0.14328540551E+04  0.14629381047E+04  0.00000000000E+00 0. -1.
         -3    1    6    6    0  503 -0.10888270256E+01 -0.57981472461E+01  0.27490300049E+01  0.65085498959E+01  0.00000000000E+00 0.  1.
<mgrwt>
<rscale>  0 0.12149200E+04</rscale>
<asrwt>0</asrwt>
<pdfrwt beam="1">  1        2 0.35570333E+00 0.12149200E+04</pdfrwt>
<pdfrwt beam="2">  1       -1 0.24553915E-01 0.12149200E+04</pdfrwt>
<totfact> 0.72675307E+01</totfact>
</mgrwt>
</event>
<event>
12    6  0.1647231E-007  0.2007887E+04  0.7818608E-02  0.8602942E-01
          2   -1    0    0  501    0  0.00000000000E+00  0.00000000000E+00  0.18487882932E+04  0.18487882932E+04  0.00000000000E+00 0. -1.
         -1   -1    0    0    0  501 -0.00000000000E+00 -0.00000000000E+00 -0.54516925113E+03  0.54516925113E+03  0.00000000000E+00 0.  1.
         24    2    1    2    0    0  0.11647533895E+03  0.36679338406E+03  0.13482253583E+04  0.14044071944E+04  0.80895363041E+02 0.  0.
        254    2    1    2    0    0 -0.11647533895E+03 -0.36679338406E+03 -0.44606316187E+02  0.98955034996E+03  0.91055822465E+03 0.  0.
         23    2    4    4    0    0  0.17413019321E+03 -0.21218125458E+03  0.35858434524E+03  0.46107595647E+03  0.93091868611E+02 0.  0.
         23    2    4    4    0    0 -0.29060553216E+03 -0.15461212948E+03 -0.40319066142E+03  0.52847439349E+03  0.91465781625E+02 0.  0.
          2    1    3    3  502    0  0.99037044772E+02  0.18525996317E+03  0.76653223124E+03  0.79479635865E+03  0.00000000000E+00 0. -1.
         -1    1    3    3    0  502  0.17438294180E+02  0.18153342089E+03  0.58169312702E+03  0.60961083572E+03  0.00000000000E+00 0.  1.
         11    1    5    5    0    0  0.11233517236E+03 -0.17320682416E+03  0.31303458229E+03  0.37498059229E+03  0.00000000000E+00 0.  1.
        -11    1    5    5    0    0  0.61795020852E+02 -0.38974430420E+02  0.45549762949E+02  0.86095364180E+02  0.00000000000E+00 0. -1.
          2    1    6    6  503    0 -0.10623237471E+02 -0.32165449753E+02 -0.24201801728E+02  0.41631677110E+02  0.00000000000E+00 0. -1.
         -2    1    6    6    0  503 -0.27998229469E+03 -0.12244667973E+03 -0.37898885970E+03  0.48684271638E+03  0.00000000000E+00 0.  1.
<mgrwt>
<rscale>  0 0.20078870E+04</rscale>
<asrwt>0</asrwt>
<pdfrwt beam="1">  1        2 0.28442897E+00 0.20078870E+04</pdfrwt>
<pdfrwt beam="2">  1       -1 0.83872193E-01 0.20078870E+04</pdfrwt>
<totfact> 0.12078947E+01</totfact>
</mgrwt>
</event>
<event>
12    6  0.1647231E-007  0.1864755E+04  0.7818608E-02  0.8672602E-01
          2   -1    0    0  501    0  0.00000000000E+00  0.00000000000E+00  0.15684364292E+04  0.15684364292E+04  0.00000000000E+00 0. -1.
         -1   -1    0    0    0  501 -0.00000000000E+00 -0.00000000000E+00 -0.55426404605E+03  0.55426404605E+03  0.00000000000E+00 0.  1.
         24    2    1    2    0    0  0.22244043152E+03  0.38732975155E+03 -0.24326851598E+03  0.51499365056E+03  0.80838154611E+02 0.  0.
        254    2    1    2    0    0 -0.22244043152E+03 -0.38732975155E+03  0.12574408991E+04  0.16077068247E+04  0.89669366972E+03 0.  0.
         23    2    4    4    0    0 -0.20049464127E+03 -0.56113882369E+03  0.38909160281E+03  0.71722410916E+03  0.89125006250E+02 0.  0.
         23    2    4    4    0    0 -0.21945790251E+02  0.17380907214E+03  0.86834929633E+03  0.89048271554E+03  0.90762078885E+02 0.  0.
          2    1    3    3  502    0  0.34581638650E+02  0.45776586404E+02 -0.37781293475E+01  0.57494868083E+02  0.00000000000E+00 0. -1.
         -1    1    3    3    0  502  0.18785879287E+03  0.34155316515E+03 -0.23949038663E+03  0.45749878248E+03  0.00000000000E+00 0.  1.
         11    1    5    5    0    0 -0.20271411128E+02 -0.12450123241E+02  0.72166898857E+01  0.24859933442E+02  0.00000000000E+00 0. -1.
        -11    1    5    5    0    0 -0.18022323015E+03 -0.54868870045E+03  0.38187491293E+03  0.69236417571E+03  0.00000000000E+00 0.  1.
          1    1    6    6  503    0 -0.32748365346E+02  0.12273556697E+02  0.13286370847E+03  0.13738944885E+03  0.00000000000E+00 0. -1.
         -1    1    6    6    0  503  0.10802575095E+02  0.16153551545E+03  0.73548558786E+03  0.75309326669E+03  0.00000000000E+00 0.  1.
<mgrwt>
<rscale>  0 0.18647551E+04</rscale>
<asrwt>0</asrwt>
<pdfrwt beam="1">  1        2 0.24129791E+00 0.18647551E+04</pdfrwt>
<pdfrwt beam="2">  1       -1 0.85271393E-01 0.18647551E+04</pdfrwt>
<totfact> 0.16898853E+01</totfact>
</mgrwt>
</event>
<event>
12    6  0.1647231E-007  0.2977540E+04  0.7818608E-02  0.8250174E-01
          2   -1    0    0  501    0  0.00000000000E+00  0.00000000000E+00  0.24130037038E+04  0.24130037038E+04  0.00000000000E+00 0. -1.
         -1   -1    0    0    0  501 -0.00000000000E+00 -0.00000000000E+00 -0.91853827197E+03  0.91853827197E+03  0.00000000000E+00 0.  1.
         24    2    1    2    0    0  0.84632723479E+03  0.75335732458E+02 -0.49782718322E+03  0.98788385727E+03  0.78341241829E+02 0.  0.
        254    2    1    2    0    0 -0.84632723479E+03 -0.75335732458E+02  0.19922926151E+04  0.23436581185E+04  0.89529785631E+03 0.  0.
         23    2    4    4    0    0 -0.60429883509E+03 -0.38661994478E+03  0.16917370021E+04  0.18397515922E+04  0.89776237462E+02 0.  0.
         23    2    4    4    0    0 -0.24202839970E+03  0.31128421232E+03  0.30055561295E+03  0.50390652634E+03  0.90069438259E+02 0.  0.
          2    1    3    3  502    0  0.20711746997E+03  0.13980684094E+02 -0.16135981532E+03  0.26292602742E+03  0.00000000000E+00 0. -1.
         -1    1    3    3    0  502  0.63920976482E+03  0.61355048364E+02 -0.33646736790E+03  0.72495782985E+03  0.00000000000E+00 0.  1.
         11    1    5    5    0    0 -0.13033320235E+03 -0.52778783726E+02  0.39636164318E+03  0.42056497219E+03  0.00000000000E+00 0. -1.
        -11    1    5    5    0    0 -0.47396563274E+03 -0.33384116105E+03  0.12953753590E+04  0.14191866200E+04  0.00000000000E+00 0.  1.
          2    1    6    6  503    0 -0.12340506911E+03  0.10469196458E+03  0.85793969504E+02  0.18316610968E+03  0.00000000000E+00 0. -1.
         -2    1    6    6    0  503 -0.11862333059E+03  0.20659224773E+03  0.21476164345E+03  0.32074041666E+03  0.00000000000E+00 0.  1.
<mgrwt>
<rscale>  0 0.29775401E+04</rscale>
<asrwt>0</asrwt>
<pdfrwt beam="1">  1        2 0.37123134E+00 0.29775401E+04</pdfrwt>
<pdfrwt beam="2">  1       -1 0.14131358E+00 0.29775401E+04</pdfrwt>
<totfact> 0.15578995E+00</totfact>
</mgrwt>
</event>
<event>
12    6  0.1647231E-007  0.2032260E+04  0.7818608E-02  0.8591685E-01
         -1   -1    0    0    0  501 -0.00000000000E+00  0.00000000000E+00  0.78884063561E+03  0.78884063561E+03  0.00000000000E+00 0.  1.
          2   -1    0    0  501    0  0.00000000000E+00 -0.00000000000E+00 -0.13089080520E+04  0.13089080520E+04  0.00000000000E+00 0. -1.
         24    2    1    2    0    0  0.26959352397E+02  0.28234718837E+03  0.57844489710E+03  0.64762617151E+03  0.66139379974E+02 0.  0.
        254    2    1    2    0    0 -0.26959352397E+02 -0.28234718837E+03 -0.10985123135E+04  0.14501225161E+04  0.90314963732E+03 0.  0.
         23    2    4    4    0    0  0.30240927685E+03  0.17123845816E+03 -0.57068774178E+03  0.67466445613E+03  0.93346930722E+02 0.  0.
         23    2    4    4    0    0 -0.32936862924E+03 -0.45358564653E+03 -0.52782457175E+03  0.77545806001E+03  0.92264790852E+02 0.  0.
          2    1    3    3  502    0  0.48298435783E+02  0.16663943461E+03  0.33702326027E+03  0.37905951780E+03  0.00000000000E+00 0. -1.
         -1    1    3    3    0  502 -0.21339083387E+02  0.11570775376E+03  0.24142163682E+03  0.26856665371E+03  0.00000000000E+00 0.  1.
         11    1    5    5    0    0  0.62634133657E+01  0.56131689905E+01 -0.65894208901E+02  0.66428794809E+02  0.00000000000E+00 0. -1.
        -11    1    5    5    0    0  0.29614586348E+03  0.16562528917E+03 -0.50479353288E+03  0.60823566132E+03  0.00000000000E+00 0.  1.
          2    1    6    6  503    0 -0.13767283897E+03 -0.22529254433E+03 -0.30420647326E+03  0.40280531214E+03  0.00000000000E+00 0. -1.
         -2    1    6    6    0  503 -0.19169579028E+03 -0.22829310220E+03 -0.22361809849E+03  0.37265274787E+03  0.00000000000E+00 0.  1.
<mgrwt>
<rscale>  0 0.20322597E+04</rscale>
<asrwt>0</asrwt>
<pdfrwt beam="1">  1        2 0.20137047E+00 0.20322597E+04</pdfrwt>
<pdfrwt beam="2">  1       -1 0.12136010E+00 0.20322597E+04</pdfrwt>
<totfact> 0.10389835E+01</totfact>
</mgrwt>
</event>
<event>
12    6  0.1647231E-007  0.2337093E+04  0.7818608E-02  0.8463438E-01
         -1   -1    0    0    0  501 -0.00000000000E+00  0.00000000000E+00  0.63041130013E+03  0.63041130013E+03  0.00000000000E+00 0.  1.
          2   -1    0    0  501    0  0.00000000000E+00 -0.00000000000E+00 -0.21660471018E+04  0.21660471018E+04  0.00000000000E+00 0. -1.
         24    2    1    2    0    0 -0.17221785336E+03  0.46886552291E+02  0.51398436525E+03  0.55000079883E+03  0.80396599382E+02 0.  0.
        254    2    1    2    0    0  0.17221785336E+03 -0.46886552291E+02 -0.20496201670E+04  0.22464576031E+04  0.90209289768E+03 0.  0.
         23    2    4    4    0    0 -0.23623053928E+03  0.20093219020E+03 -0.34354782464E+03  0.47242269182E+03  0.94760113869E+02 0.  0.
         23    2    4    4    0    0  0.40844839265E+03 -0.24781874249E+03 -0.17060723423E+04  0.17740349113E+04  0.90954992939E+02 0.  0.
          4    1    3    3  502    0 -0.70384490820E+02  0.34273952097E+02  0.12319756759E+03  0.14596684898E+03  0.00000000000E+00 0. -1.
         -3    1    3    3    0  502 -0.10183336255E+03  0.12612600194E+02  0.39078679766E+03  0.40403394985E+03  0.00000000000E+00 0.  1.
         11    1    5    5    0    0 -0.21860771272E+03  0.20966900470E+03 -0.30922471080E+03  0.43286296372E+03  0.00000000000E+00 0.  1.
        -11    1    5    5    0    0 -0.17622826565E+02 -0.87368144941E+01 -0.34323113837E+02  0.39559728097E+02  0.00000000000E+00 0. -1.
          4    1    6    6  503    0  0.17556261538E+02  0.47457891126E+01 -0.36018573083E+02  0.40349503596E+02  0.00000000000E+00 0. -1.
         -4    1    6    6    0  503  0.39089213111E+03 -0.25256453161E+03 -0.16700537692E+04  0.17336854077E+04  0.00000000000E+00 0.  1.
<mgrwt>
<rscale>  0 0.23370927E+04</rscale>
<asrwt>0</asrwt>
<pdfrwt beam="1">  1        2 0.33323802E+00 0.23370927E+04</pdfrwt>
<pdfrwt beam="2">  1       -1 0.96986352E-01 0.23370927E+04</pdfrwt>
<totfact> 0.56705180E+00</totfact>
</mgrwt>
</event>
<event>
12    6  0.1647231E-007  0.1374395E+04  0.7818608E-02  0.8972564E-01
          2   -1    0    0  501    0  0.00000000000E+00  0.00000000000E+00  0.15452651247E+04  0.15452651247E+04  0.00000000000E+00 0. -1.
         -1   -1    0    0    0  501 -0.00000000000E+00 -0.00000000000E+00 -0.30560496447E+03  0.30560496447E+03  0.00000000000E+00 0.  1.
         24    2    1    2    0    0  0.23719623050E+03 -0.29611098590E+03  0.25951861602E+03  0.46679686114E+03  0.81275025556E+02 0.  0.
        254    2    1    2    0    0 -0.23719623050E+03  0.29611098590E+03  0.98014154426E+03  0.13840732281E+04  0.90057619674E+03 0.  0.
         23    2    4    4    0    0  0.29989931436E+03 -0.68084815486E+02  0.32869839309E+03  0.45937330740E+03  0.91684573831E+02 0.  0.
         23    2    4    4    0    0 -0.53709554486E+03  0.36419580139E+03  0.65144315117E+03  0.92469992067E+03  0.97885433109E+02 0.  0.
          4    1    3    3  502    0  0.67676078458E+02 -0.38689483149E+02  0.34905872418E+02  0.85412807184E+02  0.00000000000E+00 0. -1.
         -3    1    3    3    0  502  0.16952015204E+03 -0.25742150275E+03  0.22461274360E+03  0.38138405396E+03  0.00000000000E+00 0.  1.
         11    1    5    5    0    0  0.19639850147E+03 -0.34944643147E+02  0.27048010432E+03  0.33608479033E+03  0.00000000000E+00 0. -1.
        -11    1    5    5    0    0  0.10350081290E+03 -0.33140172339E+02  0.58218288771E+02  0.12328851707E+03  0.00000000000E+00 0.  1.
          2    1    6    6  503    0 -0.34631691765E+03  0.20186710248E+03  0.34477870916E+03  0.52873253428E+03  0.00000000000E+00 0. -1.
         -2    1    6    6    0  503 -0.19077862722E+03  0.16232869891E+03  0.30666444202E+03  0.39596738639E+03  0.00000000000E+00 0.  1.
<mgrwt>
<rscale>  0 0.13743954E+04</rscale>
<asrwt>0</asrwt>
<pdfrwt beam="1">  1        2 0.23773309E+00 0.13743954E+04</pdfrwt>
<pdfrwt beam="2">  1       -1 0.47016149E-01 0.13743954E+04</pdfrwt>
<totfact> 0.59973143E+01</totfact>
</mgrwt>
</event>
<event>
12    6  0.1647231E-007  0.2055016E+04  0.7818608E-02  0.8581322E-01
         -1   -1    0    0    0  501 -0.00000000000E+00  0.00000000000E+00  0.34941202164E+03  0.34941202164E+03  0.00000000000E+00 0.  1.
          2   -1    0    0  501    0  0.00000000000E+00 -0.00000000000E+00 -0.30215697630E+04  0.30215697630E+04  0.00000000000E+00 0. -1.
         24    2    1    2    0    0  0.14571904786E+03  0.74345906542E+03 -0.14808985341E+04  0.16654547675E+04  0.81937119188E+02 0.  0.
        254    2    1    2    0    0 -0.14571904786E+03 -0.74345906542E+03 -0.11912592073E+04  0.17055270171E+04  0.95695270751E+03 0.  0.
         23    2    4    4    0    0 -0.99109884000E+02 -0.53089330641E+03 -0.13241148121E+04  0.14329696518E+04  0.91932124058E+02 0.  0.
         23    2    4    4    0    0 -0.46609163863E+02 -0.21256575901E+03  0.13285560486E+03  0.27255736532E+03  0.96334259689E+02 0.  0.
          4    1    3    3  502    0  0.11144208329E+03  0.40156559163E+03 -0.86625581545E+03  0.96128736605E+03  0.00000000000E+00 0. -1.
         -3    1    3    3    0  502  0.34276964571E+02  0.34189347379E+03 -0.61464271865E+03  0.70416740148E+03  0.00000000000E+00 0.  1.
         11    1    5    5    0    0 -0.63218562532E+02 -0.37591597105E+03 -0.10352127495E+04  0.11031658264E+04  0.00000000000E+00 0.  1.
        -11    1    5    5    0    0 -0.35891321468E+02 -0.15497733536E+03 -0.28890206266E+03  0.32980382539E+03  0.00000000000E+00 0. -1.
          4    1    6    6  503    0  0.18927122145E+02 -0.77318414918E+01  0.23957436853E+02  0.31495652178E+02  0.00000000000E+00 0. -1.
         -4    1    6    6    0  503 -0.65536286007E+02 -0.20483391752E+03  0.10889816800E+03  0.24106171314E+03  0.00000000000E+00 0.  1.
<mgrwt>
<rscale>  0 0.20550161E+04</rscale>
<asrwt>0</asrwt>
<pdfrwt beam="1">  1        2 0.46485690E+00 0.20550161E+04</pdfrwt>
<pdfrwt beam="2">  1       -1 0.53755694E-01 0.20550161E+04</pdfrwt>
<totfact> 0.62182501E+00</totfact>
</mgrwt>
</event>
<event>
12    6  0.1647231E-007  0.1328121E+04  0.7818608E-02  0.9007557E-01
         -1   -1    0    0    0  501 -0.00000000000E+00  0.00000000000E+00  0.39507643947E+03  0.39507643947E+03  0.00000000000E+00 0.  1.
          2   -1    0    0  501    0  0.00000000000E+00 -0.00000000000E+00 -0.11161800271E+04  0.11161800271E+04  0.00000000000E+00 0. -1.
         24    2    1    2    0    0  0.26062543389E+03  0.77794690926E+02  0.44668083172E+02  0.29418078207E+03  0.10280789930E+03 0.  0.
        254    2    1    2    0    0 -0.26062543389E+03 -0.77794690926E+02 -0.76577167083E+03  0.12170756845E+04  0.90602943622E+03 0.  0.
         23    2    4    4    0    0 -0.48964283000E+03  0.19414974498E+03 -0.62768188228E+03  0.82503162106E+03  0.96168632908E+02 0.  0.
         23    2    4    4    0    0  0.22901739610E+03 -0.27194443591E+03 -0.13808978855E+03  0.39204406347E+03  0.90702888931E+02 0.  0.
          4    1    3    3  502    0  0.27081785696E+02 -0.14373150611E+02 -0.17801894358E+02  0.35453039612E+02  0.00000000000E+00 0. -1.
         -3    1    3    3    0  502  0.23354364820E+03  0.92167841537E+02  0.62469977530E+02  0.25872774246E+03  0.00000000000E+00 0.  1.
         11    1    5    5    0    0 -0.49238505691E+02 -0.28840104014E+01 -0.89922796398E+02  0.10256148044E+03  0.00000000000E+00 0.  1.
        -11    1    5    5    0    0 -0.44040432431E+03  0.19703375539E+03 -0.53775908588E+03  0.72247014061E+03  0.00000000000E+00 0. -1.
          1    1    6    6  503    0  0.21501433211E+03 -0.23017075670E+03 -0.14618883364E+03  0.34724762826E+03  0.00000000000E+00 0. -1.
         -1    1    6    6    0  503  0.14003063992E+02 -0.41773679212E+02  0.80990450901E+01  0.44796435209E+02  0.00000000000E+00 0.  1.
<mgrwt>
<rscale>  0 0.13281211E+04</rscale>
<asrwt>0</asrwt>
<pdfrwt beam="1">  1        2 0.17172000E+00 0.13281211E+04</pdfrwt>
<pdfrwt beam="2">  1       -1 0.60780991E-01 0.13281211E+04</pdfrwt>
<totfact> 0.65207133E+01</totfact>
</mgrwt>
</event>
<event>
12    6  0.1647231E-007  0.1640512E+04  0.7818608E-02  0.8796039E-01
          2   -1    0    0  501    0  0.00000000000E+00  0.00000000000E+00  0.21185088956E+04  0.21185088956E+04  0.00000000000E+00 0. -1.
         -1   -1    0    0    0  501 -0.00000000000E+00 -0.00000000000E+00 -0.31759118339E+03  0.31759118339E+03  0.00000000000E+00 0.  1.
         24    2    1    2    0    0  0.22798597518E+03 -0.48752359393E+03  0.92028851087E+03  0.10692019291E+04  0.81270920010E+02 0.  0.
        254    2    1    2    0    0 -0.22798597518E+03  0.48752359393E+03  0.88062920132E+03  0.13668981499E+04  0.89623986877E+03 0.  0.
         23    2    4    4    0    0  0.27519353958E+03  0.44168273259E+03  0.50014972993E+03  0.72737483663E+03  0.90051541491E+02 0.  0.
         23    2    4    4    0    0 -0.50317951475E+03  0.45840861337E+02  0.38047947139E+03  0.63952331323E+03  0.94522121140E+02 0.  0.
          2    1    3    3  502    0  0.22465951408E+03 -0.48669603640E+03  0.89178375956E+03  0.10404918082E+04  0.00000000000E+00 0. -1.
         -3    1    3    3    0  502  0.33264610960E+01 -0.82755752618E+00  0.28504751310E+02  0.28710120901E+02  0.00000000000E+00 0.  1.
         11    1    5    5    0    0  0.26816890095E+03  0.40383027540E+03  0.43307338580E+03  0.65003539000E+03  0.00000000000E+00 0. -1.
        -11    1    5    5    0    0  0.70246386230E+01  0.37852457195E+02  0.67076344134E+02  0.77339446636E+02  0.00000000000E+00 0.  1.
          2    1    6    6  503    0 -0.93950737823E+02 -0.15764736652E+02  0.38812743235E+02  0.10286737625E+03  0.00000000000E+00 0.  1.
         -2    1    6    6    0  503 -0.40922877693E+03  0.61605597990E+02  0.34166672815E+03  0.53665593698E+03  0.00000000000E+00 0. -1.
<mgrwt>
<rscale>  0 0.16405118E+04</rscale>
<asrwt>0</asrwt>
<pdfrwt beam="1">  1        2 0.32592444E+00 0.16405118E+04</pdfrwt>
<pdfrwt beam="2">  1       -1 0.48860183E-01 0.16405118E+04</pdfrwt>
<totfact> 0.26209485E+01</totfact>
</mgrwt>
</event>
<event>
12    6  0.1647231E-007  0.4012523E+04  0.7818608E-02  0.8002025E-01
         -1   -1    0    0    0  501 -0.00000000000E+00  0.00000000000E+00  0.23999966577E+04  0.23999966577E+04  0.00000000000E+00 0.  1.
          2   -1    0    0  501    0  0.00000000000E+00 -0.00000000000E+00 -0.16771214476E+04  0.16771214476E+04  0.00000000000E+00 0. -1.
         24    2    1    2    0    0  0.57440418305E+03  0.18067319441E+04  0.47680748400E+03  0.19565337888E+04  0.80365455937E+02 0.  0.
        254    2    1    2    0    0 -0.57440418305E+03 -0.18067319441E+04  0.24606772615E+03  0.21205843165E+04  0.91766444513E+03 0.  0.
         23    2    4    4    0    0 -0.51488950841E+03 -0.37738242279E+03  0.23422796292E+03  0.68699067848E+03  0.97799564466E+02 0.  0.
         23    2    4    4    0    0 -0.59514674647E+02 -0.14293495214E+04  0.11839763234E+02  0.14335936380E+04  0.92024388955E+02 0.  0.
          4    1    3    3  502    0  0.14261150783E+03  0.53202432223E+03  0.11144575956E+03  0.56196804085E+03  0.00000000000E+00 0. -1.
         -3    1    3    3    0  502  0.43179267522E+03  0.12747076219E+04  0.36536172444E+03  0.13945657480E+04  0.00000000000E+00 0.  1.
         11    1    5    5    0    0 -0.32950109426E+03 -0.23295597916E+03  0.19700468099E+03  0.44905490052E+03  0.00000000000E+00 0. -1.
        -11    1    5    5    0    0 -0.18538841415E+03 -0.14442644363E+03  0.37223281931E+02  0.23793577796E+03  0.00000000000E+00 0.  1.
          3    1    6    6  503    0 -0.81235377164E+02 -0.99736809637E+03 -0.62064998283E+01  0.10006901752E+04  0.00000000000E+00 0. -1.
         -3    1    6    6    0  503  0.21720702517E+02 -0.43198142498E+03  0.18046263063E+02  0.43290346275E+03  0.00000000000E+00 0.  1.
<mgrwt>
<rscale>  0 0.40125233E+04</rscale>
<asrwt>0</asrwt>
<pdfrwt beam="1">  1        2 0.25801868E+00 0.40125233E+04</pdfrwt>
<pdfrwt beam="2">  1       -1 0.36923026E+00 0.40125233E+04</pdfrwt>
<totfact> 0.10472515E-01</totfact>
</mgrwt>
</event>
<event>
12    6  0.1647231E-007  0.2891465E+04  0.7818608E-02  0.8275422E-01
         -1   -1    0    0    0  501 -0.00000000000E+00  0.00000000000E+00  0.29096429917E+04  0.29096429917E+04  0.00000000000E+00 0.  1.
          2   -1    0    0  501    0  0.00000000000E+00 -0.00000000000E+00 -0.71834998902E+03  0.71834998902E+03  0.00000000000E+00 0. -1.
         24    2    1    2    0    0  0.14469595571E+03  0.13045766895E+04  0.94935546192E+03  0.16218970661E+04  0.80106438483E+02 0.  0.
        254    2    1    2    0    0 -0.14469595571E+03 -0.13045766895E+04  0.12419375408E+04  0.20060959147E+04  0.87129484409E+03 0.  0.
         23    2    4    4    0    0  0.29538983399E+03 -0.79392234925E+03  0.45536216467E+03  0.96620367526E+03  0.92881593576E+02 0.  0.
         23    2    4    4    0    0 -0.44008578969E+03 -0.51065434024E+03  0.78657537610E+03  0.10398922394E+04  0.90728660270E+02 0.  0.
          2    1    3    3  502    0  0.43373021938E+02  0.15563353749E+03  0.12141753454E+03  0.20210204036E+03  0.00000000000E+00 0. -1.
         -1    1    3    3    0  502  0.10132293377E+03  0.11489431520E+04  0.82793792738E+03  0.14197950257E+04  0.00000000000E+00 0.  1.
         11    1    5    5    0    0  0.29213076991E+03 -0.77726392393E+03  0.45910922153E+03  0.94882077942E+03  0.00000000000E+00 0.  1.
        -11    1    5    5    0    0  0.32590640809E+01 -0.16658425323E+02 -0.37470568606E+01  0.17382895847E+02  0.00000000000E+00 0. -1.
          1    1    6    6  503    0 -0.99426961693E+02 -0.15967602933E+03  0.26364104814E+03  0.32386533825E+03  0.00000000000E+00 0. -1.
         -1    1    6    6    0  503 -0.34065882800E+03 -0.35097831090E+03  0.52293432797E+03  0.71602690116E+03  0.00000000000E+00 0.  1.
<mgrwt>
<rscale>  0 0.28914647E+04</rscale>
<asrwt>0</asrwt>
<pdfrwt beam="1">  1        2 0.11051538E+00 0.28914647E+04</pdfrwt>
<pdfrwt beam="2">  1       -1 0.44763738E+00 0.28914647E+04</pdfrwt>
<totfact> 0.13101330E-01</totfact>
</mgrwt>
</event>
<event>
12    6  0.1647231E-007  0.1113616E+04  0.7818608E-02  0.9192022E-01
          2   -1    0    0  501    0  0.00000000000E+00  0.00000000000E+00  0.16664081452E+04  0.16664081452E+04  0.00000000000E+00 0. -1.
         -1   -1    0    0    0  501 -0.00000000000E+00 -0.00000000000E+00 -0.18604989676E+03  0.18604989676E+03  0.00000000000E+00 0.  1.
         24    2    1    2    0    0  0.69886908628E+02 -0.12336930149E+03  0.68323343475E+02  0.17172222195E+03  0.68675160728E+02 0.  0.
        254    2    1    2    0    0 -0.69886908628E+02  0.12336930149E+03  0.14120349050E+04  0.16807358200E+04  0.90051438592E+03 0.  0.
         23    2    4    4    0    0  0.35196088446E+03  0.14777842155E+03  0.10337580087E+04  0.11061490177E+04  0.95891098421E+02 0.  0.
         23    2    4    4    0    0 -0.42184779309E+03 -0.24409120059E+02  0.37827689621E+03  0.57458680225E+03  0.92223735758E+02 0.  0.
          2    1    3    3  502    0  0.47415801701E+02 -0.69018016447E+02  0.75150726550E+02  0.11251389490E+03  0.00000000000E+00 0. -1.
         -1    1    3    3    0  502  0.22471106927E+02 -0.54351285042E+02 -0.68273830753E+01  0.59208327049E+02  0.00000000000E+00 0.  1.
         11    1    5    5    0    0  0.14736516691E+03  0.93885934526E+02  0.57480857142E+03  0.60077945613E+03  0.00000000000E+00 0. -1.
        -11    1    5    5    0    0  0.20459571755E+03  0.53892487022E+02  0.45894943732E+03  0.50536956162E+03  0.00000000000E+00 0.  1.
          1    1    6    6  503    0 -0.24079360897E+03 -0.51596898541E+02  0.18228888038E+03  0.30638707214E+03  0.00000000000E+00 0. -1.
         -1    1    6    6    0  503 -0.18105418411E+03  0.27187778482E+02  0.19598801583E+03  0.26819973011E+03  0.00000000000E+00 0.  1.
<mgrwt>
<rscale>  0 0.11136158E+04</rscale>
<asrwt>0</asrwt>
<pdfrwt beam="1">  1        2 0.25637047E+00 0.11136158E+04</pdfrwt>
<pdfrwt beam="2">  1       -1 0.28623062E-01 0.11136158E+04</pdfrwt>
<totfact> 0.12819446E+02</totfact>
</mgrwt>
</event>
<event>
12    6  0.1647231E-007  0.2946600E+04  0.7818608E-02  0.8259146E-01
          2   -1    0    0  501    0  0.00000000000E+00  0.00000000000E+00  0.25119759871E+04  0.25119759871E+04  0.00000000000E+00 0. -1.
         -1   -1    0    0    0  501 -0.00000000000E+00 -0.00000000000E+00 -0.86410591355E+03  0.86410591355E+03  0.00000000000E+00 0.  1.
         24    2    1    2    0    0  0.68949382351E+02 -0.61197511414E+03  0.20996409978E+04  0.21894980054E+04  0.78368605448E+02 0.  0.
        254    2    1    2    0    0 -0.68949382351E+02  0.61197511414E+03 -0.45177092423E+03  0.11865838953E+04  0.90808414527E+03 0.  0.
         23    2    4    4    0    0  0.92688560815E+02  0.69604961314E+03 -0.19815152728E+02  0.70839571597E+03  0.91409063366E+02 0.  0.
         23    2    4    4    0    0 -0.16163794317E+03 -0.84074498998E+02 -0.43195577151E+03  0.47818817931E+03  0.94248608684E+02 0.  0.
          4    1    3    3  502    0  0.64381318027E+02 -0.29697196008E+03  0.11167137365E+04  0.11573188275E+04  0.00000000000E+00 0. -1.
         -3    1    3    3    0  502  0.45680643233E+01 -0.31500315407E+03  0.98292726132E+03  0.10321791779E+04  0.00000000000E+00 0.  1.
         11    1    5    5    0    0  0.11885583646E+02  0.82720827186E+02 -0.32420640204E+02  0.89638720764E+02  0.00000000000E+00 0.  1.
        -11    1    5    5    0    0  0.80802977169E+02  0.61332878595E+03  0.12605487476E+02  0.61875699520E+03  0.00000000000E+00 0. -1.
          3    1    6    6  503    0 -0.25651565125E+01 -0.17541504098E+02 -0.12388096972E+03  0.12514303438E+03  0.00000000000E+00 0. -1.
         -3    1    6    6    0  503 -0.15907278665E+03 -0.66532994900E+02 -0.30807480178E+03  0.35304514493E+03  0.00000000000E+00 0.  1.
<mgrwt>
<rscale>  0 0.29466003E+04</rscale>
<asrwt>0</asrwt>
<pdfrwt beam="1">  1        2 0.38645784E+00 0.29466003E+04</pdfrwt>
<pdfrwt beam="2">  1       -1 0.13293937E+00 0.29466003E+04</pdfrwt>
<totfact> 0.16037576E+00</totfact>
</mgrwt>
</event>
<event>
12    6  0.1647231E-007  0.1163277E+04  0.7818608E-02  0.9145622E-01
          2   -1    0    0  501    0  0.00000000000E+00  0.00000000000E+00  0.11257241153E+04  0.11257241153E+04  0.00000000000E+00 0. -1.
         -1   -1    0    0    0  501 -0.00000000000E+00 -0.00000000000E+00 -0.30052062236E+03  0.30052062236E+03  0.00000000000E+00 0.  1.
         24    2    1    2    0    0  0.16482062897E+03 -0.15130371638E+03  0.14538926462E+03  0.27895669201E+03  0.81364263804E+02 0.  0.
        254    2    1    2    0    0 -0.16482062897E+03  0.15130371638E+03  0.67981422827E+03  0.11472880456E+04  0.89669605793E+03 0.  0.
         23    2    4    4    0    0 -0.46759801953E+03 -0.12545723797E+03  0.27625305588E+03  0.56416029155E+03  0.87026761671E+02 0.  0.
         23    2    4    4    0    0  0.30277739056E+03  0.27676095436E+03  0.40356117239E+03  0.58312775406E+03  0.94369399743E+02 0.  0.
          2    1    3    3  502    0  0.23762531186E+02  0.71689763675E+01  0.75101392610E+01  0.25931723858E+02  0.00000000000E+00 0. -1.
         -1    1    3    3    0  502  0.14105809779E+03 -0.15847269275E+03  0.13787912536E+03  0.25302496815E+03  0.00000000000E+00 0.  1.
         11    1    5    5    0    0 -0.61623642516E+02 -0.48853742818E+02  0.48742622003E+02  0.92520293471E+02  0.00000000000E+00 0.  1.
        -11    1    5    5    0    0 -0.40597437701E+03 -0.76603495154E+02  0.22751043388E+03  0.47163999808E+03  0.00000000000E+00 0. -1.
          2    1    6    6  503    0  0.64723596178E+01 -0.27362323497E+01  0.28744806927E+02  0.29591254312E+02  0.00000000000E+00 0. -1.
         -2    1    6    6    0  503  0.29630503094E+03  0.27949718671E+03  0.37481636546E+03  0.55353649975E+03  0.00000000000E+00 0.  1.
<mgrwt>
<rscale>  0 0.11632769E+04</rscale>
<asrwt>0</asrwt>
<pdfrwt beam="1">  1        2 0.17318832E+00 0.11632769E+04</pdfrwt>
<pdfrwt beam="2">  1       -1 0.46233942E-01 0.11632769E+04</pdfrwt>
<totfact> 0.11022588E+02</totfact>
</mgrwt>
</event>
<event>
12    6  0.1647231E-007  0.2705506E+04  0.7818608E-02  0.8333221E-01
         -1   -1    0    0    0  501 -0.00000000000E+00  0.00000000000E+00  0.72444493452E+03  0.72444493452E+03  0.00000000000E+00 0.  1.
          2   -1    0    0  501    0  0.00000000000E+00 -0.00000000000E+00 -0.25259905339E+04  0.25259905339E+04  0.00000000000E+00 0. -1.
         24    2    1    2    0    0  0.39141804137E+03  0.10268399476E+04 -0.21912689243E+03  0.11237024003E+04  0.84155382845E+02 0.  0.
        254    2    1    2    0    0 -0.39141804137E+03 -0.10268399476E+04 -0.15824187070E+04  0.21267330681E+04  0.90074203741E+03 0.  0.
         23    2    4    4    0    0 -0.77908590492E+02 -0.56722442205E+03 -0.14298806520E+04  0.15428782969E+04  0.90008147652E+02 0.  0.
         23    2    4    4    0    0 -0.31350945088E+03 -0.45961552550E+03 -0.15253805500E+03  0.58385477126E+03  0.89910670293E+02 0.  0.
          2    1    3    3  502    0  0.46995636097E+02  0.20964561829E+03 -0.29777476185E+02  0.21690222030E+03  0.00000000000E+00 0. -1.
         -1    1    3    3    0  502  0.34442240527E+03  0.81719432926E+03 -0.18934941625E+03  0.90680018001E+03  0.00000000000E+00 0.  1.
         11    1    5    5    0    0 -0.52314952424E+01 -0.35921305244E+02 -0.45109089730E+02  0.57901111294E+02  0.00000000000E+00 0.  1.
        -11    1    5    5    0    0 -0.72677095249E+02 -0.53130311680E+03 -0.13847715622E+04  0.14849771856E+04  0.00000000000E+00 0. -1.
          2    1    6    6  503    0 -0.96071058227E+02 -0.21544143107E+03 -0.78609790422E+02  0.24864464120E+03  0.00000000000E+00 0. -1.
         -2    1    6    6    0  503 -0.21743839265E+03 -0.24417409444E+03 -0.73928264578E+02  0.33521013006E+03  0.00000000000E+00 0.  1.
<mgrwt>
<rscale>  0 0.27055063E+04</rscale>
<asrwt>0</asrwt>
<pdfrwt beam="1">  1        2 0.38861393E+00 0.27055063E+04</pdfrwt>
<pdfrwt beam="2">  1       -1 0.11145307E+00 0.27055063E+04</pdfrwt>
<totfact> 0.24791721E+00</totfact>
</mgrwt>
</event>
<event>
12    6  0.1647231E-007  0.1521768E+04  0.7818608E-02  0.8870105E-01
         -1   -1    0    0    0  501 -0.00000000000E+00  0.00000000000E+00  0.42748387438E+03  0.42748387438E+03  0.00000000000E+00 0.  1.
          2   -1    0    0  501    0  0.00000000000E+00 -0.00000000000E+00 -0.13543068317E+04  0.13543068317E+04  0.00000000000E+00 0. -1.
         24    2    1    2    0    0 -0.15490995730E+02  0.30638855182E+03  0.14418929041E+03  0.34811319191E+03  0.79235896390E+02 0.  0.
        254    2    1    2    0    0  0.15490995730E+02 -0.30638855182E+03 -0.10710122477E+04  0.14336775142E+04  0.90235805767E+03 0.  0.
         23    2    4    4    0    0  0.30973572699E+03  0.17202461299E+03 -0.56068188058E+03  0.66963151787E+03  0.92268686232E+02 0.  0.
         23    2    4    4    0    0 -0.29424473126E+03 -0.47841316481E+03 -0.51033036715E+03  0.76404599631E+03  0.88713486623E+02 0.  0.
          4    1    3    3  502    0  0.16434317512E+02  0.12224939350E+02  0.48179136802E+01  0.21041583268E+02  0.00000000000E+00 0. -1.
         -3    1    3    3    0  502 -0.31925313242E+02  0.29416361247E+03  0.13937137673E+03  0.32707160864E+03  0.00000000000E+00 0.  1.
         11    1    5    5    0    0  0.19478825648E+02  0.21630503057E+02 -0.10404625773E+03  0.10804132107E+03  0.00000000000E+00 0. -1.
        -11    1    5    5    0    0  0.29025690134E+03  0.15039410993E+03 -0.45663562285E+03  0.56159019679E+03  0.00000000000E+00 0.  1.
          4    1    6    6  503    0 -0.41129595889E+02 -0.13634498144E+03 -0.14439938509E+03  0.20281217921E+03  0.00000000000E+00 0. -1.
         -4    1    6    6    0  503 -0.25311513537E+03 -0.34206818337E+03 -0.36593098206E+03  0.56123381710E+03  0.00000000000E+00 0.  1.
<mgrwt>
<rscale>  0 0.15217678E+04</rscale>
<asrwt>0</asrwt>
<pdfrwt beam="1">  1        2 0.20835490E+00 0.15217678E+04</pdfrwt>
<pdfrwt beam="2">  1       -1 0.65766750E-01 0.15217678E+04</pdfrwt>
<totfact> 0.39611174E+01</totfact>
</mgrwt>
</event>
<event>
12    6  0.1647231E-007  0.1255618E+04  0.7818608E-02  0.9065521E-01
          2   -1    0    0  501    0  0.00000000000E+00  0.00000000000E+00  0.84516467081E+03  0.84516467081E+03  0.00000000000E+00 0. -1.
         -1   -1    0    0    0  501 -0.00000000000E+00 -0.00000000000E+00 -0.46635161904E+03  0.46635161904E+03  0.00000000000E+00 0.  1.
         24    2    1    2    0    0 -0.89552065961E+02  0.25738198241E+03  0.34232384454E+02  0.28884210129E+03  0.89402717771E+02 0.  0.
        254    2    1    2    0    0  0.89552065961E+02 -0.25738198241E+03  0.34458066731E+03  0.10226741886E+04  0.92350506348E+03 0.  0.
         23    2    4    4    0    0  0.15097053285E+03  0.27524528306E+03 -0.75286617338E+02  0.33562255574E+03  0.91773403229E+02 0.  0.
         23    2    4    4    0    0 -0.61418466888E+02 -0.53262726546E+03  0.41986728465E+03  0.68705163281E+03  0.91035034141E+02 0.  0.
          2    1    3    3  502    0 -0.84149307568E+02  0.11585299175E+03  0.34172593160E+02  0.14721001252E+03  0.00000000000E+00 0. -1.
         -1    1    3    3    0  502 -0.54027583928E+01  0.14152899066E+03  0.59791293694E-01  0.14163208877E+03  0.00000000000E+00 0.  1.
         11    1    5    5    0    0  0.10940073168E+02  0.41922401382E+02  0.19441026544E+02  0.47488171703E+02  0.00000000000E+00 0.  1.
        -11    1    5    5    0    0  0.14003045968E+03  0.23332288168E+03 -0.94727643883E+02  0.28813438404E+03  0.00000000000E+00 0. -1.
          1    1    6    6  503    0 -0.58813203332E+02 -0.51436346226E+03  0.37715952693E+03  0.64052952543E+03  0.00000000000E+00 0. -1.
         -1    1    6    6    0  503 -0.26052635566E+01 -0.18263803201E+02  0.42707757722E+02  0.46522107381E+02  0.00000000000E+00 0.  1.
<mgrwt>
<rscale>  0 0.12556176E+04</rscale>
<asrwt>0</asrwt>
<pdfrwt beam="1">  1        2 0.13002533E+00 0.12556176E+04</pdfrwt>
<pdfrwt beam="2">  1       -1 0.71746403E-01 0.12556176E+04</pdfrwt>
<totfact> 0.70409671E+01</totfact>
</mgrwt>
</event>
<event>
12    6  0.1647231E-007  0.1627369E+04  0.7818608E-02  0.8803909E-01
         -1   -1    0    0    0  501 -0.00000000000E+00  0.00000000000E+00  0.66191945498E+03  0.66191945498E+03  0.00000000000E+00 0.  1.
          2   -1    0    0  501    0  0.00000000000E+00 -0.00000000000E+00 -0.10002456640E+04  0.10002456640E+04  0.00000000000E+00 0. -1.
         24    2    1    2    0    0  0.30588653840E+03  0.13915358835E+03  0.32844202774E+03  0.47668057306E+03  0.80124326055E+02 0.  0.
        254    2    1    2    0    0 -0.30588653840E+03 -0.13915358835E+03 -0.66676823675E+03  0.11854845459E+04  0.92079499973E+03 0.  0.
         23    2    4    4    0    0 -0.40305306440E+03 -0.16228145130E+03 -0.84991735156E+03  0.95834117533E+03  0.85271693448E+02 0.  0.
         23    2    4    4    0    0  0.97166526004E+02  0.23127862946E+02  0.18314911481E+03  0.22714337057E+03  0.89857001508E+02 0.  0.
          4    1    3    3  502    0  0.11505731755E+02 -0.51545331634E+01  0.33096913462E+02  0.35416899301E+02  0.00000000000E+00 0. -1.
         -3    1    3    3    0  502  0.29438080664E+03  0.14430812151E+03  0.29534511428E+03  0.44126367376E+03  0.00000000000E+00 0.  1.
         11    1    5    5    0    0 -0.28324586696E+03 -0.90445249424E+02 -0.50232492200E+03  0.58372843991E+03  0.00000000000E+00 0.  1.
        -11    1    5    5    0    0 -0.11980719744E+03 -0.71836201872E+02 -0.34759242955E+03  0.37461273542E+03  0.00000000000E+00 0. -1.
          4    1    6    6  503    0  0.63869941225E+02 -0.15628351079E+02  0.44547124689E+02  0.79423303051E+02  0.00000000000E+00 0. -1.
         -4    1    6    6    0  503  0.33296584780E+02  0.38756214025E+02  0.13860199012E+03  0.14772006752E+03  0.00000000000E+00 0.  1.
<mgrwt>
<rscale>  0 0.16273685E+04</rscale>
<asrwt>0</asrwt>
<pdfrwt beam="1">  1        2 0.15388395E+00 0.16273685E+04</pdfrwt>
<pdfrwt beam="2">  1       -1 0.10183376E+00 0.16273685E+04</pdfrwt>
<totfact> 0.25133355E+01</totfact>
</mgrwt>
</event>
<event>
12    6  0.1647231E-007  0.1262164E+04  0.7818608E-02  0.9060120E-01
          2   -1    0    0  501    0  0.00000000000E+00  0.00000000000E+00  0.15117995670E+04  0.15117995670E+04  0.00000000000E+00 0. -1.
         -1   -1    0    0    0  501 -0.00000000000E+00 -0.00000000000E+00 -0.26343730187E+03  0.26343730187E+03  0.00000000000E+00 0.  1.
         24    2    1    2    0    0  0.14932657342E+03 -0.19552188940E+03  0.61925727593E+02  0.26615985379E+03  0.80492467135E+02 0.  0.
        254    2    1    2    0    0 -0.14932657342E+03  0.19552188940E+03  0.11864365375E+04  0.15090770151E+04  0.89953018020E+03 0.  0.
         23    2    4    4    0    0  0.34343548008E+03  0.58277015339E+02  0.25030959962E+03  0.43860473692E+03  0.91515463689E+02 0.  0.
         23    2    4    4    0    0 -0.49276205351E+03  0.13724487406E+03  0.93612693790E+03  0.10704722781E+04  0.89031778490E+02 0.  0.
          2    1    3    3  502    0  0.11243978435E+02 -0.24872594598E+02  0.35909196168E+02  0.45105912944E+02  0.00000000000E+00 0. -1.
         -1    1    3    3    0  502  0.13808259499E+03 -0.17064929480E+03  0.26016531425E+02  0.22105394084E+03  0.00000000000E+00 0.  1.
         11    1    5    5    0    0  0.26937504243E+03  0.66542572849E+02  0.23245513140E+03  0.36197543508E+03  0.00000000000E+00 0. -1.
        -11    1    5    5    0    0  0.74060437649E+02 -0.82655575095E+01  0.17854468220E+02  0.76629301844E+02  0.00000000000E+00 0.  1.
          3    1    6    6  503    0 -0.42474711118E+03  0.13109927101E+03  0.86077565990E+03  0.96877854229E+03  0.00000000000E+00 0. -1.
         -3    1    6    6    0  503 -0.68014942330E+02  0.61456030477E+01  0.75351277998E+02  0.10169373586E+03  0.00000000000E+00 0.  1.
<mgrwt>
<rscale>  0 0.12621639E+04</rscale>
<asrwt>0</asrwt>
<pdfrwt beam="1">  1        2 0.23258454E+00 0.12621639E+04</pdfrwt>
<pdfrwt beam="2">  1       -1 0.40528816E-01 0.12621639E+04</pdfrwt>
<totfact> 0.83194092E+01</totfact>
</mgrwt>
</event>
<event>
12    6  0.1647231E-007  0.1149886E+04  0.7818608E-02  0.9157888E-01
         -1   -1    0    0    0  501 -0.00000000000E+00  0.00000000000E+00  0.25358012362E+03  0.25358012362E+03  0.00000000000E+00 0.  1.
          2   -1    0    0  501    0  0.00000000000E+00 -0.00000000000E+00 -0.13035709862E+04  0.13035709862E+04  0.00000000000E+00 0. -1.
         24    2    1    2    0    0 -0.16108530089E+03 -0.43834204839E+02 -0.48190229272E+03  0.51615545039E+03  0.79477780259E+02 0.  0.
        254    2    1    2    0    0  0.16108530089E+03  0.43834204839E+02 -0.56808856990E+03  0.10409956595E+04  0.85619940908E+03 0.  0.
         23    2    4    4    0    0 -0.14636298433E+02 -0.38226723588E+03 -0.18504725392E+03  0.43487689977E+03  0.92374081403E+02 0.  0.
         23    2    4    4    0    0  0.17572159932E+03  0.42610144072E+03 -0.38304131598E+03  0.60611875970E+03  0.90657503045E+02 0.  0.
          4    1    3    3  502    0 -0.15775220137E+03 -0.28962380922E+02 -0.47060057358E+03  0.49718153264E+03  0.00000000000E+00 0. -1.
         -3    1    3    3    0  502 -0.33330995175E+01 -0.14871823917E+02 -0.11301719147E+02  0.18973917748E+02  0.00000000000E+00 0.  1.
         11    1    5    5    0    0 -0.83567280761E+01 -0.35216837136E+03 -0.13728464620E+03  0.37807336692E+03  0.00000000000E+00 0. -1.
        -11    1    5    5    0    0 -0.62795703566E+01 -0.30098864522E+02 -0.47762607713E+02  0.56803532856E+02  0.00000000000E+00 0.  1.
          1    1    6    6  503    0  0.93369597127E+02  0.20086316334E+03 -0.24126317642E+03  0.32752375845E+03  0.00000000000E+00 0. -1.
         -1    1    6    6    0  503  0.82352002193E+02  0.22523827738E+03 -0.14177813957E+03  0.27859500125E+03  0.00000000000E+00 0.  1.
<mgrwt>
<rscale>  0 0.11498864E+04</rscale>
<asrwt>0</asrwt>
<pdfrwt beam="1">  1        2 0.20054939E+00 0.11498864E+04</pdfrwt>
<pdfrwt beam="2">  1       -1 0.39012326E-01 0.11498864E+04</pdfrwt>
<totfact> 0.11825963E+02</totfact>
</mgrwt>
</event>
<event>
12    6  0.1647231E-007  0.1399608E+04  0.7818608E-02  0.8954102E-01
          2   -1    0    0  501    0  0.00000000000E+00  0.00000000000E+00  0.14819464788E+04  0.14819464788E+04  0.00000000000E+00 0. -1.
         -1   -1    0    0    0  501 -0.00000000000E+00 -0.00000000000E+00 -0.33046130877E+03  0.33046130877E+03  0.00000000000E+00 0.  1.
         24    2    1    2    0    0 -0.17451351391E+03 -0.21349679520E+03  0.72561163799E+03  0.78041659837E+03  0.80634792244E+02 0.  0.
        254    2    1    2    0    0  0.17451351391E+03  0.21349679520E+03  0.42587353208E+03  0.10319911892E+04  0.89866662409E+03 0.  0.
         23    2    4    4    0    0  0.22653555691E+03  0.17968495463E+03  0.68556454623E+03  0.74956339177E+03  0.90782651317E+02 0.  0.
         23    2    4    4    0    0 -0.52022042992E+02  0.33811840572E+02 -0.25969101415E+03  0.28242779747E+03  0.92067933812E+02 0.  0.
          4    1    3    3  502    0 -0.11144068776E+03 -0.16346324371E+03  0.41814707217E+03  0.46258645992E+03  0.00000000000E+00 0. -1.
         -3    1    3    3    0  502 -0.63072826150E+02 -0.50033551496E+02  0.30746456581E+03  0.31783013845E+03  0.00000000000E+00 0.  1.
         11    1    5    5    0    0  0.95511935949E+02  0.42162792422E+02  0.33439659032E+03  0.35031601532E+03  0.00000000000E+00 0.  1.
        -11    1    5    5    0    0  0.13102362096E+03  0.13752216221E+03  0.35116795591E+03  0.39924737645E+03  0.00000000000E+00 0. -1.
          1    1    6    6  503    0 -0.42856664710E+02 -0.52483320754E+01 -0.22585113618E+03  0.22994124122E+03  0.00000000000E+00 0. -1.
         -1    1    6    6    0  503 -0.91653782817E+01  0.39060172647E+02 -0.33839877961E+02  0.52486556247E+02  0.00000000000E+00 0.  1.
<mgrwt>
<rscale>  0 0.13996085E+04</rscale>
<asrwt>0</asrwt>
<pdfrwt beam="1">  1        2 0.22799176E+00 0.13996085E+04</pdfrwt>
<pdfrwt beam="2">  1       -1 0.50840202E-01 0.13996085E+04</pdfrwt>
<totfact> 0.56037190E+01</totfact>
</mgrwt>
</event>
<event>
12    6  0.1647231E-007  0.1928917E+04  0.7818608E-02  0.8640595E-01
          4   -1    0    0  501    0  0.00000000000E+00  0.00000000000E+00  0.19988165823E+04  0.19988165823E+04  0.00000000000E+00 0. -1.
         -3   -1    0    0    0  501 -0.00000000000E+00 -0.00000000000E+00 -0.46536549115E+03  0.46536549115E+03  0.00000000000E+00 0.  1.
         24    2    1    2    0    0  0.18184075620E+03  0.68768598136E+03  0.99971677297E+03  0.12295129076E+04  0.79311375226E+02 0.  0.
        254    2    1    2    0    0 -0.18184075620E+03 -0.68768598136E+03  0.53373431817E+03  0.12346691658E+04  0.85647974705E+03 0.  0.
         23    2    4    4    0    0 -0.13350737648E+02 -0.37199394209E+02  0.54681339038E+03  0.55586591132E+03  0.91760505388E+02 0.  0.
         23    2    4    4    0    0 -0.16849001855E+03 -0.65048658715E+03 -0.13079072209E+02  0.67880325452E+03  0.95294857155E+02 0.  0.
          2    1    3    3  502    0 -0.71935091128E+01  0.16679097941E+02  0.32783589725E+02  0.37479362811E+02  0.00000000000E+00 0. -1.
         -1    1    3    3    0  502  0.18903426532E+03  0.67100688342E+03  0.96693318325E+03  0.11920335448E+04  0.00000000000E+00 0.  1.
         11    1    5    5    0    0  0.63791095480E+01 -0.44966539725E+01  0.85052122522E-01  0.78051373747E+01  0.00000000000E+00 0.  1.
        -11    1    5    5    0    0 -0.19729847196E+02 -0.32702740237E+02  0.54672833825E+03  0.54806077395E+03  0.00000000000E+00 0. -1.
          3    1    6    6  503    0 -0.12532293132E+03 -0.46604213805E+03 -0.52084045871E+02  0.48540072042E+03  0.00000000000E+00 0. -1.
         -3    1    6    6    0  503 -0.43167087235E+02 -0.18444444910E+03  0.39004973662E+02  0.19340253409E+03  0.00000000000E+00 0.  1.
<mgrwt>
<rscale>  0 0.19289171E+04</rscale>
<asrwt>0</asrwt>
<pdfrwt beam="1">  1        4 0.30751024E+00 0.19289171E+04</pdfrwt>
<pdfrwt beam="2">  1       -3 0.71594692E-01 0.19289171E+04</pdfrwt>
<totfact> 0.11003280E-01</totfact>
</mgrwt>
</event>
<event>
12    6  0.1647231E-007  0.2393719E+04  0.7818608E-02  0.8441859E-01
         -1   -1    0    0    0  501 -0.00000000000E+00  0.00000000000E+00  0.82978529681E+03  0.82978529681E+03  0.00000000000E+00 0.  1.
          2   -1    0    0  501    0  0.00000000000E+00 -0.00000000000E+00 -0.17263173291E+04  0.17263173291E+04  0.00000000000E+00 0. -1.
         24    2    1    2    0    0  0.20385512421E+03 -0.10009582730E+03 -0.14626874957E+04  0.14823424501E+04  0.79425077376E+02 0.  0.
        254    2    1    2    0    0 -0.20385512421E+03  0.10009582730E+03  0.56615546340E+03  0.10737601758E+04  0.88365876909E+03 0.  0.
         23    2    4    4    0    0 -0.26109583940E+02  0.36168000789E+03 -0.47936292589E+02  0.37709360709E+03  0.91692758058E+02 0.  0.
         23    2    4    4    0    0 -0.17774554027E+03 -0.26158418060E+03  0.61409175599E+03  0.69666656876E+03  0.90641395715E+02 0.  0.
          4    1    3    3  502    0  0.17081443160E+03 -0.62553395139E+02 -0.95289629625E+03  0.97010404014E+03  0.00000000000E+00 0. -1.
         -3    1    3    3    0  502  0.33040692615E+02 -0.37542432156E+02 -0.50979119948E+03  0.51223840997E+03  0.00000000000E+00 0.  1.
         11    1    5    5    0    0 -0.17294838683E+02  0.22718994025E+03  0.15008486725E+02  0.22834104990E+03  0.00000000000E+00 0. -1.
        -11    1    5    5    0    0 -0.88147452570E+01  0.13449006765E+03 -0.62944779315E+02  0.14875255720E+03  0.00000000000E+00 0.  1.
          2    1    6    6  503    0 -0.16626088460E+03 -0.24025881641E+03  0.49216879805E+03  0.57236099307E+03  0.00000000000E+00 0.  1.
         -2    1    6    6    0  503 -0.11484655670E+02 -0.21325364190E+02  0.12192295794E+03  0.12430557569E+03  0.00000000000E+00 0. -1.
<mgrwt>
<rscale>  0 0.23937191E+04</rscale>
<asrwt>0</asrwt>
<pdfrwt beam="1">  1        2 0.26558728E+00 0.23937191E+04</pdfrwt>
<pdfrwt beam="2">  1       -1 0.12765928E+00 0.23937191E+04</pdfrwt>
<totfact> 0.51564971E+00</totfact>
</mgrwt>
</event>
<event>
12    6  0.1647231E-007  0.2790317E+04  0.7818608E-02  0.8306281E-01
          2   -1    0    0  501    0  0.00000000000E+00  0.00000000000E+00  0.41523688160E+04  0.41523688160E+04  0.00000000000E+00 0. -1.
         -1   -1    0    0    0  501 -0.00000000000E+00 -0.00000000000E+00 -0.46876065032E+03  0.46876065032E+03  0.00000000000E+00 0.  1.
         24    2    1    2    0    0 -0.89316024580E+03 -0.35237917540E+03  0.33325706798E+03  0.10196175178E+04  0.81567771039E+02 0.  0.
        254    2    1    2    0    0  0.89316024580E+03  0.35237917540E+03  0.33503510976E+04  0.36015119485E+04  0.90781580166E+03 0.  0.
         23    2    4    4    0    0  0.25152031451E+03  0.39945674468E+03  0.56852725920E+03  0.74455482534E+03  0.91161856024E+02 0.  0.
         23    2    4    4    0    0  0.64163993129E+03 -0.47077569282E+02  0.27818238384E+04  0.28569571232E+04  0.98701755275E+02 0.  0.
          4    1    3    3  502    0 -0.38557145703E+03 -0.11831512001E+03  0.11317533315E+03  0.41889434483E+03  0.00000000000E+00 0. -1.
         -3    1    3    3    0  502 -0.50758878877E+03 -0.23406405538E+03  0.22008173483E+03  0.60072317294E+03  0.00000000000E+00 0.  1.
         11    1    5    5    0    0  0.21332952328E+03  0.29362247685E+03  0.38356133053E+03  0.52805581020E+03  0.00000000000E+00 0. -1.
        -11    1    5    5    0    0  0.38190791223E+02  0.10583426783E+03  0.18496592868E+03  0.21649901513E+03  0.00000000000E+00 0.  1.
          4    1    6    6  503    0  0.38004694354E+03 -0.35707010598E+02  0.18543391647E+04  0.18932206442E+04  0.00000000000E+00 0. -1.
         -4    1    6    6    0  503  0.26159298775E+03 -0.11370558683E+02  0.92748467376E+03  0.96373647898E+03  0.00000000000E+00 0.  1.
<mgrwt>
<rscale>  0 0.27903169E+04</rscale>
<asrwt>0</asrwt>
<pdfrwt beam="1">  1        2 0.63882595E+00 0.27903169E+04</pdfrwt>
<pdfrwt beam="2">  1       -1 0.72117026E-01 0.27903169E+04</pdfrwt>
<totfact> 0.49128222E-01</totfact>
</mgrwt>
</event>
<event>
12    6  0.1647231E-007  0.2008518E+04  0.7818608E-02  0.8602648E-01
         -1   -1    0    0    0  501 -0.00000000000E+00  0.00000000000E+00  0.13109544261E+04  0.13109544261E+04  0.00000000000E+00 0.  1.
          2   -1    0    0  501    0  0.00000000000E+00 -0.00000000000E+00 -0.76931467654E+03  0.76931467654E+03  0.00000000000E+00 0. -1.
         24    2    1    2    0    0  0.38089473040E+03  0.52098434478E+03  0.71694381822E+03  0.96773494637E+03  0.77440330520E+02 0.  0.
        254    2    1    2    0    0 -0.38089473040E+03 -0.52098434478E+03 -0.17530406861E+03  0.11125341563E+04  0.88909799760E+03 0.  0.
         23    2    4    4    0    0 -0.63397590616E+03 -0.52052165719E+03 -0.17795797281E+03  0.84441053469E+03  0.92151320231E+02 0.  0.
         23    2    4    4    0    0  0.25308117576E+03 -0.46268759721E+00  0.26539041987E+01  0.26812362163E+03  0.88503885024E+02 0.  0.
          2    1    3    3  502    0  0.14451767309E+03  0.15437674939E+03  0.27339176771E+03  0.34563072380E+03  0.00000000000E+00 0. -1.
         -1    1    3    3    0  502  0.23637705731E+03  0.36660759540E+03  0.44355205051E+03  0.62210422257E+03  0.00000000000E+00 0.  1.
         11    1    5    5    0    0 -0.41298522930E+03 -0.34939131519E+03 -0.73035074268E+02  0.54586189904E+03  0.00000000000E+00 0.  1.
        -11    1    5    5    0    0 -0.22099067686E+03 -0.17113034199E+03 -0.10492289854E+03  0.29854863565E+03  0.00000000000E+00 0. -1.
          1    1    6    6  503    0  0.16498163000E+02 -0.21366154960E+01 -0.24888973394E+02  0.29936858632E+02  0.00000000000E+00 0. -1.
         -1    1    6    6    0  503  0.23658301276E+03  0.16739278988E+01  0.27542877592E+02  0.23818676300E+03  0.00000000000E+00 0.  1.
<mgrwt>
<rscale>  0 0.20085183E+04</rscale>
<asrwt>0</asrwt>
<pdfrwt beam="1">  1        2 0.11835610E+00 0.20085183E+04</pdfrwt>
<pdfrwt beam="2">  1       -1 0.20168530E+00 0.20085183E+04</pdfrwt>
<totfact> 0.56318527E+00</totfact>
</mgrwt>
</event>
