<event>
12    6  0.1403409E-007  0.3192957E+04  0.7818608E-02  0.8190680E-01
         -1   -1    0    0    0  501 -0.00000000000E+00  0.00000000000E+00  0.16532553288E+04  0.16532553288E+04  0.00000000000E+00 0.  1.
          2   -1    0    0  501    0  0.00000000000E+00 -0.00000000000E+00 -0.15416513663E+04  0.15416513663E+04  0.00000000000E+00 0. -1.
         24    2    1    2    0    0 -0.10426021835E+04 -0.87307382255E+03 -0.50508763632E+03  0.14529668398E+04  0.81987221859E+02 0.  0.
        254    2    1    2    0    0  0.10426021835E+04  0.87307382255E+03  0.61669159891E+03  0.17419398553E+04  0.89708902498E+03 0.  0.
         23    2    4    4    0    0 -0.45005734578E+01  0.44769939750E+03  0.35518590232E+03  0.57818359311E+03  0.87659776665E+02 0.  0.
         23    2    4    4    0    0  0.10471027569E+04  0.42537442505E+03  0.26150569659E+03  0.11637562622E+04  0.92605741763E+02 0.  0.
          4    1    3    3  502    0 -0.71811686052E+03 -0.57630782214E+03 -0.30618906859E+03  0.97034750319E+03  0.00000000000E+00 0. -1.
         -3    1    3    3    0  502 -0.32448532296E+03 -0.29676600040E+03 -0.19889856773E+03  0.48261933660E+03  0.00000000000E+00 0.  1.
         11    1    5    5    0    0  0.44698103084E+01  0.43331009391E+03  0.31857327238E+03  0.53783505517E+03  0.00000000000E+00 0.  1.
        -11    1    5    5    0    0 -0.89703837662E+01  0.14389303586E+02  0.36612629938E+02  0.40348537936E+02  0.00000000000E+00 0. -1.
          1    1    6    6  503    0  0.94525210370E+02  0.57901937955E+02  0.47348451637E+02  0.12053848218E+03  0.00000000000E+00 0. -1.
         -1    1    6    6    0  503  0.95257754657E+03  0.36747248710E+03  0.21415724495E+03  0.10432177800E+04  0.00000000000E+00 0.  1.
<mgrwt>
<rscale>  0 0.31929568E+04</rscale>
<asrwt>0</asrwt>
<pdfrwt beam="1">  1        2 0.23717713E+00 0.31929568E+04</pdfrwt>
<pdfrwt beam="2">  1       -1 0.25434697E+00 0.31929568E+04</pdfrwt>
<totfact> 0.75331916E-01</totfact>
</mgrwt>
</event>
<event>
12    6  0.1403409E-007  0.1305757E+04  0.7818608E-02  0.9025012E-01
         -1   -1    0    0    0  501 -0.00000000000E+00  0.00000000000E+00  0.15946030273E+03  0.15946030273E+03  0.00000000000E+00 0.  1.
          2   -1    0    0  501    0  0.00000000000E+00 -0.00000000000E+00 -0.26730798874E+04  0.26730798874E+04  0.00000000000E+00 0. -1.
         24    2    1    2    0    0  0.21524127881E+03 -0.26257627395E+03 -0.67505764194E+03  0.75848745259E+03  0.65766922195E+02 0.  0.
        254    2    1    2    0    0 -0.21524127881E+03  0.26257627395E+03 -0.18385619427E+04  0.20740527376E+04  0.89783608366E+03 0.  0.
         23    2    4    4    0    0 -0.66819160067E+02  0.19104884165E+03  0.37463223416E+01  0.22212333998E+03  0.91434584179E+02 0.  0.
         23    2    4    4    0    0 -0.14842211874E+03  0.71527432298E+02 -0.18423082651E+04  0.18519293976E+04  0.91637607512E+02 0.  0.
          2    1    3    3  502    0  0.11974689249E+03 -0.16060421251E+03 -0.46377707117E+03  0.50519521284E+03  0.00000000000E+00 0. -1.
         -1    1    3    3    0  502  0.95494386314E+02 -0.10197206144E+03 -0.21128057077E+03  0.25329223975E+03  0.00000000000E+00 0.  1.
         11    1    5    5    0    0  0.17847253527E+02  0.10483220024E+02  0.91255775056E+01  0.22620754305E+02  0.00000000000E+00 0.  1.
        -11    1    5    5    0    0 -0.84666413593E+02  0.18056562163E+03 -0.53792551640E+01  0.19950258568E+03  0.00000000000E+00 0. -1.
          4    1    6    6  503    0 -0.86613084161E+02  0.73436048460E+02 -0.82969176919E+03  0.83742648121E+03  0.00000000000E+00 0.  1.
         -4    1    6    6    0  503 -0.61809034580E+02 -0.19086161618E+01 -0.10126164959E+04  0.10145029164E+04  0.00000000000E+00 0. -1.
<mgrwt>
<rscale>  0 0.13057567E+04</rscale>
<asrwt>0</asrwt>
<pdfrwt beam="1">  1        2 0.41124303E+00 0.13057567E+04</pdfrwt>
<pdfrwt beam="2">  1       -1 0.24532356E-01 0.13057567E+04</pdfrwt>
<totfact> 0.44783601E+01</totfact>
</mgrwt>
</event>
<event>
12    6  0.1403409E-007  0.2070103E+04  0.7818608E-02  0.8574529E-01
          2   -1    0    0  501    0  0.00000000000E+00  0.00000000000E+00  0.13671660150E+04  0.13671660150E+04  0.00000000000E+00 0. -1.
         -1   -1    0    0    0  501 -0.00000000000E+00 -0.00000000000E+00 -0.78361474732E+03  0.78361474732E+03  0.00000000000E+00 0.  1.
         24    2    1    2    0    0 -0.62702975870E+03  0.48265699575E+03 -0.49931594970E+02  0.79694403472E+03  0.80638306404E+02 0.  0.
        254    2    1    2    0    0  0.62702975870E+03 -0.48265699575E+03  0.63348286266E+03  0.13538367276E+04  0.89746824673E+03 0.  0.
         23    2    4    4    0    0  0.66145137412E+03 -0.22777933191E+03  0.77363677974E+03  0.10467976746E+04  0.88713923412E+02 0.  0.
         23    2    4    4    0    0 -0.34421615420E+02 -0.25487766384E+03 -0.14015391709E+03  0.30703905301E+03  0.92099883075E+02 0.  0.
          4    1    3    3  502    0 -0.42113286985E+03  0.28324024464E+03 -0.10692039935E+02  0.50763397244E+03  0.00000000000E+00 0. -1.
         -3    1    3    3    0  502 -0.20589688885E+03  0.19941675111E+03 -0.39239555034E+02  0.28931006229E+03  0.00000000000E+00 0.  1.
         11    1    5    5    0    0  0.65529923513E+02 -0.11005180373E+02  0.11287674033E+03  0.13098260716E+03  0.00000000000E+00 0.  1.
        -11    1    5    5    0    0  0.59592145061E+03 -0.21677415153E+03  0.66076003942E+03  0.91581506744E+03  0.00000000000E+00 0. -1.
          1    1    6    6  503    0  0.18846626945E+02 -0.17365273439E+03 -0.10463517410E+03  0.20361480096E+03  0.00000000000E+00 0. -1.
         -1    1    6    6    0  503 -0.53268242365E+02 -0.81224929450E+02 -0.35518742982E+02  0.10342425205E+03  0.00000000000E+00 0.  1.
<mgrwt>
<rscale>  0 0.20701028E+04</rscale>
<asrwt>0</asrwt>
<pdfrwt beam="1">  1        2 0.21033323E+00 0.20701028E+04</pdfrwt>
<pdfrwt beam="2">  1       -1 0.12055612E+00 0.20701028E+04</pdfrwt>
<totfact> 0.97397574E+00</totfact>
</mgrwt>
</event>
<event>
12    6  0.1403409E-007  0.2589247E+04  0.7818608E-02  0.8371863E-01
          2   -1    0    0  501    0  0.00000000000E+00  0.00000000000E+00  0.69932752240E+03  0.69932752240E+03  0.00000000000E+00 0. -1.
         -1   -1    0    0    0  501 -0.00000000000E+00 -0.00000000000E+00 -0.23966593900E+04  0.23966593900E+04  0.00000000000E+00 0.  1.
         24    2    1    2    0    0  0.53795397976E+02 -0.10370228713E+04 -0.13002101703E+04  0.16658877427E+04  0.79530522070E+02 0.  0.
        254    2    1    2    0    0 -0.53795397976E+02  0.10370228713E+04 -0.39712169725E+03  0.14300991696E+04  0.89953744342E+03 0.  0.
         23    2    4    4    0    0  0.16483435216E+03  0.30933345567E+03  0.23868527022E+03  0.43536340759E+03  0.98554999859E+02 0.  0.
         23    2    4    4    0    0 -0.21862975013E+03  0.72768941563E+03 -0.63580696747E+03  0.99473576205E+03  0.88982487823E+02 0.  0.
          4    1    3    3  502    0  0.57667420694E+02 -0.41364459984E+03 -0.49845604639E+03  0.65029671426E+03  0.00000000000E+00 0. -1.
         -3    1    3    3    0  502 -0.38720227183E+01 -0.62337827146E+03 -0.80175412394E+03  0.10155910285E+04  0.00000000000E+00 0.  1.
         11    1    5    5    0    0  0.38478749988E+02  0.50877864106E+02  0.36906740539E+01  0.63896731776E+02  0.00000000000E+00 0. -1.
        -11    1    5    5    0    0  0.12635560217E+03  0.25845559156E+03  0.23499459617E+03  0.37146667581E+03  0.00000000000E+00 0.  1.
          2    1    6    6  503    0 -0.18724932609E+03  0.48029990688E+03 -0.43720368689E+03  0.67594184254E+03  0.00000000000E+00 0. -1.
         -2    1    6    6    0  503 -0.31380424045E+02  0.24738950875E+03 -0.19860328058E+03  0.31879391950E+03  0.00000000000E+00 0.  1.
<mgrwt>
<rscale>  0 0.25892469E+04</rscale>
<asrwt>0</asrwt>
<pdfrwt beam="1">  1        2 0.10758885E+00 0.25892469E+04</pdfrwt>
<pdfrwt beam="2">  1       -1 0.36871683E+00 0.25892469E+04</pdfrwt>
<totfact> 0.48288849E-01</totfact>
</mgrwt>
</event>
<event>
12    6  0.1403409E-007  0.3439546E+04  0.7818608E-02  0.8128268E-01
          2   -1    0    0  501    0  0.00000000000E+00  0.00000000000E+00  0.22587109536E+04  0.22587109536E+04  0.00000000000E+00 0. -1.
         -1   -1    0    0    0  501 -0.00000000000E+00 -0.00000000000E+00 -0.13094276033E+04  0.13094276033E+04  0.00000000000E+00 0.  1.
         24    2    1    2    0    0  0.79188466722E+03  0.50001573180E+03  0.17887857700E+04  0.20206532507E+04  0.78663654318E+02 0.  0.
        254    2    1    2    0    0 -0.79188466722E+03 -0.50001573180E+03 -0.83950241964E+03  0.15474853062E+04  0.90158161150E+03 0.  0.
         23    2    4    4    0    0 -0.60123483545E+03 -0.30094988145E+02 -0.83456345750E+03  0.10329401509E+04  0.89889682657E+02 0.  0.
         23    2    4    4    0    0 -0.19064983178E+03 -0.46992074365E+03 -0.49389621422E+01  0.51454515535E+03  0.86945154418E+02 0.  0.
          4    1    3    3  502    0  0.66278843534E+03  0.41550302937E+03  0.15525909374E+04  0.17385252072E+04  0.00000000000E+00 0. -1.
         -3    1    3    3    0  502  0.12909623188E+03  0.84512702426E+02  0.23619483260E+03  0.28212804346E+03  0.00000000000E+00 0.  1.
         11    1    5    5    0    0 -0.57226485522E+01  0.10161515839E+02 -0.19079136156E+02  0.22361094496E+02  0.00000000000E+00 0. -1.
        -11    1    5    5    0    0 -0.59551218689E+03 -0.40256503984E+02 -0.81548432134E+03  0.10105790564E+04  0.00000000000E+00 0.  1.
          3    1    6    6  503    0 -0.15831761058E+03 -0.44425126528E+03 -0.15711258707E+02  0.47187974758E+03  0.00000000000E+00 0. -1.
         -3    1    6    6    0  503 -0.32332221195E+02 -0.25669478376E+02  0.10772296565E+02  0.42665407777E+02  0.00000000000E+00 0.  1.
<mgrwt>
<rscale>  0 0.34395456E+04</rscale>
<asrwt>0</asrwt>
<pdfrwt beam="1">  1        2 0.34749399E+00 0.34395456E+04</pdfrwt>
<pdfrwt beam="2">  1       -1 0.20145040E+00 0.34395456E+04</pdfrwt>
<totfact> 0.66063062E-01</totfact>
</mgrwt>
</event>
<event>
12    6  0.1403409E-007  0.2885149E+04  0.7818608E-02  0.8277310E-01
          2   -1    0    0  501    0  0.00000000000E+00  0.00000000000E+00  0.30238825926E+04  0.30238825926E+04  0.00000000000E+00 0. -1.
         -1   -1    0    0    0  501 -0.00000000000E+00 -0.00000000000E+00 -0.68819511764E+03  0.68819511764E+03  0.00000000000E+00 0.  1.
         24    2    1    2    0    0 -0.32938049701E+03 -0.10517477857E+04  0.19443608071E+04  0.22363620410E+04  0.78174891234E+02 0.  0.
        254    2    1    2    0    0  0.32938049701E+03  0.10517477857E+04  0.39132666787E+03  0.14757156693E+04  0.89996403211E+03 0.  0.
         23    2    4    4    0    0  0.58844927017E+02 -0.13974105611E+03  0.13932620221E+03  0.22465110432E+03  0.89811134352E+02 0.  0.
         23    2    4    4    0    0  0.27053557000E+03  0.11914888418E+04  0.25200046566E+03  0.12510645650E+04  0.93931657532E+02 0.  0.
          4    1    3    3  502    0 -0.16292238354E+03 -0.56824390744E+03  0.11155977253E+04  0.12625383662E+04  0.00000000000E+00 0. -1.
         -3    1    3    3    0  502 -0.16645811347E+03 -0.48350387823E+03  0.82876308174E+03  0.97382367473E+03  0.00000000000E+00 0.  1.
         11    1    5    5    0    0  0.14764277653E+02 -0.94037683244E+02  0.32886670888E+02  0.10071049045E+03  0.00000000000E+00 0.  1.
        -11    1    5    5    0    0  0.44080649363E+02 -0.45703372862E+02  0.10643953132E+03  0.12394061387E+03  0.00000000000E+00 0. -1.
          3    1    6    6  503    0  0.15558937452E+03  0.82182641105E+03  0.13994300523E+03  0.84805114708E+03  0.00000000000E+00 0. -1.
         -3    1    6    6    0  503  0.11494619547E+03  0.36966243073E+03  0.11205746044E+03  0.40301341787E+03  0.00000000000E+00 0.  1.
<mgrwt>
<rscale>  0 0.28851490E+04</rscale>
<asrwt>0</asrwt>
<pdfrwt beam="1">  1        2 0.46521270E+00 0.28851490E+04</pdfrwt>
<pdfrwt beam="2">  1       -1 0.10587617E+00 0.28851490E+04</pdfrwt>
<totfact> 0.13783932E+00</totfact>
</mgrwt>
</event>
<event>
12    6  0.1403409E-007  0.1738977E+04  0.7818608E-02  0.8739441E-01
          2   -1    0    0  501    0  0.00000000000E+00  0.00000000000E+00  0.25838783497E+04  0.25838783497E+04  0.00000000000E+00 0. -1.
         -1   -1    0    0    0  501 -0.00000000000E+00 -0.00000000000E+00 -0.29258731574E+03  0.29258731574E+03  0.00000000000E+00 0.  1.
         24    2    1    2    0    0  0.52377684253E+02  0.60497257774E+03  0.53327330508E+03  0.81072228381E+03  0.64458994251E+02 0.  0.
        254    2    1    2    0    0 -0.52377684253E+02 -0.60497257774E+03  0.17580177289E+04  0.20657433816E+04  0.89885156844E+03 0.  0.
         23    2    4    4    0    0 -0.12946769155E+03 -0.51460557733E+03  0.33421230531E+03  0.63375262569E+03  0.91453497380E+02 0.  0.
         23    2    4    4    0    0  0.77090007300E+02 -0.90367000413E+02  0.14238054236E+04  0.14319907559E+04  0.96263061039E+02 0.  0.
          4    1    3    3  502    0  0.54738871542E+01  0.34699218983E+03  0.33078145274E+03  0.47942664999E+03  0.00000000000E+00 0. -1.
         -3    1    3    3    0  502  0.46903797099E+02  0.25798038791E+03  0.20249185234E+03  0.33129563383E+03  0.00000000000E+00 0.  1.
         11    1    5    5    0    0 -0.14517460347E+02 -0.22341780638E+03  0.16297879331E+03  0.27692663276E+03  0.00000000000E+00 0.  1.
        -11    1    5    5    0    0 -0.11495023121E+03 -0.29118777095E+03  0.17123351200E+03  0.35682599294E+03  0.00000000000E+00 0. -1.
          4    1    6    6  503    0  0.22366106161E+02 -0.93614597396E+02  0.10085778053E+04  0.10131599701E+04  0.00000000000E+00 0. -1.
         -4    1    6    6    0  503  0.54723901139E+02  0.32475969828E+01  0.41522761821E+03  0.41883078584E+03  0.00000000000E+00 0.  1.
<mgrwt>
<rscale>  0 0.17389767E+04</rscale>
<asrwt>0</asrwt>
<pdfrwt beam="1">  1        2 0.39751973E+00 0.17389767E+04</pdfrwt>
<pdfrwt beam="2">  1       -1 0.45013435E-01 0.17389767E+04</pdfrwt>
<totfact> 0.16474582E+01</totfact>
</mgrwt>
</event>
<event>
12    6  0.1403409E-007  0.1834720E+04  0.7818608E-02  0.8688051E-01
          2   -1    0    0  501    0  0.00000000000E+00  0.00000000000E+00  0.17563071227E+04  0.17563071227E+04  0.00000000000E+00 0. -1.
         -1   -1    0    0    0  501 -0.00000000000E+00 -0.00000000000E+00 -0.47915824864E+03  0.47915824864E+03  0.00000000000E+00 0.  1.
         24    2    1    2    0    0  0.38695314632E+03 -0.55089747868E+03  0.28176190057E+03  0.73436179592E+03  0.81711132823E+02 0.  0.
        254    2    1    2    0    0 -0.38695314632E+03  0.55089747868E+03  0.99538697347E+03  0.15011035754E+04  0.89960877479E+03 0.  0.
         23    2    4    4    0    0 -0.77068012713E+01 -0.22419728410E+03  0.32382749184E+03  0.40399537767E+03  0.89577919819E+02 0.  0.
         23    2    4    4    0    0 -0.37924634505E+03  0.77509476279E+03  0.67155948163E+03  0.10971081977E+04  0.89747304439E+02 0.  0.
          4    1    3    3  502    0  0.22507017035E+03 -0.26511312265E+03  0.17263785740E+03  0.38825942254E+03  0.00000000000E+00 0. -1.
         -3    1    3    3    0  502  0.16188297597E+03 -0.28578435603E+03  0.10912404317E+03  0.34610237338E+03  0.00000000000E+00 0.  1.
         11    1    5    5    0    0  0.65950634614E+01 -0.22147130460E+02  0.97774739516E+02  0.10046835291E+03  0.00000000000E+00 0.  1.
        -11    1    5    5    0    0 -0.14301864733E+02 -0.20205015364E+03  0.22605275233E+03  0.30352702476E+03  0.00000000000E+00 0. -1.
          1    1    6    6  503    0 -0.22281250516E+03  0.54374689760E+03  0.47497116332E+03  0.75558170114E+03  0.00000000000E+00 0. -1.
         -1    1    6    6    0  503 -0.15643383989E+03  0.23134786519E+03  0.19658831831E+03  0.34152649660E+03  0.00000000000E+00 0.  1.
<mgrwt>
<rscale>  0 0.18347196E+04</rscale>
<asrwt>0</asrwt>
<pdfrwt beam="1">  1        2 0.27020109E+00 0.18347196E+04</pdfrwt>
<pdfrwt beam="2">  1       -1 0.73716654E-01 0.18347196E+04</pdfrwt>
<totfact> 0.18135359E+01</totfact>
</mgrwt>
</event>
<event>
12    6  0.1403409E-007  0.1795452E+04  0.7818608E-02  0.8708722E-01
          2   -1    0    0  501    0  0.00000000000E+00  0.00000000000E+00  0.57958493428E+03  0.57958493428E+03  0.00000000000E+00 0. -1.
         -1   -1    0    0    0  501 -0.00000000000E+00 -0.00000000000E+00 -0.13904988379E+04  0.13904988379E+04  0.00000000000E+00 0.  1.
         24    2    1    2    0    0 -0.48489090154E+03  0.38007824942E+03 -0.17355234264E+02  0.62146238943E+03  0.79596703661E+02 0.  0.
        254    2    1    2    0    0  0.48489090154E+03 -0.38007824942E+03 -0.79355866933E+03  0.13486213827E+04  0.89970306780E+03 0.  0.
         23    2    4    4    0    0  0.60328244464E+03 -0.67751593411E+02 -0.17279127061E+03  0.63775229984E+03  0.91275332542E+02 0.  0.
         23    2    4    4    0    0 -0.11839154310E+03 -0.31232665601E+03 -0.62076739872E+03  0.71086908289E+03  0.91750706586E+02 0.  0.
          4    1    3    3  502    0 -0.61115276737E+02  0.29678224461E+02  0.18507830554E+02  0.70416005635E+02  0.00000000000E+00 0. -1.
         -3    1    3    3    0  502 -0.42377562480E+03  0.35040002496E+03 -0.35863064818E+02  0.55104638379E+03  0.00000000000E+00 0.  1.
         11    1    5    5    0    0  0.26441576235E+03 -0.16359693440E+02 -0.12052254615E+03  0.29104813877E+03  0.00000000000E+00 0. -1.
        -11    1    5    5    0    0  0.33886668229E+03 -0.51391899970E+02 -0.52268724459E+02  0.34670416107E+03  0.00000000000E+00 0.  1.
          3    1    6    6  503    0 -0.48107467642E+02 -0.21344730986E+03 -0.33155680843E+03  0.39724551570E+03  0.00000000000E+00 0. -1.
         -3    1    6    6    0  503 -0.70284075463E+02 -0.98879346155E+02 -0.28921059029E+03  0.31362356719E+03  0.00000000000E+00 0.  1.
<mgrwt>
<rscale>  0 0.17954522E+04</rscale>
<asrwt>0</asrwt>
<pdfrwt beam="1">  1        2 0.89166913E-01 0.17954522E+04</pdfrwt>
<pdfrwt beam="2">  1       -1 0.21392290E+00 0.17954522E+04</pdfrwt>
<totfact> 0.67452116E+00</totfact>
</mgrwt>
</event>
<event>
12    6  0.1403409E-007  0.2541959E+04  0.7818608E-02  0.8388188E-01
          2   -1    0    0  501    0  0.00000000000E+00  0.00000000000E+00  0.13240032419E+04  0.13240032419E+04  0.00000000000E+00 0. -1.
         -1   -1    0    0    0  501 -0.00000000000E+00 -0.00000000000E+00 -0.12200795777E+04  0.12200795777E+04  0.00000000000E+00 0.  1.
         24    2    1    2    0    0  0.64005617702E+03  0.90479344620E+03  0.10033285843E+03  0.11156612467E+04  0.79437050222E+02 0.  0.
        254    2    1    2    0    0 -0.64005617702E+03 -0.90479344620E+03  0.35908058650E+01  0.14284215729E+04  0.90113939317E+03 0.  0.
         23    2    4    4    0    0 -0.56757682903E+03 -0.47162583366E+03  0.38766576432E+03  0.83815952654E+03  0.87477215715E+02 0.  0.
         23    2    4    4    0    0 -0.72479347987E+02 -0.43316761254E+03 -0.38407495846E+03  0.59026204633E+03  0.89488955661E+02 0.  0.
          4    1    3    3  502    0  0.26609542484E+03  0.31114878532E+03  0.44652411179E+02  0.41184242077E+03  0.00000000000E+00 0. -1.
         -3    1    3    3    0  502  0.37396075218E+03  0.59364466088E+03  0.55680447252E+02  0.70381882596E+03  0.00000000000E+00 0.  1.
         11    1    5    5    0    0 -0.50146840963E+03 -0.37762860746E+03  0.33807117094E+03  0.71299792962E+03  0.00000000000E+00 0.  1.
        -11    1    5    5    0    0 -0.66108419405E+02 -0.93997226201E+02  0.49594593385E+02  0.12516159692E+03  0.00000000000E+00 0. -1.
          2    1    6    6  503    0 -0.89627191272E+02 -0.39148065249E+03 -0.35903125979E+03  0.53869618542E+03  0.00000000000E+00 0. -1.
         -2    1    6    6    0  503  0.17147843286E+02 -0.41686960054E+02 -0.25043698673E+02  0.51565860907E+02  0.00000000000E+00 0.  1.
<mgrwt>
<rscale>  0 0.25419593E+04</rscale>
<asrwt>0</asrwt>
<pdfrwt beam="1">  1        2 0.20369281E+00 0.25419593E+04</pdfrwt>
<pdfrwt beam="2">  1       -1 0.18770455E+00 0.25419593E+04</pdfrwt>
<totfact> 0.29731547E+00</totfact>
</mgrwt>
</event>
<event>
12    6  0.1403409E-007  0.3413391E+04  0.7818608E-02  0.8134627E-01
         -1   -1    0    0    0  501 -0.00000000000E+00  0.00000000000E+00  0.72682039850E+03  0.72682039850E+03  0.00000000000E+00 0.  1.
          2   -1    0    0  501    0  0.00000000000E+00 -0.00000000000E+00 -0.40076061070E+04  0.40076061070E+04  0.00000000000E+00 0. -1.
         24    2    1    2    0    0  0.96542718885E+03  0.12593569634E+04 -0.14986382904E+04  0.21840918009E+04  0.79439607430E+02 0.  0.
        254    2    1    2    0    0 -0.96542718885E+03 -0.12593569634E+04 -0.17821474181E+04  0.25503347046E+04  0.90007114568E+03 0.  0.
         23    2    4    4    0    0  0.37188998705E+02 -0.51981788341E+03 -0.28679470557E+03  0.60184167201E+03  0.91479732715E+02 0.  0.
         23    2    4    4    0    0 -0.10026161876E+04 -0.73953907998E+03 -0.14953527125E+04  0.19484930325E+04  0.91586531082E+02 0.  0.
          4    1    3    3  502    0  0.57068564913E+03  0.68794405647E+03 -0.81680378015E+03  0.12108334114E+04  0.00000000000E+00 0. -1.
         -3    1    3    3    0  502  0.39474153972E+03  0.57141290692E+03 -0.68183451023E+03  0.97325838949E+03  0.00000000000E+00 0.  1.
         11    1    5    5    0    0  0.41862481598E+01 -0.58759062446E+02 -0.69409883743E+02  0.91037816617E+02  0.00000000000E+00 0.  1.
        -11    1    5    5    0    0  0.33002750545E+02 -0.46105882096E+03 -0.21738482182E+03  0.51080385540E+03  0.00000000000E+00 0. -1.
          1    1    6    6  503    0 -0.49901988263E+03 -0.38926433038E+03 -0.82557699567E+03  0.10402523434E+04  0.00000000000E+00 0. -1.
         -1    1    6    6    0  503 -0.50359630492E+03 -0.35027474960E+03 -0.66977571684E+03  0.90824068914E+03  0.00000000000E+00 0.  1.
<mgrwt>
<rscale>  0 0.34133912E+04</rscale>
<asrwt>0</asrwt>
<pdfrwt beam="1">  1        2 0.61655479E+00 0.34133912E+04</pdfrwt>
<pdfrwt beam="2">  1       -1 0.11181852E+00 0.34133912E+04</pdfrwt>
<totfact> 0.23199475E-01</totfact>
</mgrwt>
</event>
<event>
12    6  0.1403409E-007  0.2229849E+04  0.7818608E-02  0.8506106E-01
         -1   -1    0    0    0  501 -0.00000000000E+00  0.00000000000E+00  0.53765152498E+03  0.53765152498E+03  0.00000000000E+00 0.  1.
          2   -1    0    0  501    0  0.00000000000E+00 -0.00000000000E+00 -0.23120112724E+04  0.23120112724E+04  0.00000000000E+00 0. -1.
         24    2    1    2    0    0  0.52916428348E+03 -0.75466779976E+03 -0.56313802439E+03  0.10830412162E+04  0.79470212237E+02 0.  0.
        254    2    1    2    0    0 -0.52916428348E+03  0.75466779976E+03 -0.12112217230E+04  0.17666215811E+04  0.89685864089E+03 0.  0.
         23    2    4    4    0    0 -0.70430857754E+03  0.64769949294E+03 -0.12049463448E+04  0.15414672392E+04  0.93061002463E+02 0.  0.
         23    2    4    4    0    0  0.17514429405E+03  0.10696830682E+03 -0.62753782335E+01  0.22515434194E+03  0.92397807970E+02 0.  0.
          4    1    3    3  502    0  0.33775937709E+03 -0.43335526142E+03 -0.36696232802E+03  0.66071138147E+03  0.00000000000E+00 0. -1.
         -3    1    3    3    0  502  0.19140490639E+03 -0.32131253835E+03 -0.19617569637E+03  0.42232983476E+03  0.00000000000E+00 0.  1.
         11    1    5    5    0    0 -0.33581878695E+03  0.36712079709E+03 -0.65274875969E+03  0.82075141218E+03  0.00000000000E+00 0. -1.
        -11    1    5    5    0    0 -0.36848979059E+03  0.28057869585E+03 -0.55219758510E+03  0.72071582702E+03  0.00000000000E+00 0.  1.
          4    1    6    6  503    0 -0.35013637433E+01  0.59133949133E+01  0.17245098844E+02  0.18563976450E+02  0.00000000000E+00 0. -1.
         -4    1    6    6    0  503  0.17864565780E+03  0.10105491191E+03 -0.23520477078E+02  0.20659036549E+03  0.00000000000E+00 0.  1.
<mgrwt>
<rscale>  0 0.22298488E+04</rscale>
<asrwt>0</asrwt>
<pdfrwt beam="1">  1        2 0.35569404E+00 0.22298488E+04</pdfrwt>
<pdfrwt beam="2">  1       -1 0.82715619E-01 0.22298488E+04</pdfrwt>
<totfact> 0.67242230E+00</totfact>
</mgrwt>
</event>
<event>
12    6  0.1403409E-007  0.1899302E+04  0.7818608E-02  0.8655204E-01
          2   -1    0    0  501    0  0.00000000000E+00  0.00000000000E+00  0.19358138183E+04  0.19358138183E+04  0.00000000000E+00 0. -1.
         -1   -1    0    0    0  501 -0.00000000000E+00 -0.00000000000E+00 -0.46586981244E+03  0.46586981244E+03  0.00000000000E+00 0.  1.
         24    2    1    2    0    0  0.74423091049E+03  0.99571257811E+01  0.52551704760E+03  0.91446063567E+03  0.78046744863E+02 0.  0.
        254    2    1    2    0    0 -0.74423091049E+03 -0.99571257811E+01  0.94442695830E+03  0.14872229951E+04  0.87516350766E+03 0.  0.
         23    2    4    4    0    0 -0.46769732994E+03  0.13028454539E+03  0.50779736948E+01  0.49386964815E+03  0.90369178086E+02 0.  0.
         23    2    4    4    0    0 -0.27653358055E+03 -0.14024167117E+03  0.93934898460E+03  0.99335334696E+03  0.90751361017E+02 0.  0.
          4    1    3    3  502    0  0.35769344853E+03  0.77739351967E+01  0.30022173765E+03  0.46705259762E+03  0.00000000000E+00 0. -1.
         -3    1    3    3    0  502  0.38653746197E+03  0.21831905844E+01  0.22529530995E+03  0.44740803805E+03  0.00000000000E+00 0.  1.
         11    1    5    5    0    0 -0.95521523958E+02  0.43019619214E+02 -0.32677864324E+02  0.10974011114E+03  0.00000000000E+00 0.  1.
        -11    1    5    5    0    0 -0.37217580598E+03  0.87264926178E+02  0.37755838019E+02  0.38412953701E+03  0.00000000000E+00 0. -1.
          4    1    6    6  503    0 -0.59997728930E+02 -0.79170310097E+01  0.28856296455E+03  0.29484062028E+03  0.00000000000E+00 0. -1.
         -4    1    6    6    0  503 -0.21653585162E+03 -0.13232464016E+03  0.65078602005E+03  0.69851272668E+03  0.00000000000E+00 0.  1.
<mgrwt>
<rscale>  0 0.18993022E+04</rscale>
<asrwt>0</asrwt>
<pdfrwt beam="1">  1        2 0.29781751E+00 0.18993022E+04</pdfrwt>
<pdfrwt beam="2">  1       -1 0.71672280E-01 0.18993022E+04</pdfrwt>
<totfact> 0.15202161E+01</totfact>
</mgrwt>
</event>
<event>
12    6  0.1403409E-007  0.3229066E+04  0.7818608E-02  0.8181183E-01
         -1   -1    0    0    0  501 -0.00000000000E+00  0.00000000000E+00  0.11726126417E+04  0.11726126417E+04  0.00000000000E+00 0.  1.
          2   -1    0    0  501    0  0.00000000000E+00 -0.00000000000E+00 -0.22229987617E+04  0.22229987617E+04  0.00000000000E+00 0. -1.
         24    2    1    2    0    0  0.93221280331E+03  0.11164838026E+04 -0.15485365780E+03  0.14649378369E+04  0.80662373426E+02 0.  0.
        254    2    1    2    0    0 -0.93221280331E+03 -0.11164838026E+04 -0.89553246219E+03  0.19306735665E+04  0.89998068716E+03 0.  0.
         23    2    4    4    0    0 -0.48931970462E+03 -0.62910315780E+03 -0.97355017591E+03  0.12614234768E+04  0.90469256657E+02 0.  0.
         23    2    4    4    0    0 -0.44289309870E+03 -0.48738064481E+03  0.78017713717E+02  0.66925008964E+03  0.90081790713E+02 0.  0.
          2    1    3    3  502    0  0.17335586020E+03  0.17952582357E+03 -0.51305652094E+02  0.25478234933E+03  0.00000000000E+00 0. -1.
         -1    1    3    3    0  502  0.75885694311E+03  0.93695797904E+03 -0.10354800570E+03  0.12101554876E+04  0.00000000000E+00 0.  1.
         11    1    5    5    0    0 -0.46034332132E+03 -0.56066584520E+03 -0.90897357685E+03  0.11629682398E+04  0.00000000000E+00 0.  1.
        -11    1    5    5    0    0 -0.28976383296E+02 -0.68437312596E+02 -0.64576599051E+02  0.98455236983E+02  0.00000000000E+00 0. -1.
          4    1    6    6  503    0 -0.41934989296E+02 -0.94229699298E+02  0.11828088551E+02  0.10381562135E+03  0.00000000000E+00 0. -1.
         -4    1    6    6    0  503 -0.40095810940E+03 -0.39315094551E+03  0.66189625166E+02  0.56543446829E+03  0.00000000000E+00 0.  1.
<mgrwt>
<rscale>  0 0.32290658E+04</rscale>
<asrwt>0</asrwt>
<pdfrwt beam="1">  1        2 0.34199981E+00 0.32290658E+04</pdfrwt>
<pdfrwt beam="2">  1       -1 0.18040195E+00 0.32290658E+04</pdfrwt>
<totfact> 0.98957621E-01</totfact>
</mgrwt>
</event>
<event>
12    6  0.1403409E-007  0.1185737E+04  0.7818608E-02  0.9125433E-01
          2   -1    0    0  501    0  0.00000000000E+00  0.00000000000E+00  0.21516659673E+04  0.21516659673E+04  0.00000000000E+00 0. -1.
         -1   -1    0    0    0  501 -0.00000000000E+00 -0.00000000000E+00 -0.16335867904E+03  0.16335867904E+03  0.00000000000E+00 0.  1.
         24    2    1    2    0    0  0.18245802844E+03  0.32951759193E+02  0.70005159519E+03  0.72866879445E+03  0.80679771352E+02 0.  0.
        254    2    1    2    0    0 -0.18245802844E+03 -0.32951759193E+02  0.12882556930E+04  0.15863558519E+04  0.90694289097E+03 0.  0.
         23    2    4    4    0    0  0.87545893487E+02  0.30300708010E+03  0.10180523300E+04  0.10696889699E+04  0.91248953412E+02 0.  0.
         23    2    4    4    0    0 -0.27000392192E+03 -0.33595883930E+03  0.27020336301E+03  0.51666688200E+03  0.90356792853E+02 0.  0.
          4    1    3    3  502    0  0.98632618417E+02 -0.22211020136E+02  0.38273514422E+03  0.39586350356E+03  0.00000000000E+00 0. -1.
         -3    1    3    3    0  502  0.83825410020E+02  0.55162779329E+02  0.31731645097E+03  0.33280529089E+03  0.00000000000E+00 0.  1.
         11    1    5    5    0    0  0.21142250461E+02  0.78186273250E+02  0.14918778599E+03  0.16975595297E+03  0.00000000000E+00 0. -1.
        -11    1    5    5    0    0  0.66403643026E+02  0.22482080685E+03  0.86886454404E+03  0.89993301689E+03  0.00000000000E+00 0.  1.
          3    1    6    6  503    0  0.68805278394E+01 -0.37065761600E+01  0.36639328244E+01  0.86316147921E+01  0.00000000000E+00 0. -1.
         -3    1    6    6    0  503 -0.27688444976E+03 -0.33225226314E+03  0.26653943019E+03  0.50803526721E+03  0.00000000000E+00 0.  1.
<mgrwt>
<rscale>  0 0.11857374E+04</rscale>
<asrwt>0</asrwt>
<pdfrwt beam="1">  1        2 0.33102551E+00 0.11857374E+04</pdfrwt>
<pdfrwt beam="2">  1       -1 0.25132106E-01 0.11857374E+04</pdfrwt>
<totfact> 0.86076592E+01</totfact>
</mgrwt>
</event>
<event>
12    6  0.1403409E-007  0.1656233E+04  0.7818608E-02  0.8786728E-01
         -1   -1    0    0    0  501 -0.00000000000E+00  0.00000000000E+00  0.85100055916E+03  0.85100055916E+03  0.00000000000E+00 0.  1.
          2   -1    0    0  501    0  0.00000000000E+00 -0.00000000000E+00 -0.80584748390E+03  0.80584748390E+03  0.00000000000E+00 0. -1.
         24    2    1    2    0    0 -0.40853038738E+02 -0.38491708895E+02 -0.56674048770E+03  0.57621475010E+03  0.87624627849E+02 0.  0.
        254    2    1    2    0    0  0.40853038738E+02  0.38491708895E+02  0.61189356296E+03  0.10806332930E+04  0.88893419276E+03 0.  0.
         23    2    4    4    0    0 -0.59741600676E+01 -0.19154673803E+02 -0.22143814576E+03  0.23954928183E+03  0.89142660450E+02 0.  0.
         23    2    4    4    0    0  0.46827198806E+02  0.57646382698E+02  0.83333170872E+03  0.84108401114E+03  0.86398408877E+02 0.  0.
          4    1    3    3  502    0 -0.65002307455E+02 -0.20130296545E+02 -0.46793244898E+03  0.47285442329E+03  0.00000000000E+00 0. -1.
         -3    1    3    3    0  502  0.24149268717E+02 -0.18361412350E+02 -0.98808038718E+02  0.10336032681E+03  0.00000000000E+00 0.  1.
         11    1    5    5    0    0 -0.42624901403E+01 -0.55075883954E+02 -0.14118168039E+03  0.15160405236E+03  0.00000000000E+00 0. -1.
        -11    1    5    5    0    0 -0.17116699273E+01  0.35921210151E+02 -0.80256465369E+02  0.87945229468E+02  0.00000000000E+00 0.  1.
          3    1    6    6  503    0 -0.15480239362E+02  0.50494209416E+01  0.35036887002E+02  0.38635707750E+02  0.00000000000E+00 0. -1.
         -3    1    6    6    0  503  0.62307438168E+02  0.52596961756E+02  0.79829482171E+03  0.80244830339E+03  0.00000000000E+00 0.  1.
<mgrwt>
<rscale>  0 0.16562327E+04</rscale>
<asrwt>0</asrwt>
<pdfrwt beam="1">  1        2 0.12397654E+00 0.16562327E+04</pdfrwt>
<pdfrwt beam="2">  1       -1 0.13092316E+00 0.16562327E+04</pdfrwt>
<totfact> 0.18525483E+01</totfact>
</mgrwt>
</event>
<event>
12    6  0.1403409E-007  0.2456821E+04  0.7818608E-02  0.8418532E-01
         -1   -1    0    0    0  501 -0.00000000000E+00  0.00000000000E+00  0.61035746667E+03  0.61035746667E+03  0.00000000000E+00 0.  1.
          2   -1    0    0  501    0  0.00000000000E+00 -0.00000000000E+00 -0.24723092021E+04  0.24723092021E+04  0.00000000000E+00 0. -1.
         24    2    1    2    0    0 -0.85291039758E+03 -0.59127607033E+03 -0.10928654160E+04  0.15102223722E+04  0.96712244408E+02 0.  0.
        254    2    1    2    0    0  0.85291039758E+03  0.59127607033E+03 -0.76908631942E+03  0.15724442966E+04  0.89667372083E+03 0.  0.
         23    2    4    4    0    0  0.26398521038E+03  0.51626686518E+03  0.11875872341E+02  0.58717947538E+03  0.91755286360E+02 0.  0.
         23    2    4    4    0    0  0.58892518719E+03  0.75009205144E+02 -0.78096219176E+03  0.98526482124E+03  0.91572736398E+02 0.  0.
          2    1    3    3  502    0 -0.48754020854E+03 -0.38943546949E+03 -0.68563710651E+03  0.92706724765E+03  0.00000000000E+00 0. -1.
         -1    1    3    3    0  502 -0.36537018903E+03 -0.20184060083E+03 -0.40722830952E+03  0.58315512452E+03  0.00000000000E+00 0.  1.
         11    1    5    5    0    0  0.13171537653E+03  0.29257111553E+03  0.49316219966E+02  0.32462114473E+03  0.00000000000E+00 0.  1.
        -11    1    5    5    0    0  0.13226983385E+03  0.22369574965E+03 -0.37440347625E+02  0.26255833065E+03  0.00000000000E+00 0. -1.
          4    1    6    6  503    0  0.21830828625E+02  0.12363570620E+02 -0.65664601892E+02  0.70294259357E+02  0.00000000000E+00 0. -1.
         -4    1    6    6    0  503  0.56709435857E+03  0.62645634524E+02 -0.71529758987E+03  0.91497056189E+03  0.00000000000E+00 0.  1.
<mgrwt>
<rscale>  0 0.24568210E+04</rscale>
<asrwt>0</asrwt>
<pdfrwt beam="1">  1        2 0.38035526E+00 0.24568210E+04</pdfrwt>
<pdfrwt beam="2">  1       -1 0.93901150E-01 0.24568210E+04</pdfrwt>
<totfact> 0.40412012E+00</totfact>
</mgrwt>
</event>
<event>
12    6  0.1403409E-007  0.4175545E+04  0.7818608E-02  0.7970040E-01
         -1   -1    0    0    0  501 -0.00000000000E+00  0.00000000000E+00  0.15482924529E+04  0.15482924529E+04  0.00000000000E+00 0.  1.
          2   -1    0    0  501    0  0.00000000000E+00 -0.00000000000E+00 -0.28152268850E+04  0.28152268850E+04  0.00000000000E+00 0. -1.
         24    2    1    2    0    0  0.37818900522E+01  0.19645732121E+04 -0.93727088623E+03  0.21781683774E+04  0.79865875339E+02 0.  0.
        254    2    1    2    0    0 -0.37818900522E+01 -0.19645732121E+04 -0.32966354588E+03  0.21853509604E+04  0.89862036384E+03 0.  0.
         23    2    4    4    0    0 -0.80758099992E+02 -0.19879083820E+04 -0.41641327524E+03  0.20347246966E+04  0.91667709891E+02 0.  0.
         23    2    4    4    0    0  0.76976209940E+02  0.23335169937E+02  0.86749729367E+02  0.15062626382E+03  0.93235662465E+02 0.  0.
          4    1    3    3  502    0  0.39022794535E+02  0.99724818092E+03 -0.49213853519E+03  0.11127565101E+04  0.00000000000E+00 0. -1.
         -3    1    3    3    0  502 -0.35240904483E+02  0.96732503115E+03 -0.44513235104E+03  0.10654118674E+04  0.00000000000E+00 0.  1.
         11    1    5    5    0    0 -0.69192527955E+02 -0.65562388213E+03 -0.13047043912E+03  0.67205120060E+03  0.00000000000E+00 0. -1.
        -11    1    5    5    0    0 -0.11565572037E+02 -0.13322844999E+04 -0.28594283613E+03  0.13626734960E+04  0.00000000000E+00 0.  1.
          2    1    6    6  503    0  0.83780464512E+02  0.11075247052E+01  0.29486821058E+02  0.88824914640E+02  0.00000000000E+00 0. -1.
         -2    1    6    6    0  503 -0.68042545718E+01  0.22227645232E+02  0.57262908308E+02  0.61801349182E+02  0.00000000000E+00 0.  1.
<mgrwt>
<rscale>  0 0.41755453E+04</rscale>
<asrwt>0</asrwt>
<pdfrwt beam="1">  1        2 0.43311182E+00 0.41755453E+04</pdfrwt>
<pdfrwt beam="2">  1       -1 0.23819884E+00 0.41755453E+04</pdfrwt>
<totfact> 0.16662350E-01</totfact>
</mgrwt>
</event>
<event>
12    6  0.1403409E-007  0.1284682E+04  0.7818608E-02  0.9041801E-01
          2   -1    0    0  501    0  0.00000000000E+00  0.00000000000E+00  0.23184863703E+04  0.23184863703E+04  0.00000000000E+00 0. -1.
         -1   -1    0    0    0  501 -0.00000000000E+00 -0.00000000000E+00 -0.17796191018E+03  0.17796191018E+03  0.00000000000E+00 0.  1.
         24    2    1    2    0    0  0.22517321716E+03  0.22775812943E+03  0.48667611957E+03  0.58804526940E+03  0.79792545099E+02 0.  0.
        254    2    1    2    0    0 -0.22517321716E+03 -0.22775812943E+03  0.16538483406E+04  0.19084030111E+04  0.89677810852E+03 0.  0.
         23    2    4    4    0    0 -0.46515416895E+03 -0.23288442727E+03  0.50304445876E+03  0.72928267066E+03  0.90531369608E+02 0.  0.
         23    2    4    4    0    0  0.23998095179E+03  0.51262978463E+01  0.11508038818E+04  0.11791203405E+04  0.91422462724E+02 0.  0.
          2    1    3    3  502    0  0.86934945140E+02  0.10863005179E+03  0.27770983566E+03  0.31061378859E+03  0.00000000000E+00 0. -1.
         -1    1    3    3    0  502  0.13823827202E+03  0.11912807764E+03  0.20896628391E+03  0.27743148081E+03  0.00000000000E+00 0.  1.
         11    1    5    5    0    0 -0.12873014490E+03 -0.95976788290E+02  0.11323281845E+03  0.19648069949E+03  0.00000000000E+00 0.  1.
        -11    1    5    5    0    0 -0.33642402405E+03 -0.13690763898E+03  0.38981164030E+03  0.53280197117E+03  0.00000000000E+00 0. -1.
          4    1    6    6  503    0  0.21083943472E+03 -0.17975719151E+02  0.84626080535E+03  0.87231516345E+03  0.00000000000E+00 0. -1.
         -4    1    6    6    0  503  0.29141517073E+02  0.23102016997E+02  0.30454307648E+03  0.30680517701E+03  0.00000000000E+00 0.  1.
<mgrwt>
<rscale>  0 0.12846825E+04</rscale>
<asrwt>0</asrwt>
<pdfrwt beam="1">  1        2 0.35669019E+00 0.12846825E+04</pdfrwt>
<pdfrwt beam="2">  1       -1 0.27378757E-01 0.12846825E+04</pdfrwt>
<totfact> 0.59398028E+01</totfact>
</mgrwt>
</event>
<event>
12    6  0.1403409E-007  0.1729488E+04  0.7818608E-02  0.8744723E-01
          2   -1    0    0  501    0  0.00000000000E+00  0.00000000000E+00  0.10365791535E+04  0.10365791535E+04  0.00000000000E+00 0. -1.
         -1   -1    0    0    0  501 -0.00000000000E+00 -0.00000000000E+00 -0.72139433685E+03  0.72139433685E+03  0.00000000000E+00 0.  1.
         24    2    1    2    0    0  0.40059387429E+03 -0.10744918926E+03  0.59480637423E+03  0.72938923205E+03  0.78697195762E+02 0.  0.
        254    2    1    2    0    0 -0.40059387429E+03  0.10744918926E+03 -0.27962155757E+03  0.10285842583E+04  0.89876391815E+03 0.  0.
         23    2    4    4    0    0  0.96478221554E+02 -0.28440674109E+03  0.34982233854E+02  0.31582567463E+03  0.91251621691E+02 0.  0.
         23    2    4    4    0    0 -0.49707209584E+03  0.39185593035E+03 -0.31460379143E+03  0.71275858366E+03  0.91747012968E+02 0.  0.
          4    1    3    3  502    0  0.13877812201E+03  0.69415857607E+00  0.18806072795E+03  0.23372352556E+03  0.00000000000E+00 0. -1.
         -3    1    3    3    0  502  0.26181575228E+03 -0.10814334784E+03  0.40674564628E+03  0.49566570649E+03  0.00000000000E+00 0.  1.
         11    1    5    5    0    0 -0.22419312212E+01 -0.69178846211E+02 -0.21341738714E+02  0.72430717448E+02  0.00000000000E+00 0.  1.
        -11    1    5    5    0    0  0.98720152775E+02 -0.21522789488E+03  0.56323972568E+02  0.24339495719E+03  0.00000000000E+00 0. -1.
          2    1    6    6  503    0 -0.37689306105E+02  0.32585170419E+01 -0.16708007557E+02  0.41355280733E+02  0.00000000000E+00 0.  1.
         -2    1    6    6    0  503 -0.45938278974E+03  0.38859741331E+03 -0.29789578387E+03  0.67140330293E+03  0.00000000000E+00 0. -1.
<mgrwt>
<rscale>  0 0.17294882E+04</rscale>
<asrwt>0</asrwt>
<pdfrwt beam="1">  1        2 0.15947372E+00 0.17294882E+04</pdfrwt>
<pdfrwt beam="2">  1       -1 0.11098374E+00 0.17294882E+04</pdfrwt>
<totfact> 0.19319974E+01</totfact>
</mgrwt>
</event>
<event>
12    6  0.1403409E-007  0.1727235E+04  0.7818608E-02  0.8745982E-01
          2   -1    0    0  501    0  0.00000000000E+00  0.00000000000E+00  0.27014109835E+04  0.27014109835E+04  0.00000000000E+00 0. -1.
         -1   -1    0    0    0  501 -0.00000000000E+00 -0.00000000000E+00 -0.27609085716E+03  0.27609085716E+03  0.00000000000E+00 0.  1.
         24    2    1    2    0    0  0.17819673872E+03  0.57768527562E+03  0.11645675962E+04  0.13145434173E+04  0.79576091655E+02 0.  0.
        254    2    1    2    0    0 -0.17819673872E+03 -0.57768527562E+03  0.12607525301E+04  0.16629584234E+04  0.90025519734E+03 0.  0.
         23    2    4    4    0    0  0.31006021471E+03 -0.29641545507E+01  0.43105758812E+03  0.53794595178E+03  0.86192109868E+02 0.  0.
         23    2    4    4    0    0 -0.48825695343E+03 -0.57472112107E+03  0.82969494200E+03  0.11250124716E+04  0.92521051153E+02 0.  0.
          2    1    3    3  502    0  0.16667852347E+01  0.58779945168E+02  0.15504741323E+03  0.16582388391E+03  0.00000000000E+00 0. -1.
         -1    1    3    3    0  502  0.17652995349E+03  0.51890533046E+03  0.10095201830E+04  0.11487195334E+04  0.00000000000E+00 0.  1.
         11    1    5    5    0    0  0.22691198203E+02 -0.16826799933E+02  0.14669587967E+02  0.31831250101E+02  0.00000000000E+00 0. -1.
        -11    1    5    5    0    0  0.28736901650E+03  0.13862645382E+02  0.41638800016E+03  0.50611470168E+03  0.00000000000E+00 0.  1.
          1    1    6    6  503    0 -0.36151807006E+02 -0.63861378308E+02  0.48910807024E+02  0.88190111878E+02  0.00000000000E+00 0. -1.
         -1    1    6    6    0  503 -0.45210514642E+03 -0.51085974276E+03  0.78078413498E+03  0.10368223597E+04  0.00000000000E+00 0.  1.
<mgrwt>
<rscale>  0 0.17272346E+04</rscale>
<asrwt>0</asrwt>
<pdfrwt beam="1">  1        2 0.41560167E+00 0.17272346E+04</pdfrwt>
<pdfrwt beam="2">  1       -1 0.42475518E-01 0.17272346E+04</pdfrwt>
<totfact> 0.15664743E+01</totfact>
</mgrwt>
</event>
<event>
12    6  0.1403409E-007  0.2222058E+04  0.7818608E-02  0.8509303E-01
         -1   -1    0    0    0  501 -0.00000000000E+00  0.00000000000E+00  0.61875041738E+03  0.61875041738E+03  0.00000000000E+00 0.  1.
          2   -1    0    0  501    0  0.00000000000E+00 -0.00000000000E+00 -0.19949641419E+04  0.19949641419E+04  0.00000000000E+00 0. -1.
         24    2    1    2    0    0 -0.43568942306E+03 -0.13144014329E+03 -0.15288819515E+04  0.15970862330E+04  0.78119327601E+02 0.  0.
        254    2    1    2    0    0  0.43568942306E+03  0.13144014329E+03  0.15266822701E+03  0.10166283263E+04  0.89617173666E+03 0.  0.
         23    2    4    4    0    0  0.63649451644E+03 -0.12888578193E+03  0.37542535100E+02  0.65668447187E+03  0.89934639720E+02 0.  0.
         23    2    4    4    0    0 -0.20080509338E+03  0.26032592522E+03  0.11512569191E+03  0.35994385438E+03  0.90627702747E+02 0.  0.
          4    1    3    3  502    0 -0.58354525958E+02 -0.29635982679E+02 -0.31904553986E+03  0.32568942058E+03  0.00000000000E+00 0. -1.
         -3    1    3    3    0  502 -0.37733489710E+03 -0.10180416061E+03 -0.12098364117E+04  0.12713968124E+04  0.00000000000E+00 0.  1.
         11    1    5    5    0    0  0.55802841686E+03 -0.12365263546E+03  0.50251869011E+01  0.57158633712E+03  0.00000000000E+00 0. -1.
        -11    1    5    5    0    0  0.78466099579E+02 -0.52331464708E+01  0.32517348199E+02  0.85098134756E+02  0.00000000000E+00 0.  1.
          2    1    6    6  503    0 -0.14690186393E+03  0.22628408978E+03  0.12148048177E+03  0.29587523446E+03  0.00000000000E+00 0. -1.
         -2    1    6    6    0  503 -0.53903229450E+02  0.34041835436E+02 -0.63547898666E+01  0.64068619926E+02  0.00000000000E+00 0.  1.
<mgrwt>
<rscale>  0 0.22220575E+04</rscale>
<asrwt>0</asrwt>
<pdfrwt beam="1">  1        2 0.30691756E+00 0.22220575E+04</pdfrwt>
<pdfrwt beam="2">  1       -1 0.95192374E-01 0.22220575E+04</pdfrwt>
<totfact> 0.74429798E+00</totfact>
</mgrwt>
</event>
<event>
12    6  0.1403409E-007  0.2818287E+04  0.7818608E-02  0.8297613E-01
         -1   -1    0    0    0  501 -0.00000000000E+00  0.00000000000E+00  0.10312541116E+04  0.10312541116E+04  0.00000000000E+00 0.  1.
          2   -1    0    0  501    0  0.00000000000E+00 -0.00000000000E+00 -0.19255059642E+04  0.19255059642E+04  0.00000000000E+00 0. -1.
         24    2    1    2    0    0  0.11744580974E+04 -0.29455432582E+03 -0.19687996734E+02  0.12134077746E+04  0.76529319837E+02 0.  0.
        254    2    1    2    0    0 -0.11744580974E+04  0.29455432582E+03 -0.87456385586E+03  0.17433523012E+04  0.89905574606E+03 0.  0.
         23    2    4    4    0    0 -0.65487844443E+03  0.17183228453E+03  0.35672996702E+02  0.68403359495E+03  0.90759491733E+02 0.  0.
         23    2    4    4    0    0 -0.51957965298E+03  0.12272204129E+03 -0.91023685256E+03  0.10593187062E+04  0.92743077088E+02 0.  0.
          2    1    3    3  502    0  0.20463786356E+03 -0.28288081969E+02 -0.21484251236E+02  0.20769796300E+03  0.00000000000E+00 0. -1.
         -1    1    3    3    0  502  0.96982023384E+03 -0.26626624385E+03  0.17962545017E+01  0.10057098116E+04  0.00000000000E+00 0.  1.
         11    1    5    5    0    0 -0.44656520536E+03  0.78233013359E+02  0.44077528859E+02  0.45550380412E+03  0.00000000000E+00 0. -1.
        -11    1    5    5    0    0 -0.20831323907E+03  0.93599271173E+02 -0.84045321567E+01  0.22852979083E+03  0.00000000000E+00 0.  1.
          1    1    6    6  503    0 -0.48163325109E+03  0.13505105071E+03 -0.86300207996E+03  0.99748782693E+03  0.00000000000E+00 0. -1.
         -1    1    6    6    0  503 -0.37946401890E+02 -0.12329009419E+02 -0.47234772602E+02  0.61830879279E+02  0.00000000000E+00 0.  1.
<mgrwt>
<rscale>  0 0.28182874E+04</rscale>
<asrwt>0</asrwt>
<pdfrwt beam="1">  1        2 0.29623168E+00 0.28182874E+04</pdfrwt>
<pdfrwt beam="2">  1       -1 0.15865448E+00 0.28182874E+04</pdfrwt>
<totfact> 0.21739607E+00</totfact>
</mgrwt>
</event>
<event>
12    6  0.1403409E-007  0.1732604E+04  0.7818608E-02  0.8742985E-01
         -1   -1    0    0    0  501 -0.00000000000E+00  0.00000000000E+00  0.35613544557E+03  0.35613544557E+03  0.00000000000E+00 0.  1.
          2   -1    0    0  501    0  0.00000000000E+00 -0.00000000000E+00 -0.21072852157E+04  0.21072852157E+04  0.00000000000E+00 0. -1.
         24    2    1    2    0    0 -0.55399703096E+03 -0.29776600292E+03 -0.53844444436E+03  0.83182005298E+03  0.80155337085E+02 0.  0.
        254    2    1    2    0    0  0.55399703096E+03  0.29776600292E+03 -0.12127053258E+04  0.16316006083E+04  0.89212613180E+03 0.  0.
         23    2    4    4    0    0  0.43209350726E+03  0.59567822692E+03 -0.70308458801E+03  0.10218476757E+04  0.91144859817E+02 0.  0.
         23    2    4    4    0    0  0.12190352370E+03 -0.29791222400E+03 -0.50962073777E+03  0.60975293257E+03  0.92049878407E+02 0.  0.
          2    1    3    3  502    0 -0.20525520870E+03 -0.13614027295E+03 -0.16915978656E+03  0.29879576303E+03  0.00000000000E+00 0. -1.
         -1    1    3    3    0  502 -0.34874182226E+03 -0.16162572996E+03 -0.36928465781E+03  0.53302428995E+03  0.00000000000E+00 0.  1.
         11    1    5    5    0    0  0.35604237390E+03  0.49206484480E+03 -0.62477336206E+03  0.87134134381E+03  0.00000000000E+00 0.  1.
        -11    1    5    5    0    0  0.76051133361E+02  0.10361338212E+03 -0.78311225955E+02  0.15050633193E+03  0.00000000000E+00 0. -1.
          2    1    6    6  503    0 -0.12259964914E+02 -0.56973759958E+02 -0.10503932833E+03  0.12012317245E+03  0.00000000000E+00 0. -1.
         -2    1    6    6    0  503  0.13416348862E+03 -0.24093846404E+03 -0.40458140945E+03  0.48962976013E+03  0.00000000000E+00 0.  1.
<mgrwt>
<rscale>  0 0.17326038E+04</rscale>
<asrwt>0</asrwt>
<pdfrwt beam="1">  1        2 0.32419773E+00 0.17326038E+04</pdfrwt>
<pdfrwt beam="2">  1       -1 0.54790068E-01 0.17326038E+04</pdfrwt>
<totfact> 0.21183818E+01</totfact>
</mgrwt>
</event>
<event>
12    6  0.1403409E-007  0.2746935E+04  0.7818608E-02  0.8319935E-01
          2   -1    0    0  501    0  0.00000000000E+00  0.00000000000E+00  0.15527885101E+04  0.15527885101E+04  0.00000000000E+00 0. -1.
         -1   -1    0    0    0  501 -0.00000000000E+00 -0.00000000000E+00 -0.12148549791E+04  0.12148549791E+04  0.00000000000E+00 0.  1.
         24    2    1    2    0    0 -0.66844198360E+03  0.82721619847E+03  0.76056098180E+03  0.13099603427E+04  0.80260625065E+02 0.  0.
        254    2    1    2    0    0  0.66844198360E+03 -0.82721619847E+03 -0.42262745078E+03  0.14576831466E+04  0.90284266029E+03 0.  0.
         23    2    4    4    0    0  0.73635550191E+03 -0.96239241007E+03 -0.33771605713E+03  0.12613132406E+04  0.91871537644E+02 0.  0.
         23    2    4    4    0    0 -0.67913518303E+02  0.13517621160E+03 -0.84911393649E+02  0.19636990602E+03  0.92012722324E+02 0.  0.
          2    1    3    3  502    0 -0.24195937385E+03  0.35279334592E+03  0.33066758718E+03  0.54069264534E+03  0.00000000000E+00 0. -1.
         -1    1    3    3    0  502 -0.42648260976E+03  0.47442285255E+03  0.42989339462E+03  0.76926769735E+03  0.00000000000E+00 0.  1.
         11    1    5    5    0    0  0.17332129304E+03 -0.19298309330E+03 -0.39711725629E+02  0.26241144425E+03  0.00000000000E+00 0. -1.
        -11    1    5    5    0    0  0.56303420887E+03 -0.76940931677E+03 -0.29800433150E+03  0.99890179631E+03  0.00000000000E+00 0.  1.
          4    1    6    6  503    0 -0.59172123656E+02  0.35125706209E+02 -0.68182939404E+01  0.69149436635E+02  0.00000000000E+00 0. -1.
         -4    1    6    6    0  503 -0.87413946472E+01  0.10005050539E+03 -0.78093099709E+02  0.12722046939E+03  0.00000000000E+00 0.  1.
<mgrwt>
<rscale>  0 0.27469349E+04</rscale>
<asrwt>0</asrwt>
<pdfrwt beam="1">  1        2 0.23889054E+00 0.27469349E+04</pdfrwt>
<pdfrwt beam="2">  1       -1 0.18690077E+00 0.27469349E+04</pdfrwt>
<totfact> 0.21919165E+00</totfact>
</mgrwt>
</event>
<event>
12    6  0.1403409E-007  0.1152270E+04  0.7818608E-02  0.9155692E-01
         -1   -1    0    0    0  501 -0.00000000000E+00  0.00000000000E+00  0.31902176741E+03  0.31902176741E+03  0.00000000000E+00 0.  1.
          2   -1    0    0  501    0  0.00000000000E+00 -0.00000000000E+00 -0.10404658651E+04  0.10404658651E+04  0.00000000000E+00 0. -1.
         24    2    1    2    0    0  0.75569820792E+02  0.18652897884E+03 -0.22683248870E+03  0.31355494477E+03  0.79748778663E+02 0.  0.
        254    2    1    2    0    0 -0.75569820792E+02 -0.18652897884E+03 -0.49461160903E+03  0.10459326878E+04  0.89935014641E+03 0.  0.
         23    2    4    4    0    0  0.30568542178E+03 -0.10100427473E+03  0.80988923079E+02  0.34435326174E+03  0.91512417753E+02 0.  0.
         23    2    4    4    0    0 -0.38125524258E+03 -0.85524704112E+02 -0.57560053211E+03  0.70157942605E+03  0.90706579114E+02 0.  0.
          4    1    3    3  502    0  0.18430167067E+02  0.11115600918E+03 -0.16760659249E+03  0.20195865736E+03  0.00000000000E+00 0. -1.
         -3    1    3    3    0  502  0.57139653725E+02  0.75372969653E+02 -0.59225896216E+02  0.11159628741E+03  0.00000000000E+00 0.  1.
         11    1    5    5    0    0  0.12292810062E+03 -0.60140252970E+01  0.11492184304E+00  0.12307517877E+03  0.00000000000E+00 0.  1.
        -11    1    5    5    0    0  0.18275732117E+03 -0.94990249428E+02  0.80874001236E+02  0.22127808297E+03  0.00000000000E+00 0. -1.
          2    1    6    6  503    0 -0.15702809883E+03  0.96942056925E+01 -0.23636528527E+03  0.28393722815E+03  0.00000000000E+00 0. -1.
         -2    1    6    6    0  503 -0.22422714375E+03 -0.95218909805E+02 -0.33923524684E+03  0.41764219791E+03  0.00000000000E+00 0.  1.
<mgrwt>
<rscale>  0 0.11522695E+04</rscale>
<asrwt>0</asrwt>
<pdfrwt beam="1">  1        2 0.16007167E+00 0.11522695E+04</pdfrwt>
<pdfrwt beam="2">  1       -1 0.49080272E-01 0.11522695E+04</pdfrwt>
<totfact> 0.11136193E+02</totfact>
</mgrwt>
</event>
<event>
12    6  0.1403409E-007  0.2615706E+04  0.7818608E-02  0.8362886E-01
         -1   -1    0    0    0  501 -0.00000000000E+00  0.00000000000E+00  0.68191468071E+03  0.68191468071E+03  0.00000000000E+00 0.  1.
          2   -1    0    0  501    0  0.00000000000E+00 -0.00000000000E+00 -0.25083482153E+04  0.25083482153E+04  0.00000000000E+00 0. -1.
         24    2    1    2    0    0  0.71211357383E+03 -0.87791467943E+03 -0.10744055476E+04  0.15614635350E+04  0.77337984814E+02 0.  0.
        254    2    1    2    0    0 -0.71211357383E+03  0.87791467943E+03 -0.75202798694E+03  0.16287993610E+04  0.89977849435E+03 0.  0.
         23    2    4    4    0    0 -0.85298816610E+03  0.80423967278E+03 -0.82005290784E+03  0.14336539124E+04  0.92122234087E+02 0.  0.
         23    2    4    4    0    0  0.14087459228E+03  0.73675006656E+02  0.68024920908E+02  0.19514544864E+03  0.90447216121E+02 0.  0.
          4    1    3    3  502    0  0.31813416060E+03 -0.37464742344E+03 -0.51794208933E+03  0.71402664091E+03  0.00000000000E+00 0. -1.
         -3    1    3    3    0  502  0.39397941323E+03 -0.50326725599E+03 -0.55646345827E+03  0.84743689405E+03  0.00000000000E+00 0.  1.
         11    1    5    5    0    0 -0.26204205197E+03  0.26720692962E+03 -0.31172844448E+03  0.48707309856E+03  0.00000000000E+00 0. -1.
        -11    1    5    5    0    0 -0.59094611413E+03  0.53703274315E+03 -0.50832446336E+03  0.94658081381E+03  0.00000000000E+00 0.  1.
          3    1    6    6  503    0  0.36670778765E+02 -0.17712808850E+02  0.32396491638E+02  0.52038661426E+02  0.00000000000E+00 0. -1.
         -3    1    6    6    0  503  0.10420381351E+03  0.91387815506E+02  0.35628429270E+02  0.14310678721E+03  0.00000000000E+00 0.  1.
<mgrwt>
<rscale>  0 0.26157060E+04</rscale>
<asrwt>0</asrwt>
<pdfrwt beam="1">  1        2 0.38589973E+00 0.26157060E+04</pdfrwt>
<pdfrwt beam="2">  1       -1 0.10490995E+00 0.26157060E+04</pdfrwt>
<totfact> 0.29494073E+00</totfact>
</mgrwt>
</event>
<event>
12    6  0.1403409E-007  0.1617391E+04  0.7818608E-02  0.8809935E-01
          2   -1    0    0  501    0  0.00000000000E+00  0.00000000000E+00  0.14674821176E+04  0.14674821176E+04  0.00000000000E+00 0. -1.
         -1   -1    0    0    0  501 -0.00000000000E+00 -0.00000000000E+00 -0.44565326487E+03  0.44565326487E+03  0.00000000000E+00 0.  1.
         24    2    1    2    0    0 -0.51664324011E+02 -0.51034105564E+03  0.10159982990E+03  0.52911009283E+03  0.80732703720E+02 0.  0.
        254    2    1    2    0    0  0.51664324011E+02  0.51034105564E+03  0.92022902285E+03  0.13840252897E+04  0.89754518129E+03 0.  0.
         23    2    4    4    0    0  0.83121377948E+00 -0.21340650593E+03  0.47272118461E+03  0.52670677202E+03  0.91715198392E+02 0.  0.
         23    2    4    4    0    0  0.50833110232E+02  0.72374756157E+03  0.44750783824E+03  0.85731851764E+03  0.91308474006E+02 0.  0.
          2    1    3    3  502    0 -0.27514004229E+02 -0.93029593695E+02  0.46176879899E+02  0.10744221688E+03  0.00000000000E+00 0. -1.
         -1    1    3    3    0  502 -0.24150319782E+02 -0.41731146195E+03  0.55422949997E+02  0.42166787595E+03  0.00000000000E+00 0.  1.
         11    1    5    5    0    0  0.10380749074E+02 -0.15963564247E+03  0.42525730174E+03  0.45435126387E+03  0.00000000000E+00 0.  1.
        -11    1    5    5    0    0 -0.95495352949E+01 -0.53770863458E+02  0.47463882872E+02  0.72355508144E+02  0.00000000000E+00 0. -1.
          4    1    6    6  503    0  0.39028694624E+02  0.10077690953E+03  0.61140568404E+02  0.12416679751E+03  0.00000000000E+00 0. -1.
         -4    1    6    6    0  503  0.11804415608E+02  0.62297065203E+03  0.38636726984E+03  0.73315172013E+03  0.00000000000E+00 0.  1.
<mgrwt>
<rscale>  0 0.16173907E+04</rscale>
<asrwt>0</asrwt>
<pdfrwt beam="1">  1        2 0.22576648E+00 0.16173907E+04</pdfrwt>
<pdfrwt beam="2">  1       -1 0.68562041E-01 0.16173907E+04</pdfrwt>
<totfact> 0.31117402E+01</totfact>
</mgrwt>
</event>
<event>
12    6  0.1403409E-007  0.2117770E+04  0.7818608E-02  0.8553456E-01
          2   -1    0    0  501    0  0.00000000000E+00  0.00000000000E+00  0.16566642794E+04  0.16566642794E+04  0.00000000000E+00 0. -1.
         -1   -1    0    0    0  501 -0.00000000000E+00 -0.00000000000E+00 -0.67680443545E+03  0.67680443545E+03  0.00000000000E+00 0.  1.
         24    2    1    2    0    0 -0.41197542326E+03  0.46861036342E+03  0.10623309227E+04  0.12346697571E+04  0.80888798595E+02 0.  0.
        254    2    1    2    0    0  0.41197542326E+03 -0.46861036342E+03 -0.82471078676E+02  0.10987989578E+04  0.90068765328E+03 0.  0.
         23    2    4    4    0    0  0.15946789882E+03 -0.68978572692E+03 -0.18252885088E+03  0.73688017600E+03  0.91876289465E+02 0.  0.
         23    2    4    4    0    0  0.25250752444E+03  0.22117536350E+03  0.10005777221E+03  0.36191878180E+03  0.91077195365E+02 0.  0.
          4    1    3    3  502    0 -0.39643498152E+03  0.46713712621E+03  0.10241953245E+04  0.11934629663E+04  0.00000000000E+00 0. -1.
         -3    1    3    3    0  502 -0.15540441746E+02  0.14732372077E+01  0.38135598196E+02  0.41206790791E+02  0.00000000000E+00 0.  1.
         11    1    5    5    0    0  0.60096382615E+01 -0.81263759697E+02 -0.49564127457E+02  0.95375663158E+02  0.00000000000E+00 0.  1.
        -11    1    5    5    0    0  0.15345826056E+03 -0.60852196722E+03 -0.13296472343E+03  0.64150451285E+03  0.00000000000E+00 0. -1.
          1    1    6    6  503    0  0.16149099152E+03  0.19134112441E+03  0.87931297768E+02  0.26537271781E+03  0.00000000000E+00 0. -1.
         -1    1    6    6    0  503  0.91016532925E+02  0.29834239090E+02  0.12126474440E+02  0.96546063981E+02  0.00000000000E+00 0.  1.
<mgrwt>
<rscale>  0 0.21177703E+04</rscale>
<asrwt>0</asrwt>
<pdfrwt beam="1">  1        2 0.25487143E+00 0.21177703E+04</pdfrwt>
<pdfrwt beam="2">  1       -1 0.10412376E+00 0.21177703E+04</pdfrwt>
<totfact> 0.94330964E+00</totfact>
</mgrwt>
</event>
<event>
12    6  0.1403409E-007  0.2303213E+04  0.7818608E-02  0.8476655E-01
         -1   -1    0    0    0  501 -0.00000000000E+00  0.00000000000E+00  0.43027977926E+03  0.43027977926E+03  0.00000000000E+00 0.  1.
          2   -1    0    0  501    0  0.00000000000E+00 -0.00000000000E+00 -0.30821741611E+04  0.30821741611E+04  0.00000000000E+00 0. -1.
         24    2    1    2    0    0 -0.66602265252E+03 -0.59846762093E+03 -0.17029914668E+04  0.19258117009E+04  0.82589979512E+02 0.  0.
        254    2    1    2    0    0  0.66602265252E+03  0.59846762093E+03 -0.94890291512E+03  0.15866422394E+04  0.90292147317E+03 0.  0.
         23    2    4    4    0    0  0.49627563871E+02  0.25521686802E+02  0.15959192845E+03  0.19198617106E+03  0.90966228129E+02 0.  0.
         23    2    4    4    0    0  0.61639508864E+03  0.57294593412E+03 -0.11084948436E+04  0.13946560684E+04  0.89971007145E+02 0.  0.
          2    1    3    3  502    0 -0.34658286678E+03 -0.31506108011E+03 -0.97864072659E+03  0.10849519987E+04  0.00000000000E+00 0. -1.
         -1    1    3    3    0  502 -0.31943978574E+03 -0.28340654082E+03 -0.72435074016E+03  0.84085970225E+03  0.00000000000E+00 0.  1.
         11    1    5    5    0    0 -0.26028409804E+02 -0.10022895438E+01  0.47527082167E+02  0.54196920951E+02  0.00000000000E+00 0. -1.
        -11    1    5    5    0    0  0.75655973675E+02  0.26523976346E+02  0.11206484628E+03  0.13778925011E+03  0.00000000000E+00 0.  1.
          4    1    6    6  503    0  0.59346630626E+03  0.52203552881E+03 -0.10294370903E+04  0.12978690507E+04  0.00000000000E+00 0. -1.
         -4    1    6    6    0  503  0.22928782387E+02  0.50910405312E+02 -0.79057753282E+02  0.96787017646E+02  0.00000000000E+00 0.  1.
<mgrwt>
<rscale>  0 0.23032127E+04</rscale>
<asrwt>0</asrwt>
<pdfrwt beam="1">  1        2 0.47418063E+00 0.23032127E+04</pdfrwt>
<pdfrwt beam="2">  1       -1 0.66196890E-01 0.23032127E+04</pdfrwt>
<totfact> 0.36877034E+00</totfact>
</mgrwt>
</event>
<event>
12    6  0.1403409E-007  0.2181156E+04  0.7818608E-02  0.8526313E-01
         -1   -1    0    0    0  501 -0.00000000000E+00  0.00000000000E+00  0.35699423425E+03  0.35699423425E+03  0.00000000000E+00 0.  1.
          2   -1    0    0  501    0  0.00000000000E+00 -0.00000000000E+00 -0.33315950066E+04  0.33315950066E+04  0.00000000000E+00 0. -1.
         24    2    1    2    0    0 -0.57738140644E+03  0.52624232294E+03 -0.46916830041E+03  0.91437511411E+03  0.75250808965E+02 0.  0.
        254    2    1    2    0    0  0.57738140644E+03 -0.52624232294E+03 -0.25054324720E+04  0.27742141268E+04  0.89931745153E+03 0.  0.
         23    2    4    4    0    0 -0.14945191033E+03  0.10618390773E+03 -0.27649469715E+03  0.34404837467E+03  0.91154104679E+02 0.  0.
         23    2    4    4    0    0  0.72683331676E+03 -0.63242623066E+03 -0.22289377748E+04  0.24301657521E+04  0.96396945379E+02 0.  0.
          2    1    3    3  502    0 -0.21852491870E+03  0.23704191038E+03 -0.22152197082E+03  0.39117002815E+03  0.00000000000E+00 0. -1.
         -1    1    3    3    0  502 -0.35885648774E+03  0.28920041256E+03 -0.24764632959E+03  0.52320508596E+03  0.00000000000E+00 0.  1.
         11    1    5    5    0    0 -0.57938127791E+02  0.94546409772E+02 -0.17214829159E+03  0.20477032146E+03  0.00000000000E+00 0.  1.
        -11    1    5    5    0    0 -0.91513782538E+02  0.11637497953E+02 -0.10434640556E+03  0.13927805321E+03  0.00000000000E+00 0. -1.
          3    1    6    6  503    0  0.39586677135E+03 -0.33138527245E+03 -0.10752542436E+04  0.11927692098E+04  0.00000000000E+00 0. -1.
         -3    1    6    6    0  503  0.33096654542E+03 -0.30104095821E+03 -0.11536835312E+04  0.12373965423E+04  0.00000000000E+00 0.  1.
<mgrwt>
<rscale>  0 0.21811558E+04</rscale>
<asrwt>0</asrwt>
<pdfrwt beam="1">  1        2 0.51255307E+00 0.21811558E+04</pdfrwt>
<pdfrwt beam="2">  1       -1 0.54922190E-01 0.21811558E+04</pdfrwt>
<totfact> 0.37125486E+00</totfact>
</mgrwt>
</event>
<event>
12    6  0.1403409E-007  0.1510555E+04  0.7818608E-02  0.8877464E-01
         -1   -1    0    0    0  501 -0.00000000000E+00  0.00000000000E+00  0.91667885423E+03  0.91667885423E+03  0.00000000000E+00 0.  1.
          2   -1    0    0  501    0  0.00000000000E+00 -0.00000000000E+00 -0.62229402819E+03  0.62229402819E+03  0.00000000000E+00 0. -1.
         24    2    1    2    0    0  0.21290314944E+03  0.43969173262E+03  0.16071540361E+03  0.52040773082E+03  0.79612778859E+02 0.  0.
        254    2    1    2    0    0 -0.21290314944E+03 -0.43969173262E+03  0.13366942243E+03  0.10185651516E+04  0.88371425403E+03 0.  0.
         23    2    4    4    0    0  0.16779924108E+03  0.78758390491E+02 -0.20054202001E+03  0.28807229390E+03  0.91701010603E+02 0.  0.
         23    2    4    4    0    0 -0.38070239052E+03 -0.51845012311E+03  0.33421144244E+03  0.73049285770E+03  0.90541076792E+02 0.  0.
          4    1    3    3  502    0  0.19585873242E+02  0.19331001768E+02 -0.67789004385E+01  0.28341622240E+02  0.00000000000E+00 0. -1.
         -3    1    3    3    0  502  0.19331727620E+03  0.42036073086E+03  0.16749430405E+03  0.49206610858E+03  0.00000000000E+00 0.  1.
         11    1    5    5    0    0  0.51539228524E+01  0.31511757729E+02 -0.60078119162E+02  0.68036271194E+02  0.00000000000E+00 0.  1.
        -11    1    5    5    0    0  0.16264531823E+03  0.47246632761E+02 -0.14046390085E+03  0.22003602271E+03  0.00000000000E+00 0. -1.
          2    1    6    6  503    0 -0.19317055774E+03 -0.19224445035E+03  0.12305439069E+03  0.29902370498E+03  0.00000000000E+00 0. -1.
         -2    1    6    6    0  503 -0.18753183278E+03 -0.32620567277E+03  0.21115705174E+03  0.43146915272E+03  0.00000000000E+00 0.  1.
<mgrwt>
<rscale>  0 0.15105546E+04</rscale>
<asrwt>0</asrwt>
<pdfrwt beam="1">  1        2 0.95737542E-01 0.15105546E+04</pdfrwt>
<pdfrwt beam="2">  1       -1 0.14102752E+00 0.15105546E+04</pdfrwt>
<totfact> 0.21520648E+01</totfact>
</mgrwt>
</event>
<event>
12    6  0.1403409E-007  0.2247485E+04  0.7818608E-02  0.8498920E-01
          2   -1    0    0  501    0  0.00000000000E+00  0.00000000000E+00  0.27623671111E+04  0.27623671111E+04  0.00000000000E+00 0. -1.
         -1   -1    0    0    0  501 -0.00000000000E+00 -0.00000000000E+00 -0.45714327920E+03  0.45714327920E+03  0.00000000000E+00 0.  1.
         24    2    1    2    0    0  0.79156040824E+03  0.70261244536E+02  0.24518498169E+03  0.83541215856E+03  0.79330177356E+02 0.  0.
        254    2    1    2    0    0 -0.79156040824E+03 -0.70261244536E+02  0.20600388503E+04  0.23840982318E+04  0.89925513170E+03 0.  0.
         23    2    4    4    0    0 -0.30347334544E+03  0.40252851691E+03  0.80518273272E+03  0.95417340812E+03  0.89456030411E+02 0.  0.
         23    2    4    4    0    0 -0.48808706280E+03 -0.47278976144E+03  0.12548561175E+04  0.14299248237E+04  0.90895468763E+02 0.  0.
          2    1    3    3  502    0  0.77168369794E-01  0.43152573248E+01  0.22244590750E+01  0.48554730885E+01  0.00000000000E+00 0. -1.
         -1    1    3    3    0  502  0.79148323987E+03  0.65945987211E+02  0.24296052262E+03  0.83055668547E+03  0.00000000000E+00 0.  1.
         11    1    5    5    0    0 -0.24846761655E+03  0.37327971026E+03  0.72752938255E+03  0.85461857050E+03  0.00000000000E+00 0.  1.
        -11    1    5    5    0    0 -0.55005728896E+02  0.29248806644E+02  0.77653350171E+02  0.99554837624E+02  0.00000000000E+00 0. -1.
          3    1    6    6  503    0 -0.44228106784E+02 -0.12373980250E+02  0.77357400046E+02  0.89963371206E+02  0.00000000000E+00 0. -1.
         -3    1    6    6    0  503 -0.44385895602E+03 -0.46041578119E+03  0.11774987175E+04  0.13399614525E+04  0.00000000000E+00 0.  1.
<mgrwt>
<rscale>  0 0.22474853E+04</rscale>
<asrwt>0</asrwt>
<pdfrwt beam="1">  1        2 0.42497955E+00 0.22474853E+04</pdfrwt>
<pdfrwt beam="2">  1       -1 0.70329737E-01 0.22474853E+04</pdfrwt>
<totfact> 0.51602095E+00</totfact>
</mgrwt>
</event>
<event>
12    6  0.1403409E-007  0.2405976E+04  0.7818608E-02  0.8437270E-01
         -1   -1    0    0    0  501 -0.00000000000E+00  0.00000000000E+00  0.89819074816E+03  0.89819074816E+03  0.00000000000E+00 0.  1.
          2   -1    0    0  501    0  0.00000000000E+00 -0.00000000000E+00 -0.16112162922E+04  0.16112162922E+04  0.00000000000E+00 0. -1.
         24    2    1    2    0    0  0.96090659201E+03 -0.23679072685E+03 -0.61319200075E+03  0.11670195709E+04  0.80739842730E+02 0.  0.
        254    2    1    2    0    0 -0.96090659201E+03  0.23679072685E+03 -0.99833543293E+02  0.13423874695E+04  0.90145773883E+03 0.  0.
         23    2    4    4    0    0 -0.67784212380E+03  0.47299487962E+03  0.20328710661E+03  0.85659822775E+03  0.96128950437E+02 0.  0.
         23    2    4    4    0    0 -0.28306446820E+03 -0.23620415277E+03 -0.30312064990E+03  0.48578924171E+03  0.90505049697E+02 0.  0.
          2    1    3    3  502    0  0.60995381989E+03 -0.15966620264E+03 -0.43444311998E+03  0.76568778439E+03  0.00000000000E+00 0. -1.
         -1    1    3    3    0  502  0.35095277212E+03 -0.77124524213E+02 -0.17874888077E+03  0.40133178652E+03  0.00000000000E+00 0.  1.
         11    1    5    5    0    0 -0.19985311601E+03  0.19400843924E+03  0.60551903660E+02  0.28503872634E+03  0.00000000000E+00 0. -1.
        -11    1    5    5    0    0 -0.47798900779E+03  0.27898644038E+03  0.14273520295E+03  0.57155950140E+03  0.00000000000E+00 0.  1.
          1    1    6    6  503    0 -0.62661300407E+02 -0.89569531757E+02 -0.52568099551E+02  0.12129527888E+03  0.00000000000E+00 0. -1.
         -1    1    6    6    0  503 -0.22040316779E+03 -0.14663462101E+03 -0.25055255035E+03  0.36449396283E+03  0.00000000000E+00 0.  1.
<mgrwt>
<rscale>  0 0.24059755E+04</rscale>
<asrwt>0</asrwt>
<pdfrwt beam="1">  1        2 0.24787943E+00 0.24059755E+04</pdfrwt>
<pdfrwt beam="2">  1       -1 0.13818319E+00 0.24059755E+04</pdfrwt>
<totfact> 0.48796113E+00</totfact>
</mgrwt>
</event>
<event>
12    6  0.1403409E-007  0.2883052E+04  0.7818608E-02  0.8277938E-01
          2   -1    0    0  501    0  0.00000000000E+00  0.00000000000E+00  0.31810888631E+04  0.31810888631E+04  0.00000000000E+00 0. -1.
         -1   -1    0    0    0  501 -0.00000000000E+00 -0.00000000000E+00 -0.65323467995E+03  0.65323467995E+03  0.00000000000E+00 0.  1.
         24    2    1    2    0    0  0.47710705944E+03 -0.96664239629E+03  0.18406688266E+03  0.10965347990E+04  0.80493973071E+02 0.  0.
        254    2    1    2    0    0 -0.47710705944E+03  0.96664239629E+03  0.23437873005E+04  0.27377887440E+04  0.91658039938E+03 0.  0.
         23    2    4    4    0    0 -0.70872811639E+03  0.89395357397E+03  0.17616232872E+04  0.21004701765E+04  0.84910664164E+02 0.  0.
         23    2    4    4    0    0  0.23162105695E+03  0.72688822315E+02  0.58216401326E+03  0.63731856753E+03  0.91258091529E+02 0.  0.
          4    1    3    3  502    0  0.40594835730E+03 -0.87687574490E+03  0.15907455182E+03  0.97929048490E+03  0.00000000000E+00 0. -1.
         -3    1    3    3    0  502  0.71158702137E+02 -0.89766651391E+02  0.24992330844E+02  0.11724431412E+03  0.00000000000E+00 0.  1.
         11    1    5    5    0    0 -0.24311001786E+03  0.33017435625E+03  0.56427699923E+03  0.69751424227E+03  0.00000000000E+00 0.  1.
        -11    1    5    5    0    0 -0.46561809852E+03  0.56377921773E+03  0.11973462880E+04  0.14029559342E+04  0.00000000000E+00 0. -1.
          3    1    6    6  503    0  0.71643617778E+02  0.32278379704E+02  0.96828908315E+02  0.12470180131E+03  0.00000000000E+00 0. -1.
         -3    1    6    6    0  503  0.15997743917E+03  0.40410442612E+02  0.48533510494E+03  0.51261676621E+03  0.00000000000E+00 0.  1.
<mgrwt>
<rscale>  0 0.28830522E+04</rscale>
<asrwt>0</asrwt>
<pdfrwt beam="1">  1        2 0.48939828E+00 0.28830522E+04</pdfrwt>
<pdfrwt beam="2">  1       -1 0.10049764E+00 0.28830522E+04</pdfrwt>
<totfact> 0.12339853E+00</totfact>
</mgrwt>
</event>
<event>
12    6  0.1403409E-007  0.3436281E+04  0.7818608E-02  0.8129059E-01
          2   -1    0    0  501    0  0.00000000000E+00  0.00000000000E+00  0.31293376196E+04  0.31293376196E+04  0.00000000000E+00 0. -1.
         -1   -1    0    0    0  501 -0.00000000000E+00 -0.00000000000E+00 -0.94333277630E+03  0.94333277630E+03  0.00000000000E+00 0.  1.
         24    2    1    2    0    0  0.15283122661E+04  0.17982981756E+03  0.15344106165E+04  0.21747252305E+04  0.83287106514E+02 0.  0.
        254    2    1    2    0    0 -0.15283122661E+04 -0.17982981756E+03  0.65159422673E+03  0.18979451653E+04  0.89974644658E+03 0.  0.
         23    2    4    4    0    0 -0.34296558025E+03  0.27217783422E+03  0.40055623456E+03  0.60131377569E+03  0.97091694352E+02 0.  0.
         23    2    4    4    0    0 -0.11853466859E+04 -0.45200765178E+03  0.25103799217E+03  0.12966313896E+04  0.94208301326E+02 0.  0.
          4    1    3    3  502    0  0.17527456432E+03  0.13974844190E+02  0.14064749983E+03  0.22516258210E+03  0.00000000000E+00 0. -1.
         -3    1    3    3    0  502  0.13530377018E+04  0.16585497337E+03  0.13937631167E+04  0.19495626484E+04  0.00000000000E+00 0.  1.
         11    1    5    5    0    0 -0.24557955719E+03  0.14563023316E+03  0.29091748603E+03  0.40761558778E+03  0.00000000000E+00 0.  1.
        -11    1    5    5    0    0 -0.97386023056E+02  0.12654760106E+03  0.10963874853E+03  0.19369818791E+03  0.00000000000E+00 0. -1.
          3    1    6    6  503    0 -0.69272532926E+03 -0.26967682038E+03  0.19398795896E+03  0.76826121695E+03  0.00000000000E+00 0. -1.
         -3    1    6    6    0  503 -0.49262135664E+03 -0.18233083140E+03  0.57050033215E+02  0.52837017268E+03  0.00000000000E+00 0.  1.
<mgrwt>
<rscale>  0 0.34362810E+04</rscale>
<asrwt>0</asrwt>
<pdfrwt beam="1">  1        2 0.48143655E+00 0.34362810E+04</pdfrwt>
<pdfrwt beam="2">  1       -1 0.14512812E+00 0.34362810E+04</pdfrwt>
<totfact> 0.51472798E-01</totfact>
</mgrwt>
</event>
<event>
12    6  0.1403409E-007  0.2030337E+04  0.7818608E-02  0.8592567E-01
         -1   -1    0    0    0  501 -0.00000000000E+00  0.00000000000E+00  0.52361044804E+03  0.52361044804E+03  0.00000000000E+00 0.  1.
          2   -1    0    0  501    0  0.00000000000E+00 -0.00000000000E+00 -0.19681942419E+04  0.19681942419E+04  0.00000000000E+00 0. -1.
         24    2    1    2    0    0  0.40253054066E+03 -0.68218929714E+03 -0.80906323635E+03  0.11349877270E+04  0.78744820898E+02 0.  0.
        254    2    1    2    0    0 -0.40253054066E+03  0.68218929714E+03 -0.63552055748E+03  0.13568169629E+04  0.89980710070E+03 0.  0.
         23    2    4    4    0    0  0.59413439377E+02  0.69724342354E+03 -0.50746657289E+03  0.86858039476E+03  0.85036645693E+02 0.  0.
         23    2    4    4    0    0 -0.46194398004E+03 -0.15054126404E+02 -0.12805398459E+03  0.48823656812E+03  0.91423498411E+02 0.  0.
          4    1    3    3  502    0  0.13662390218E+03 -0.22891973655E+03 -0.32664485553E+03  0.42162447519E+03  0.00000000000E+00 0. -1.
         -3    1    3    3    0  502  0.26590663847E+03 -0.45326956059E+03 -0.48241838082E+03  0.71336325185E+03  0.00000000000E+00 0.  1.
         11    1    5    5    0    0  0.52571527548E+02  0.26154987294E+03 -0.15843124818E+03  0.31027820088E+03  0.00000000000E+00 0. -1.
        -11    1    5    5    0    0  0.68419118289E+01  0.43569355061E+03 -0.34903532470E+03  0.55830219388E+03  0.00000000000E+00 0.  1.
          2    1    6    6  503    0 -0.30122735481E+03  0.64621234508E+01 -0.40641102126E+02  0.30402529090E+03  0.00000000000E+00 0.  1.
         -2    1    6    6    0  503 -0.16071662522E+03 -0.21516249854E+02 -0.87412882466E+02  0.18421127721E+03  0.00000000000E+00 0. -1.
<mgrwt>
<rscale>  0 0.20303370E+04</rscale>
<asrwt>0</asrwt>
<pdfrwt beam="1">  1        2 0.30279911E+00 0.20303370E+04</pdfrwt>
<pdfrwt beam="2">  1       -1 0.80555454E-01 0.20303370E+04</pdfrwt>
<totfact> 0.11285806E+01</totfact>
</mgrwt>
</event>
<event>
12    6  0.1403409E-007  0.1545591E+04  0.7818608E-02  0.8854689E-01
         -3   -1    0    0    0  501 -0.00000000000E+00  0.00000000000E+00  0.85433440286E+03  0.85433440286E+03  0.00000000000E+00 0.  1.
          4   -1    0    0  501    0  0.00000000000E+00 -0.00000000000E+00 -0.69903865467E+03  0.69903865467E+03  0.00000000000E+00 0. -1.
         24    2    1    2    0    0  0.14486457571E+03  0.14560736140E+03 -0.41487828452E+03  0.47003867688E+03  0.81394826685E+02 0.  0.
        254    2    1    2    0    0 -0.14486457571E+03 -0.14560736140E+03  0.57017403271E+03  0.10833343807E+04  0.89795751779E+03 0.  0.
         23    2    4    4    0    0 -0.27230579953E+03  0.74344199436E+01 -0.15548274911E+03  0.32540143799E+03  0.86634239854E+02 0.  0.
         23    2    4    4    0    0  0.12744122382E+03 -0.15304178134E+03  0.72565678182E+03  0.75793294267E+03  0.90672643161E+02 0.  0.
          4    1    3    3  502    0  0.75270610645E+02  0.12827299234E+03 -0.29421818991E+03  0.32967251730E+03  0.00000000000E+00 0. -1.
         -3    1    3    3    0  502  0.69593965063E+02  0.17334369055E+02 -0.12066009461E+03  0.14036615958E+03  0.00000000000E+00 0.  1.
         11    1    5    5    0    0  0.26556725024E+01  0.80216814791E+01  0.17913557018E+01  0.86376458275E+01  0.00000000000E+00 0. -1.
        -11    1    5    5    0    0 -0.27496147203E+03 -0.58726153546E+00 -0.15727410482E+03  0.31676379216E+03  0.00000000000E+00 0.  1.
          1    1    6    6  503    0 -0.23344580186E+01  0.87965152108E+01  0.14339574186E+02  0.16983867697E+02  0.00000000000E+00 0. -1.
         -1    1    6    6    0  503  0.12977568184E+03 -0.16183829655E+03  0.71131720764E+03  0.74094907497E+03  0.00000000000E+00 0.  1.
<mgrwt>
<rscale>  0 0.15455909E+04</rscale>
<asrwt>0</asrwt>
<pdfrwt beam="1">  1        4 0.10754441E+00 0.15455909E+04</pdfrwt>
<pdfrwt beam="2">  1       -3 0.13143606E+00 0.15455909E+04</pdfrwt>
<totfact> 0.68922792E-01</totfact>
</mgrwt>
</event>
<event>
12    6  0.1403409E-007  0.1609350E+04  0.7818608E-02  0.8814825E-01
          2   -1    0    0  501    0  0.00000000000E+00  0.00000000000E+00  0.15038055417E+04  0.15038055417E+04  0.00000000000E+00 0. -1.
         -1   -1    0    0    0  501 -0.00000000000E+00 -0.00000000000E+00 -0.43057543311E+03  0.43057543311E+03  0.00000000000E+00 0.  1.
         24    2    1    2    0    0 -0.18840916085E+03 -0.14494845259E+03 -0.22540825206E+03  0.33666452264E+03  0.77627668437E+02 0.  0.
        254    2    1    2    0    0  0.18840916085E+03  0.14494845259E+03  0.12986383607E+04  0.15977164522E+04  0.89984898953E+03 0.  0.
         23    2    4    4    0    0  0.42836570380E+03 -0.20077416060E+03  0.53098050245E+03  0.71747321310E+03  0.94974090023E+02 0.  0.
         23    2    4    4    0    0 -0.23995654294E+03  0.34572261319E+03  0.76765785821E+03  0.88024323907E+03  0.91794906705E+02 0.  0.
          4    1    3    3  502    0 -0.40140559444E+02 -0.43596516592E+02 -0.17218479575E+02  0.61712209572E+02  0.00000000000E+00 0. -1.
         -3    1    3    3    0  502 -0.14826860141E+03 -0.10135193600E+03 -0.20818977249E+03  0.27495231307E+03  0.00000000000E+00 0.  1.
         11    1    5    5    0    0  0.18933274409E+03 -0.92136391063E+02  0.30748503177E+03  0.37267015886E+03  0.00000000000E+00 0. -1.
        -11    1    5    5    0    0  0.23903295971E+03 -0.10863776953E+03  0.22349547068E+03  0.34480305424E+03  0.00000000000E+00 0.  1.
          1    1    6    6  503    0 -0.15397988029E+02  0.76566497878E+02  0.10861277089E+03  0.13377690621E+03  0.00000000000E+00 0. -1.
         -1    1    6    6    0  503 -0.22455855491E+03  0.26915611531E+03  0.65904508731E+03  0.74646633287E+03  0.00000000000E+00 0.  1.
<mgrwt>
<rscale>  0 0.16093498E+04</rscale>
<asrwt>0</asrwt>
<pdfrwt beam="1">  1        2 0.23135469E+00 0.16093498E+04</pdfrwt>
<pdfrwt beam="2">  1       -1 0.66242376E-01 0.16093498E+04</pdfrwt>
<totfact> 0.31851582E+01</totfact>
</mgrwt>
</event>
<event>
12    6  0.1403409E-007  0.2319691E+04  0.7818608E-02  0.8470198E-01
         -1   -1    0    0    0  501 -0.00000000000E+00  0.00000000000E+00  0.84759488572E+03  0.84759488572E+03  0.00000000000E+00 0.  1.
          2   -1    0    0  501    0  0.00000000000E+00 -0.00000000000E+00 -0.15871273623E+04  0.15871273623E+04  0.00000000000E+00 0. -1.
         24    2    1    2    0    0  0.12890254307E+03 -0.97246592592E+03 -0.39175687555E+03  0.10593338873E+04  0.80056183184E+02 0.  0.
        254    2    1    2    0    0 -0.12890254307E+03  0.97246592592E+03 -0.34777560107E+03  0.13753883608E+04  0.89913259960E+03 0.  0.
         23    2    4    4    0    0 -0.18007464585E+03  0.62836820423E+03  0.22669316801E+03  0.69759164579E+03  0.89279525590E+02 0.  0.
         23    2    4    4    0    0  0.51172102778E+02  0.34409772169E+03 -0.57446876908E+03  0.67779671502E+03  0.91499694370E+02 0.  0.
          4    1    3    3  502    0  0.10644061247E+03 -0.88414061344E+03 -0.37687707867E+03  0.96699046570E+03  0.00000000000E+00 0. -1.
         -3    1    3    3    0  502  0.22461930601E+02 -0.88325312474E+02 -0.14879796884E+02  0.92343421559E+02  0.00000000000E+00 0.  1.
         11    1    5    5    0    0 -0.13240920864E+03  0.54329511475E+03  0.16850399406E+03  0.58403371158E+03  0.00000000000E+00 0. -1.
        -11    1    5    5    0    0 -0.47665437215E+02  0.85073089476E+02  0.58189173941E+02  0.11355793421E+03  0.00000000000E+00 0.  1.
          1    1    6    6  503    0 -0.13971560703E+02  0.20957094793E+03 -0.32420824213E+03  0.38629803389E+03  0.00000000000E+00 0. -1.
         -1    1    6    6    0  503  0.65143663481E+02  0.13452677376E+03 -0.25026052695E+03  0.29149868113E+03  0.00000000000E+00 0.  1.
<mgrwt>
<rscale>  0 0.23196905E+04</rscale>
<asrwt>0</asrwt>
<pdfrwt beam="1">  1        2 0.24417344E+00 0.23196905E+04</pdfrwt>
<pdfrwt beam="2">  1       -1 0.13039921E+00 0.23196905E+04</pdfrwt>
<totfact> 0.58823312E+00</totfact>
</mgrwt>
</event>
<event>
12    6  0.1403409E-007  0.2869846E+04  0.7818608E-02  0.8281906E-01
          4   -1    0    0  501    0  0.00000000000E+00  0.00000000000E+00  0.94286488402E+03  0.94286488402E+03  0.00000000000E+00 0. -1.
         -3   -1    0    0    0  501 -0.00000000000E+00 -0.00000000000E+00 -0.21837746472E+04  0.21837746472E+04  0.00000000000E+00 0.  1.
         24    2    1    2    0    0  0.10026879100E+04  0.59622316295E+03  0.46404279970E+02  0.11703171547E+04  0.81386611824E+02 0.  0.
        254    2    1    2    0    0 -0.10026879100E+04 -0.59622316295E+03 -0.12873140432E+04  0.19563223765E+04  0.89953026086E+03 0.  0.
         23    2    4    4    0    0 -0.10983339489E+03  0.18657937167E+02 -0.71080055480E+03  0.72487998274E+03  0.88329312390E+02 0.  0.
         23    2    4    4    0    0 -0.89285451511E+03 -0.61488110012E+03 -0.57651348839E+03  0.12314423938E+04  0.93886178263E+02 0.  0.
          2    1    3    3  502    0  0.10328640742E+03  0.48304052405E+02  0.26063212295E+02  0.11696432991E+03  0.00000000000E+00 0. -1.
         -1    1    3    3    0  502  0.89940150258E+03  0.54791911055E+03  0.20341067675E+02  0.10533528248E+04  0.00000000000E+00 0.  1.
         11    1    5    5    0    0 -0.30198435606E+01 -0.26095168082E+02 -0.12143047620E+03  0.12423943738E+03  0.00000000000E+00 0. -1.
        -11    1    5    5    0    0 -0.10681355133E+03  0.44753105249E+02 -0.58937007860E+03  0.60064054536E+03  0.00000000000E+00 0.  1.
          3    1    6    6  503    0 -0.16765398001E+03 -0.10616149743E+03 -0.66554703481E+02  0.20930276899E+03  0.00000000000E+00 0. -1.
         -3    1    6    6    0  503 -0.72520053510E+03 -0.50871960269E+03 -0.50995878491E+03  0.10221396248E+04  0.00000000000E+00 0.  1.
<mgrwt>
<rscale>  0 0.28698463E+04</rscale>
<asrwt>0</asrwt>
<pdfrwt beam="1">  1        4 0.14505614E+00 0.28698463E+04</pdfrwt>
<pdfrwt beam="2">  1       -3 0.33596533E+00 0.28698463E+04</pdfrwt>
<totfact> 0.15359563E-02</totfact>
</mgrwt>
</event>
<event>
12    6  0.1403409E-007  0.1502534E+04  0.7818608E-02  0.8882770E-01
         -1   -1    0    0    0  501 -0.00000000000E+00  0.00000000000E+00  0.11885593065E+04  0.11885593065E+04  0.00000000000E+00 0.  1.
          2   -1    0    0  501    0  0.00000000000E+00 -0.00000000000E+00 -0.47486240350E+03  0.47486240350E+03  0.00000000000E+00 0. -1.
         24    2    1    2    0    0 -0.43778202103E+03  0.96225634349E+02  0.41658213984E+03  0.61709433748E+03  0.79701138494E+02 0.  0.
        254    2    1    2    0    0  0.43778202103E+03 -0.96225634349E+02  0.29711476313E+03  0.10463273725E+04  0.89755853142E+03 0.  0.
         23    2    4    4    0    0 -0.19842658544E+03  0.17754360616E+03  0.19434388250E+03  0.34078868892E+03  0.86443877377E+02 0.  0.
         23    2    4    4    0    0  0.63620860646E+03 -0.27376924050E+03  0.10277088063E+03  0.70553868358E+03  0.86671749372E+02 0.  0.
          2    1    3    3  502    0 -0.73792833837E+01 -0.78862245682E+01  0.30785678913E+01  0.11230491595E+02  0.00000000000E+00 0. -1.
         -1    1    3    3    0  502 -0.43040273764E+03  0.10411185892E+03  0.41350357195E+03  0.60586384589E+03  0.00000000000E+00 0.  1.
         11    1    5    5    0    0 -0.20358409999E+03  0.17326491401E+03  0.17302480889E+03  0.31844120444E+03  0.00000000000E+00 0. -1.
        -11    1    5    5    0    0  0.51575145523E+01  0.42786921423E+01  0.21319073611E+02  0.22347484477E+02  0.00000000000E+00 0.  1.
          4    1    6    6  503    0  0.33130366234E+03 -0.18805992633E+03  0.45253040409E+02  0.38363588236E+03  0.00000000000E+00 0.  1.
         -4    1    6    6    0  503  0.30490494412E+03 -0.85709314173E+02  0.57517840226E+02  0.32190280122E+03  0.00000000000E+00 0. -1.
<mgrwt>
<rscale>  0 0.15025340E+04</rscale>
<asrwt>0</asrwt>
<pdfrwt beam="1">  1        2 0.73055755E-01 0.15025340E+04</pdfrwt>
<pdfrwt beam="2">  1       -1 0.18285528E+00 0.15025340E+04</pdfrwt>
<totfact> 0.14334769E+01</totfact>
</mgrwt>
</event>
<event>
12    6  0.1403409E-007  0.2751973E+04  0.7818608E-02  0.8318336E-01
          2   -1    0    0  501    0  0.00000000000E+00  0.00000000000E+00  0.12673034878E+04  0.12673034878E+04  0.00000000000E+00 0. -1.
         -1   -1    0    0    0  501 -0.00000000000E+00 -0.00000000000E+00 -0.14939902792E+04  0.14939902792E+04  0.00000000000E+00 0.  1.
         24    2    1    2    0    0 -0.98013959724E+03 -0.10513948365E+03 -0.83529352243E+03  0.12945032770E+04  0.79344340954E+02 0.  0.
        254    2    1    2    0    0  0.98013959724E+03  0.10513948365E+03  0.60860673097E+03  0.14667904900E+04  0.89963561933E+03 0.  0.
         23    2    4    4    0    0  0.11118649725E+04  0.10062716648E+02  0.62650910820E+03  0.12798133080E+04  0.95202233767E+02 0.  0.
         23    2    4    4    0    0 -0.13172537531E+03  0.95076767003E+02 -0.17902377228E+02  0.18697718200E+03  0.90822934075E+02 0.  0.
          4    1    3    3  502    0 -0.19883360341E+03  0.50007594527E+01 -0.14506289150E+03  0.24617687124E+03  0.00000000000E+00 0. -1.
         -3    1    3    3    0  502 -0.78130599382E+03 -0.11014024310E+03 -0.69023063092E+03  0.10483264058E+04  0.00000000000E+00 0.  1.
         11    1    5    5    0    0  0.18625859949E+03  0.85262071008E+01  0.14663768979E+03  0.23720787120E+03  0.00000000000E+00 0. -1.
        -11    1    5    5    0    0  0.92560637306E+03  0.15365095467E+01  0.47987141840E+03  0.10426054368E+04  0.00000000000E+00 0.  1.
          1    1    6    6  503    0 -0.74877394621E+02  0.34129427645E+02 -0.51544296856E+02  0.97099210064E+02  0.00000000000E+00 0. -1.
         -1    1    6    6    0  503 -0.56847980689E+02  0.60947339357E+02  0.33641919628E+02  0.89877971936E+02  0.00000000000E+00 0.  1.
<mgrwt>
<rscale>  0 0.27519732E+04</rscale>
<asrwt>0</asrwt>
<pdfrwt beam="1">  1        2 0.19496977E+00 0.27519732E+04</pdfrwt>
<pdfrwt beam="2">  1       -1 0.22984466E+00 0.27519732E+04</pdfrwt>
<totfact> 0.16269746E+00</totfact>
</mgrwt>
</event>
<event>
12    6  0.1403409E-007  0.2743838E+04  0.7818608E-02  0.8320919E-01
         -1   -1    0    0    0  501 -0.00000000000E+00  0.00000000000E+00  0.15070837015E+04  0.15070837015E+04  0.00000000000E+00 0.  1.
          2   -1    0    0  501    0  0.00000000000E+00 -0.00000000000E+00 -0.12488771082E+04  0.12488771082E+04  0.00000000000E+00 0. -1.
         24    2    1    2    0    0  0.11780372585E+04 -0.30827891097E+03  0.23689358862E+03  0.12429363795E+04  0.77230835298E+02 0.  0.
        254    2    1    2    0    0 -0.11780372585E+04  0.30827891097E+03  0.21313004659E+02  0.15130244302E+04  0.89776445293E+03 0.  0.
         23    2    4    4    0    0 -0.12267449602E+04  0.94049854531E+02  0.15145289781E+03  0.12429643629E+04  0.90960730941E+02 0.  0.
         23    2    4    4    0    0  0.48707701726E+02  0.21422905644E+03 -0.13013989315E+03  0.27006006736E+03  0.87917685148E+02 0.  0.
          4    1    3    3  502    0  0.40425777772E+03 -0.11260290264E+03  0.44987879023E+02  0.42205174302E+03  0.00000000000E+00 0. -1.
         -3    1    3    3    0  502  0.77377948075E+03 -0.19567600833E+03  0.19190570960E+03  0.82088463650E+03  0.00000000000E+00 0.  1.
         11    1    5    5    0    0 -0.11023080906E+04  0.79468431178E+02  0.16308611955E+03  0.11171371628E+04  0.00000000000E+00 0.  1.
        -11    1    5    5    0    0 -0.12443686957E+03  0.14581423353E+02 -0.11633221741E+02  0.12582720001E+03  0.00000000000E+00 0. -1.
          3    1    6    6  503    0  0.62838864549E+02  0.17626225922E+03 -0.74909842808E+02  0.20156535286E+03  0.00000000000E+00 0. -1.
         -3    1    6    6    0  503 -0.14131162823E+02  0.37966797221E+02 -0.55230050339E+02  0.68494714499E+02  0.00000000000E+00 0.  1.
<mgrwt>
<rscale>  0 0.27438384E+04</rscale>
<asrwt>0</asrwt>
<pdfrwt beam="1">  1        2 0.19213494E+00 0.27438384E+04</pdfrwt>
<pdfrwt beam="2">  1       -1 0.23185903E+00 0.27438384E+04</pdfrwt>
<totfact> 0.16187832E+00</totfact>
</mgrwt>
</event>
<event>
12    6  0.1403409E-007  0.3619556E+04  0.7818608E-02  0.8086027E-01
          2   -1    0    0  501    0  0.00000000000E+00  0.00000000000E+00  0.36681081573E+04  0.36681081573E+04  0.00000000000E+00 0. -1.
         -1   -1    0    0    0  501 -0.00000000000E+00 -0.00000000000E+00 -0.89291182824E+03  0.89291182824E+03  0.00000000000E+00 0.  1.
         24    2    1    2    0    0 -0.89938618555E+03 -0.13888173120E+04  0.17779778837E+04  0.24299923398E+04  0.77125739527E+02 0.  0.
        254    2    1    2    0    0  0.89938618555E+03  0.13888173120E+04  0.99721844539E+03  0.21310276457E+04  0.89951384766E+03 0.  0.
         23    2    4    4    0    0  0.72219671378E+03  0.14374316687E+04  0.67099507663E+03  0.17456205252E+04  0.95805687571E+02 0.  0.
         23    2    4    4    0    0  0.17718947176E+03 -0.48614356636E+02  0.32622336876E+03  0.38540712050E+03  0.91419350434E+02 0.  0.
          2    1    3    3  502    0 -0.54736912088E+03 -0.91291670242E+03  0.11477605295E+04  0.15653702735E+04  0.00000000000E+00 0. -1.
         -1    1    3    3    0  502 -0.35201706467E+03 -0.47590060962E+03  0.63021735413E+03  0.86462206628E+03  0.00000000000E+00 0.  1.
         11    1    5    5    0    0  0.37242454841E+03  0.81534215868E+03  0.41037479894E+03  0.98584499572E+03  0.00000000000E+00 0.  1.
        -11    1    5    5    0    0  0.34977216538E+03  0.62208950999E+03  0.26062027768E+03  0.75977552952E+03  0.00000000000E+00 0. -1.
          4    1    6    6  503    0  0.18645056286E+03 -0.39763607656E+02  0.29062752965E+03  0.34757634827E+03  0.00000000000E+00 0. -1.
         -4    1    6    6    0  503 -0.92610910986E+01 -0.88507489800E+01  0.35595839111E+02  0.37830772234E+02  0.00000000000E+00 0.  1.
<mgrwt>
<rscale>  0 0.36195564E+04</rscale>
<asrwt>0</asrwt>
<pdfrwt beam="1">  1        2 0.56432432E+00 0.36195564E+04</pdfrwt>
<pdfrwt beam="2">  1       -1 0.13737105E+00 0.36195564E+04</pdfrwt>
<totfact> 0.25006819E-01</totfact>
</mgrwt>
</event>
<event>
12    6  0.1403409E-007  0.1770198E+04  0.7818608E-02  0.8722310E-01
         -1   -1    0    0    0  501 -0.00000000000E+00  0.00000000000E+00  0.16632421963E+04  0.16632421963E+04  0.00000000000E+00 0.  1.
          2   -1    0    0  501    0  0.00000000000E+00 -0.00000000000E+00 -0.47100790124E+03  0.47100790124E+03  0.00000000000E+00 0. -1.
         24    2    1    2    0    0  0.63216130181E+03 -0.96338073470E+00  0.23832378891E+03  0.67967169363E+03  0.74340723404E+02 0.  0.
        254    2    1    2    0    0 -0.63216130181E+03  0.96338073470E+00  0.95391050610E+03  0.14545784039E+04  0.89789990520E+03 0.  0.
         23    2    4    4    0    0  0.17762119273E+03 -0.16902528870E+03  0.17612330725E+03  0.31519197248E+03  0.90596489038E+02 0.  0.
         23    2    4    4    0    0 -0.80978249454E+03  0.16998866944E+03  0.77778719885E+03  0.11393864314E+04  0.92761399127E+02 0.  0.
          4    1    3    3  502    0  0.21343640364E+03 -0.20202808867E+02  0.50003426097E+02  0.22014448552E+03  0.00000000000E+00 0. -1.
         -3    1    3    3    0  502  0.41872489817E+03  0.19239428133E+02  0.18832036282E+03  0.45952720811E+03  0.00000000000E+00 0.  1.
         11    1    5    5    0    0  0.49863627757E+02 -0.83805113358E+02  0.27129748692E+02  0.10122105345E+03  0.00000000000E+00 0. -1.
        -11    1    5    5    0    0  0.12775756497E+03 -0.85220175345E+02  0.14899355856E+03  0.21397091902E+03  0.00000000000E+00 0.  1.
          1    1    6    6  503    0 -0.31639017785E+03  0.11210625000E+03  0.32512233336E+03  0.46730620323E+03  0.00000000000E+00 0. -1.
         -1    1    6    6    0  503 -0.49339231669E+03  0.57882419435E+02  0.45266486549E+03  0.67208022817E+03  0.00000000000E+00 0.  1.
<mgrwt>
<rscale>  0 0.17701980E+04</rscale>
<asrwt>0</asrwt>
<pdfrwt beam="1">  1        2 0.72462755E-01 0.17701980E+04</pdfrwt>
<pdfrwt beam="2">  1       -1 0.25588341E+00 0.17701980E+04</pdfrwt>
<totfact> 0.45566049E+00</totfact>
</mgrwt>
</event>
<event>
12    6  0.1403409E-007  0.1311702E+04  0.7818608E-02  0.9020336E-01
         -1   -1    0    0    0  501 -0.00000000000E+00  0.00000000000E+00  0.34286980555E+03  0.34286980555E+03  0.00000000000E+00 0.  1.
          2   -1    0    0  501    0  0.00000000000E+00 -0.00000000000E+00 -0.12545304347E+04  0.12545304347E+04  0.00000000000E+00 0. -1.
         24    2    1    2    0    0 -0.21042760305E+03 -0.14228550127E+03  0.31714174434E+02  0.26765607005E+03  0.78160367045E+02 0.  0.
        254    2    1    2    0    0  0.21042760305E+03  0.14228550127E+03 -0.94337480361E+03  0.13297441702E+04  0.90207460786E+03 0.  0.
         23    2    4    4    0    0 -0.25888353501E+03  0.29997949765E+03 -0.58364951459E+03  0.71137011258E+03  0.91609483623E+02 0.  0.
         23    2    4    4    0    0  0.46931113806E+03 -0.15769399638E+03 -0.35972528902E+03  0.61837405764E+03  0.88678355876E+02 0.  0.
          4    1    3    3  502    0 -0.16840165026E+01 -0.22764453143E+02 -0.73168165720E+01  0.23970649621E+02  0.00000000000E+00 0. -1.
         -3    1    3    3    0  502 -0.20874358655E+03 -0.11952104813E+03  0.39030991006E+02  0.24368542043E+03  0.00000000000E+00 0.  1.
         11    1    5    5    0    0 -0.81484336240E+02  0.15967979496E+03 -0.28597763555E+03  0.33752117268E+03  0.00000000000E+00 0. -1.
        -11    1    5    5    0    0 -0.17739919877E+03  0.14029970268E+03 -0.29767187904E+03  0.37384893990E+03  0.00000000000E+00 0.  1.
          3    1    6    6  503    0  0.13613323921E+03 -0.68657062013E+02 -0.69173934199E+02  0.16742486122E+03  0.00000000000E+00 0. -1.
         -3    1    6    6    0  503  0.33317789885E+03 -0.89036934364E+02 -0.29055135482E+03  0.45094919642E+03  0.00000000000E+00 0.  1.
<mgrwt>
<rscale>  0 0.13117021E+04</rscale>
<asrwt>0</asrwt>
<pdfrwt beam="1">  1        2 0.19300468E+00 0.13117021E+04</pdfrwt>
<pdfrwt beam="2">  1       -1 0.52749201E-01 0.13117021E+04</pdfrwt>
<totfact> 0.71084550E+01</totfact>
</mgrwt>
</event>
<event>
12    6  0.1403409E-007  0.1239378E+04  0.7818608E-02  0.9079070E-01
         -1   -1    0    0    0  501 -0.00000000000E+00  0.00000000000E+00  0.90519036553E+03  0.90519036553E+03  0.00000000000E+00 0.  1.
          2   -1    0    0  501    0  0.00000000000E+00 -0.00000000000E+00 -0.42423645698E+03  0.42423645698E+03  0.00000000000E+00 0. -1.
         24    2    1    2    0    0 -0.11388140839E+03  0.17564471144E+03  0.32029797801E+03  0.39088887365E+03  0.79895412855E+02 0.  0.
        254    2    1    2    0    0  0.11388140839E+03 -0.17564471144E+03  0.16065593054E+03  0.93853794886E+03  0.90067925123E+03 0.  0.
         23    2    4    4    0    0  0.43140489655E+03 -0.32895168562E+03  0.16129601582E+03  0.57425683129E+03  0.97134480640E+02 0.  0.
         23    2    4    4    0    0 -0.31752348816E+03  0.15330697418E+03 -0.64008528132E+00  0.36428111756E+03  0.91521194455E+02 0.  0.
          2    1    3    3  502    0 -0.20911669212E+02  0.57231187531E+02  0.40513892448E+02  0.73171594330E+02  0.00000000000E+00 0. -1.
         -1    1    3    3    0  502 -0.92969739173E+02  0.11841352391E+03  0.27978408556E+03  0.31771727933E+03  0.00000000000E+00 0.  1.
         11    1    5    5    0    0  0.13599378971E+03 -0.51385148829E+02  0.32887893980E+02  0.14905152777E+03  0.00000000000E+00 0.  1.
        -11    1    5    5    0    0  0.29541110683E+03 -0.27756653679E+03  0.12840812184E+03  0.42520530352E+03  0.00000000000E+00 0. -1.
          4    1    6    6  503    0 -0.63530438064E+02  0.60048495606E+02 -0.29292812280E+02  0.92195483818E+02  0.00000000000E+00 0.  1.
         -4    1    6    6    0  503 -0.25399305010E+03  0.93258478574E+02  0.28652726999E+02  0.27208563374E+03  0.00000000000E+00 0. -1.
<mgrwt>
<rscale>  0 0.12393785E+04</rscale>
<asrwt>0</asrwt>
<pdfrwt beam="1">  1        2 0.65267147E-01 0.12393785E+04</pdfrwt>
<pdfrwt beam="2">  1       -1 0.13926006E+00 0.12393785E+04</pdfrwt>
<totfact> 0.35611625E+01</totfact>
</mgrwt>
</event>
<event>
12    6  0.1403409E-007  0.4300769E+04  0.7818608E-02  0.7946476E-01
         -1   -1    0    0    0  501 -0.00000000000E+00  0.00000000000E+00  0.15256078435E+04  0.15256078435E+04  0.00000000000E+00 0.  1.
          2   -1    0    0  501    0  0.00000000000E+00 -0.00000000000E+00 -0.30310238548E+04  0.30310238548E+04  0.00000000000E+00 0. -1.
         24    2    1    2    0    0  0.17989351767E+04 -0.99414580106E+03 -0.74802371359E+03  0.21886414924E+04  0.78220600522E+02 0.  0.
        254    2    1    2    0    0 -0.17989351767E+04  0.99414580106E+03 -0.75739229774E+03  0.23679902059E+04  0.89957816712E+03 0.  0.
         23    2    4    4    0    0 -0.43496103862E+03 -0.40978354975E+01  0.12075027670E+03  0.46100500931E+03  0.93472412609E+02 0.  0.
         23    2    4    4    0    0 -0.13639741381E+04  0.99824363656E+03 -0.87814257444E+03  0.19069851966E+04  0.92424843099E+02 0.  0.
          2    1    3    3  502    0  0.14408690744E+04 -0.82968052508E+03 -0.59449182091E+03  0.17657559255E+04  0.00000000000E+00 0. -1.
         -1    1    3    3    0  502  0.35806610229E+03 -0.16446527599E+03 -0.15353189268E+03  0.42288556689E+03  0.00000000000E+00 0.  1.
         11    1    5    5    0    0 -0.69636278230E+02 -0.23401508414E+02  0.48710452000E+02  0.88145050773E+02  0.00000000000E+00 0.  1.
        -11    1    5    5    0    0 -0.36532476039E+03  0.19303672917E+02  0.72039824697E+02  0.37285995854E+03  0.00000000000E+00 0. -1.
          1    1    6    6  503    0 -0.13006529064E+04  0.96857631022E+03 -0.82717299640E+03  0.18204541240E+04  0.00000000000E+00 0. -1.
         -1    1    6    6    0  503 -0.63321231711E+02  0.29667326343E+02 -0.50969578040E+02  0.86531072588E+02  0.00000000000E+00 0.  1.
<mgrwt>
<rscale>  0 0.43007691E+04</rscale>
<asrwt>0</asrwt>
<pdfrwt beam="1">  1        2 0.46631136E+00 0.43007691E+04</pdfrwt>
<pdfrwt beam="2">  1       -1 0.23470890E+00 0.43007691E+04</pdfrwt>
<totfact> 0.12781782E-01</totfact>
</mgrwt>
</event>
<event>
12    6  0.1403409E-007  0.2269264E+04  0.7818608E-02  0.8490139E-01
         -1   -1    0    0    0  501 -0.00000000000E+00  0.00000000000E+00  0.32162889312E+03  0.32162889312E+03  0.00000000000E+00 0.  1.
          2   -1    0    0  501    0  0.00000000000E+00 -0.00000000000E+00 -0.40027183462E+04  0.40027183462E+04  0.00000000000E+00 0. -1.
         24    2    1    2    0    0  0.74463899677E+02 -0.93505131022E+03 -0.18931700664E+04  0.21141044243E+04  0.74018859206E+02 0.  0.
        254    2    1    2    0    0 -0.74463899677E+02  0.93505131022E+03 -0.17879193867E+04  0.22102428150E+04  0.89925065635E+03 0.  0.
         23    2    4    4    0    0 -0.73238590198E+01  0.47520212505E+02 -0.10378313946E+04  0.10429117260E+04  0.90879342764E+02 0.  0.
         23    2    4    4    0    0 -0.67140040657E+02  0.88753109772E+03 -0.75008799208E+03  0.11673310891E+04  0.88377832015E+02 0.  0.
          4    1    3    3  502    0  0.17798345286E+01 -0.45846142800E+02 -0.13390482801E+03  0.14154695188E+03  0.00000000000E+00 0. -1.
         -3    1    3    3    0  502  0.72684065148E+02 -0.88920516742E+03 -0.17592652384E+04  0.19725574724E+04  0.00000000000E+00 0.  1.
         11    1    5    5    0    0 -0.11899520107E+02  0.26052557566E+02 -0.82538437600E+02  0.87366629877E+02  0.00000000000E+00 0. -1.
        -11    1    5    5    0    0  0.45756610872E+01  0.21467654939E+02 -0.95529295705E+03  0.95554509609E+03  0.00000000000E+00 0.  1.
          3    1    6    6  503    0 -0.18863836309E+02  0.22672407354E+03 -0.14317290134E+03  0.26880872293E+03  0.00000000000E+00 0. -1.
         -3    1    6    6    0  503 -0.48276204348E+02  0.66080702417E+03 -0.60691509074E+03  0.89852236615E+03  0.00000000000E+00 0.  1.
<mgrwt>
<rscale>  0 0.22692641E+04</rscale>
<asrwt>0</asrwt>
<pdfrwt beam="1">  1        2 0.61580286E+00 0.22692641E+04</pdfrwt>
<pdfrwt beam="2">  1       -1 0.49481365E-01 0.22692641E+04</pdfrwt>
<totfact> 0.14502005E+00</totfact>
</mgrwt>
</event>
<event>
12    6  0.1403409E-007  0.2099597E+04  0.7818608E-02  0.8561421E-01
          2   -1    0    0  501    0  0.00000000000E+00  0.00000000000E+00  0.42702169689E+03  0.42702169689E+03  0.00000000000E+00 0. -1.
         -1   -1    0    0    0  501 -0.00000000000E+00 -0.00000000000E+00 -0.25808450254E+04  0.25808450254E+04  0.00000000000E+00 0.  1.
         24    2    1    2    0    0 -0.51157634663E+01 -0.85386695463E+03 -0.93271158102E+03  0.12670352891E+04  0.79451766922E+02 0.  0.
        254    2    1    2    0    0  0.51157634663E+01  0.85386695463E+03 -0.12211117475E+04  0.17408314331E+04  0.90014733882E+03 0.  0.
         23    2    4    4    0    0  0.16212344348E+03  0.16495746522E+03  0.75422505368E+02  0.26152901564E+03  0.95989038173E+02 0.  0.
         23    2    4    4    0    0 -0.15700768001E+03  0.68890948941E+03 -0.12965342528E+04  0.14793024175E+04  0.89927067569E+02 0.  0.
          4    1    3    3  502    0 -0.36000352355E+02 -0.23083136224E+03 -0.24371786975E+03  0.33760560303E+03  0.00000000000E+00 0. -1.
         -3    1    3    3    0  502  0.30884588889E+02 -0.62303559239E+03 -0.68899371127E+03  0.92942968609E+03  0.00000000000E+00 0.  1.
         11    1    5    5    0    0  0.12342243988E+03  0.62424189178E+02  0.23636823717E+02  0.14031599159E+03  0.00000000000E+00 0. -1.
        -11    1    5    5    0    0  0.38701003597E+02  0.10253327604E+03  0.51785681651E+02  0.12121302405E+03  0.00000000000E+00 0.  1.
          3    1    6    6  503    0 -0.37939783495E+02  0.83047368478E+02 -0.12226474679E+03  0.15259410503E+03  0.00000000000E+00 0. -1.
         -3    1    6    6    0  503 -0.11906789652E+03  0.60586212093E+03 -0.11742695060E+04  0.13267083125E+04  0.00000000000E+00 0.  1.
<mgrwt>
<rscale>  0 0.20995969E+04</rscale>
<asrwt>0</asrwt>
<pdfrwt beam="1">  1        2 0.65695646E-01 0.20995969E+04</pdfrwt>
<pdfrwt beam="2">  1       -1 0.39705308E+00 0.20995969E+04</pdfrwt>
<totfact> 0.58335531E-01</totfact>
</mgrwt>
</event>
<event>
12    6  0.1403409E-007  0.1059344E+04  0.7818608E-02  0.9245750E-01
          4   -1    0    0  501    0  0.00000000000E+00  0.00000000000E+00  0.12514197730E+04  0.12514197730E+04  0.00000000000E+00 0. -1.
         -3   -1    0    0    0  501 -0.00000000000E+00 -0.00000000000E+00 -0.22418727439E+03  0.22418727439E+03  0.00000000000E+00 0.  1.
         24    2    1    2    0    0  0.24764512663E+02 -0.11850546547E+03  0.13130823908E+03  0.19928876154E+03  0.88415668245E+02 0.  0.
        254    2    1    2    0    0 -0.24764512663E+02  0.11850546547E+03  0.89592425955E+03  0.12763182859E+04  0.90091690048E+03 0.  0.
         23    2    4    4    0    0 -0.25912108413E+03  0.59526053525E+02 -0.56389935462E+02  0.28897646523E+03  0.98185973256E+02 0.  0.
         23    2    4    4    0    0  0.23435657147E+03  0.58979411941E+02  0.95231419502E+03  0.98734182064E+03  0.97672775857E+02 0.  0.
          4    1    3    3  502    0 -0.16831258364E+02  0.47931556714E+01  0.28527516586E+02  0.33467668009E+02  0.00000000000E+00 0. -1.
         -3    1    3    3    0  502  0.41595771027E+02 -0.12329862114E+03  0.10278072249E+03  0.16582109353E+03  0.00000000000E+00 0.  1.
         11    1    5    5    0    0 -0.50765976893E+02 -0.10713916513E+02 -0.45207215034E+02  0.68816166037E+02  0.00000000000E+00 0.  1.
        -11    1    5    5    0    0 -0.20835510724E+03  0.70239970038E+02 -0.11182720428E+02  0.22016029919E+03  0.00000000000E+00 0. -1.
          4    1    6    6  503    0  0.22398996713E+02  0.21657424185E+02  0.27245459745E+03  0.27423031697E+03  0.00000000000E+00 0.  1.
         -4    1    6    6    0  503  0.21195757476E+03  0.37321987756E+02  0.67985959757E+03  0.71311150367E+03  0.00000000000E+00 0. -1.
<mgrwt>
<rscale>  0 0.10593439E+04</rscale>
<asrwt>0</asrwt>
<pdfrwt beam="1">  1        4 0.19252612E+00 0.10593439E+04</pdfrwt>
<pdfrwt beam="2">  1       -3 0.34490350E-01 0.10593439E+04</pdfrwt>
<totfact> 0.27897656E+00</totfact>
</mgrwt>
</event>
<event>
12    6  0.1403409E-007  0.2282157E+04  0.7818608E-02  0.8484990E-01
         -1   -1    0    0    0  501 -0.00000000000E+00  0.00000000000E+00  0.16069558198E+04  0.16069558198E+04  0.00000000000E+00 0.  1.
          2   -1    0    0  501    0  0.00000000000E+00 -0.00000000000E+00 -0.81026490880E+03  0.81026490880E+03  0.00000000000E+00 0. -1.
         24    2    1    2    0    0  0.63238445787E+03  0.54147763106E+03  0.84600972917E+03  0.11896749410E+04  0.80534936030E+02 0.  0.
        254    2    1    2    0    0 -0.63238445787E+03 -0.54147763106E+03 -0.49318818215E+02  0.12275457875E+04  0.90073757954E+03 0.  0.
         23    2    4    4    0    0 -0.25635683421E+03 -0.67744521189E+03  0.18815989121E+03  0.75398819807E+03  0.91886977312E+02 0.  0.
         23    2    4    4    0    0 -0.37602762365E+03  0.13596758083E+03 -0.23747870943E+03  0.47355758948E+03  0.89312352633E+02 0.  0.
          2    1    3    3  502    0  0.30219902898E+03  0.31134162159E+03  0.43196080394E+03  0.61224831122E+03  0.00000000000E+00 0. -1.
         -1    1    3    3    0  502  0.33018542889E+03  0.23013600947E+03  0.41404892523E+03  0.57742662979E+03  0.00000000000E+00 0.  1.
         11    1    5    5    0    0 -0.20248708331E+03 -0.58134228752E+03  0.12911345048E+03  0.62899138091E+03  0.00000000000E+00 0. -1.
        -11    1    5    5    0    0 -0.53869750909E+02 -0.96102924370E+02  0.59046440736E+02  0.12499681716E+03  0.00000000000E+00 0.  1.
          2    1    6    6  503    0 -0.33243285972E+02  0.24566129910E+02 -0.57149886286E+02  0.70531697154E+02  0.00000000000E+00 0.  1.
         -2    1    6    6    0  503 -0.34278433768E+03  0.11140145092E+03 -0.18032882314E+03  0.40302589232E+03  0.00000000000E+00 0. -1.
<mgrwt>
<rscale>  0 0.22821568E+04</rscale>
<asrwt>0</asrwt>
<pdfrwt beam="1">  1        2 0.12465614E+00 0.22821568E+04</pdfrwt>
<pdfrwt beam="2">  1       -1 0.24722397E+00 0.22821568E+04</pdfrwt>
<totfact> 0.25497882E+00</totfact>
</mgrwt>
</event>
<event>
12    6  0.1403409E-007  0.1504501E+04  0.7818608E-02  0.8881465E-01
         -1   -1    0    0    0  501 -0.00000000000E+00  0.00000000000E+00  0.70385407726E+03  0.70385407726E+03  0.00000000000E+00 0.  1.
          2   -1    0    0  501    0  0.00000000000E+00 -0.00000000000E+00 -0.80397444621E+03  0.80397444621E+03  0.00000000000E+00 0. -1.
         24    2    1    2    0    0  0.44525302242E+03  0.65617650962E+02 -0.19810057696E+03  0.49836477750E+03  0.81041241142E+02 0.  0.
        254    2    1    2    0    0 -0.44525302242E+03 -0.65617650962E+02  0.97980208007E+02  0.10094637460E+04  0.89825442007E+03 0.  0.
         23    2    4    4    0    0 -0.12420138019E+03  0.32772326647E+03 -0.20249456087E+03  0.41248960265E+03  0.79467621615E+02 0.  0.
         23    2    4    4    0    0 -0.32105164223E+03 -0.39334091743E+03  0.30047476887E+03  0.59697414333E+03  0.91114251170E+02 0.  0.
          2    1    3    3  502    0  0.15874473721E+03  0.52969190547E+02 -0.10160587703E+03  0.19577890843E+03  0.00000000000E+00 0. -1.
         -1    1    3    3    0  502  0.28650828521E+03  0.12648460415E+02 -0.96494699934E+02  0.30258586907E+03  0.00000000000E+00 0.  1.
         11    1    5    5    0    0 -0.97381353985E+02  0.28582538207E+03 -0.20096252374E+03  0.36271919316E+03  0.00000000000E+00 0. -1.
        -11    1    5    5    0    0 -0.26820026203E+02  0.41897884400E+02 -0.15320371275E+01  0.49770409487E+02  0.00000000000E+00 0.  1.
          3    1    6    6  503    0 -0.22687079181E+03 -0.33219911348E+03  0.21711835984E+03  0.45712907297E+03  0.00000000000E+00 0. -1.
         -3    1    6    6    0  503 -0.94180850421E+02 -0.61141803948E+02  0.83356409030E+02  0.13984507035E+03  0.00000000000E+00 0.  1.
<mgrwt>
<rscale>  0 0.15045008E+04</rscale>
<asrwt>0</asrwt>
<pdfrwt beam="1">  1        2 0.12368838E+00 0.15045008E+04</pdfrwt>
<pdfrwt beam="2">  1       -1 0.10828524E+00 0.15045008E+04</pdfrwt>
<totfact> 0.29896932E+01</totfact>
</mgrwt>
</event>
<event>
12    6  0.1403409E-007  0.1372146E+04  0.7818608E-02  0.8974231E-01
         -1   -1    0    0    0  501 -0.00000000000E+00  0.00000000000E+00  0.42277638779E+03  0.42277638779E+03  0.00000000000E+00 0.  1.
          2   -1    0    0  501    0  0.00000000000E+00 -0.00000000000E+00 -0.11133453087E+04  0.11133453087E+04  0.00000000000E+00 0. -1.
         24    2    1    2    0    0  0.26856087223E+03 -0.27363351930E+03 -0.15733455412E+03  0.42201097991E+03  0.79616959651E+02 0.  0.
        254    2    1    2    0    0 -0.26856087223E+03  0.27363351930E+03 -0.53323436675E+03  0.11141107165E+04  0.89994641720E+03 0.  0.
         23    2    4    4    0    0 -0.27417253886E+03  0.22566806081E+03 -0.77110872660E+03  0.85393405715E+03  0.92184873958E+02 0.  0.
         23    2    4    4    0    0  0.56116666236E+01  0.47965458492E+02  0.23787435986E+03  0.26017665938E+03  0.93677676105E+02 0.  0.
          2    1    3    3  502    0  0.53316074555E+02 -0.75295910830E+02 -0.58605584151E+01  0.92446871979E+02  0.00000000000E+00 0. -1.
         -1    1    3    3    0  502  0.21524479768E+03 -0.19833760847E+03 -0.15147399570E+03  0.32956410793E+03  0.00000000000E+00 0.  1.
         11    1    5    5    0    0  0.55503025255E+01  0.97920649147E+01 -0.11116609308E+02  0.15819905054E+02  0.00000000000E+00 0. -1.
        -11    1    5    5    0    0 -0.27972284138E+03  0.21587599589E+03 -0.75999211730E+03  0.83811415210E+03  0.00000000000E+00 0.  1.
          1    1    6    6  503    0  0.40679759456E+02 -0.44507345512E+00  0.59713136067E+02  0.72254408438E+02  0.00000000000E+00 0. -1.
         -1    1    6    6    0  503 -0.35068092833E+02  0.48410531947E+02  0.17816122379E+03  0.18792225095E+03  0.00000000000E+00 0.  1.
<mgrwt>
<rscale>  0 0.13721459E+04</rscale>
<asrwt>0</asrwt>
<pdfrwt beam="1">  1        2 0.17128389E+00 0.13721459E+04</pdfrwt>
<pdfrwt beam="2">  1       -1 0.65042521E-01 0.13721459E+04</pdfrwt>
<totfact> 0.56984659E+01</totfact>
</mgrwt>
</event>
<event>
12    6  0.1403409E-007  0.2247226E+04  0.7818608E-02  0.8499025E-01
          2   -1    0    0  501    0  0.00000000000E+00  0.00000000000E+00  0.11146472612E+04  0.11146472612E+04  0.00000000000E+00 0. -1.
         -1   -1    0    0    0  501 -0.00000000000E+00 -0.00000000000E+00 -0.11326505993E+04  0.11326505993E+04  0.00000000000E+00 0.  1.
         24    2    1    2    0    0  0.45635617329E+03  0.38261323408E+03  0.71956637872E+03  0.93743991340E+03  0.79774520133E+02 0.  0.
        254    2    1    2    0    0 -0.45635617329E+03 -0.38261323408E+03 -0.73756971680E+03  0.13098579471E+04  0.90391642895E+03 0.  0.
         23    2    4    4    0    0 -0.11095652860E+03 -0.61160555170E+03 -0.28591002921E+03  0.69013037108E+03  0.90347563190E+02 0.  0.
         23    2    4    4    0    0 -0.34539964469E+03  0.22899231762E+03 -0.45165968759E+03  0.61972757597E+03  0.91254583144E+02 0.  0.
          2    1    3    3  502    0  0.40992311788E+03  0.34909250592E+03  0.68211447985E+03  0.86901248776E+03  0.00000000000E+00 0. -1.
         -1    1    3    3    0  502  0.46433055406E+02  0.33520728160E+02  0.37451898868E+02  0.68427425639E+02  0.00000000000E+00 0.  1.
         11    1    5    5    0    0  0.41533128882E+01 -0.15414158803E+03 -0.46050685544E+02  0.16092714130E+03  0.00000000000E+00 0. -1.
        -11    1    5    5    0    0 -0.11510984148E+03 -0.45746396367E+03 -0.23985934367E+03  0.52920322978E+03  0.00000000000E+00 0.  1.
          1    1    6    6  503    0 -0.16430276479E+03  0.98632889290E+02 -0.27470273943E+03  0.33494095064E+03  0.00000000000E+00 0. -1.
         -1    1    6    6    0  503 -0.18109687990E+03  0.13035942833E+03 -0.17695694816E+03  0.28478662533E+03  0.00000000000E+00 0.  1.
<mgrwt>
<rscale>  0 0.22472257E+04</rscale>
<asrwt>0</asrwt>
<pdfrwt beam="1">  1        2 0.17148419E+00 0.22472257E+04</pdfrwt>
<pdfrwt beam="2">  1       -1 0.17425394E+00 0.22472257E+04</pdfrwt>
<totfact> 0.50736231E+00</totfact>
</mgrwt>
</event>
<event>
12    6  0.1403409E-007  0.1429334E+04  0.7818608E-02  0.8932855E-01
         -3   -1    0    0    0  501 -0.00000000000E+00  0.00000000000E+00  0.60435657778E+03  0.60435657778E+03  0.00000000000E+00 0.  1.
          4   -1    0    0  501    0  0.00000000000E+00 -0.00000000000E+00 -0.84511154956E+03  0.84511154956E+03  0.00000000000E+00 0. -1.
         24    2    1    2    0    0 -0.41809990840E+03 -0.23786611994E+02  0.16116024623E+02  0.42639313683E+03  0.78600537970E+02 0.  0.
        254    2    1    2    0    0  0.41809990840E+03  0.23786611994E+02 -0.25687099640E+03  0.10230749905E+04  0.89739979447E+03 0.  0.
         23    2    4    4    0    0  0.38448935287E+03 -0.39551776683E+03 -0.11932342492E+03  0.57202612395E+03  0.93324382678E+02 0.  0.
         23    2    4    4    0    0  0.33610555532E+02  0.41930437882E+03 -0.13754757148E+03  0.45104886657E+03  0.87062701957E+02 0.  0.
          2    1    3    3  502    0 -0.58528742602E+02  0.17403980593E+02 -0.15780040235E+02  0.63067598027E+02  0.00000000000E+00 0. -1.
         -1    1    3    3    0  502 -0.35957116580E+03 -0.41190592586E+02  0.31896064858E+02  0.36332553880E+03  0.00000000000E+00 0.  1.
         11    1    5    5    0    0  0.24761432821E+03 -0.31354988923E+03 -0.94610029501E+02  0.41058183868E+03  0.00000000000E+00 0. -1.
        -11    1    5    5    0    0  0.13687502466E+03 -0.81967877592E+02 -0.24713395421E+02  0.16144428527E+03  0.00000000000E+00 0.  1.
          2    1    6    6  503    0  0.56883057788E+02  0.25389170109E+03 -0.10653860038E+03  0.28115325273E+03  0.00000000000E+00 0. -1.
         -2    1    6    6    0  503 -0.23272502256E+02  0.16541267773E+03 -0.31008971094E+02  0.16989561384E+03  0.00000000000E+00 0.  1.
<mgrwt>
<rscale>  0 0.14293337E+04</rscale>
<asrwt>0</asrwt>
<pdfrwt beam="1">  1        4 0.13001716E+00 0.14293337E+04</pdfrwt>
<pdfrwt beam="2">  1       -3 0.92977935E-01 0.14293337E+04</pdfrwt>
<totfact> 0.99352065E-01</totfact>
</mgrwt>
</event>
<event>
12    6  0.1403409E-007  0.3097632E+04  0.7818608E-02  0.8216388E-01
          2   -1    0    0  501    0  0.00000000000E+00  0.00000000000E+00  0.19941513866E+04  0.19941513866E+04  0.00000000000E+00 0. -1.
         -1   -1    0    0    0  501 -0.00000000000E+00 -0.00000000000E+00 -0.12029336169E+04  0.12029336169E+04  0.00000000000E+00 0.  1.
         24    2    1    2    0    0  0.12053285106E+04 -0.33453904105E+03 -0.32530131136E+03  0.12949875394E+04  0.80240859831E+02 0.  0.
        254    2    1    2    0    0 -0.12053285106E+04  0.33453904105E+03  0.11165190811E+04  0.19020974641E+04  0.89812399816E+03 0.  0.
         23    2    4    4    0    0 -0.46414292396E+03 -0.30017707640E+03  0.40189039813E+03  0.68906307407E+03  0.88074382624E+02 0.  0.
         23    2    4    4    0    0 -0.74118558664E+03  0.63471611746E+03  0.71462868293E+03  0.12130343900E+04  0.92399422658E+02 0.  0.
          4    1    3    3  502    0  0.62579136884E+02 -0.71642824286E+01 -0.17027072233E+01  0.63010908006E+02  0.00000000000E+00 0. -1.
         -3    1    3    3    0  502  0.11427493737E+04 -0.32737475862E+03 -0.32359860413E+03  0.12319766314E+04  0.00000000000E+00 0.  1.
         11    1    5    5    0    0 -0.99337818193E+02 -0.74090972937E+02  0.48377309909E+02  0.13303322332E+03  0.00000000000E+00 0.  1.
        -11    1    5    5    0    0 -0.36480510577E+03 -0.22608610347E+03  0.35351308822E+03  0.55602985074E+03  0.00000000000E+00 0. -1.
          2    1    6    6  503    0 -0.52752454999E+03  0.50134267915E+03  0.51283242161E+03  0.89029417915E+03  0.00000000000E+00 0. -1.
         -2    1    6    6    0  503 -0.21366103666E+03  0.13337343830E+03  0.20179626133E+03  0.32274021088E+03  0.00000000000E+00 0.  1.
<mgrwt>
<rscale>  0 0.30976325E+04</rscale>
<asrwt>0</asrwt>
<pdfrwt beam="1">  1        2 0.30679252E+00 0.30976325E+04</pdfrwt>
<pdfrwt beam="2">  1       -1 0.18506671E+00 0.30976325E+04</pdfrwt>
<totfact> 0.12449565E+00</totfact>
</mgrwt>
</event>
<event>
12    6  0.1403409E-007  0.2112749E+04  0.7818608E-02  0.8555648E-01
         -1   -1    0    0    0  501 -0.00000000000E+00  0.00000000000E+00  0.63284324420E+03  0.63284324420E+03  0.00000000000E+00 0.  1.
          2   -1    0    0  501    0  0.00000000000E+00 -0.00000000000E+00 -0.17633543204E+04  0.17633543204E+04  0.00000000000E+00 0. -1.
         24    2    1    2    0    0  0.78365290600E+03  0.25193878046E+03 -0.17431870789E+03  0.84548126971E+03  0.82864584289E+02 0.  0.
        254    2    1    2    0    0 -0.78365290600E+03 -0.25193878046E+03 -0.95619236834E+03  0.15507162949E+04  0.90157204697E+03 0.  0.
         23    2    4    4    0    0 -0.16665013626E+03 -0.49010182033E+03 -0.58569126613E+03  0.78690456519E+03  0.90622697492E+02 0.  0.
         23    2    4    4    0    0 -0.61700276974E+03  0.23816303987E+03 -0.37050110221E+03  0.76381172972E+03  0.93398288519E+02 0.  0.
          2    1    3    3  502    0  0.11832618626E+03  0.30704554780E+02 -0.55847175208E+02  0.13439777907E+03  0.00000000000E+00 0. -1.
         -1    1    3    3    0  502  0.66532671974E+03  0.22123422568E+03 -0.11847153268E+03  0.71108349064E+03  0.00000000000E+00 0.  1.
         11    1    5    5    0    0 -0.45683834896E+02 -0.17025955440E+03 -0.26381860538E+03  0.31729416191E+03  0.00000000000E+00 0. -1.
        -11    1    5    5    0    0 -0.12096630136E+03 -0.31984226592E+03 -0.32187266075E+03  0.46961040328E+03  0.00000000000E+00 0.  1.
          2    1    6    6  503    0 -0.80031360688E+02  0.41011625144E+02 -0.17428135827E+02  0.91600829739E+02  0.00000000000E+00 0. -1.
         -2    1    6    6    0  503 -0.53697140905E+03  0.19715141473E+03 -0.35307296638E+03  0.67221089999E+03  0.00000000000E+00 0.  1.
<mgrwt>
<rscale>  0 0.21127488E+04</rscale>
<asrwt>0</asrwt>
<pdfrwt beam="1">  1        2 0.27128527E+00 0.21127488E+04</pdfrwt>
<pdfrwt beam="2">  1       -1 0.97360502E-01 0.21127488E+04</pdfrwt>
<totfact> 0.96026362E+00</totfact>
</mgrwt>
</event>
<event>
12    6  0.1403409E-007  0.1602492E+04  0.7818608E-02  0.8819018E-01
         -1   -1    0    0    0  501 -0.00000000000E+00  0.00000000000E+00  0.27207230574E+03  0.27207230574E+03  0.00000000000E+00 0.  1.
          2   -1    0    0  501    0  0.00000000000E+00 -0.00000000000E+00 -0.23596502192E+04  0.23596502192E+04  0.00000000000E+00 0. -1.
         24    2    1    2    0    0  0.22809116732E+03 -0.47877361925E+03 -0.80574727948E+03  0.96844345885E+03  0.86048216099E+02 0.  0.
        254    2    1    2    0    0 -0.22809116732E+03  0.47877361925E+03 -0.12818306340E+04  0.16632790661E+04  0.91769151591E+03 0.  0.
         23    2    4    4    0    0 -0.31919808022E+03 -0.58251209287E+02 -0.97418041803E+03  0.10310413367E+04  0.93477982818E+02 0.  0.
         23    2    4    4    0    0  0.91106912900E+02  0.53702482853E+03 -0.30765021593E+03  0.63223772939E+03  0.91541002097E+02 0.  0.
          2    1    3    3  502    0  0.20798755863E+03 -0.44771873289E+03 -0.78097058102E+03  0.92391879337E+03  0.00000000000E+00 0. -1.
         -1    1    3    3    0  502  0.20103608688E+02 -0.31054886359E+02 -0.24776698461E+02  0.44524665475E+02  0.00000000000E+00 0.  1.
         11    1    5    5    0    0 -0.27039371532E+03 -0.61690456765E+02 -0.70764203609E+03  0.76004981744E+03  0.00000000000E+00 0. -1.
        -11    1    5    5    0    0 -0.48804364900E+02  0.34392474782E+01 -0.26653838193E+03  0.27099151924E+03  0.00000000000E+00 0.  1.
          3    1    6    6  503    0  0.85048160680E+01  0.27999910381E+03 -0.12823296088E+03  0.30808362873E+03  0.00000000000E+00 0.  1.
         -3    1    6    6    0  503  0.82602096832E+02  0.25702572472E+03 -0.17941725505E+03  0.32415410067E+03  0.00000000000E+00 0. -1.
<mgrwt>
<rscale>  0 0.16024924E+04</rscale>
<asrwt>0</asrwt>
<pdfrwt beam="1">  1        2 0.36302312E+00 0.16024924E+04</pdfrwt>
<pdfrwt beam="2">  1       -1 0.41857276E-01 0.16024924E+04</pdfrwt>
<totfact> 0.25684454E+01</totfact>
</mgrwt>
</event>
<event>
12    6  0.1403409E-007  0.3048037E+04  0.7818608E-02  0.8230145E-01
          2   -1    0    0  501    0  0.00000000000E+00  0.00000000000E+00  0.22886136311E+04  0.22886136311E+04  0.00000000000E+00 0. -1.
         -1   -1    0    0    0  501 -0.00000000000E+00 -0.00000000000E+00 -0.10148645802E+04  0.10148645802E+04  0.00000000000E+00 0.  1.
         24    2    1    2    0    0 -0.85626872216E+03 -0.82643666150E+03  0.13598736488E+04  0.18089750576E+04  0.83311093433E+02 0.  0.
        254    2    1    2    0    0  0.85626872216E+03  0.82643666150E+03 -0.86124597871E+02  0.14945031538E+04  0.89996030490E+03 0.  0.
         23    2    4    4    0    0 -0.49785131641E+02  0.16567451460E+03  0.25113379885E+03  0.32006002558E+03  0.97178345984E+02 0.  0.
         23    2    4    4    0    0  0.90605385381E+03  0.66076214690E+03 -0.33725839673E+03  0.11744431282E+04  0.89628313257E+02 0.  0.
          2    1    3    3  502    0 -0.17010266091E+03 -0.21189639922E+03  0.30028907087E+03  0.40497966040E+03  0.00000000000E+00 0. -1.
         -1    1    3    3    0  502 -0.68616606125E+03 -0.61454026227E+03  0.10595845779E+04  0.14039953972E+04  0.00000000000E+00 0.  1.
         11    1    5    5    0    0  0.24474935476E+02  0.25543488860E+02  0.22920720601E+02  0.42152719042E+02  0.00000000000E+00 0. -1.
        -11    1    5    5    0    0 -0.74260067117E+02  0.14013102574E+03  0.22821307825E+03  0.27790730654E+03  0.00000000000E+00 0.  1.
          3    1    6    6  503    0  0.11915733697E+03  0.55895339477E+02 -0.24955183855E+02  0.13396089404E+03  0.00000000000E+00 0. -1.
         -3    1    6    6    0  503  0.78689651683E+03  0.60486680742E+03 -0.31230321287E+03  0.10404822342E+04  0.00000000000E+00 0.  1.
<mgrwt>
<rscale>  0 0.30480373E+04</rscale>
<asrwt>0</asrwt>
<pdfrwt beam="1">  1        2 0.35209440E+00 0.30480373E+04</pdfrwt>
<pdfrwt beam="2">  1       -1 0.15613301E+00 0.30480373E+04</pdfrwt>
<totfact> 0.13951155E+00</totfact>
</mgrwt>
</event>
<event>
12    6  0.1403409E-007  0.4078454E+04  0.7818608E-02  0.7988904E-01
         -1   -1    0    0    0  501 -0.00000000000E+00  0.00000000000E+00  0.15562210227E+04  0.15562210227E+04  0.00000000000E+00 0.  1.
          2   -1    0    0  501    0  0.00000000000E+00 -0.00000000000E+00 -0.26721442105E+04  0.26721442105E+04  0.00000000000E+00 0. -1.
         24    2    1    2    0    0  0.15937905059E+04 -0.10805956308E+04 -0.77597609853E+03  0.20777103059E+04  0.82982623523E+02 0.  0.
        254    2    1    2    0    0 -0.15937905059E+04  0.10805956308E+04 -0.33994708929E+03  0.21506549273E+04  0.89548729703E+03 0.  0.
         23    2    4    4    0    0 -0.96659114274E+03  0.10960755191E+04 -0.38640110985E+03  0.15150087282E+04  0.10131953326E+03 0.  0.
         23    2    4    4    0    0 -0.62719936314E+03 -0.15479888393E+02  0.46454020566E+02  0.63564619918E+03  0.90936496733E+02 0.  0.
          2    1    3    3  502    0  0.10989623821E+04 -0.75523893156E+03 -0.49678860104E+03  0.14229908907E+04  0.00000000000E+00 0. -1.
         -3    1    3    3    0  502  0.49482812379E+03 -0.32535669919E+03 -0.27918749749E+03  0.65471941514E+03  0.00000000000E+00 0.  1.
         11    1    5    5    0    0 -0.38803867983E+03  0.51445961614E+03 -0.15939280377E+03  0.66381381394E+03  0.00000000000E+00 0.  1.
        -11    1    5    5    0    0 -0.57855246291E+03  0.58161590300E+03 -0.22700830609E+03  0.85119491423E+03  0.00000000000E+00 0. -1.
          4    1    6    6  503    0 -0.30721709444E+03 -0.45023500957E+02  0.48702634288E+02  0.31429509277E+03  0.00000000000E+00 0. -1.
         -4    1    6    6    0  503 -0.31998226870E+03  0.29543612563E+02 -0.22486137224E+01  0.32135110641E+03  0.00000000000E+00 0.  1.
<mgrwt>
<rscale>  0 0.40784541E+04</rscale>
<asrwt>0</asrwt>
<pdfrwt beam="1">  1        2 0.41109911E+00 0.40784541E+04</pdfrwt>
<pdfrwt beam="2">  1       -1 0.23941862E+00 0.40784541E+04</pdfrwt>
<totfact> 0.20097363E-01</totfact>
</mgrwt>
</event>
<event>
12    6  0.1403409E-007  0.1220038E+04  0.7818608E-02  0.9095496E-01
         -1   -1    0    0    0  501 -0.00000000000E+00  0.00000000000E+00  0.10334665760E+03  0.10334665760E+03  0.00000000000E+00 0.  1.
          2   -1    0    0  501    0  0.00000000000E+00 -0.00000000000E+00 -0.36007256530E+04  0.36007256530E+04  0.00000000000E+00 0. -1.
         24    2    1    2    0    0 -0.22838785694E+03  0.13304147271E+03 -0.78658376398E+03  0.83390956744E+03  0.82644432737E+02 0.  0.
        254    2    1    2    0    0  0.22838785694E+03 -0.13304147271E+03 -0.27107952314E+04  0.28701627432E+04  0.90529682360E+03 0.  0.
         23    2    4    4    0    0 -0.40837558101E+02  0.35027992913E+03 -0.79304814650E+03  0.87218085813E+03  0.86083399706E+02 0.  0.
         23    2    4    4    0    0  0.26922541504E+03 -0.48332140184E+03 -0.19177470849E+04  0.19979818850E+04  0.89976828190E+02 0.  0.
          2    1    3    3  502    0 -0.10729888122E+03  0.36013079820E+02 -0.43732064935E+03  0.45172927975E+03  0.00000000000E+00 0. -1.
         -1    1    3    3    0  502 -0.12108897571E+03  0.97028392891E+02 -0.34926311463E+03  0.38218028770E+03  0.00000000000E+00 0.  1.
         11    1    5    5    0    0  0.24222628887E+02  0.76092973808E+02 -0.20799598867E+03  0.22279858105E+03  0.00000000000E+00 0.  1.
        -11    1    5    5    0    0 -0.65060186989E+02  0.27418695532E+03 -0.58505215783E+03  0.64938227708E+03  0.00000000000E+00 0. -1.
          1    1    6    6  503    0  0.26514448281E+03 -0.45478259418E+03 -0.17393087089E+04  0.18172296469E+04  0.00000000000E+00 0. -1.
         -1    1    6    6    0  503  0.40809322307E+01 -0.28538807658E+02 -0.17843837605E+03  0.18075223816E+03  0.00000000000E+00 0.  1.
<mgrwt>
<rscale>  0 0.12200376E+04</rscale>
<asrwt>0</asrwt>
<pdfrwt beam="1">  1        2 0.55395780E+00 0.12200376E+04</pdfrwt>
<pdfrwt beam="2">  1       -1 0.15899485E-01 0.12200376E+04</pdfrwt>
<totfact> 0.23792702E+01</totfact>
</mgrwt>
</event>
<event>
12    6  0.1403409E-007  0.2573734E+04  0.7818608E-02  0.8377178E-01
         -1   -1    0    0    0  501 -0.00000000000E+00  0.00000000000E+00  0.12465619895E+04  0.12465619895E+04  0.00000000000E+00 0.  1.
          2   -1    0    0  501    0  0.00000000000E+00 -0.00000000000E+00 -0.13284748483E+04  0.13284748483E+04  0.00000000000E+00 0. -1.
         24    2    1    2    0    0  0.81948347972E+03 -0.76765852807E+03 -0.14150225552E+03  0.11356370845E+04  0.93786514023E+02 0.  0.
        254    2    1    2    0    0 -0.81948347972E+03  0.76765852807E+03  0.59589396658E+02  0.14393997533E+04  0.89859221246E+03 0.  0.
         23    2    4    4    0    0 -0.79559326027E+03  0.90207359225E+03 -0.10303344439E+03  0.12106617387E+04  0.91545361455E+02 0.  0.
         23    2    4    4    0    0 -0.23890219446E+02 -0.13441506418E+03  0.16262284105E+03  0.22873801460E+03  0.85069023925E+02 0.  0.
          4    1    3    3  502    0  0.44400917779E+03 -0.35762280871E+03 -0.91488502819E+02  0.57741524869E+03  0.00000000000E+00 0. -1.
         -3    1    3    3    0  502  0.37547430193E+03 -0.41003571936E+03 -0.50013752699E+02  0.55822183585E+03  0.00000000000E+00 0.  1.
         11    1    5    5    0    0 -0.78095071122E+03  0.86805921276E+03 -0.88924980991E+02  0.11710330749E+04  0.00000000000E+00 0. -1.
        -11    1    5    5    0    0 -0.14642549049E+02  0.34014379491E+02 -0.14108463399E+02  0.39628663796E+02  0.00000000000E+00 0.  1.
          4    1    6    6  503    0  0.32000211147E+02 -0.51023333502E+02  0.67088684879E+02  0.90157005906E+02  0.00000000000E+00 0. -1.
         -4    1    6    6    0  503 -0.55890430593E+02 -0.83391730676E+02  0.95534156170E+02  0.13858100870E+03  0.00000000000E+00 0.  1.
<mgrwt>
<rscale>  0 0.25737337E+04</rscale>
<asrwt>0</asrwt>
<pdfrwt beam="1">  1        2 0.20438075E+00 0.25737337E+04</pdfrwt>
<pdfrwt beam="2">  1       -1 0.19177877E+00 0.25737337E+04</pdfrwt>
<totfact> 0.27594646E+00</totfact>
</mgrwt>
</event>
<event>
12    6  0.1403409E-007  0.3056652E+04  0.7818608E-02  0.8227736E-01
          2   -1    0    0  501    0  0.00000000000E+00  0.00000000000E+00  0.29509311551E+04  0.29509311551E+04  0.00000000000E+00 0. -1.
         -1   -1    0    0    0  501 -0.00000000000E+00 -0.00000000000E+00 -0.79154036099E+03  0.79154036099E+03  0.00000000000E+00 0.  1.
         24    2    1    2    0    0  0.92516026156E+03  0.22809387090E+03  0.22341969101E+04  0.24302203833E+04  0.79918424866E+02 0.  0.
        254    2    1    2    0    0 -0.92516026156E+03 -0.22809387090E+03 -0.74806116079E+02  0.13122511327E+04  0.89914334613E+03 0.  0.
         23    2    4    4    0    0 -0.24822280013E+03  0.33199114635E+03 -0.65225062014E+02  0.42922589817E+03  0.90265625743E+02 0.  0.
         23    2    4    4    0    0 -0.67693746143E+03 -0.56008501724E+03 -0.95810540649E+01  0.88302523457E+03  0.87762264481E+02 0.  0.
          2    1    3    3  502    0  0.51416341942E+03  0.15943567683E+03  0.11986204615E+04  0.13139538682E+04  0.00000000000E+00 0. -1.
         -1    1    3    3    0  502  0.41099684214E+03  0.68658194067E+02  0.10355764486E+04  0.11162665151E+04  0.00000000000E+00 0.  1.
         11    1    5    5    0    0 -0.13404386412E+03  0.24721996326E+03 -0.30737369341E+02  0.28289618876E+03  0.00000000000E+00 0.  1.
        -11    1    5    5    0    0 -0.11417893601E+03  0.84771183091E+02 -0.34487692672E+02  0.14632970941E+03  0.00000000000E+00 0. -1.
          2    1    6    6  503    0 -0.30034513386E+02 -0.11694408901E+02 -0.13516256829E+02  0.34950255972E+02  0.00000000000E+00 0. -1.
         -2    1    6    6    0  503 -0.64690294805E+03 -0.54839060834E+03  0.39352027643E+01  0.84807497860E+03  0.00000000000E+00 0.  1.
<mgrwt>
<rscale>  0 0.30566525E+04</rscale>
<asrwt>0</asrwt>
<pdfrwt beam="1">  1        2 0.45398940E+00 0.30566525E+04</pdfrwt>
<pdfrwt beam="2">  1       -1 0.12177544E+00 0.30566525E+04</pdfrwt>
<totfact> 0.10793337E+00</totfact>
</mgrwt>
</event>
<event>
12    6  0.1403409E-007  0.1382714E+04  0.7818608E-02  0.8966427E-01
          2   -1    0    0  501    0  0.00000000000E+00  0.00000000000E+00  0.10952038179E+04  0.10952038179E+04  0.00000000000E+00 0. -1.
         -1   -1    0    0    0  501 -0.00000000000E+00 -0.00000000000E+00 -0.43642532487E+03  0.43642532487E+03  0.00000000000E+00 0.  1.
         24    2    1    2    0    0 -0.38181629065E+03 -0.96218076854E+02  0.20968907169E+03  0.45317873256E+03  0.79748722506E+02 0.  0.
        254    2    1    2    0    0  0.38181629065E+03  0.96218076854E+02  0.44908942139E+03  0.10784504103E+04  0.89796012209E+03 0.  0.
         23    2    4    4    0    0  0.46894022166E+02 -0.36426168478E+03  0.29783346542E+03  0.48187347573E+03  0.92798971812E+02 0.  0.
         23    2    4    4    0    0  0.33492226848E+03  0.46047976163E+03  0.15125595597E+03  0.59657693453E+03  0.93867661076E+02 0.  0.
          4    1    3    3  502    0 -0.12252929717E+03 -0.19574206623E+02  0.10737109497E+03  0.16408878775E+03  0.00000000000E+00 0. -1.
         -3    1    3    3    0  502 -0.25928699348E+03 -0.76643870231E+02  0.10231797672E+03  0.28908994481E+03  0.00000000000E+00 0.  1.
         11    1    5    5    0    0  0.12998885890E+02 -0.28752735971E+02 -0.60702148504E+00  0.31560407717E+02  0.00000000000E+00 0. -1.
        -11    1    5    5    0    0  0.33895136276E+02 -0.33550894881E+03  0.29844048691E+03  0.45031306801E+03  0.00000000000E+00 0.  1.
          2    1    6    6  503    0  0.29456048191E+02  0.27513026765E+02  0.36583911319E+02  0.54433518940E+02  0.00000000000E+00 0. -1.
         -2    1    6    6    0  503  0.30546622029E+03  0.43296673487E+03  0.11467204465E+03  0.54214341559E+03  0.00000000000E+00 0.  1.
<mgrwt>
<rscale>  0 0.13827143E+04</rscale>
<asrwt>0</asrwt>
<pdfrwt beam="1">  1        2 0.16849289E+00 0.13827143E+04</pdfrwt>
<pdfrwt beam="2">  1       -1 0.67142358E-01 0.13827143E+04</pdfrwt>
<totfact> 0.54787296E+01</totfact>
</mgrwt>
</event>
<event>
12    6  0.1403409E-007  0.3001484E+04  0.7818608E-02  0.8243307E-01
         -1   -1    0    0    0  501 -0.00000000000E+00  0.00000000000E+00  0.73004533709E+03  0.73004533709E+03  0.00000000000E+00 0.  1.
          2   -1    0    0  501    0  0.00000000000E+00 -0.00000000000E+00 -0.30850508961E+04  0.30850508961E+04  0.00000000000E+00 0. -1.
         24    2    1    2    0    0  0.64705237134E+03  0.11670381311E+04 -0.14289927237E+04  0.19568673712E+04  0.81577773914E+02 0.  0.
        254    2    1    2    0    0 -0.64705237134E+03 -0.11670381311E+04 -0.92601283534E+03  0.18582288620E+04  0.90269594092E+03 0.  0.
         23    2    4    4    0    0 -0.67617649802E+03 -0.40683093512E+03 -0.23969237978E+03  0.82963219922E+03  0.90061550105E+02 0.  0.
         23    2    4    4    0    0  0.29124126679E+02 -0.76020719601E+03 -0.68632045557E+03  0.10285966628E+04  0.90620811265E+02 0.  0.
          2    1    3    3  502    0  0.32442004821E+03  0.64150071774E+03 -0.72498037117E+03  0.10209642879E+04  0.00000000000E+00 0. -1.
         -1    1    3    3    0  502  0.32263232313E+03  0.52553741339E+03 -0.70401235254E+03  0.93590308330E+03  0.00000000000E+00 0.  1.
         11    1    5    5    0    0 -0.25313440598E+03 -0.15423851889E+03 -0.13596272294E+03  0.32611717255E+03  0.00000000000E+00 0. -1.
        -11    1    5    5    0    0 -0.42304209204E+03 -0.25259241623E+03 -0.10372965684E+03  0.50351502667E+03  0.00000000000E+00 0.  1.
          4    1    6    6  503    0  0.48192071302E+02 -0.54064698761E+03 -0.52801988108E+03  0.75724938809E+03  0.00000000000E+00 0. -1.
         -4    1    6    6    0  503 -0.19067944623E+02 -0.21956020841E+03 -0.15830057448E+03  0.27134727474E+03  0.00000000000E+00 0.  1.
<mgrwt>
<rscale>  0 0.30014843E+04</rscale>
<asrwt>0</asrwt>
<pdfrwt beam="1">  1        2 0.47462321E+00 0.30014843E+04</pdfrwt>
<pdfrwt beam="2">  1       -1 0.11231467E+00 0.30014843E+04</pdfrwt>
<totfact> 0.10858083E+00</totfact>
</mgrwt>
</event>
<event>
12    6  0.1403409E-007  0.1753005E+04  0.7818608E-02  0.8731698E-01
         -1   -1    0    0    0  501 -0.00000000000E+00  0.00000000000E+00  0.44537929264E+03  0.44537929264E+03  0.00000000000E+00 0.  1.
          2   -1    0    0  501    0  0.00000000000E+00 -0.00000000000E+00 -0.17249482437E+04  0.17249482437E+04  0.00000000000E+00 0. -1.
         24    2    1    2    0    0  0.63423422565E+03  0.71445424685E+02 -0.53867261002E+03  0.84005214041E+03  0.90343323654E+02 0.  0.
        254    2    1    2    0    0 -0.63423422565E+03 -0.71445424685E+02 -0.74089634108E+03  0.13302753960E+04  0.90185793738E+03 0.  0.
         23    2    4    4    0    0 -0.30031697305E+03  0.36918234579E+03 -0.13136432304E+03  0.50231227227E+03  0.92602077526E+02 0.  0.
         23    2    4    4    0    0 -0.33391725260E+03 -0.44062777047E+03 -0.60953201803E+03  0.82796312370E+03  0.91324090520E+02 0.  0.
          4    1    3    3  502    0  0.38540587122E+03  0.60045860486E+01 -0.35402599134E+03  0.52336234405E+03  0.00000000000E+00 0. -1.
         -3    1    3    3    0  502  0.24882835443E+03  0.65440838636E+02 -0.18464661868E+03  0.31668979636E+03  0.00000000000E+00 0.  1.
         11    1    5    5    0    0 -0.56416823009E+02  0.34848921400E+02 -0.43317180666E+02  0.79206586734E+02  0.00000000000E+00 0.  1.
        -11    1    5    5    0    0 -0.24390015004E+03  0.33433342439E+03 -0.88047142378E+02  0.42310568554E+03  0.00000000000E+00 0. -1.
          3    1    6    6  503    0 -0.27523688107E+03 -0.35081183013E+03 -0.53916600163E+03  0.69966010189E+03  0.00000000000E+00 0. -1.
         -3    1    6    6    0  503 -0.58680371525E+02 -0.89815940343E+02 -0.70366016403E+02  0.12830302181E+03  0.00000000000E+00 0.  1.
<mgrwt>
<rscale>  0 0.17530045E+04</rscale>
<asrwt>0</asrwt>
<pdfrwt beam="1">  1        2 0.26537665E+00 0.17530045E+04</pdfrwt>
<pdfrwt beam="2">  1       -1 0.68519892E-01 0.17530045E+04</pdfrwt>
<totfact> 0.22100783E+01</totfact>
</mgrwt>
</event>
<event>
12    6  0.1403409E-007  0.1112544E+04  0.7818608E-02  0.9193051E-01
         -3   -1    0    0    0  501 -0.00000000000E+00  0.00000000000E+00  0.23695838772E+03  0.23695838772E+03  0.00000000000E+00 0.  1.
          4   -1    0    0  501    0  0.00000000000E+00 -0.00000000000E+00 -0.13058766693E+04  0.13058766693E+04  0.00000000000E+00 0. -1.
         24    2    1    2    0    0 -0.13294064419E+03 -0.73066199936E+02 -0.31286304909E+03  0.35704706614E+03  0.81163018080E+02 0.  0.
        254    2    1    2    0    0  0.13294064419E+03  0.73066199936E+02 -0.75605523245E+03  0.11857879908E+04  0.90081172297E+03 0.  0.
         23    2    4    4    0    0  0.42566087915E+02  0.79463227576E+02  0.19020618662E+03  0.23046517065E+03  0.93859070286E+02 0.  0.
         23    2    4    4    0    0  0.90374556274E+02 -0.63970276405E+01 -0.94626141907E+03  0.95532282018E+03  0.94987026220E+02 0.  0.
          2    1    3    3  502    0 -0.35946790113E+02  0.15870777607E+02 -0.90487262461E+02  0.98650889347E+02  0.00000000000E+00 0. -1.
         -1    1    3    3    0  502 -0.96993854075E+02 -0.88936977543E+02 -0.22237578662E+03  0.25839617679E+03  0.00000000000E+00 0.  1.
         11    1    5    5    0    0  0.53632149311E+02  0.91414711758E+02  0.18527424036E+03  0.21344695150E+03  0.00000000000E+00 0. -1.
        -11    1    5    5    0    0 -0.11066061397E+02 -0.11951484181E+02  0.49319462673E+01  0.17018219148E+02  0.00000000000E+00 0.  1.
          2    1    6    6  503    0  0.49759828547E+02  0.40988952615E+02 -0.35783175932E+03  0.36359277048E+03  0.00000000000E+00 0.  1.
         -2    1    6    6    0  503  0.40614727727E+02 -0.47385980256E+02 -0.58842965976E+03  0.59173004970E+03  0.00000000000E+00 0. -1.
<mgrwt>
<rscale>  0 0.11125438E+04</rscale>
<asrwt>0</asrwt>
<pdfrwt beam="1">  1        4 0.20090410E+00 0.11125438E+04</pdfrwt>
<pdfrwt beam="2">  1       -3 0.36455137E-01 0.11125438E+04</pdfrwt>
<totfact> 0.21970806E+00</totfact>
</mgrwt>
</event>
<event>
12    6  0.1403409E-007  0.2916716E+04  0.7818608E-02  0.8267921E-01
         -1   -1    0    0    0  501 -0.00000000000E+00  0.00000000000E+00  0.79141615450E+03  0.79141615450E+03  0.00000000000E+00 0.  1.
          2   -1    0    0  501    0  0.00000000000E+00 -0.00000000000E+00 -0.26873447123E+04  0.26873447123E+04  0.00000000000E+00 0. -1.
         24    2    1    2    0    0 -0.48252528089E+03  0.99271282276E+03 -0.17185044469E+04  0.20440603035E+04  0.81336308082E+02 0.  0.
        254    2    1    2    0    0  0.48252528089E+03 -0.99271282276E+03 -0.17742411090E+03  0.14347005633E+04  0.89920909477E+03 0.  0.
         23    2    4    4    0    0  0.18763568211E+03 -0.74262696718E+02 -0.38464949253E+03  0.44429546373E+03  0.93386988714E+02 0.  0.
         23    2    4    4    0    0  0.29488959878E+03 -0.91845012604E+03  0.20722538163E+03  0.99040509961E+03  0.86309866415E+02 0.  0.
          4    1    3    3  502    0 -0.81317529969E+02  0.15076058131E+03 -0.32250165909E+03  0.36516929454E+03  0.00000000000E+00 0. -1.
         -3    1    3    3    0  502 -0.40120775092E+03  0.84195224145E+03 -0.13960027878E+04  0.16788910089E+04  0.00000000000E+00 0.  1.
         11    1    5    5    0    0  0.11960615039E+03 -0.46127290186E+01 -0.16320162757E+03  0.20238992001E+03  0.00000000000E+00 0.  1.
        -11    1    5    5    0    0  0.68029531725E+02 -0.69649967699E+02 -0.22144786496E+03  0.24190554372E+03  0.00000000000E+00 0. -1.
          2    1    6    6  503    0  0.14134447446E+03 -0.31074990635E+03  0.61304331543E+02  0.34684576662E+03  0.00000000000E+00 0. -1.
         -2    1    6    6    0  503  0.15354512432E+03 -0.60770021969E+03  0.14592105008E+03  0.64355933299E+03  0.00000000000E+00 0.  1.
<mgrwt>
<rscale>  0 0.29167160E+04</rscale>
<asrwt>0</asrwt>
<pdfrwt beam="1">  1        2 0.41343765E+00 0.29167160E+04</pdfrwt>
<pdfrwt beam="2">  1       -1 0.12175633E+00 0.29167160E+04</pdfrwt>
<totfact> 0.15804341E+00</totfact>
</mgrwt>
</event>
<event>
12    6  0.1403409E-007  0.2987490E+04  0.7818608E-02  0.8247312E-01
         -1   -1    0    0    0  501 -0.00000000000E+00  0.00000000000E+00  0.14953858754E+04  0.14953858754E+04  0.00000000000E+00 0.  1.
          2   -1    0    0  501    0  0.00000000000E+00 -0.00000000000E+00 -0.14921062068E+04  0.14921062068E+04  0.00000000000E+00 0. -1.
         24    2    1    2    0    0 -0.11649160138E+04  0.65344565058E+03 -0.23866261557E+03  0.13592133777E+04  0.80502326592E+02 0.  0.
        254    2    1    2    0    0  0.11649160138E+04 -0.65344565058E+03  0.24194228418E+03  0.16282787044E+04  0.89929691023E+03 0.  0.
         23    2    4    4    0    0  0.92909037602E+03 -0.69518564459E+03  0.49793147474E+03  0.12661749893E+04  0.93655447521E+02 0.  0.
         23    2    4    4    0    0  0.23582563781E+03  0.41739994007E+02 -0.25598919057E+03  0.36210371504E+03  0.90734096180E+02 0.  0.
          2    1    3    3  502    0 -0.63644981555E+03  0.39788032200E+03 -0.15223117147E+03  0.76586646872E+03  0.00000000000E+00 0. -1.
         -1    1    3    3    0  502 -0.52846619828E+03  0.25556532858E+03 -0.86431444099E+02  0.59334690900E+03  0.00000000000E+00 0.  1.
         11    1    5    5    0    0  0.66366080157E+03 -0.52415444970E+03  0.32357465164E+03  0.90547451751E+03  0.00000000000E+00 0. -1.
        -11    1    5    5    0    0  0.26542957446E+03 -0.17103119489E+03  0.17435682311E+03  0.36070047184E+03  0.00000000000E+00 0.  1.
          1    1    6    6  503    0  0.95303772829E+02  0.57304411644E+02 -0.83429399573E+02  0.13902183074E+03  0.00000000000E+00 0. -1.
         -1    1    6    6    0  503  0.14052186498E+03 -0.15564417637E+02 -0.17255979100E+03  0.22308188430E+03  0.00000000000E+00 0.  1.
<mgrwt>
<rscale>  0 0.29874903E+04</rscale>
<asrwt>0</asrwt>
<pdfrwt beam="1">  1        2 0.22955480E+00 0.29874903E+04</pdfrwt>
<pdfrwt beam="2">  1       -1 0.23005937E+00 0.29874903E+04</pdfrwt>
<totfact> 0.11801280E+00</totfact>
</mgrwt>
</event>
<event>
12    6  0.1403409E-007  0.1355106E+04  0.7818608E-02  0.8986972E-01
          2   -1    0    0  501    0  0.00000000000E+00  0.00000000000E+00  0.25143855073E+04  0.25143855073E+04  0.00000000000E+00 0. -1.
         -1   -1    0    0    0  501 -0.00000000000E+00 -0.00000000000E+00 -0.18258074043E+03  0.18258074043E+03  0.00000000000E+00 0.  1.
         24    2    1    2    0    0 -0.10600187980E+03 -0.35606356375E+03  0.61000177286E+03  0.71869757228E+03  0.80039849804E+02 0.  0.
        254    2    1    2    0    0  0.10600187980E+03  0.35606356375E+03  0.17218029940E+04  0.19782686755E+04  0.90051304386E+03 0.  0.
         23    2    4    4    0    0 -0.29451509533E+03  0.15573045054E+03  0.22301704070E+03  0.41126832491E+03  0.91727422437E+02 0.  0.
         23    2    4    4    0    0  0.40051697513E+03  0.20033311321E+03  0.14987859533E+04  0.15670003505E+04  0.92647510240E+02 0.  0.
          2    1    3    3  502    0 -0.75283750326E+02 -0.28634482549E+03  0.53683104115E+03  0.61306489778E+03  0.00000000000E+00 0. -1.
         -1    1    3    3    0  502 -0.30718129471E+02 -0.69718738265E+02  0.73170731714E+02  0.10563267450E+03  0.00000000000E+00 0.  1.
         11    1    5    5    0    0 -0.18216387553E+03  0.13286465646E+03  0.18108770620E+03  0.28918757204E+03  0.00000000000E+00 0. -1.
        -11    1    5    5    0    0 -0.11235121980E+03  0.22865794081E+02  0.41929334498E+02  0.12208075287E+03  0.00000000000E+00 0.  1.
          4    1    6    6  503    0  0.52586681073E+01 -0.86969373316E+01  0.35407008983E+02  0.36836756023E+02  0.00000000000E+00 0. -1.
         -4    1    6    6    0  503  0.39525830702E+03  0.20903005054E+03  0.14633789443E+04  0.15301635945E+04  0.00000000000E+00 0.  1.
<mgrwt>
<rscale>  0 0.13551064E+04</rscale>
<asrwt>0</asrwt>
<pdfrwt beam="1">  1        2 0.38682851E+00 0.13551064E+04</pdfrwt>
<pdfrwt beam="2">  1       -1 0.28089347E-01 0.13551064E+04</pdfrwt>
<totfact> 0.43667036E+01</totfact>
</mgrwt>
</event>
<event>
12    6  0.1403409E-007  0.3091843E+04  0.7818608E-02  0.8217980E-01
         -1   -1    0    0    0  501 -0.00000000000E+00  0.00000000000E+00  0.63654264759E+03  0.63654264759E+03  0.00000000000E+00 0.  1.
          2   -1    0    0  501    0  0.00000000000E+00 -0.00000000000E+00 -0.37544585932E+04  0.37544585932E+04  0.00000000000E+00 0. -1.
         24    2    1    2    0    0 -0.75508348486E+03  0.75206081764E+02  0.26617325819E+03  0.80767402970E+03  0.75379778707E+02 0.  0.
        254    2    1    2    0    0  0.75508348486E+03 -0.75206081764E+02 -0.33840892038E+04  0.35833272111E+04  0.90131411762E+03 0.  0.
         23    2    4    4    0    0  0.33813552807E+03  0.27964958048E+03 -0.24949977537E+04  0.25349545297E+04  0.91875752105E+02 0.  0.
         23    2    4    4    0    0  0.41694795678E+03 -0.35485566225E+03 -0.88909145011E+03  0.10483726813E+04  0.93986874624E+02 0.  0.
          4    1    3    3  502    0 -0.69180133599E+03  0.89767609696E+02  0.24502261823E+03  0.73938041337E+03  0.00000000000E+00 0. -1.
         -3    1    3    3    0  502 -0.63282148862E+02 -0.14561527932E+02  0.21150639963E+02  0.68293616328E+02  0.00000000000E+00 0.  1.
         11    1    5    5    0    0  0.15111557994E+03  0.17084872199E+03 -0.11140898294E+04  0.11371989062E+04  0.00000000000E+00 0.  1.
        -11    1    5    5    0    0  0.18701994814E+03  0.10880085850E+03 -0.13809079243E+04  0.13977556235E+04  0.00000000000E+00 0. -1.
          1    1    6    6  503    0  0.14775582864E+02 -0.43840959489E+01 -0.57504956563E+01  0.16450116916E+02  0.00000000000E+00 0. -1.
         -1    1    6    6    0  503  0.40217237392E+03 -0.35047156630E+03 -0.88334095445E+03  0.10319225644E+04  0.00000000000E+00 0.  1.
<mgrwt>
<rscale>  0 0.30918428E+04</rscale>
<asrwt>0</asrwt>
<pdfrwt beam="1">  1        2 0.57760903E+00 0.30918428E+04</pdfrwt>
<pdfrwt beam="2">  1       -1 0.97929636E-01 0.30918428E+04</pdfrwt>
<totfact> 0.51229576E-01</totfact>
</mgrwt>
</event>
<event>
12    6  0.1403409E-007  0.2591342E+04  0.7818608E-02  0.8371148E-01
          2   -1    0    0  501    0  0.00000000000E+00  0.00000000000E+00  0.21641843519E+04  0.21641843519E+04  0.00000000000E+00 0. -1.
         -1   -1    0    0    0  501 -0.00000000000E+00 -0.00000000000E+00 -0.77570245192E+03  0.77570245192E+03  0.00000000000E+00 0.  1.
         24    2    1    2    0    0 -0.55915696338E+03  0.78207279258E+03  0.13019105927E+04  0.16204820689E+04  0.81832643669E+02 0.  0.
        254    2    1    2    0    0  0.55915696338E+03 -0.78207279258E+03  0.86571307264E+02  0.13194047349E+04  0.89946645337E+03 0.  0.
         23    2    4    4    0    0  0.32266577837E+03  0.11504396058E+03 -0.10184040487E+03  0.36830214773E+03  0.89031941234E+02 0.  0.
         23    2    4    4    0    0  0.23649118502E+03 -0.89711675316E+03  0.18841171214E+03  0.95110258721E+03  0.91381665157E+02 0.  0.
          4    1    3    3  502    0 -0.39637557054E+03  0.60017335916E+03  0.10106683101E+04  0.12404725257E+04  0.00000000000E+00 0. -1.
         -3    1    3    3    0  502 -0.16278139284E+03  0.18189943341E+03  0.29124228262E+03  0.38000954320E+03  0.00000000000E+00 0.  1.
         11    1    5    5    0    0  0.19047063340E+03  0.11352191752E+03 -0.63012713082E+02  0.23051440292E+03  0.00000000000E+00 0.  1.
        -11    1    5    5    0    0  0.13219514497E+03  0.15220430606E+01 -0.38827691791E+02  0.13778774480E+03  0.00000000000E+00 0. -1.
          4    1    6    6  503    0 -0.84177090433E+00  0.65308179777E+00  0.42824510960E+01  0.44129900837E+01  0.00000000000E+00 0. -1.
         -4    1    6    6    0  503  0.23733295592E+03 -0.89776983496E+03  0.18412926104E+03  0.94668959712E+03  0.00000000000E+00 0.  1.
<mgrwt>
<rscale>  0 0.25913418E+04</rscale>
<asrwt>0</asrwt>
<pdfrwt beam="1">  1        2 0.33295144E+00 0.25913418E+04</pdfrwt>
<pdfrwt beam="2">  1       -1 0.11933884E+00 0.25913418E+04</pdfrwt>
<totfact> 0.34173600E+00</totfact>
</mgrwt>
</event>
<event>
12    6  0.1403409E-007  0.1576003E+04  0.7818608E-02  0.8835428E-01
         -3   -1    0    0    0  501 -0.00000000000E+00  0.00000000000E+00  0.11988651491E+04  0.11988651491E+04  0.00000000000E+00 0.  1.
          4   -1    0    0  501    0  0.00000000000E+00 -0.00000000000E+00 -0.51794487212E+03  0.51794487212E+03  0.00000000000E+00 0. -1.
         24    2    1    2    0    0 -0.16932034835E+02  0.25944741269E+03  0.73026879259E+03  0.77966647923E+03  0.83592198501E+02 0.  0.
        254    2    1    2    0    0  0.16932034835E+02 -0.25944741269E+03 -0.49348515586E+02  0.93714354201E+03  0.89900116162E+03 0.  0.
         23    2    4    4    0    0  0.12345617999E+03  0.14278406827E+03 -0.35348216987E+03  0.41348899214E+03  0.10195481193E+03 0.  0.
         23    2    4    4    0    0 -0.10652414515E+03 -0.40223148095E+03  0.30413365429E+03  0.52365454987E+03  0.92624241725E+02 0.  0.
          2    1    3    3  502    0 -0.29359144204E+02  0.12558668412E+03  0.25514908625E+03  0.28589339061E+03  0.00000000000E+00 0. -1.
         -1    1    3    3    0  502  0.12427109369E+02  0.13386072857E+03  0.47511970633E+03  0.49377308862E+03  0.00000000000E+00 0.  1.
         11    1    5    5    0    0  0.12948069292E+03  0.98183694527E+02 -0.31428039516E+03  0.35380426013E+03  0.00000000000E+00 0. -1.
        -11    1    5    5    0    0 -0.60245129275E+01  0.44600373742E+02 -0.39201774719E+02  0.59684732010E+02  0.00000000000E+00 0.  1.
          3    1    6    6  503    0 -0.87375943594E+02 -0.16694856097E+03  0.15896891232E+03  0.24653091615E+03  0.00000000000E+00 0. -1.
         -3    1    6    6    0  503 -0.19148201560E+02 -0.23528291998E+03  0.14516474196E+03  0.27712363372E+03  0.00000000000E+00 0.  1.
<mgrwt>
<rscale>  0 0.15760026E+04</rscale>
<asrwt>0</asrwt>
<pdfrwt beam="1">  1        4 0.79683827E-01 0.15760026E+04</pdfrwt>
<pdfrwt beam="2">  1       -3 0.18444079E+00 0.15760026E+04</pdfrwt>
<totfact> 0.56864960E-01</totfact>
</mgrwt>
</event>
<event>
12    6  0.1403409E-007  0.2494102E+04  0.7818608E-02  0.8405090E-01
         -1   -1    0    0    0  501 -0.00000000000E+00  0.00000000000E+00  0.55622302072E+03  0.55622302072E+03  0.00000000000E+00 0.  1.
          2   -1    0    0  501    0  0.00000000000E+00 -0.00000000000E+00 -0.27958867206E+04  0.27958867206E+04  0.00000000000E+00 0. -1.
         24    2    1    2    0    0 -0.75909714911E+03  0.14185959947E+01 -0.20130923083E+04  0.21529721325E+04  0.80733310862E+02 0.  0.
        254    2    1    2    0    0  0.75909714911E+03 -0.14185959947E+01 -0.22657139152E+03  0.11991376087E+04  0.90020326316E+03 0.  0.
         23    2    4    4    0    0  0.62801366978E+03 -0.39705265049E+03 -0.12550677037E+03  0.75890420659E+03  0.90175765466E+02 0.  0.
         23    2    4    4    0    0  0.13108347933E+03  0.39563405449E+03 -0.10106462115E+03  0.44023340214E+03  0.99409290725E+02 0.  0.
          2    1    3    3  502    0 -0.44943561283E+03  0.23861563800E+02 -0.10987623011E+04  0.11873669773E+04  0.00000000000E+00 0. -1.
         -1    1    3    3    0  502 -0.30966153628E+03 -0.22442967805E+02 -0.91433000719E+03  0.96560515528E+03  0.00000000000E+00 0.  1.
         11    1    5    5    0    0  0.99928455020E+01 -0.23067272959E+01  0.86336547058E+01  0.13405892198E+02  0.00000000000E+00 0.  1.
        -11    1    5    5    0    0  0.61802082428E+03 -0.39474592319E+03 -0.13414042508E+03  0.74549831439E+03  0.00000000000E+00 0. -1.
          1    1    6    6  503    0  0.67852031902E+02  0.29062507211E+03 -0.33624477796E+02  0.30032888019E+03  0.00000000000E+00 0. -1.
         -1    1    6    6    0  503  0.63231447426E+02  0.10500898238E+03 -0.67440143350E+02  0.13990452194E+03  0.00000000000E+00 0.  1.
<mgrwt>
<rscale>  0 0.24941023E+04</rscale>
<asrwt>0</asrwt>
<pdfrwt beam="1">  1        2 0.43013643E+00 0.24941023E+04</pdfrwt>
<pdfrwt beam="2">  1       -1 0.85572770E-01 0.24941023E+04</pdfrwt>
<totfact> 0.31842823E+00</totfact>
</mgrwt>
</event>
<event>
12    6  0.1403409E-007  0.2642027E+04  0.7818608E-02  0.8354064E-01
          2   -1    0    0  501    0  0.00000000000E+00  0.00000000000E+00  0.20433756685E+04  0.20433756685E+04  0.00000000000E+00 0. -1.
         -1   -1    0    0    0  501 -0.00000000000E+00 -0.00000000000E+00 -0.85401661984E+03  0.85401661984E+03  0.00000000000E+00 0.  1.
         24    2    1    2    0    0  0.11212853939E+04 -0.17518661455E+03  0.82063687391E+03  0.14026610892E+04  0.77730095257E+02 0.  0.
        254    2    1    2    0    0 -0.11212853939E+04  0.17518661455E+03  0.36872217474E+03  0.14947311992E+04  0.90016333580E+03 0.  0.
         23    2    4    4    0    0 -0.80461114440E+03 -0.29629129910E+03  0.13021604706E+03  0.87180721634E+03  0.88904307733E+02 0.  0.
         23    2    4    4    0    0 -0.31667424951E+03  0.47147791365E+03  0.23850612768E+03  0.62292398283E+03  0.92601901131E+02 0.  0.
          2    1    3    3  502    0  0.84024089407E+03 -0.16431924966E+03  0.60833886619E+03  0.10502769882E+04  0.00000000000E+00 0. -1.
         -1    1    3    3    0  502  0.28104449983E+03 -0.10867364889E+02  0.21229800772E+03  0.35238410093E+03  0.00000000000E+00 0.  1.
         11    1    5    5    0    0 -0.66249497402E+03 -0.25537970082E+03  0.75062542340E+02  0.71396972447E+03  0.00000000000E+00 0.  1.
        -11    1    5    5    0    0 -0.14211617038E+03 -0.40911598276E+02  0.55153504722E+02  0.15783749187E+03  0.00000000000E+00 0. -1.
          3    1    6    6  503    0 -0.48018440080E+01  0.22171472880E+02 -0.65274618083E+01  0.23605924536E+02  0.00000000000E+00 0. -1.
         -3    1    6    6    0  503 -0.31187240550E+03  0.44930644077E+03  0.24503358949E+03  0.59931805830E+03  0.00000000000E+00 0.  1.
<mgrwt>
<rscale>  0 0.26420271E+04</rscale>
<asrwt>0</asrwt>
<pdfrwt beam="1">  1        2 0.31436549E+00 0.26420271E+04</pdfrwt>
<pdfrwt beam="2">  1       -1 0.13138717E+00 0.26420271E+04</pdfrwt>
<totfact> 0.31285912E+00</totfact>
</mgrwt>
</event>
<event>
12    6  0.1403409E-007  0.1376155E+04  0.7818608E-02  0.8971262E-01
          2   -1    0    0  501    0  0.00000000000E+00  0.00000000000E+00  0.37253395888E+03  0.37253395888E+03  0.00000000000E+00 0. -1.
         -1   -1    0    0    0  501 -0.00000000000E+00 -0.00000000000E+00 -0.12708923328E+04  0.12708923328E+04  0.00000000000E+00 0.  1.
         24    2    1    2    0    0  0.80288881643E+02 -0.33547904222E+03 -0.49447368195E+02  0.35922249922E+03  0.87196728380E+02 0.  0.
        254    2    1    2    0    0 -0.80288881643E+02  0.33547904222E+03 -0.84891100576E+03  0.12842037925E+04  0.89974273695E+03 0.  0.
         23    2    4    4    0    0 -0.42860289612E+03 -0.31614204077E+02 -0.48572888858E+03  0.65488629339E+03  0.90794292817E+02 0.  0.
         23    2    4    4    0    0  0.34831401448E+03  0.36709324630E+03 -0.36318211718E+03  0.62931749911E+03  0.89772826015E+02 0.  0.
          4    1    3    3  502    0  0.14863372305E+02 -0.14711257806E+03  0.17466752015E+02  0.14888961645E+03  0.00000000000E+00 0. -1.
         -3    1    3    3    0  502  0.65425509338E+02 -0.18836646416E+03 -0.66914120210E+02  0.21033288277E+03  0.00000000000E+00 0.  1.
         11    1    5    5    0    0 -0.53831384404E+02  0.55141136838E+01 -0.11163184392E+03  0.12405600338E+03  0.00000000000E+00 0.  1.
        -11    1    5    5    0    0 -0.37477151172E+03 -0.37128317761E+02 -0.37409704465E+03  0.53083029001E+03  0.00000000000E+00 0. -1.
          3    1    6    6  503    0  0.16766443662E+03  0.20711170879E+03 -0.23892275155E+03  0.35789761725E+03  0.00000000000E+00 0. -1.
         -3    1    6    6    0  503  0.18064957786E+03  0.15998153751E+03 -0.12425936563E+03  0.27141988186E+03  0.00000000000E+00 0.  1.
<mgrwt>
<rscale>  0 0.13761549E+04</rscale>
<asrwt>0</asrwt>
<pdfrwt beam="1">  1        2 0.57312915E-01 0.13761549E+04</pdfrwt>
<pdfrwt beam="2">  1       -1 0.19552190E+00 0.13761549E+04</pdfrwt>
<totfact> 0.15541044E+01</totfact>
</mgrwt>
</event>
<event>
12    6  0.1403409E-007  0.2086418E+04  0.7818608E-02  0.8567250E-01
          2   -1    0    0  501    0  0.00000000000E+00  0.00000000000E+00  0.15818418182E+04  0.15818418182E+04  0.00000000000E+00 0. -1.
         -1   -1    0    0    0  501 -0.00000000000E+00 -0.00000000000E+00 -0.68798587960E+03  0.68798587960E+03  0.00000000000E+00 0.  1.
         24    2    1    2    0    0  0.32649071146E+03  0.23658127383E+03 -0.44789829384E+03  0.60784765500E+03  0.79366279209E+02 0.  0.
        254    2    1    2    0    0 -0.32649071146E+03 -0.23658127383E+03  0.13417542324E+04  0.16619800428E+04  0.89403934956E+03 0.  0.
         23    2    4    4    0    0 -0.82282721288E+01 -0.42562798872E+03  0.23956492222E+03  0.49585761091E+03  0.85185263338E+02 0.  0.
         23    2    4    4    0    0 -0.31826243933E+03  0.18904671489E+03  0.11021893102E+04  0.11661224319E+04  0.89390211379E+02 0.  0.
          4    1    3    3  502    0  0.60504752635E+02  0.86381738284E+02 -0.11623589813E+03  0.15695035462E+03  0.00000000000E+00 0. -1.
         -3    1    3    3    0  502  0.26598595882E+03  0.15019953554E+03 -0.33166239571E+03  0.45089730039E+03  0.00000000000E+00 0.  1.
         11    1    5    5    0    0  0.19474555562E+02 -0.14380162915E+03  0.43751357430E+02  0.15156631597E+03  0.00000000000E+00 0.  1.
        -11    1    5    5    0    0 -0.27702827691E+02 -0.28182635957E+03  0.19581356479E+03  0.34429129494E+03  0.00000000000E+00 0. -1.
          4    1    6    6  503    0 -0.18446803840E+03  0.12435971506E+03  0.52676569081E+03  0.57181805580E+03  0.00000000000E+00 0. -1.
         -4    1    6    6    0  503 -0.13379440093E+03  0.64686999828E+02  0.57542361937E+03  0.59430437605E+03  0.00000000000E+00 0.  1.
<mgrwt>
<rscale>  0 0.20864178E+04</rscale>
<asrwt>0</asrwt>
<pdfrwt beam="1">  1        2 0.24336028E+00 0.20864178E+04</pdfrwt>
<pdfrwt beam="2">  1       -1 0.10584398E+00 0.20864178E+04</pdfrwt>
<totfact> 0.10025037E+01</totfact>
</mgrwt>
</event>
<event>
12    6  0.1403409E-007  0.3155942E+04  0.7818608E-02  0.8200551E-01
          2   -1    0    0  501    0  0.00000000000E+00  0.00000000000E+00  0.16504688404E+04  0.16504688404E+04  0.00000000000E+00 0. -1.
         -1   -1    0    0    0  501 -0.00000000000E+00 -0.00000000000E+00 -0.15086579865E+04  0.15086579865E+04  0.00000000000E+00 0.  1.
         24    2    1    2    0    0 -0.94423342957E+03 -0.93419192600E+03  0.64199313902E+03  0.14774215128E+04  0.79547543665E+02 0.  0.
        254    2    1    2    0    0  0.94423342957E+03  0.93419192600E+03 -0.50018228513E+03  0.16817053141E+04  0.90203055431E+03 0.  0.
         23    2    4    4    0    0  0.10616359588E+04  0.82891016583E+03 -0.59585083554E+03  0.14756095215E+04  0.90676732492E+02 0.  0.
         23    2    4    4    0    0 -0.11740252924E+03  0.10528176017E+03  0.95668550408E+02  0.20609579253E+03  0.91953255856E+02 0.  0.
          2    1    3    3  502    0 -0.55712801861E+03 -0.53981290372E+03  0.41732904239E+03  0.88088201807E+03  0.00000000000E+00 0. -1.
         -1    1    3    3    0  502 -0.38710541097E+03 -0.39437902228E+03  0.22466409663E+03  0.59653949469E+03  0.00000000000E+00 0.  1.
         11    1    5    5    0    0  0.55686401878E+03  0.39678409429E+03 -0.26498521979E+03  0.73331597528E+03  0.00000000000E+00 0.  1.
        -11    1    5    5    0    0  0.50477194003E+03  0.43212607154E+03 -0.33086561575E+03  0.74229354627E+03  0.00000000000E+00 0. -1.
          4    1    6    6  503    0  0.97434317186E+01 -0.40928532387E+01 -0.36463514860E+01  0.11179525412E+02  0.00000000000E+00 0. -1.
         -4    1    6    6    0  503 -0.12714596096E+03  0.10937461341E+03  0.99314901894E+02  0.19491626711E+03  0.00000000000E+00 0.  1.
<mgrwt>
<rscale>  0 0.31559423E+04</rscale>
<asrwt>0</asrwt>
<pdfrwt beam="1">  1        2 0.25391828E+00 0.31559423E+04</pdfrwt>
<pdfrwt beam="2">  1       -1 0.23210123E+00 0.31559423E+04</pdfrwt>
<totfact> 0.91897974E-01</totfact>
</mgrwt>
</event>
<event>
12    6  0.1403409E-007  0.1273372E+04  0.7818608E-02  0.9050952E-01
         -1   -1    0    0    0  501 -0.00000000000E+00  0.00000000000E+00  0.60313365367E+03  0.60313365367E+03  0.00000000000E+00 0.  1.
          2   -1    0    0  501    0  0.00000000000E+00 -0.00000000000E+00 -0.67210533529E+03  0.67210533529E+03  0.00000000000E+00 0. -1.
         24    2    1    2    0    0  0.20319954866E+02 -0.26523692437E+03 -0.17929290241E+03  0.32977983781E+03  0.76454365194E+02 0.  0.
        254    2    1    2    0    0 -0.20319954866E+02  0.26523692437E+03  0.11032122079E+03  0.94545915115E+03  0.90053245812E+03 0.  0.
         23    2    4    4    0    0 -0.63921054541E+01  0.58079904982E+03  0.16848060183E+03  0.61195266679E+03  0.93444945880E+02 0.  0.
         23    2    4    4    0    0 -0.13927849412E+02 -0.31556212546E+03 -0.58159381041E+02  0.33350648436E+03  0.89836637835E+02 0.  0.
          2    1    3    3  502    0 -0.65906144154E+01 -0.10167736118E+03 -0.11051893657E+03  0.15032018266E+03  0.00000000000E+00 0. -1.
         -1    1    3    3    0  502  0.26910569281E+02 -0.16355956318E+03 -0.68773965843E+02  0.17945965515E+03  0.00000000000E+00 0.  1.
         11    1    5    5    0    0 -0.28046817424E+02  0.26340706709E+03  0.11740878985E+03  0.28974942777E+03  0.00000000000E+00 0.  1.
        -11    1    5    5    0    0  0.21654711969E+02  0.31739198273E+03  0.51071811979E+02  0.32220323902E+03  0.00000000000E+00 0. -1.
          3    1    6    6  503    0 -0.23965420761E+02 -0.27296497171E+03 -0.18820162977E+02  0.27466054632E+03  0.00000000000E+00 0. -1.
         -3    1    6    6    0  503  0.10037571349E+02 -0.42597153751E+02 -0.39339218064E+02  0.58845938043E+02  0.00000000000E+00 0.  1.
<mgrwt>
<rscale>  0 0.12733724E+04</rscale>
<asrwt>0</asrwt>
<pdfrwt beam="1">  1        2 0.10340082E+00 0.12733724E+04</pdfrwt>
<pdfrwt beam="2">  1       -1 0.92789793E-01 0.12733724E+04</pdfrwt>
<totfact> 0.54636538E+01</totfact>
</mgrwt>
</event>
<event>
12    6  0.1403409E-007  0.1215352E+04  0.7818608E-02  0.9099524E-01
         -3   -1    0    0    0  501 -0.00000000000E+00  0.00000000000E+00  0.78465560457E+03  0.78465560457E+03  0.00000000000E+00 0.  1.
          4   -1    0    0  501    0  0.00000000000E+00 -0.00000000000E+00 -0.47061430798E+03  0.47061430798E+03  0.00000000000E+00 0. -1.
         24    2    1    2    0    0  0.18579151218E+03  0.18950456650E+03  0.57723000281E+02  0.28293630240E+03  0.79312922830E+02 0.  0.
        254    2    1    2    0    0 -0.18579151218E+03 -0.18950456650E+03  0.25631829630E+03  0.97233361015E+03  0.89961275763E+03 0.  0.
         23    2    4    4    0    0  0.21614437687E+03  0.83102215259E+02 -0.18329721384E+03  0.30990753769E+03  0.93917216089E+02 0.  0.
         23    2    4    4    0    0 -0.40193588905E+03 -0.27260678176E+03  0.43961551015E+03  0.66242607247E+03  0.98384899003E+02 0.  0.
          2    1    3    3  502    0  0.84065643878E+02  0.89583072345E+02 -0.13421914822E+02  0.12358117627E+03  0.00000000000E+00 0. -1.
         -1    1    3    3    0  502  0.10172586830E+03  0.99921494158E+02  0.71144915102E+02  0.15935512612E+03  0.00000000000E+00 0.  1.
         11    1    5    5    0    0  0.22587289021E+03  0.79962760711E+02 -0.17443626548E+03  0.29637917664E+03  0.00000000000E+00 0.  1.
        -11    1    5    5    0    0 -0.97285133388E+01  0.31394545483E+01 -0.88609483647E+01  0.13528361045E+02  0.00000000000E+00 0. -1.
          1    1    6    6  503    0 -0.36459572630E+02 -0.18520732853E+02  0.81295938727E+02  0.91001910064E+02  0.00000000000E+00 0. -1.
         -1    1    6    6    0  503 -0.36547631642E+03 -0.25408604891E+03  0.35831957142E+03  0.57142416240E+03  0.00000000000E+00 0.  1.
<mgrwt>
<rscale>  0 0.12153521E+04</rscale>
<asrwt>0</asrwt>
<pdfrwt beam="1">  1        4 0.72402202E-01 0.12153521E+04</pdfrwt>
<pdfrwt beam="2">  1       -3 0.12071625E+00 0.12153521E+04</pdfrwt>
<totfact> 0.21815756E+00</totfact>
</mgrwt>
</event>
<event>
12    6  0.1403409E-007  0.1318622E+04  0.7818608E-02  0.9014927E-01
          2   -1    0    0  501    0  0.00000000000E+00  0.00000000000E+00  0.15755492703E+04  0.15755492703E+04  0.00000000000E+00 0. -1.
         -1   -1    0    0    0  501 -0.00000000000E+00 -0.00000000000E+00 -0.27589802289E+03  0.27589802289E+03  0.00000000000E+00 0.  1.
         24    2    1    2    0    0 -0.56649806900E+01  0.34133605651E+03  0.28355746758E+03  0.45139870696E+03  0.82544289621E+02 0.  0.
        254    2    1    2    0    0  0.56649806900E+01 -0.34133605651E+03  0.10160937798E+04  0.14000485862E+04  0.90063704059E+03 0.  0.
         23    2    4    4    0    0  0.22515391070E+03 -0.56683466389E+03  0.79683754230E+03  0.10074477891E+04  0.89471555365E+02 0.  0.
         23    2    4    4    0    0 -0.21948893001E+03  0.22549860738E+03  0.21925623749E+03  0.39260079710E+03  0.83887280819E+02 0.  0.
          2    1    3    3  502    0  0.18374105910E+02  0.51842114051E+02  0.78388467133E+02  0.95759930748E+02  0.00000000000E+00 0. -1.
         -1    1    3    3    0  502 -0.24039086600E+02  0.28949394246E+03  0.20516900044E+03  0.35563877622E+03  0.00000000000E+00 0.  1.
         11    1    5    5    0    0  0.20392508552E+03 -0.42308289825E+03  0.57802085616E+03  0.74477693940E+03  0.00000000000E+00 0. -1.
        -11    1    5    5    0    0  0.21228825176E+02 -0.14375176564E+03  0.21881668614E+03  0.26267084969E+03  0.00000000000E+00 0.  1.
          1    1    6    6  503    0 -0.16885985307E+03  0.13835800523E+03  0.18502287495E+03  0.28616437906E+03  0.00000000000E+00 0. -1.
         -1    1    6    6    0  503 -0.50629076943E+02  0.87140602153E+02  0.34233362539E+02  0.10643641805E+03  0.00000000000E+00 0.  1.
<mgrwt>
<rscale>  0 0.13186219E+04</rscale>
<asrwt>0</asrwt>
<pdfrwt beam="1">  1        2 0.24239219E+00 0.13186219E+04</pdfrwt>
<pdfrwt beam="2">  1       -1 0.42445851E-01 0.13186219E+04</pdfrwt>
<totfact> 0.70075218E+01</totfact>
</mgrwt>
</event>
<event>
12    6  0.1403409E-007  0.2680121E+04  0.7818608E-02  0.8341484E-01
          2   -1    0    0  501    0  0.00000000000E+00  0.00000000000E+00  0.26439918742E+04  0.26439918742E+04  0.00000000000E+00 0. -1.
         -1   -1    0    0    0  501 -0.00000000000E+00 -0.00000000000E+00 -0.67918608583E+03  0.67918608583E+03  0.00000000000E+00 0.  1.
         24    2    1    2    0    0 -0.11563005443E+04 -0.60013160567E+02  0.12032471822E+04  0.16718762656E+04  0.82060572820E+02 0.  0.
        254    2    1    2    0    0  0.11563005443E+04  0.60013160567E+02  0.76155860615E+03  0.16513016944E+04  0.89788264667E+03 0.  0.
         23    2    4    4    0    0  0.12074044842E+04  0.16973686461E+03  0.44717445654E+03  0.13020972209E+04  0.94106249755E+02 0.  0.
         23    2    4    4    0    0 -0.51103939891E+02 -0.10972370404E+03  0.31438414961E+03  0.34920447358E+03  0.91953613004E+02 0.  0.
          2    1    3    3  502    0 -0.66971627113E+03 -0.47657103720E+02  0.75243794095E+03  0.10084413411E+04  0.00000000000E+00 0. -1.
         -1    1    3    3    0  502 -0.48658427320E+03 -0.12356056848E+02  0.45080924123E+03  0.66343492450E+03  0.00000000000E+00 0.  1.
         11    1    5    5    0    0  0.93442401888E+01  0.10768973427E+02  0.35978942133E+01  0.14704776644E+02  0.00000000000E+00 0. -1.
        -11    1    5    5    0    0  0.11980602440E+04  0.15896789118E+03  0.44357656232E+03  0.12873924442E+04  0.00000000000E+00 0.  1.
          3    1    6    6  503    0  0.16211649009E+02 -0.44355394032E+02  0.17440521833E+03  0.18068591181E+03  0.00000000000E+00 0. -1.
         -3    1    6    6    0  503 -0.67315588900E+02 -0.65368310009E+02  0.13997893128E+03  0.16851856178E+03  0.00000000000E+00 0.  1.
<mgrwt>
<rscale>  0 0.26801213E+04</rscale>
<asrwt>0</asrwt>
<pdfrwt beam="1">  1        2 0.40676798E+00 0.26801213E+04</pdfrwt>
<pdfrwt beam="2">  1       -1 0.10449017E+00 0.26801213E+04</pdfrwt>
<totfact> 0.24655068E+00</totfact>
</mgrwt>
</event>
<event>
12    6  0.1403409E-007  0.1141198E+04  0.7818608E-02  0.9165942E-01
         -1   -1    0    0    0  501 -0.00000000000E+00  0.00000000000E+00  0.75312427630E+03  0.75312427630E+03  0.00000000000E+00 0.  1.
          2   -1    0    0  501    0  0.00000000000E+00 -0.00000000000E+00 -0.43231014152E+03  0.43231014152E+03  0.00000000000E+00 0. -1.
         24    2    1    2    0    0 -0.10826620113E+03 -0.15999504705E+02 -0.11677841591E+03  0.17835492220E+03  0.78712930286E+02 0.  0.
        254    2    1    2    0    0  0.10826620113E+03  0.15999504705E+02  0.43759255069E+03  0.10070794956E+04  0.90041341373E+03 0.  0.
         23    2    4    4    0    0  0.25866294691E+03 -0.35935300074E+03  0.37701555377E+03  0.58863251136E+03  0.91139488638E+02 0.  0.
         23    2    4    4    0    0 -0.15039674578E+03  0.37535250545E+03  0.60576996917E+02  0.41844698427E+03  0.88992255825E+02 0.  0.
          2    1    3    3  502    0 -0.74474565114E+02 -0.33261243542E+02 -0.11418040536E+03  0.14032083287E+03  0.00000000000E+00 0. -1.
         -1    1    3    3    0  502 -0.33791636017E+02  0.17261738837E+02 -0.25980105516E+01  0.38034089331E+02  0.00000000000E+00 0.  1.
         11    1    5    5    0    0  0.21287730342E+02 -0.69556236818E+02  0.95452938286E+02  0.12001042026E+03  0.00000000000E+00 0. -1.
        -11    1    5    5    0    0  0.23737521657E+03 -0.28979676393E+03  0.28156261549E+03  0.46862209110E+03  0.00000000000E+00 0.  1.
          2    1    6    6  503    0  0.47161655940E+01  0.28387008065E+02  0.22416127146E+02  0.36476666528E+02  0.00000000000E+00 0. -1.
         -2    1    6    6    0  503 -0.15511291138E+03  0.34696549738E+03  0.38160869771E+02  0.38197031774E+03  0.00000000000E+00 0.  1.
<mgrwt>
<rscale>  0 0.11411981E+04</rscale>
<asrwt>0</asrwt>
<pdfrwt beam="1">  1        2 0.66509253E-01 0.11411981E+04</pdfrwt>
<pdfrwt beam="2">  1       -1 0.11586527E+00 0.11411981E+04</pdfrwt>
<totfact> 0.55650016E+01</totfact>
</mgrwt>
</event>
<event>
12    6  0.1403409E-007  0.1838132E+04  0.7818608E-02  0.8686280E-01
          2   -1    0    0  501    0  0.00000000000E+00  0.00000000000E+00  0.12883785350E+04  0.12883785350E+04  0.00000000000E+00 0. -1.
         -1   -1    0    0    0  501 -0.00000000000E+00 -0.00000000000E+00 -0.65561635989E+03  0.65561635989E+03  0.00000000000E+00 0.  1.
         24    2    1    2    0    0 -0.68361478373E+03  0.53994729627E+02  0.35690039490E+03  0.77723373067E+03  0.80434923103E+02 0.  0.
        254    2    1    2    0    0  0.68361478373E+03 -0.53994729627E+02  0.27586178019E+03  0.11667611642E+04  0.90276646435E+03 0.  0.
         23    2    4    4    0    0  0.68719797528E+03  0.47864148916E+02  0.53205801947E+03  0.87591434804E+03  0.98021298961E+02 0.  0.
         23    2    4    4    0    0 -0.35831915473E+01 -0.10185887854E+03 -0.25619623927E+03  0.29084681616E+03  0.92559640527E+02 0.  0.
          4    1    3    3  502    0 -0.12593028690E+03  0.19684517532E+02  0.10127568445E+03  0.16279644238E+03  0.00000000000E+00 0. -1.
         -3    1    3    3    0  502 -0.55768449683E+03  0.34310212095E+02  0.25562471045E+03  0.61443728829E+03  0.00000000000E+00 0.  1.
         11    1    5    5    0    0  0.28742137668E+03  0.65754067742E+01  0.28115751273E+03  0.40212414838E+03  0.00000000000E+00 0.  1.
        -11    1    5    5    0    0  0.39977659860E+03  0.41288742142E+02  0.25090050674E+03  0.47379019966E+03  0.00000000000E+00 0. -1.
          3    1    6    6  503    0 -0.41191024393E+02 -0.84409487727E+02 -0.15164645428E+03  0.17837687408E+03  0.00000000000E+00 0. -1.
         -3    1    6    6    0  503  0.37607832846E+02 -0.17449390817E+02 -0.10454978499E+03  0.11246994209E+03  0.00000000000E+00 0.  1.
<mgrwt>
<rscale>  0 0.18381317E+04</rscale>
<asrwt>0</asrwt>
<pdfrwt beam="1">  1        2 0.19821208E+00 0.18381317E+04</pdfrwt>
<pdfrwt beam="2">  1       -1 0.10086406E+00 0.18381317E+04</pdfrwt>
<totfact> 0.16837635E+01</totfact>
</mgrwt>
</event>
<event>
12    6  0.1403409E-007  0.1558439E+04  0.7818608E-02  0.8846496E-01
          2   -1    0    0  501    0  0.00000000000E+00  0.00000000000E+00  0.11653276041E+04  0.11653276041E+04  0.00000000000E+00 0. -1.
         -1   -1    0    0    0  501 -0.00000000000E+00 -0.00000000000E+00 -0.52104042976E+03  0.52104042976E+03  0.00000000000E+00 0.  1.
         24    2    1    2    0    0  0.32417668599E+03  0.36726955748E+03  0.42073120450E+02  0.49848263759E+03  0.82081306798E+02 0.  0.
        254    2    1    2    0    0 -0.32417668599E+03 -0.36726955748E+03  0.60221405390E+03  0.11878853963E+04  0.89912874293E+03 0.  0.
         23    2    4    4    0    0 -0.16497415331E+03 -0.22849471048E+03 -0.19739384621E+03  0.35592012393E+03  0.91041200106E+02 0.  0.
         23    2    4    4    0    0 -0.15920253268E+03 -0.13877484700E+03  0.79960790011E+03  0.83196527234E+03  0.90495944004E+02 0.  0.
          4    1    3    3  502    0  0.18229152008E+03  0.25400056337E+03  0.50684883283E+02  0.31672613072E+03  0.00000000000E+00 0. -1.
         -3    1    3    3    0  502  0.14188516592E+03  0.11326899411E+03 -0.86117628331E+01  0.18175650688E+03  0.00000000000E+00 0.  1.
         11    1    5    5    0    0 -0.70240539373E+02 -0.32939542023E+02 -0.66988958919E+02  0.10250008496E+03  0.00000000000E+00 0. -1.
        -11    1    5    5    0    0 -0.94733613941E+02 -0.19555516846E+03 -0.13040488729E+03  0.25342003897E+03  0.00000000000E+00 0.  1.
          3    1    6    6  503    0 -0.95965293008E+02 -0.12501813859E+03  0.46010109053E+03  0.48634543891E+03  0.00000000000E+00 0. -1.
         -3    1    6    6    0  503 -0.63237239671E+02 -0.13756708410E+02  0.33950680958E+03  0.34561983343E+03  0.00000000000E+00 0.  1.
<mgrwt>
<rscale>  0 0.15584387E+04</rscale>
<asrwt>0</asrwt>
<pdfrwt beam="1">  1        2 0.17928117E+00 0.15584387E+04</pdfrwt>
<pdfrwt beam="2">  1       -1 0.80160067E-01 0.15584387E+04</pdfrwt>
<totfact> 0.33865948E+01</totfact>
</mgrwt>
</event>
<event>
12    6  0.1403409E-007  0.1958824E+04  0.7818608E-02  0.8626118E-01
         -1   -1    0    0    0  501 -0.00000000000E+00  0.00000000000E+00  0.10498420591E+04  0.10498420591E+04  0.00000000000E+00 0.  1.
          2   -1    0    0  501    0  0.00000000000E+00 -0.00000000000E+00 -0.91370642789E+03  0.91370642789E+03  0.00000000000E+00 0. -1.
         24    2    1    2    0    0  0.53312629735E+03 -0.49864263847E+03  0.28671227774E+03  0.78839291593E+03  0.80568789614E+02 0.  0.
        254    2    1    2    0    0 -0.53312629735E+03  0.49864263847E+03 -0.15057664651E+03  0.11751555711E+04  0.90854232699E+03 0.  0.
         23    2    4    4    0    0 -0.65739913605E+03  0.71577846746E+02 -0.24879934555E+03  0.71183280185E+03  0.86647626710E+02 0.  0.
         23    2    4    4    0    0  0.12427283871E+03  0.42706479173E+03  0.98222699037E+02  0.46332276922E+03  0.84806928379E+02 0.  0.
          4    1    3    3  502    0  0.43724427617E+02 -0.68841186111E+02  0.16382015949E+02  0.83182359441E+02  0.00000000000E+00 0. -1.
         -3    1    3    3    0  502  0.48940186973E+03 -0.42980145236E+03  0.27033026179E+03  0.70521055649E+03  0.00000000000E+00 0.  1.
         11    1    5    5    0    0 -0.59164273472E+03  0.57908081528E+02 -0.19454209766E+03  0.62549268518E+03  0.00000000000E+00 0. -1.
        -11    1    5    5    0    0 -0.65756401331E+02  0.13669765218E+02 -0.54257247894E+02  0.86340116667E+02  0.00000000000E+00 0.  1.
          2    1    6    6  503    0  0.10272802161E+03  0.34959929032E+03  0.45586396645E+02  0.36722041035E+03  0.00000000000E+00 0. -1.
         -2    1    6    6    0  503  0.21544817095E+02  0.77465501404E+02  0.52636302392E+02  0.96102358873E+02  0.00000000000E+00 0.  1.
<mgrwt>
<rscale>  0 0.19588236E+04</rscale>
<asrwt>0</asrwt>
<pdfrwt beam="1">  1        2 0.14057022E+00 0.19588236E+04</pdfrwt>
<pdfrwt beam="2">  1       -1 0.16151416E+00 0.19588236E+04</pdfrwt>
<totfact> 0.86894390E+00</totfact>
</mgrwt>
</event>
<event>
12    6  0.1403409E-007  0.2882589E+04  0.7818608E-02  0.8278077E-01
         -1   -1    0    0    0  501 -0.00000000000E+00  0.00000000000E+00  0.90545130735E+03  0.90545130735E+03  0.00000000000E+00 0.  1.
          2   -1    0    0  501    0  0.00000000000E+00 -0.00000000000E+00 -0.22942480562E+04  0.22942480562E+04  0.00000000000E+00 0. -1.
         24    2    1    2    0    0 -0.11086787571E+04 -0.64771004469E+03 -0.42243418972E+03  0.13541055538E+04  0.80338769691E+02 0.  0.
        254    2    1    2    0    0  0.11086787571E+04  0.64771004469E+03 -0.96636255908E+03  0.18455938097E+04  0.90755882798E+03 0.  0.
         23    2    4    4    0    0  0.36174279234E+03  0.28288806776E+03 -0.88824191340E+03  0.10047747844E+04  0.98565531520E+02 0.  0.
         23    2    4    4    0    0  0.74693596474E+03  0.36482197693E+03 -0.78120645674E+02  0.84081902523E+03  0.99324657716E+02 0.  0.
          2    1    3    3  502    0 -0.80778886972E+03 -0.48134590957E+03 -0.34543597938E+03  0.10017698132E+04  0.00000000000E+00 0. -1.
         -1    1    3    3    0  502 -0.30088988736E+03 -0.16636413512E+03 -0.76998210338E+02  0.35233574069E+03  0.00000000000E+00 0.  1.
         11    1    5    5    0    0  0.28899560262E+03  0.24365711320E+03 -0.79423919571E+03  0.87960397177E+03  0.00000000000E+00 0.  1.
        -11    1    5    5    0    0  0.72747189727E+02  0.39230954556E+02 -0.94002717692E+02  0.12517081266E+03  0.00000000000E+00 0. -1.
          1    1    6    6  503    0  0.38971174714E+03  0.14214804859E+03 -0.14365500664E+02  0.41507551264E+03  0.00000000000E+00 0. -1.
         -1    1    6    6    0  503  0.35722421760E+03  0.22267392834E+03 -0.63755145011E+02  0.42574351259E+03  0.00000000000E+00 0.  1.
<mgrwt>
<rscale>  0 0.28825890E+04</rscale>
<asrwt>0</asrwt>
<pdfrwt beam="1">  1        2 0.35296124E+00 0.28825890E+04</pdfrwt>
<pdfrwt beam="2">  1       -1 0.13930020E+00 0.28825890E+04</pdfrwt>
<totfact> 0.19061678E+00</totfact>
</mgrwt>
</event>
<event>
12    6  0.1403409E-007  0.2112358E+04  0.7818608E-02  0.8555819E-01
          2   -1    0    0  501    0  0.00000000000E+00  0.00000000000E+00  0.58007552929E+03  0.58007552929E+03  0.00000000000E+00 0. -1.
         -1   -1    0    0    0  501 -0.00000000000E+00 -0.00000000000E+00 -0.19230492396E+04  0.19230492396E+04  0.00000000000E+00 0.  1.
         24    2    1    2    0    0 -0.68411600573E+03 -0.16556887815E+03  0.41890995092E+02  0.70984362039E+03  0.81825101490E+02 0.  0.
        254    2    1    2    0    0  0.68411600573E+03  0.16556887815E+03 -0.13848647054E+04  0.17932811485E+04  0.89586788231E+03 0.  0.
         23    2    4    4    0    0  0.86591085394E+03  0.76017554670E+02 -0.87630907188E+03  0.12381954899E+04  0.98133613345E+02 0.  0.
         23    2    4    4    0    0 -0.18179484821E+03  0.89551323479E+02 -0.50855563350E+03  0.55508565861E+03  0.91773905088E+02 0.  0.
          2    1    3    3  502    0 -0.59322841724E+03 -0.14474017862E+03  0.64117153444E+02  0.61398752731E+03  0.00000000000E+00 0. -1.
         -1    1    3    3    0  502 -0.90887588487E+02 -0.20828699526E+02 -0.22226158352E+02  0.95856093077E+02  0.00000000000E+00 0.  1.
         11    1    5    5    0    0  0.44471598351E+03 -0.50246608208E+01 -0.47707533918E+03  0.65222575268E+03  0.00000000000E+00 0. -1.
        -11    1    5    5    0    0  0.42119487043E+03  0.81042215491E+02 -0.39923373270E+03  0.58596973718E+03  0.00000000000E+00 0.  1.
          3    1    6    6  503    0 -0.27839107841E+02  0.31514511085E+02 -0.38299299508E+02  0.56877207009E+02  0.00000000000E+00 0. -1.
         -3    1    6    6    0  503 -0.15395574037E+03  0.58036812393E+02 -0.47025633399E+03  0.49820845160E+03  0.00000000000E+00 0.  1.
<mgrwt>
<rscale>  0 0.21123577E+04</rscale>
<asrwt>0</asrwt>
<pdfrwt beam="1">  1        2 0.89242390E-01 0.21123577E+04</pdfrwt>
<pdfrwt beam="2">  1       -1 0.29585373E+00 0.21123577E+04</pdfrwt>
<totfact> 0.19087253E+00</totfact>
</mgrwt>
</event>
<event>
12    6  0.1403409E-007  0.1529790E+04  0.7818608E-02  0.8864881E-01
         -1   -1    0    0    0  501 -0.00000000000E+00  0.00000000000E+00  0.48618278487E+03  0.48618278487E+03  0.00000000000E+00 0.  1.
          2   -1    0    0  501    0  0.00000000000E+00 -0.00000000000E+00 -0.12033841319E+04  0.12033841319E+04  0.00000000000E+00 0. -1.
         24    2    1    2    0    0 -0.46669324033E+03  0.13746252187E+03 -0.12249031038E+03  0.50774023427E+03  0.78088052013E+02 0.  0.
        254    2    1    2    0    0  0.46669324033E+03 -0.13746252187E+03 -0.59471103664E+03  0.11818266825E+04  0.89796133819E+03 0.  0.
         23    2    4    4    0    0  0.42559317117E+02 -0.30484652838E+03 -0.63864873140E+03  0.71498086178E+03  0.92643020512E+02 0.  0.
         23    2    4    4    0    0  0.42413392321E+03  0.16738400651E+03  0.43937694762E+02  0.46684582072E+03  0.90041706171E+02 0.  0.
          4    1    3    3  502    0 -0.29496141881E+03  0.11741839295E+03 -0.10291680623E+03  0.33373820068E+03  0.00000000000E+00 0. -1.
         -3    1    3    3    0  502 -0.17173182152E+03  0.20044128913E+02 -0.19573504156E+02  0.17400203359E+03  0.00000000000E+00 0.  1.
         11    1    5    5    0    0 -0.26154793150E+02 -0.60888184101E+02 -0.10431315428E+03  0.12358267809E+03  0.00000000000E+00 0.  1.
        -11    1    5    5    0    0  0.68714110267E+02 -0.24395834428E+03 -0.53433557712E+03  0.59139818369E+03  0.00000000000E+00 0. -1.
          3    1    6    6  503    0  0.27852539733E+03  0.62871211186E+02  0.25781866170E+02  0.28669476936E+03  0.00000000000E+00 0. -1.
         -3    1    6    6    0  503  0.14560852589E+03  0.10451279532E+03  0.18155828592E+02  0.18015105137E+03  0.00000000000E+00 0.  1.
<mgrwt>
<rscale>  0 0.15297904E+04</rscale>
<asrwt>0</asrwt>
<pdfrwt beam="1">  1        2 0.18513602E+00 0.15297904E+04</pdfrwt>
<pdfrwt beam="2">  1       -1 0.74797353E-01 0.15297904E+04</pdfrwt>
<totfact> 0.37266053E+01</totfact>
</mgrwt>
</event>
<event>
12    6  0.1403409E-007  0.1921564E+04  0.7818608E-02  0.8644197E-01
          2   -1    0    0  501    0  0.00000000000E+00  0.00000000000E+00  0.17478545659E+04  0.17478545659E+04  0.00000000000E+00 0. -1.
         -1   -1    0    0    0  501 -0.00000000000E+00 -0.00000000000E+00 -0.52813423707E+03  0.52813423707E+03  0.00000000000E+00 0.  1.
         24    2    1    2    0    0 -0.48008078752E+03 -0.56323804401E+03  0.35413954761E+03  0.82424654539E+03  0.79075227806E+02 0.  0.
        254    2    1    2    0    0  0.48008078752E+03  0.56323804401E+03  0.86558078121E+03  0.14517422576E+04  0.90033928985E+03 0.  0.
         23    2    4    4    0    0 -0.23774554623E+03  0.26752846444E+03  0.17803197492E+03  0.40994013904E+03  0.90890645604E+02 0.  0.
         23    2    4    4    0    0  0.71782633375E+03  0.29570957957E+03  0.68754880629E+03  0.10418021185E+04  0.99546432760E+02 0.  0.
          4    1    3    3  502    0 -0.21078682341E+03 -0.30483980157E+03  0.16201665619E+03  0.40448459356E+03  0.00000000000E+00 0. -1.
         -3    1    3    3    0  502 -0.26929396411E+03 -0.25839824243E+03  0.19212289142E+03  0.41976195183E+03  0.00000000000E+00 0.  1.
         11    1    5    5    0    0 -0.22607169097E+03  0.21033847427E+03  0.13297706572E+03  0.33620467460E+03  0.00000000000E+00 0.  1.
        -11    1    5    5    0    0 -0.11673855267E+02  0.57189990166E+02  0.45054909206E+02  0.73735464436E+02  0.00000000000E+00 0. -1.
          1    1    6    6  503    0  0.14085990608E+03  0.10043251189E+03  0.13556178432E+03  0.21978443974E+03  0.00000000000E+00 0. -1.
         -1    1    6    6    0  503  0.57696642767E+03  0.19527706768E+03  0.55198702197E+03  0.82201767879E+03  0.00000000000E+00 0.  1.
<mgrwt>
<rscale>  0 0.19215638E+04</rscale>
<asrwt>0</asrwt>
<pdfrwt beam="1">  1        2 0.26890070E+00 0.19215638E+04</pdfrwt>
<pdfrwt beam="2">  1       -1 0.81251422E-01 0.19215638E+04</pdfrwt>
<totfact> 0.14820629E+01</totfact>
</mgrwt>
</event>
<event>
12    6  0.1403409E-007  0.2752607E+04  0.7818608E-02  0.8318135E-01
         -1   -1    0    0    0  501 -0.00000000000E+00  0.00000000000E+00  0.69544923168E+03  0.69544923168E+03  0.00000000000E+00 0.  1.
          2   -1    0    0  501    0  0.00000000000E+00 -0.00000000000E+00 -0.27237229387E+04  0.27237229387E+04  0.00000000000E+00 0. -1.
         24    2    1    2    0    0  0.20077548761E+03  0.17373788867E+03  0.58268154936E+03  0.64508258715E+03  0.78218321952E+02 0.  0.
        254    2    1    2    0    0 -0.20077548761E+03 -0.17373788867E+03 -0.26109552564E+04  0.27740895832E+04  0.89888264785E+03 0.  0.
         23    2    4    4    0    0 -0.40085826513E+03 -0.43150336327E+03 -0.15741889011E+04  0.16831943682E+04  0.90499079567E+02 0.  0.
         23    2    4    4    0    0  0.20008277751E+03  0.25776547460E+03 -0.10367663552E+04  0.10908952150E+04  0.93229486158E+02 0.  0.
          4    1    3    3  502    0  0.18126979083E+03  0.13663567765E+03  0.42379831631E+03  0.48076299606E+03  0.00000000000E+00 0. -1.
         -3    1    3    3    0  502  0.19505696778E+02  0.37102211019E+02  0.15888323305E+03  0.16431959108E+03  0.00000000000E+00 0.  1.
         11    1    5    5    0    0 -0.24926603563E+02 -0.19084578348E+02 -0.15669829582E+03  0.15981211659E+03  0.00000000000E+00 0.  1.
        -11    1    5    5    0    0 -0.37593166156E+03 -0.41241878492E+03 -0.14174906053E+04  0.15233822516E+04  0.00000000000E+00 0. -1.
          4    1    6    6  503    0  0.91044236280E+02  0.14276305766E+03 -0.67548776166E+03  0.69638642990E+03  0.00000000000E+00 0. -1.
         -4    1    6    6    0  503  0.10903854123E+03  0.11500241694E+03 -0.36127859357E+03  0.39450878513E+03  0.00000000000E+00 0.  1.
<mgrwt>
<rscale>  0 0.27526068E+04</rscale>
<asrwt>0</asrwt>
<pdfrwt beam="1">  1        2 0.41903431E+00 0.27526068E+04</pdfrwt>
<pdfrwt beam="2">  1       -1 0.10699219E+00 0.27526068E+04</pdfrwt>
<totfact> 0.20787182E+00</totfact>
</mgrwt>
</event>
<event>
12    6  0.1403409E-007  0.1408008E+04  0.7818608E-02  0.8948043E-01
          2   -1    0    0  501    0  0.00000000000E+00  0.00000000000E+00  0.17104355022E+04  0.17104355022E+04  0.00000000000E+00 0. -1.
         -1   -1    0    0    0  501 -0.00000000000E+00 -0.00000000000E+00 -0.28976325473E+03  0.28976325473E+03  0.00000000000E+00 0.  1.
         24    2    1    2    0    0  0.37576548718E+03 -0.15684307339E+03  0.34378967630E+03  0.53912529428E+03  0.81641229630E+02 0.  0.
        254    2    1    2    0    0 -0.37576548718E+03  0.15684307339E+03  0.10768825712E+04  0.14610734627E+04  0.89958887286E+03 0.  0.
         23    2    4    4    0    0 -0.29164484970E+03 -0.88685083313E+02  0.11330684284E+04  0.11769819868E+04  0.92308024762E+02 0.  0.
         23    2    4    4    0    0 -0.84120637477E+02  0.24552815670E+03 -0.56185857174E+02  0.28409147591E+03  0.10094928805E+03 0.  0.
          4    1    3    3  502    0  0.29483367746E+03 -0.14281732943E+03  0.30756101901E+03  0.44935227535E+03  0.00000000000E+00 0. -1.
         -3    1    3    3    0  502  0.80931809721E+02 -0.14025743958E+02  0.36228657293E+02  0.89773018928E+02  0.00000000000E+00 0.  1.
         11    1    5    5    0    0 -0.25021586052E+03 -0.42263038982E+02  0.84551001457E+03  0.88276912387E+03  0.00000000000E+00 0.  1.
        -11    1    5    5    0    0 -0.41428989182E+02 -0.46422044331E+02  0.28755841381E+03  0.29421286290E+03  0.00000000000E+00 0. -1.
          3    1    6    6  503    0 -0.89804810721E+02  0.17946550051E+03 -0.57161558729E+01  0.20076215864E+03  0.00000000000E+00 0. -1.
         -3    1    6    6    0  503  0.56841732443E+01  0.66062656190E+02 -0.50469701301E+02  0.83329317276E+02  0.00000000000E+00 0.  1.
<mgrwt>
<rscale>  0 0.14080076E+04</rscale>
<asrwt>0</asrwt>
<pdfrwt beam="1">  1        2 0.26314392E+00 0.14080076E+04</pdfrwt>
<pdfrwt beam="2">  1       -1 0.44578963E-01 0.14080076E+04</pdfrwt>
<totfact> 0.53447485E+01</totfact>
</mgrwt>
</event>
<event>
12    6  0.1403409E-007  0.2327714E+04  0.7818608E-02  0.8467073E-01
          2   -1    0    0  501    0  0.00000000000E+00  0.00000000000E+00  0.16689871566E+04  0.16689871566E+04  0.00000000000E+00 0. -1.
         -1   -1    0    0    0  501 -0.00000000000E+00 -0.00000000000E+00 -0.81160768694E+03  0.81160768694E+03  0.00000000000E+00 0.  1.
         24    2    1    2    0    0 -0.86016746903E+03 -0.90279493894E+02  0.87533824333E+03  0.12332117498E+04  0.80967388010E+02 0.  0.
        254    2    1    2    0    0  0.86016746903E+03  0.90279493894E+02 -0.17958773700E+02  0.12473830937E+04  0.89866768220E+03 0.  0.
         23    2    4    4    0    0  0.25293994009E+03  0.45251626210E+03 -0.74448480919E+02  0.53208805471E+03  0.93944349989E+02 0.  0.
         23    2    4    4    0    0  0.60722752894E+03 -0.36223676821E+03  0.56489707219E+02  0.71529503896E+03  0.92277611564E+02 0.  0.
          2    1    3    3  502    0 -0.20944041385E+03  0.93435390111E+01  0.23324197622E+03  0.31361506364E+03  0.00000000000E+00 0. -1.
         -1    1    3    3    0  502 -0.65072705518E+03 -0.99623032905E+02  0.64209626711E+03  0.91959668620E+03  0.00000000000E+00 0.  1.
         11    1    5    5    0    0  0.22620287786E+03  0.43485978363E+03 -0.86703639300E+02  0.49778338103E+03  0.00000000000E+00 0.  1.
        -11    1    5    5    0    0  0.26737062236E+02  0.17656478477E+02  0.12255158382E+02  0.34304673678E+02  0.00000000000E+00 0. -1.
          1    1    6    6  503    0  0.43150703487E+03 -0.20873655497E+03  0.49150263306E+02  0.48185580717E+03  0.00000000000E+00 0. -1.
         -1    1    6    6    0  503  0.17572049407E+03 -0.15350021324E+03  0.73394439133E+01  0.23343923179E+03  0.00000000000E+00 0.  1.
<mgrwt>
<rscale>  0 0.23277137E+04</rscale>
<asrwt>0</asrwt>
<pdfrwt beam="1">  1        2 0.25676726E+00 0.23277137E+04</pdfrwt>
<pdfrwt beam="2">  1       -1 0.12486272E+00 0.23277137E+04</pdfrwt>
<totfact> 0.58987375E+00</totfact>
</mgrwt>
</event>
<event>
12    6  0.1403409E-007  0.1459159E+04  0.7818608E-02  0.8912075E-01
         -1   -1    0    0    0  501 -0.00000000000E+00  0.00000000000E+00  0.31646968515E+03  0.31646968515E+03  0.00000000000E+00 0.  1.
          2   -1    0    0  501    0  0.00000000000E+00 -0.00000000000E+00 -0.16819504963E+04  0.16819504963E+04  0.00000000000E+00 0. -1.
         24    2    1    2    0    0  0.23935295972E+02  0.88647487762E+02  0.17307808704E+03  0.21197674079E+03  0.80912538851E+02 0.  0.
        254    2    1    2    0    0 -0.23935295972E+02 -0.88647487762E+02 -0.15385588981E+04  0.17864434406E+04  0.90320839678E+03 0.  0.
         23    2    4    4    0    0 -0.11838919614E+03 -0.24676626376E+03 -0.60951800963E+02  0.29473826767E+03  0.90807123620E+02 0.  0.
         23    2    4    4    0    0  0.94453900165E+02  0.15811877600E+03 -0.14776070972E+04  0.14917051729E+04  0.89098276054E+02 0.  0.
          2    1    3    3  502    0  0.14393301795E+02  0.10282291014E+02 -0.39673657434E+01  0.18128227603E+02  0.00000000000E+00 0. -1.
         -1    1    3    3    0  502  0.95419941761E+01  0.78365196747E+02  0.17704545278E+03  0.19384851319E+03  0.00000000000E+00 0.  1.
         11    1    5    5    0    0 -0.90346957515E+02 -0.20406583724E+03 -0.11234985736E+02  0.22345394059E+03  0.00000000000E+00 0.  1.
        -11    1    5    5    0    0 -0.28042238622E+02 -0.42700426521E+02 -0.49716815227E+02  0.71284327087E+02  0.00000000000E+00 0. -1.
          1    1    6    6  503    0  0.28793525578E+02  0.96992744436E+02 -0.50937221377E+03  0.51932332101E+03  0.00000000000E+00 0. -1.
         -1    1    6    6    0  503  0.65660374588E+02  0.61126031559E+02 -0.96823488341E+03  0.97238185194E+03  0.00000000000E+00 0.  1.
<mgrwt>
<rscale>  0 0.14591591E+04</rscale>
<asrwt>0</asrwt>
<pdfrwt beam="1">  1        2 0.25876161E+00 0.14591591E+04</pdfrwt>
<pdfrwt beam="2">  1       -1 0.48687644E-01 0.14591591E+04</pdfrwt>
<totfact> 0.46784848E+01</totfact>
</mgrwt>
</event>
<event>
12    6  0.1403409E-007  0.1429281E+04  0.7818608E-02  0.8932892E-01
          2   -1    0    0  501    0  0.00000000000E+00  0.00000000000E+00  0.17053875577E+04  0.17053875577E+04  0.00000000000E+00 0. -1.
         -1   -1    0    0    0  501 -0.00000000000E+00 -0.00000000000E+00 -0.29946908244E+03  0.29946908244E+03  0.00000000000E+00 0.  1.
         24    2    1    2    0    0 -0.40652691240E+02 -0.42104941304E+03  0.49609913514E+03  0.65687568926E+03  0.80225119053E+02 0.  0.
        254    2    1    2    0    0  0.40652691240E+02  0.42104941304E+03  0.90981934012E+03  0.13479809509E+04  0.90019229208E+03 0.  0.
         23    2    4    4    0    0 -0.11049183166E+03  0.56419026477E+03  0.22216776008E+03  0.62377838050E+03  0.96030488050E+02 0.  0.
         23    2    4    4    0    0  0.15114452290E+03 -0.14314085173E+03  0.68765158003E+03  0.72420257037E+03  0.90943373406E+02 0.  0.
          2    1    3    3  502    0 -0.18269603300E+02 -0.28507405092E+03  0.38755407624E+03  0.48145524706E+03  0.00000000000E+00 0. -1.
         -3    1    3    3    0  502 -0.22383087940E+02 -0.13597536212E+03  0.10854505890E+03  0.17542044220E+03  0.00000000000E+00 0.  1.
         11    1    5    5    0    0 -0.31493984942E+01  0.26412216398E+03  0.96953930186E+02  0.28137253028E+03  0.00000000000E+00 0.  1.
        -11    1    5    5    0    0 -0.10734243317E+03  0.30006810079E+03  0.12521382990E+03  0.34240585023E+03  0.00000000000E+00 0. -1.
          4    1    6    6  503    0  0.67104836481E+02 -0.12355507482E+03  0.40870015857E+03  0.43220913365E+03  0.00000000000E+00 0.  1.
         -4    1    6    6    0  503  0.84039686419E+02 -0.19585776909E+02  0.27895142146E+03  0.29199343672E+03  0.00000000000E+00 0. -1.
<mgrwt>
<rscale>  0 0.14292807E+04</rscale>
<asrwt>0</asrwt>
<pdfrwt beam="1">  1        2 0.26236731E+00 0.14292807E+04</pdfrwt>
<pdfrwt beam="2">  1       -1 0.46072168E-01 0.14292807E+04</pdfrwt>
<totfact> 0.50497589E+01</totfact>
</mgrwt>
</event>
<event>
12    6  0.1403409E-007  0.3403847E+04  0.7818608E-02  0.8136963E-01
         -1   -1    0    0    0  501 -0.00000000000E+00  0.00000000000E+00  0.14048444711E+04  0.14048444711E+04  0.00000000000E+00 0.  1.
          2   -1    0    0  501    0  0.00000000000E+00 -0.00000000000E+00 -0.20618248292E+04  0.20618248292E+04  0.00000000000E+00 0. -1.
         24    2    1    2    0    0 -0.74303125764E+03 -0.12739276876E+04  0.27843504026E+03  0.15027782623E+04  0.76349400577E+02 0.  0.
        254    2    1    2    0    0  0.74303125764E+03  0.12739276876E+04 -0.93541539843E+03  0.19638910380E+04  0.89826434780E+03 0.  0.
         23    2    4    4    0    0 -0.18434894897E+03  0.38429975784E+03 -0.18967283980E+03  0.47528679383E+03  0.90834527383E+02 0.  0.
         23    2    4    4    0    0  0.92738020661E+03  0.88962792975E+03 -0.74574255863E+03  0.14886042442E+04  0.91316652616E+02 0.  0.
          4    1    3    3  502    0 -0.79425182253E+02 -0.18813978473E+03  0.35780602918E+02  0.20732869970E+03  0.00000000000E+00 0. -1.
         -3    1    3    3    0  502 -0.66360607538E+03 -0.10857879029E+04  0.24265443734E+03  0.12954495626E+04  0.00000000000E+00 0.  1.
         11    1    5    5    0    0 -0.10483679361E+03  0.18773547019E+03 -0.14282446901E+03  0.25813598938E+03  0.00000000000E+00 0.  1.
        -11    1    5    5    0    0 -0.79512155363E+02  0.19656428765E+03 -0.46848370796E+02  0.21715080446E+03  0.00000000000E+00 0. -1.
          3    1    6    6  503    0  0.16449360802E+03  0.20739714959E+03 -0.16345141222E+03  0.31110784126E+03  0.00000000000E+00 0. -1.
         -3    1    6    6    0  503  0.76288659859E+03  0.68223078016E+03 -0.58229114640E+03  0.11774964029E+04  0.00000000000E+00 0.  1.
<mgrwt>
<rscale>  0 0.34038468E+04</rscale>
<asrwt>0</asrwt>
<pdfrwt beam="1">  1        2 0.31720382E+00 0.34038468E+04</pdfrwt>
<pdfrwt beam="2">  1       -1 0.21612992E+00 0.34038468E+04</pdfrwt>
<totfact> 0.67923761E-01</totfact>
</mgrwt>
</event>
<event>
12    6  0.1403409E-007  0.2370007E+04  0.7818608E-02  0.8450819E-01
          2   -1    0    0  501    0  0.00000000000E+00  0.00000000000E+00  0.30939933289E+04  0.30939933289E+04  0.00000000000E+00 0. -1.
         -1   -1    0    0    0  501 -0.00000000000E+00 -0.00000000000E+00 -0.45385784898E+03  0.45385784898E+03  0.00000000000E+00 0.  1.
         24    2    1    2    0    0  0.43392581235E+03  0.48138660795E+03  0.22958093565E+04  0.23869884230E+04  0.83357381929E+02 0.  0.
        254    2    1    2    0    0 -0.43392581235E+03 -0.48138660795E+03  0.34432612340E+03  0.11608627549E+04  0.89945382286E+03 0.  0.
         23    2    4    4    0    0 -0.44876650982E+03  0.10590223506E+03 -0.83150407103E+01  0.47011582778E+03  0.91285748611E+02 0.  0.
         23    2    4    4    0    0  0.14840697471E+02 -0.58728884301E+03  0.35264116411E+03  0.69074692709E+03  0.87447671438E+02 0.  0.
          4    1    3    3  502    0  0.16962333180E+03  0.14603939784E+03  0.89394071950E+03  0.92153653774E+03  0.00000000000E+00 0. -1.
         -1    1    3    3    0  502  0.26430248055E+03  0.33534721010E+03  0.14018686370E+04  0.14654518853E+04  0.00000000000E+00 0.  1.
         11    1    5    5    0    0 -0.40152252169E+03  0.10560650793E+03 -0.33590099126E+02  0.41653495016E+03  0.00000000000E+00 0.  1.
        -11    1    5    5    0    0 -0.47243988131E+02  0.29572712889E+00  0.25275058416E+02  0.53580877625E+02  0.00000000000E+00 0. -1.
          2    1    6    6  503    0 -0.77870536304E+01 -0.84360886603E+02  0.19104438137E+02  0.86846859179E+02  0.00000000000E+00 0. -1.
         -2    1    6    6    0  503  0.22627751101E+02 -0.50292795640E+03  0.33353672597E+03  0.60390006791E+03  0.00000000000E+00 0.  1.
<mgrwt>
<rscale>  0 0.23700069E+04</rscale>
<asrwt>0</asrwt>
<pdfrwt beam="1">  1        2 0.47599896E+00 0.23700069E+04</pdfrwt>
<pdfrwt beam="2">  1       -1 0.69824286E-01 0.23700069E+04</pdfrwt>
<totfact> 0.32312025E+00</totfact>
</mgrwt>
</event>
<event>
12    6  0.1403409E-007  0.1380657E+04  0.7818608E-02  0.8967940E-01
         -1   -1    0    0    0  501 -0.00000000000E+00  0.00000000000E+00  0.48910472584E+03  0.48910472584E+03  0.00000000000E+00 0.  1.
          2   -1    0    0  501    0  0.00000000000E+00 -0.00000000000E+00 -0.97433834318E+03  0.97433834318E+03  0.00000000000E+00 0. -1.
         24    2    1    2    0    0 -0.27345686066E+03  0.27899547785E+03 -0.13240753949E+03  0.42096229010E+03  0.84025959492E+02 0.  0.
        254    2    1    2    0    0  0.27345686066E+03 -0.27899547785E+03 -0.35282607785E+03  0.10424807789E+04  0.89981264822E+03 0.  0.
         23    2    4    4    0    0 -0.24681275020E+03 -0.91084991094E+02  0.12571741195E+03  0.30509520115E+03  0.89806485499E+02 0.  0.
         23    2    4    4    0    0  0.52026961086E+03 -0.18791048676E+03 -0.47854348979E+03  0.73738557777E+03  0.93502939299E+02 0.  0.
          4    1    3    3  502    0 -0.46605606400E+02  0.30034058632E+02 -0.48954971178E+02  0.73964291580E+02  0.00000000000E+00 0. -1.
         -3    1    3    3    0  502 -0.22685125426E+03  0.24896141922E+03 -0.83452568315E+02  0.34699799852E+03  0.00000000000E+00 0.  1.
         11    1    5    5    0    0 -0.44062406539E+02 -0.48441099804E+02  0.58771395558E+01  0.65746304760E+02  0.00000000000E+00 0.  1.
        -11    1    5    5    0    0 -0.20275034366E+03 -0.42643891289E+02  0.11984027239E+03  0.23934889639E+03  0.00000000000E+00 0. -1.
          3    1    6    6  503    0  0.98752331643E+02 -0.75171503951E+02 -0.12004548619E+03  0.17266643208E+03  0.00000000000E+00 0. -1.
         -3    1    6    6    0  503  0.42151727922E+03 -0.11273898281E+03 -0.35849800360E+03  0.56471914569E+03  0.00000000000E+00 0.  1.
<mgrwt>
<rscale>  0 0.13806571E+04</rscale>
<asrwt>0</asrwt>
<pdfrwt beam="1">  1        2 0.14989821E+00 0.13806571E+04</pdfrwt>
<pdfrwt beam="2">  1       -1 0.75246881E-01 0.13806571E+04</pdfrwt>
<totfact> 0.51689426E+01</totfact>
</mgrwt>
</event>
<event>
12    6  0.1403409E-007  0.1181896E+04  0.7818608E-02  0.9128852E-01
         -1   -1    0    0    0  501 -0.00000000000E+00  0.00000000000E+00  0.29539049796E+03  0.29539049796E+03  0.00000000000E+00 0.  1.
          2   -1    0    0  501    0  0.00000000000E+00 -0.00000000000E+00 -0.11822303514E+04  0.11822303514E+04  0.00000000000E+00 0. -1.
         24    2    1    2    0    0  0.52100619753E+02 -0.11204320475E+03 -0.44174534771E+03  0.46553966165E+03  0.79498868123E+02 0.  0.
        254    2    1    2    0    0 -0.52100619753E+02  0.11204320475E+03 -0.44509450572E+03  0.10120811877E+04  0.90051710543E+03 0.  0.
         23    2    4    4    0    0 -0.19564906968E+03  0.43269936276E+03 -0.65268914664E+02  0.48703107210E+03  0.86208682700E+02 0.  0.
         23    2    4    4    0    0  0.14354844993E+03 -0.32065615801E+03 -0.37982559105E+03  0.52505011560E+03  0.89351077917E+02 0.  0.
          4    1    3    3  502    0 -0.95674219866E+01 -0.71368416138E+02 -0.24583991422E+03  0.25616840127E+03  0.00000000000E+00 0. -1.
         -3    1    3    3    0  502  0.61668041739E+02 -0.40674788611E+02 -0.19590543349E+03  0.20937126038E+03  0.00000000000E+00 0.  1.
         11    1    5    5    0    0 -0.22271587042E+02  0.13294055169E+03 -0.81210534553E+00  0.13479567274E+03  0.00000000000E+00 0.  1.
        -11    1    5    5    0    0 -0.17337748264E+03  0.29975881107E+03 -0.64456809319E+02  0.35223539936E+03  0.00000000000E+00 0. -1.
          3    1    6    6  503    0  0.14066620494E+03 -0.26205395667E+03 -0.34976731195E+03  0.45912572344E+03  0.00000000000E+00 0. -1.
         -3    1    6    6    0  503  0.28822449868E+01 -0.58602201345E+02 -0.30058279100E+02  0.65924392155E+02  0.00000000000E+00 0.  1.
<mgrwt>
<rscale>  0 0.11818961E+04</rscale>
<asrwt>0</asrwt>
<pdfrwt beam="1">  1        2 0.18188159E+00 0.11818961E+04</pdfrwt>
<pdfrwt beam="2">  1       -1 0.45444692E-01 0.11818961E+04</pdfrwt>
<totfact> 0.10506422E+02</totfact>
</mgrwt>
</event>
<event>
12    6  0.1403409E-007  0.2286130E+04  0.7818608E-02  0.8483410E-01
          2   -1    0    0  501    0  0.00000000000E+00  0.00000000000E+00  0.15789745155E+04  0.15789745155E+04  0.00000000000E+00 0. -1.
         -1   -1    0    0    0  501 -0.00000000000E+00 -0.00000000000E+00 -0.82749740972E+03  0.82749740972E+03  0.00000000000E+00 0.  1.
         24    2    1    2    0    0 -0.13692022604E+03 -0.82230053010E+03  0.82819421077E+03  0.11781007712E+04  0.84204906915E+02 0.  0.
        254    2    1    2    0    0  0.13692022604E+03  0.82230053010E+03 -0.76717104980E+02  0.12283711540E+04  0.89893540795E+03 0.  0.
         23    2    4    4    0    0  0.32399076246E+03  0.78459643977E+03  0.20466723301E+03  0.87822823401E+03  0.93992378825E+02 0.  0.
         23    2    4    4    0    0 -0.18707053642E+03  0.37704090325E+02 -0.28138433799E+03  0.35014291999E+03  0.83701461914E+02 0.  0.
          4    1    3    3  502    0 -0.23497460281E+02 -0.18254875513E+03  0.23333870333E+03  0.29719207444E+03  0.00000000000E+00 0. -1.
         -3    1    3    3    0  502 -0.11342276576E+03 -0.63975177496E+03  0.59485550745E+03  0.88090869680E+03  0.00000000000E+00 0.  1.
         11    1    5    5    0    0  0.39117674750E+02  0.19716993526E+03  0.55785889392E+02  0.20861026174E+03  0.00000000000E+00 0. -1.
        -11    1    5    5    0    0  0.28487308771E+03  0.58742650451E+03  0.14888134362E+03  0.66961797227E+03  0.00000000000E+00 0.  1.
          1    1    6    6  503    0 -0.61199246265E+02  0.53186332645E+02 -0.12147762860E+03  0.14605118272E+03  0.00000000000E+00 0. -1.
         -1    1    6    6    0  503 -0.12587129015E+03 -0.15482242320E+02 -0.15990670939E+03  0.20409173727E+03  0.00000000000E+00 0.  1.
<mgrwt>
<rscale>  0 0.22861298E+04</rscale>
<asrwt>0</asrwt>
<pdfrwt beam="1">  1        2 0.24291916E+00 0.22861298E+04</pdfrwt>
<pdfrwt beam="2">  1       -1 0.12730729E+00 0.22861298E+04</pdfrwt>
<totfact> 0.63328640E+00</totfact>
</mgrwt>
</event>
<event>
12    6  0.1403409E-007  0.1851229E+04  0.7818608E-02  0.8679521E-01
         -1   -1    0    0    0  501 -0.00000000000E+00  0.00000000000E+00  0.13870864698E+04  0.13870864698E+04  0.00000000000E+00 0.  1.
          2   -1    0    0  501    0  0.00000000000E+00 -0.00000000000E+00 -0.61767017231E+03  0.61767017231E+03  0.00000000000E+00 0. -1.
         24    2    1    2    0    0  0.70288436687E+03  0.43274908176E+02  0.29846353136E+03  0.76916678765E+03  0.81350579615E+02 0.  0.
        254    2    1    2    0    0 -0.70288436687E+03 -0.43274908176E+02  0.47095276617E+03  0.12355898545E+04  0.89942572218E+03 0.  0.
         23    2    4    4    0    0 -0.83539048009E+03 -0.24899187799E+03  0.41280831289E+03  0.96888499732E+03  0.91941423353E+02 0.  0.
         23    2    4    4    0    0  0.13250611321E+03  0.20571696981E+03  0.58144453285E+02  0.26670485718E+03  0.88731965433E+02 0.  0.
          4    1    3    3  502    0  0.57919238810E+02  0.95245068166E+01  0.50235658311E+02  0.77259147163E+02  0.00000000000E+00 0. -1.
         -3    1    3    3    0  502  0.64496512806E+03  0.33750401359E+02  0.24822787305E+03  0.69190764049E+03  0.00000000000E+00 0.  1.
         11    1    5    5    0    0 -0.31334346543E+03 -0.49401447341E+02  0.16408532937E+03  0.35713950446E+03  0.00000000000E+00 0. -1.
        -11    1    5    5    0    0 -0.52204701465E+03 -0.19959043065E+03  0.24872298352E+03  0.61174549287E+03  0.00000000000E+00 0.  1.
          1    1    6    6  503    0  0.98794091980E+01  0.16723362535E+01  0.24259784670E+02  0.26247601545E+02  0.00000000000E+00 0. -1.
         -1    1    6    6    0  503  0.12262670401E+03  0.20404463356E+03  0.33884668615E+02  0.24045725564E+03  0.00000000000E+00 0.  1.
<mgrwt>
<rscale>  0 0.18512287E+04</rscale>
<asrwt>0</asrwt>
<pdfrwt beam="1">  1        2 0.95026181E-01 0.18512287E+04</pdfrwt>
<pdfrwt beam="2">  1       -1 0.21339792E+00 0.18512287E+04</pdfrwt>
<totfact> 0.62665712E+00</totfact>
</mgrwt>
</event>
<event>
12    6  0.1403409E-007  0.2841284E+04  0.7818608E-02  0.8290565E-01
         -1   -1    0    0    0  501 -0.00000000000E+00  0.00000000000E+00  0.81946923759E+03  0.81946923759E+03  0.00000000000E+00 0.  1.
          2   -1    0    0  501    0  0.00000000000E+00 -0.00000000000E+00 -0.24628431135E+04  0.24628431135E+04  0.00000000000E+00 0. -1.
         24    2    1    2    0    0 -0.84222143365E+03  0.72112569344E+03 -0.14723210188E+04  0.18448734766E+04  0.80434776468E+02 0.  0.
        254    2    1    2    0    0  0.84222143365E+03 -0.72112569344E+03 -0.17105285711E+03  0.14374388745E+04  0.89867248143E+03 0.  0.
         23    2    4    4    0    0 -0.36303408548E+02 -0.36144283324E+03  0.18980168375E+03  0.41774736860E+03  0.80804242724E+02 0.  0.
         23    2    4    4    0    0  0.87852484220E+03 -0.35968286020E+03 -0.36085454085E+03  0.10196915059E+04  0.91526549239E+02 0.  0.
          4    1    3    3  502    0 -0.28965069954E+03  0.29820291534E+03 -0.53779887525E+03  0.67974269888E+03  0.00000000000E+00 0. -1.
         -1    1    3    3    0  502 -0.55257073411E+03  0.42292277810E+03 -0.93452214353E+03  0.11651307777E+04  0.00000000000E+00 0.  1.
         11    1    5    5    0    0  0.22682253964E+02 -0.60159528404E+02  0.43800501664E+02  0.77795484758E+02  0.00000000000E+00 0.  1.
        -11    1    5    5    0    0 -0.58985662512E+02 -0.30128330484E+03  0.14600118209E+03  0.33995188384E+03  0.00000000000E+00 0. -1.
          3    1    6    6  503    0  0.56605371025E+03 -0.24898127127E+03 -0.19105129995E+03  0.64723185610E+03  0.00000000000E+00 0. -1.
         -3    1    6    6    0  503  0.31247113194E+03 -0.11070158893E+03 -0.16980324090E+03  0.37245964977E+03  0.00000000000E+00 0.  1.
<mgrwt>
<rscale>  0 0.28412843E+04</rscale>
<asrwt>0</asrwt>
<pdfrwt beam="1">  1        2 0.37889893E+00 0.28412843E+04</pdfrwt>
<pdfrwt beam="2">  1       -1 0.12607219E+00 0.28412843E+04</pdfrwt>
<totfact> 0.19751522E+00</totfact>
</mgrwt>
</event>
<event>
12    6  0.1403409E-007  0.1964270E+04  0.7818608E-02  0.8623510E-01
         -1   -1    0    0    0  501 -0.00000000000E+00  0.00000000000E+00  0.47049030722E+03  0.47049030722E+03  0.00000000000E+00 0.  1.
          2   -1    0    0  501    0  0.00000000000E+00 -0.00000000000E+00 -0.20501792560E+04  0.20501792560E+04  0.00000000000E+00 0. -1.
         24    2    1    2    0    0  0.65698510209E+03 -0.39725583645E+03 -0.74597622908E+03  0.10734296682E+04  0.79555605155E+02 0.  0.
        254    2    1    2    0    0 -0.65698510209E+03  0.39725583645E+03 -0.83371271966E+03  0.14472398950E+04  0.89999155033E+03 0.  0.
         23    2    4    4    0    0 -0.38845354313E+03  0.65172163220E+03 -0.71875997610E+03  0.10490148613E+04  0.90438017518E+02 0.  0.
         23    2    4    4    0    0 -0.26853155896E+03 -0.25446579575E+03 -0.11495274356E+03  0.39822503362E+03  0.92233425550E+02 0.  0.
          2    1    3    3  502    0  0.48761447262E+03 -0.32269249719E+03 -0.59931614327E+03  0.83730410320E+03  0.00000000000E+00 0. -1.
         -1    1    3    3    0  502  0.16937062947E+03 -0.74563339263E+02 -0.14666008580E+03  0.23612556502E+03  0.00000000000E+00 0.  1.
         11    1    5    5    0    0 -0.23259148424E+03  0.31762164587E+03 -0.33582741092E+03  0.51745759091E+03  0.00000000000E+00 0. -1.
        -11    1    5    5    0    0 -0.15586205889E+03  0.33409998632E+03 -0.38293256517E+03  0.53155727042E+03  0.00000000000E+00 0.  1.
          2    1    6    6  503    0 -0.55214639975E+02 -0.97985731733E+02 -0.61974756395E+02  0.12841623932E+03  0.00000000000E+00 0. -1.
         -2    1    6    6    0  503 -0.21331691898E+03 -0.15648006401E+03 -0.52977987167E+02  0.26980879430E+03  0.00000000000E+00 0.  1.
<mgrwt>
<rscale>  0 0.19642703E+04</rscale>
<asrwt>0</asrwt>
<pdfrwt beam="1">  1        2 0.31541219E+00 0.19642703E+04</pdfrwt>
<pdfrwt beam="2">  1       -1 0.72383126E-01 0.19642703E+04</pdfrwt>
<totfact> 0.12795259E+01</totfact>
</mgrwt>
</event>
<event>
12    6  0.1403409E-007  0.1515274E+04  0.7818608E-02  0.8874359E-01
          2   -1    0    0  501    0  0.00000000000E+00  0.00000000000E+00  0.65860367026E+03  0.65860367026E+03  0.00000000000E+00 0. -1.
         -1   -1    0    0    0  501 -0.00000000000E+00 -0.00000000000E+00 -0.87156152599E+03  0.87156152599E+03  0.00000000000E+00 0.  1.
         24    2    1    2    0    0  0.19343783488E+03  0.12712929014E+03 -0.49900438030E+03  0.55593224043E+03  0.80468826338E+02 0.  0.
        254    2    1    2    0    0 -0.19343783488E+03 -0.12712929014E+03  0.28604652457E+03  0.97423295582E+03  0.90206828212E+03 0.  0.
         23    2    4    4    0    0 -0.20697830287E+03 -0.34867246613E+03  0.50127112452E+03  0.65086603471E+03  0.89114243334E+02 0.  0.
         23    2    4    4    0    0  0.13540467983E+02  0.22154317600E+03 -0.21522459995E+03  0.32336692111E+03  0.94761881269E+02 0.  0.
          2    1    3    3  502    0  0.14873325473E+03  0.67898002708E+02 -0.27473754447E+03  0.31970680032E+03  0.00000000000E+00 0. -1.
         -1    1    3    3    0  502  0.44704580157E+02  0.59231287427E+02 -0.22426683584E+03  0.23622544011E+03  0.00000000000E+00 0.  1.
         11    1    5    5    0    0 -0.18305365793E+01 -0.53478458022E+02  0.44439253644E+02  0.69556765314E+02  0.00000000000E+00 0. -1.
        -11    1    5    5    0    0 -0.20514776629E+03 -0.29519400811E+03  0.45683187087E+03  0.58130926939E+03  0.00000000000E+00 0.  1.
          1    1    6    6  503    0  0.27041945894E+02  0.53090385317E+02 -0.15157244146E+02  0.61478434438E+02  0.00000000000E+00 0. -1.
         -1    1    6    6    0  503 -0.13501477912E+02  0.16845279068E+03 -0.20006735581E+03  0.26188848667E+03  0.00000000000E+00 0.  1.
<mgrwt>
<rscale>  0 0.15152737E+04</rscale>
<asrwt>0</asrwt>
<pdfrwt beam="1">  1        2 0.10132364E+00 0.15152737E+04</pdfrwt>
<pdfrwt beam="2">  1       -1 0.13408639E+00 0.15152737E+04</pdfrwt>
<totfact> 0.22863206E+01</totfact>
</mgrwt>
</event>
<event>
12    6  0.1403409E-007  0.3334810E+04  0.7818608E-02  0.8154094E-01
         -1   -1    0    0    0  501 -0.00000000000E+00  0.00000000000E+00  0.14321040328E+04  0.14321040328E+04  0.00000000000E+00 0.  1.
          2   -1    0    0  501    0  0.00000000000E+00 -0.00000000000E+00 -0.19413670589E+04  0.19413670589E+04  0.00000000000E+00 0. -1.
         24    2    1    2    0    0 -0.14191530258E+04 -0.46909989294E+03 -0.63072180101E+03  0.16242331554E+04  0.79204371424E+02 0.  0.
        254    2    1    2    0    0  0.14191530258E+04  0.46909989294E+03  0.12145877486E+03  0.17492379363E+04  0.90057265301E+03 0.  0.
         23    2    4    4    0    0  0.55870049642E+03  0.15840277102E+03  0.48432166842E+03  0.76073942393E+03  0.83182390223E+02 0.  0.
         23    2    4    4    0    0  0.86045252942E+03  0.31069712193E+03 -0.36286289356E+03  0.98849851234E+03  0.92458490212E+02 0.  0.
          2    1    3    3  502    0 -0.21606269886E+03 -0.93441434268E+02 -0.77992406264E+02  0.24798630388E+03  0.00000000000E+00 0. -1.
         -1    1    3    3    0  502 -0.12030903270E+04 -0.37565845867E+03 -0.55272939474E+03  0.13762468515E+04  0.00000000000E+00 0.  1.
         11    1    5    5    0    0  0.30996034564E+03  0.77757287072E+02  0.31806714878E+03  0.45087506329E+03  0.00000000000E+00 0. -1.
        -11    1    5    5    0    0  0.24874015078E+03  0.80645483943E+02  0.16625451964E+03  0.30986436064E+03  0.00000000000E+00 0.  1.
          4    1    6    6  503    0  0.71627281739E+03  0.29199460644E+03 -0.31830271729E+03  0.83643542426E+03  0.00000000000E+00 0. -1.
         -4    1    6    6    0  503  0.14417971204E+03  0.18702515486E+02 -0.44560176272E+02  0.15206308808E+03  0.00000000000E+00 0.  1.
<mgrwt>
<rscale>  0 0.33348101E+04</rscale>
<asrwt>0</asrwt>
<pdfrwt beam="1">  1        2 0.29867185E+00 0.33348101E+04</pdfrwt>
<pdfrwt beam="2">  1       -1 0.22032370E+00 0.33348101E+04</pdfrwt>
<totfact> 0.74721032E-01</totfact>
</mgrwt>
</event>
<event>
12    6  0.1403409E-007  0.1550782E+04  0.7818608E-02  0.8851368E-01
         -1   -1    0    0    0  501 -0.00000000000E+00  0.00000000000E+00  0.29345623910E+03  0.29345623910E+03  0.00000000000E+00 0.  1.
          2   -1    0    0  501    0  0.00000000000E+00 -0.00000000000E+00 -0.20487942659E+04  0.20487942659E+04  0.00000000000E+00 0. -1.
         24    2    1    2    0    0  0.50844321548E+03 -0.36556077679E+02 -0.64675304792E+03  0.82733116873E+03  0.79602183334E+02 0.  0.
        254    2    1    2    0    0 -0.50844321548E+03  0.36556077679E+02 -0.11085849789E+04  0.15149193363E+04  0.89786919416E+03 0.  0.
         23    2    4    4    0    0 -0.48543976722E+03  0.42435675723E+02 -0.12513265709E+04  0.13458029018E+04  0.88964651545E+02 0.  0.
         23    2    4    4    0    0 -0.23003448254E+02 -0.58795980435E+01  0.14274159202E+03  0.16911643449E+03  0.87529869280E+02 0.  0.
          4    1    3    3  502    0  0.16315873534E+03 -0.25744894618E+01 -0.26729101028E+03  0.31316431006E+03  0.00000000000E+00 0. -1.
         -3    1    3    3    0  502  0.34528448013E+03 -0.33981588217E+02 -0.37946203763E+03  0.51416685868E+03  0.00000000000E+00 0.  1.
         11    1    5    5    0    0 -0.34989293662E+03  0.64885135765E+02 -0.84496543427E+03  0.91684335252E+03  0.00000000000E+00 0.  1.
        -11    1    5    5    0    0 -0.13554683060E+03 -0.22449460042E+02 -0.40636113663E+03  0.42895954927E+03  0.00000000000E+00 0. -1.
          1    1    6    6  503    0  0.28325889642E+02  0.15461154665E+02  0.73859190422E+02  0.80601385455E+02  0.00000000000E+00 0. -1.
         -1    1    6    6    0  503 -0.51329337896E+02 -0.21340752708E+02  0.68882401599E+02  0.88515049031E+02  0.00000000000E+00 0.  1.
<mgrwt>
<rscale>  0 0.15507823E+04</rscale>
<asrwt>0</asrwt>
<pdfrwt beam="1">  1        2 0.31519912E+00 0.15507823E+04</pdfrwt>
<pdfrwt beam="2">  1       -1 0.45147113E-01 0.15507823E+04</pdfrwt>
<totfact> 0.33504940E+01</totfact>
</mgrwt>
</event>
<event>
12    6  0.1403409E-007  0.2254144E+04  0.7818608E-02  0.8496224E-01
         -1   -1    0    0    0  501 -0.00000000000E+00  0.00000000000E+00  0.10695633906E+04  0.10695633906E+04  0.00000000000E+00 0.  1.
          2   -1    0    0  501    0  0.00000000000E+00 -0.00000000000E+00 -0.11876722506E+04  0.11876722506E+04  0.00000000000E+00 0. -1.
         24    2    1    2    0    0  0.48951543116E+03  0.71726178053E+03  0.31230142556E+03  0.92633179293E+03  0.80427551382E+02 0.  0.
        254    2    1    2    0    0 -0.48951543116E+03 -0.71726178053E+03 -0.43041028560E+03  0.13309038482E+04  0.91211963040E+03 0.  0.
         23    2    4    4    0    0 -0.44366833487E+03 -0.89132584434E+03 -0.50035016480E+03  0.11181434010E+04  0.92687785775E+02 0.  0.
         23    2    4    4    0    0 -0.45847096293E+02  0.17406406381E+03  0.69939879200E+02  0.21276044724E+03  0.89303788602E+02 0.  0.
          2    1    3    3  502    0  0.40668741433E+03  0.63345276427E+03  0.28826455320E+03  0.80607289383E+03  0.00000000000E+00 0. -1.
         -1    1    3    3    0  502  0.82828016834E+02  0.83809016260E+02  0.24036872368E+02  0.12025889910E+03  0.00000000000E+00 0.  1.
         11    1    5    5    0    0 -0.32547467567E+03 -0.61337155178E+03 -0.39116170878E+03  0.79697296532E+03  0.00000000000E+00 0. -1.
        -11    1    5    5    0    0 -0.11819365921E+03 -0.27795429256E+03 -0.10918845602E+03  0.32117043568E+03  0.00000000000E+00 0.  1.
          1    1    6    6  503    0  0.18940653613E+02  0.30896046198E+02  0.37794067140E+02  0.52361298121E+02  0.00000000000E+00 0. -1.
         -1    1    6    6    0  503 -0.64787749906E+02  0.14316801761E+03  0.32145812059E+02  0.16039914912E+03  0.00000000000E+00 0.  1.
<mgrwt>
<rscale>  0 0.22541435E+04</rscale>
<asrwt>0</asrwt>
<pdfrwt beam="1">  1        2 0.18271881E+00 0.22541435E+04</pdfrwt>
<pdfrwt beam="2">  1       -1 0.16454821E+00 0.22541435E+04</pdfrwt>
<totfact> 0.53980220E+00</totfact>
</mgrwt>
</event>
<event>
12    6  0.1403409E-007  0.1901804E+04  0.7818608E-02  0.8653959E-01
         -1   -1    0    0    0  501 -0.00000000000E+00  0.00000000000E+00  0.15853327530E+04  0.15853327530E+04  0.00000000000E+00 0.  1.
          2   -1    0    0  501    0  0.00000000000E+00 -0.00000000000E+00 -0.57036244502E+03  0.57036244502E+03  0.00000000000E+00 0. -1.
         24    2    1    2    0    0  0.58268390866E+02 -0.42957831367E+03  0.10660048290E+04  0.11540436360E+04  0.86704586669E+02 0.  0.
        254    2    1    2    0    0 -0.58268390866E+02  0.42957831367E+03 -0.51034520994E+02  0.10016515621E+04  0.90153679708E+03 0.  0.
         23    2    4    4    0    0 -0.66749467419E+02  0.56996543836E+03  0.26949333762E+03  0.63949850659E+03  0.83759110432E+02 0.  0.
         23    2    4    4    0    0  0.84810765534E+01 -0.14038712468E+03 -0.32052785862E+03  0.36215305547E+03  0.92931447835E+02 0.  0.
          2    1    3    3  502    0  0.15262371232E+02 -0.68428426854E+02  0.10254067646E+03  0.12421747021E+03  0.00000000000E+00 0. -1.
         -3    1    3    3    0  502  0.43006019633E+02 -0.36114988682E+03  0.96346415255E+03  0.10298261658E+04  0.00000000000E+00 0.  1.
         11    1    5    5    0    0 -0.42918337540E+02  0.10080249999E+03  0.62675509839E+02  0.12621944080E+03  0.00000000000E+00 0. -1.
        -11    1    5    5    0    0 -0.23831129879E+02  0.46916293837E+03  0.20681782779E+03  0.51327906579E+03  0.00000000000E+00 0.  1.
          1    1    6    6  503    0 -0.31789937810E+02 -0.61287216883E+02 -0.20596221496E+03  0.21722605067E+03  0.00000000000E+00 0.  1.
         -1    1    6    6    0  503  0.40271014364E+02 -0.79099907802E+02 -0.11456564366E+03  0.14492700480E+03  0.00000000000E+00 0. -1.
<mgrwt>
<rscale>  0 0.19018036E+04</rscale>
<asrwt>0</asrwt>
<pdfrwt beam="1">  1        2 0.87748069E-01 0.19018036E+04</pdfrwt>
<pdfrwt beam="2">  1       -1 0.24389735E+00 0.19018036E+04</pdfrwt>
<totfact> 0.43099183E+00</totfact>
</mgrwt>
</event>
<event>
12    6  0.1403409E-007  0.3318539E+04  0.7818608E-02  0.8158194E-01
          2   -1    0    0  501    0  0.00000000000E+00  0.00000000000E+00  0.23596344470E+04  0.23596344470E+04  0.00000000000E+00 0. -1.
         -1   -1    0    0    0  501 -0.00000000000E+00 -0.00000000000E+00 -0.11667802504E+04  0.11667802504E+04  0.00000000000E+00 0.  1.
         24    2    1    2    0    0 -0.11280648487E+03  0.15252703894E+04  0.70461337629E+03  0.16858817549E+04  0.80883976557E+02 0.  0.
        254    2    1    2    0    0  0.11280648487E+03 -0.15252703894E+04  0.48824082025E+03  0.18405329424E+04  0.90000408309E+03 0.  0.
         23    2    4    4    0    0  0.41785859508E+03 -0.79635719032E+03  0.52104544316E+03  0.10443353783E+04  0.10177155085E+03 0.  0.
         23    2    4    4    0    0 -0.30505211021E+03 -0.72891319913E+03 -0.32804622905E+02  0.79619756407E+03  0.92104158082E+02 0.  0.
          2    1    3    3  502    0 -0.92838955840E+02  0.97910031949E+03  0.48901553121E+03  0.10983590930E+04  0.00000000000E+00 0. -1.
         -3    1    3    3    0  502 -0.19967529028E+02  0.54617006996E+03  0.21559784508E+03  0.58752266198E+03  0.00000000000E+00 0.  1.
         11    1    5    5    0    0  0.37933700587E+03 -0.70072233865E+03  0.42332497888E+03  0.90228177287E+03  0.00000000000E+00 0.  1.
        -11    1    5    5    0    0  0.38521589205E+02 -0.95634851670E+02  0.97720464276E+02  0.14205360547E+03  0.00000000000E+00 0. -1.
          1    1    6    6  503    0 -0.63027268962E+02 -0.10240103632E+03 -0.32517983551E+02  0.12456254705E+03  0.00000000000E+00 0. -1.
         -1    1    6    6    0  503 -0.24202484125E+03 -0.62651216281E+03 -0.28663935361E+00  0.67163501702E+03  0.00000000000E+00 0.  1.
<mgrwt>
<rscale>  0 0.33185388E+04</rscale>
<asrwt>0</asrwt>
<pdfrwt beam="1">  1        2 0.36302068E+00 0.33185388E+04</pdfrwt>
<pdfrwt beam="2">  1       -1 0.17950465E+00 0.33185388E+04</pdfrwt>
<totfact> 0.83385029E-01</totfact>
</mgrwt>
</event>
<event>
12    6  0.1403409E-007  0.2433345E+04  0.7818608E-02  0.8427124E-01
         -1   -1    0    0    0  501 -0.00000000000E+00  0.00000000000E+00  0.60416061211E+03  0.60416061211E+03  0.00000000000E+00 0.  1.
          2   -1    0    0  501    0  0.00000000000E+00 -0.00000000000E+00 -0.24501627654E+04  0.24501627654E+04  0.00000000000E+00 0. -1.
         24    2    1    2    0    0  0.72600626088E+03  0.35911326905E+03  0.31510163580E+02  0.81421190250E+03  0.76816020007E+02 0.  0.
        254    2    1    2    0    0 -0.72600626088E+03 -0.35911326905E+03 -0.18775123168E+04  0.22401114750E+04  0.91487676198E+03 0.  0.
         23    2    4    4    0    0  0.12888217636E+03  0.16594888723E+02 -0.20583962376E+02  0.15995331248E+03  0.90968988941E+02 0.  0.
         23    2    4    4    0    0 -0.85488843724E+03 -0.37570815777E+03 -0.18569283545E+04  0.20801581625E+04  0.82971124363E+02 0.  0.
          4    1    3    3  502    0  0.58603133081E+03  0.26302761391E+03  0.44796781550E+02  0.64391225956E+03  0.00000000000E+00 0. -1.
         -3    1    3    3    0  502  0.13997493006E+03  0.96085655137E+02 -0.13286617970E+02  0.17029964294E+03  0.00000000000E+00 0.  1.
         11    1    5    5    0    0  0.74330998391E+02  0.41969946152E+02  0.19626829769E+02  0.87588733001E+02  0.00000000000E+00 0. -1.
        -11    1    5    5    0    0  0.54551177973E+02 -0.25375057430E+02 -0.40210792144E+02  0.72364579476E+02  0.00000000000E+00 0.  1.
          3    1    6    6  503    0 -0.67227287475E+03 -0.28872824495E+03 -0.15254890536E+04  0.16918722381E+04  0.00000000000E+00 0. -1.
         -3    1    6    6    0  503 -0.18261556249E+03 -0.86979912822E+02 -0.33143930087E+03  0.38828592437E+03  0.00000000000E+00 0.  1.
<mgrwt>
<rscale>  0 0.24333449E+04</rscale>
<asrwt>0</asrwt>
<pdfrwt beam="1">  1        2 0.37694812E+00 0.24333449E+04</pdfrwt>
<pdfrwt beam="2">  1       -1 0.92947786E-01 0.24333449E+04</pdfrwt>
<totfact> 0.42665288E+00</totfact>
</mgrwt>
</event>
<event>
12    6  0.1403409E-007  0.1943637E+04  0.7818608E-02  0.8633435E-01
          2   -1    0    0  501    0  0.00000000000E+00  0.00000000000E+00  0.19735707018E+04  0.19735707018E+04  0.00000000000E+00 0. -1.
         -1   -1    0    0    0  501 -0.00000000000E+00 -0.00000000000E+00 -0.47853914770E+03  0.47853914770E+03  0.00000000000E+00 0.  1.
         24    2    1    2    0    0  0.59799929627E+03 -0.23756360338E+03  0.11007438506E+04  0.12776439850E+04  0.81838278683E+02 0.  0.
        254    2    1    2    0    0 -0.59799929627E+03  0.23756360338E+03  0.39428770350E+03  0.11744658645E+04  0.89992646905E+03 0.  0.
         23    2    4    4    0    0 -0.82258008748E+03  0.17793862516E+03  0.37421624857E+03  0.92576657659E+03  0.93304871213E+02 0.  0.
         23    2    4    4    0    0  0.22458079120E+03  0.59624978215E+02  0.20071454929E+02  0.24869928789E+03  0.86352780446E+02 0.  0.
          4    1    3    3  502    0  0.48638135490E+03 -0.22024397239E+03  0.94242475408E+03  0.10831614131E+04  0.00000000000E+00 0. -1.
         -3    1    3    3    0  502  0.11161794137E+03 -0.17319630987E+02  0.15831909651E+03  0.19448257190E+03  0.00000000000E+00 0.  1.
         11    1    5    5    0    0 -0.22644116721E+03  0.71836567244E+01  0.10629224571E+03  0.25025037189E+03  0.00000000000E+00 0. -1.
        -11    1    5    5    0    0 -0.59613892027E+03  0.17075496844E+03  0.26792400286E+03  0.67551620470E+03  0.00000000000E+00 0.  1.
          1    1    6    6  503    0  0.21813548918E+03  0.69921778073E+02  0.47117155154E+01  0.22911644846E+03  0.00000000000E+00 0. -1.
         -1    1    6    6    0  503  0.64453020170E+01 -0.10296799859E+02  0.15359739414E+02  0.19582839434E+02  0.00000000000E+00 0.  1.
<mgrwt>
<rscale>  0 0.19436366E+04</rscale>
<asrwt>0</asrwt>
<pdfrwt beam="1">  1        2 0.30362626E+00 0.19436366E+04</pdfrwt>
<pdfrwt beam="2">  1       -1 0.73621408E-01 0.19436366E+04</pdfrwt>
<totfact> 0.13650071E+01</totfact>
</mgrwt>
</event>
<event>
12    6  0.1403409E-007  0.1515311E+04  0.7818608E-02  0.8874335E-01
          2   -1    0    0  501    0  0.00000000000E+00  0.00000000000E+00  0.14463428291E+04  0.14463428291E+04  0.00000000000E+00 0. -1.
         -1   -1    0    0    0  501 -0.00000000000E+00 -0.00000000000E+00 -0.39689188082E+03  0.39689188082E+03  0.00000000000E+00 0.  1.
         24    2    1    2    0    0 -0.18942149811E+03 -0.43943786627E+03  0.24806642816E+03  0.54629368772E+03  0.88958969184E+02 0.  0.
        254    2    1    2    0    0  0.18942149811E+03  0.43943786627E+03  0.80138452008E+03  0.12969410222E+04  0.90047361076E+03 0.  0.
         23    2    4    4    0    0 -0.29185193082E+03  0.32198828769E+03  0.13935104556E+03  0.46501207764E+03  0.89238509204E+02 0.  0.
         23    2    4    4    0    0  0.48127342893E+03  0.11744957858E+03  0.66203347452E+03  0.83192894452E+03  0.91645678762E+02 0.  0.
          2    1    3    3  502    0 -0.62852700250E+02 -0.24237288371E+03  0.15361359294E+03  0.29375536186E+03  0.00000000000E+00 0. -1.
         -1    1    3    3    0  502 -0.12656879786E+03 -0.19706498256E+03  0.94452835223E+02  0.25253832586E+03  0.00000000000E+00 0.  1.
         11    1    5    5    0    0 -0.28280038116E+03  0.32636817065E+03  0.14203322109E+03  0.45460496510E+03  0.00000000000E+00 0. -1.
        -11    1    5    5    0    0 -0.90515496561E+01 -0.43798829634E+01 -0.26821755283E+01  0.10407112545E+02  0.00000000000E+00 0.  1.
          4    1    6    6  503    0  0.33165313194E+03  0.71472612053E+02  0.38032414491E+03  0.50965536336E+03  0.00000000000E+00 0. -1.
         -4    1    6    6    0  503  0.14962029699E+03  0.45976966531E+02  0.28170932960E+03  0.32227358115E+03  0.00000000000E+00 0.  1.
<mgrwt>
<rscale>  0 0.15153108E+04</rscale>
<asrwt>0</asrwt>
<pdfrwt beam="1">  1        2 0.22251428E+00 0.15153108E+04</pdfrwt>
<pdfrwt beam="2">  1       -1 0.61060290E-01 0.15153108E+04</pdfrwt>
<totfact> 0.40731236E+01</totfact>
</mgrwt>
</event>
<event>
12    6  0.1403409E-007  0.2574428E+04  0.7818608E-02  0.8376939E-01
         -1   -1    0    0    0  501 -0.00000000000E+00  0.00000000000E+00  0.53976124690E+03  0.53976124690E+03  0.00000000000E+00 0.  1.
          2   -1    0    0  501    0  0.00000000000E+00 -0.00000000000E+00 -0.30697284767E+04  0.30697284767E+04  0.00000000000E+00 0. -1.
         24    2    1    2    0    0  0.26294342269E+03 -0.10973464229E+04 -0.10757798462E+04  0.15610825466E+04  0.79799901859E+02 0.  0.
        254    2    1    2    0    0 -0.26294342269E+03  0.10973464229E+04 -0.14541873836E+04  0.20484071770E+04  0.89888964895E+03 0.  0.
         23    2    4    4    0    0  0.11686425471E+03  0.60108696633E+03 -0.12324777024E+04  0.13788580393E+04  0.85354616108E+02 0.  0.
         23    2    4    4    0    0 -0.37980767740E+03  0.49625945656E+03 -0.22170968113E+03  0.66954913769E+03  0.92809186222E+02 0.  0.
          2    1    3    3  502    0  0.93462209980E+02 -0.40059385258E+03 -0.44578863801E+03  0.60657903788E+03  0.00000000000E+00 0. -1.
         -1    1    3    3    0  502  0.16948121271E+03 -0.69675257030E+03 -0.62999120823E+03  0.95450350870E+03  0.00000000000E+00 0.  1.
         11    1    5    5    0    0  0.92309044268E+02  0.39283020638E+03 -0.89122487206E+03  0.97832423218E+03  0.00000000000E+00 0. -1.
        -11    1    5    5    0    0  0.24555210442E+02  0.20825675995E+03 -0.34125283038E+03  0.40053380715E+03  0.00000000000E+00 0.  1.
          1    1    6    6  503    0 -0.29894995850E+03  0.43694978131E+03 -0.20577324912E+03  0.56801304485E+03  0.00000000000E+00 0. -1.
         -1    1    6    6    0  503 -0.80857718899E+02  0.59309675248E+02 -0.15936432007E+02  0.10153609284E+03  0.00000000000E+00 0.  1.
<mgrwt>
<rscale>  0 0.25744285E+04</rscale>
<asrwt>0</asrwt>
<pdfrwt beam="1">  1        2 0.47226592E+00 0.25744285E+04</pdfrwt>
<pdfrwt beam="2">  1       -1 0.83040193E-01 0.25744285E+04</pdfrwt>
<totfact> 0.22835199E+00</totfact>
</mgrwt>
</event>
<event>
12    6  0.1403409E-007  0.1109691E+04  0.7818608E-02  0.9195798E-01
          2   -1    0    0  501    0  0.00000000000E+00  0.00000000000E+00  0.30083210640E+04  0.30083210640E+04  0.00000000000E+00 0. -1.
         -1   -1    0    0    0  501 -0.00000000000E+00 -0.00000000000E+00 -0.10233396930E+03  0.10233396930E+03  0.00000000000E+00 0.  1.
         24    2    1    2    0    0  0.12641524256E+03 -0.11876420228E+03  0.42971077763E+03  0.47051594320E+03  0.81536195024E+02 0.  0.
        254    2    1    2    0    0 -0.12641524256E+03  0.11876420228E+03  0.24762763171E+04  0.26401390902E+04  0.89905743274E+03 0.  0.
         23    2    4    4    0    0 -0.26043358521E+03  0.21310153258E+03  0.30929353736E+03  0.46507983263E+03  0.86016527315E+02 0.  0.
         23    2    4    4    0    0  0.13401834265E+03 -0.94337330305E+02  0.21669827798E+04  0.21750592575E+04  0.90597780995E+02 0.  0.
          4    1    3    3  502    0  0.12473542892E+02 -0.57012031382E+01  0.12826852486E+03  0.12899964131E+03  0.00000000000E+00 0. -1.
         -3    1    3    3    0  502  0.11394169967E+03 -0.11306299914E+03  0.30144225277E+03  0.34151630188E+03  0.00000000000E+00 0.  1.
         11    1    5    5    0    0 -0.23782406695E+03  0.16910181279E+03  0.22973005679E+03  0.37139144969E+03  0.00000000000E+00 0. -1.
        -11    1    5    5    0    0 -0.22609518262E+02  0.43999719795E+02  0.79563480565E+02  0.93688382939E+02  0.00000000000E+00 0.  1.
          4    1    6    6  503    0  0.74593685003E+02 -0.90676050757E+02  0.17384190100E+04  0.17423796998E+04  0.00000000000E+00 0.  1.
         -4    1    6    6    0  503  0.59424657649E+02 -0.36612795480E+01  0.42856376975E+03  0.43267955770E+03  0.00000000000E+00 0. -1.
<mgrwt>
<rscale>  0 0.11096908E+04</rscale>
<asrwt>0</asrwt>
<pdfrwt beam="1">  1        2 0.46281856E+00 0.11096908E+04</pdfrwt>
<pdfrwt beam="2">  1       -1 0.15743690E-01 0.11096908E+04</pdfrwt>
<totfact> 0.60218033E+01</totfact>
</mgrwt>
</event>
<event>
12    6  0.1403409E-007  0.1824476E+04  0.7818608E-02  0.8693390E-01
         -1   -1    0    0    0  501 -0.00000000000E+00  0.00000000000E+00  0.11872657572E+04  0.11872657572E+04  0.00000000000E+00 0.  1.
          2   -1    0    0  501    0  0.00000000000E+00 -0.00000000000E+00 -0.70092014145E+03  0.70092014145E+03  0.00000000000E+00 0. -1.
         24    2    1    2    0    0  0.24533644083E+03  0.29551806620E+03  0.77711360888E+03  0.87041006968E+03  0.78658957730E+02 0.  0.
        254    2    1    2    0    0 -0.24533644083E+03 -0.29551806620E+03 -0.29076799312E+03  0.10177758290E+04  0.89654933807E+03 0.  0.
         23    2    4    4    0    0 -0.32780294915E+03 -0.47564506507E+03  0.77543584988E+02  0.58990513505E+03  0.91005820635E+02 0.  0.
         23    2    4    4    0    0  0.82466508313E+02  0.18012699887E+03 -0.36831157810E+03  0.42787069394E+03  0.90407142701E+02 0.  0.
          2    1    3    3  502    0  0.17171492962E+03  0.21498030704E+03  0.62807131382E+03  0.68569390016E+03  0.00000000000E+00 0. -1.
         -1    1    3    3    0  502  0.73621511214E+02  0.80537759163E+02  0.14904229506E+03  0.18471616952E+03  0.00000000000E+00 0.  1.
         11    1    5    5    0    0 -0.23610824633E+03 -0.33647324428E+03  0.13226237870E+02  0.41126181621E+03  0.00000000000E+00 0. -1.
        -11    1    5    5    0    0 -0.91694702813E+02 -0.13917182079E+03  0.64317347118E+02  0.17864331884E+03  0.00000000000E+00 0.  1.
          1    1    6    6  503    0  0.88514619780E+02  0.13035755446E+03 -0.21491578072E+03  0.26648962967E+03  0.00000000000E+00 0. -1.
         -1    1    6    6    0  503 -0.60481114670E+01  0.49769444406E+02 -0.15339579738E+03  0.16138106427E+03  0.00000000000E+00 0.  1.
<mgrwt>
<rscale>  0 0.18244763E+04</rscale>
<asrwt>0</asrwt>
<pdfrwt beam="1">  1        2 0.10783387E+00 0.18244763E+04</pdfrwt>
<pdfrwt beam="2">  1       -1 0.18265627E+00 0.18244763E+04</pdfrwt>
<totfact> 0.87646489E+00</totfact>
</mgrwt>
</event>
<event>
12    6  0.1403409E-007  0.1993261E+04  0.7818608E-02  0.8609778E-01
         -1   -1    0    0    0  501 -0.00000000000E+00  0.00000000000E+00  0.38972764285E+03  0.38972764285E+03  0.00000000000E+00 0.  1.
          2   -1    0    0  501    0  0.00000000000E+00 -0.00000000000E+00 -0.25486330600E+04  0.25486330600E+04  0.00000000000E+00 0. -1.
         24    2    1    2    0    0 -0.34138274142E+03  0.33762584717E+03 -0.17867851756E+04  0.18519204812E+04  0.80466243084E+02 0.  0.
        254    2    1    2    0    0  0.34138274142E+03 -0.33762584717E+03 -0.37212024162E+03  0.10864402217E+04  0.90074718553E+03 0.  0.
         23    2    4    4    0    0  0.53733360066E+03 -0.28480983066E+03  0.42129077822E+02  0.61608188223E+03  0.89095389175E+02 0.  0.
         23    2    4    4    0    0 -0.19595085924E+03 -0.52816016512E+02 -0.41424931944E+03  0.47035833945E+03  0.91914079404E+02 0.  0.
          2    1    3    3  502    0 -0.16326532878E+03  0.10905549036E+03 -0.67275283089E+03  0.70081740777E+03  0.00000000000E+00 0. -1.
         -1    1    3    3    0  502 -0.17811741264E+03  0.22857035681E+03 -0.11140323447E+04  0.11511030734E+04  0.00000000000E+00 0.  1.
         11    1    5    5    0    0  0.43466459799E+03 -0.24971192941E+03  0.47148150645E+01  0.50130987415E+03  0.00000000000E+00 0. -1.
        -11    1    5    5    0    0  0.10266900267E+03 -0.35097901251E+02  0.37414262757E+02  0.11477200808E+03  0.00000000000E+00 0.  1.
          2    1    6    6  503    0 -0.13463254857E+03 -0.53932469441E+02 -0.19707022430E+03  0.24468614121E+03  0.00000000000E+00 0. -1.
         -2    1    6    6    0  503 -0.61318310670E+02  0.11164529289E+01 -0.21717909514E+03  0.22567219824E+03  0.00000000000E+00 0.  1.
<mgrwt>
<rscale>  0 0.19932614E+04</rscale>
<asrwt>0</asrwt>
<pdfrwt beam="1">  1        2 0.39209739E+00 0.19932614E+04</pdfrwt>
<pdfrwt beam="2">  1       -1 0.59958099E-01 0.19932614E+04</pdfrwt>
<totfact> 0.97405243E+00</totfact>
</mgrwt>
</event>
<event>
12    6  0.1403409E-007  0.1935040E+04  0.7818608E-02  0.8637609E-01
         -1   -1    0    0    0  501 -0.00000000000E+00  0.00000000000E+00  0.55170693672E+03  0.55170693672E+03  0.00000000000E+00 0.  1.
          2   -1    0    0  501    0  0.00000000000E+00 -0.00000000000E+00 -0.16967241722E+04  0.16967241722E+04  0.00000000000E+00 0. -1.
         24    2    1    2    0    0  0.65393332743E+03  0.16226176610E+03 -0.52550926647E+02  0.68027427862E+03  0.77806277320E+02 0.  0.
        254    2    1    2    0    0 -0.65393332743E+03 -0.16226176610E+03 -0.10924663088E+04  0.15681568303E+04  0.90093036970E+03 0.  0.
         23    2    4    4    0    0  0.13990184588E+01  0.16422357879E+03  0.62841565698E+02  0.19741754257E+03  0.89740083868E+02 0.  0.
         23    2    4    4    0    0 -0.65533234589E+03 -0.32648534489E+03 -0.11553078745E+04  0.13707392877E+04  0.90203913386E+02 0.  0.
          4    1    3    3  502    0  0.17411343475E+03  0.11504155011E+02  0.90257136649E+00  0.17449541076E+03  0.00000000000E+00 0. -1.
         -3    1    3    3    0  502  0.47981989269E+03  0.15075761109E+03 -0.53453498013E+02  0.50577886786E+03  0.00000000000E+00 0.  1.
         11    1    5    5    0    0 -0.54783142468E+01  0.17207674002E+03  0.68795362919E+02  0.18540015734E+03  0.00000000000E+00 0.  1.
        -11    1    5    5    0    0  0.68773327057E+01 -0.78531612306E+01 -0.59537972201E+01  0.12017385231E+02  0.00000000000E+00 0. -1.
          3    1    6    6  503    0 -0.22288773486E+03 -0.64782436250E+02 -0.35244315799E+03  0.42200934352E+03  0.00000000000E+00 0. -1.
         -3    1    6    6    0  503 -0.43244461103E+03 -0.26170290864E+03 -0.80286471654E+03  0.94872994422E+03  0.00000000000E+00 0.  1.
<mgrwt>
<rscale>  0 0.19350395E+04</rscale>
<asrwt>0</asrwt>
<pdfrwt beam="1">  1        2 0.26103449E+00 0.19350395E+04</pdfrwt>
<pdfrwt beam="2">  1       -1 0.84877991E-01 0.19350395E+04</pdfrwt>
<totfact> 0.14387021E+01</totfact>
</mgrwt>
</event>
<event>
12    6  0.1403409E-007  0.1531344E+04  0.7818608E-02  0.8863873E-01
         -1   -1    0    0    0  501 -0.00000000000E+00  0.00000000000E+00  0.55487119502E+03  0.55487119502E+03  0.00000000000E+00 0.  1.
          2   -1    0    0  501    0  0.00000000000E+00 -0.00000000000E+00 -0.10565574296E+04  0.10565574296E+04  0.00000000000E+00 0. -1.
         24    2    1    2    0    0  0.23760192263E+03  0.42873750316E+03 -0.82661403240E+02  0.50471953503E+03  0.87397832924E+02 0.  0.
        254    2    1    2    0    0 -0.23760192263E+03 -0.42873750316E+03 -0.41902483130E+03  0.11067090895E+04  0.89941796701E+03 0.  0.
         23    2    4    4    0    0  0.22958377765E+03 -0.31169280415E+03  0.82541182648E+02  0.40676303417E+03  0.93712347198E+02 0.  0.
         23    2    4    4    0    0 -0.46718570028E+03 -0.11704469901E+03 -0.50156601395E+03  0.69994605538E+03  0.79962953778E+02 0.  0.
          2    1    3    3  502    0  0.13900532261E+03  0.16277209238E+03 -0.42675036824E+02  0.21826221052E+03  0.00000000000E+00 0. -1.
         -1    1    3    3    0  502  0.98596600016E+02  0.26596541078E+03 -0.39986366417E+02  0.28645732451E+03  0.00000000000E+00 0.  1.
         11    1    5    5    0    0  0.14778239468E+03 -0.12338618865E+03  0.49861331483E+02  0.19887166742E+03  0.00000000000E+00 0. -1.
        -11    1    5    5    0    0  0.81801382972E+02 -0.18830661550E+03  0.32679851165E+02  0.20789136675E+03  0.00000000000E+00 0.  1.
          4    1    6    6  503    0 -0.45523411924E+03 -0.10525386804E+03 -0.46255213458E+03  0.65747316087E+03  0.00000000000E+00 0. -1.
         -4    1    6    6    0  503 -0.11951581034E+02 -0.11790830970E+02 -0.39013879371E+02  0.42472894506E+02  0.00000000000E+00 0.  1.
<mgrwt>
<rscale>  0 0.15313436E+04</rscale>
<asrwt>0</asrwt>
<pdfrwt beam="1">  1        2 0.16254729E+00 0.15313436E+04</pdfrwt>
<pdfrwt beam="2">  1       -1 0.85364800E-01 0.15313436E+04</pdfrwt>
<totfact> 0.34589792E+01</totfact>
</mgrwt>
</event>
<event>
12    6  0.1403409E-007  0.2281389E+04  0.7818608E-02  0.8485296E-01
          2   -1    0    0  501    0  0.00000000000E+00  0.00000000000E+00  0.15894826798E+04  0.15894826798E+04  0.00000000000E+00 0. -1.
         -1   -1    0    0    0  501 -0.00000000000E+00 -0.00000000000E+00 -0.81862096664E+03  0.81862096664E+03  0.00000000000E+00 0.  1.
         24    2    1    2    0    0  0.48618926457E+03  0.82444583688E+03  0.37552766008E+03  0.10318120694E+04  0.86742054716E+02 0.  0.
        254    2    1    2    0    0 -0.48618926457E+03 -0.82444583688E+03  0.39533405309E+03  0.13762915771E+04  0.90653105445E+03 0.  0.
         23    2    4    4    0    0 -0.40331574779E+03 -0.38895857766E+03  0.64535301486E+03  0.85948584052E+03  0.91011146092E+02 0.  0.
         23    2    4    4    0    0 -0.82873516778E+02 -0.43548725922E+03 -0.25001896178E+03  0.51680573656E+03  0.89785941938E+02 0.  0.
          2    1    3    3  502    0  0.93617936172E+02  0.15391901861E+03  0.10803136435E+03  0.21006227159E+03  0.00000000000E+00 0. -1.
         -1    1    3    3    0  502  0.39257132840E+03  0.67052681828E+03  0.26749629573E+03  0.82174979777E+03  0.00000000000E+00 0.  1.
         11    1    5    5    0    0 -0.33626553117E+03 -0.36022685583E+03  0.58431879196E+03  0.76437317179E+03  0.00000000000E+00 0. -1.
        -11    1    5    5    0    0 -0.67050216615E+02 -0.28731721830E+02  0.61034222904E+02  0.95112668730E+02  0.00000000000E+00 0.  1.
          3    1    6    6  503    0 -0.10110449602E+03 -0.33647878559E+03 -0.18653955116E+03  0.39779026687E+03  0.00000000000E+00 0. -1.
         -3    1    6    6    0  503  0.18230979240E+02 -0.99008473632E+02 -0.63479410616E+02  0.11901546970E+03  0.00000000000E+00 0.  1.
<mgrwt>
<rscale>  0 0.22813889E+04</rscale>
<asrwt>0</asrwt>
<pdfrwt beam="1">  1        2 0.24453580E+00 0.22813889E+04</pdfrwt>
<pdfrwt beam="2">  1       -1 0.12594169E+00 0.22813889E+04</pdfrwt>
<totfact> 0.64209239E+00</totfact>
</mgrwt>
</event>
<event>
12    6  0.1403409E-007  0.1176326E+04  0.7818608E-02  0.9133834E-01
          2   -1    0    0  501    0  0.00000000000E+00  0.00000000000E+00  0.10286051740E+04  0.10286051740E+04  0.00000000000E+00 0. -1.
         -1   -1    0    0    0  501 -0.00000000000E+00 -0.00000000000E+00 -0.33631544273E+03  0.33631544273E+03  0.00000000000E+00 0.  1.
         24    2    1    2    0    0  0.75690174208E+02  0.13723286573E+03 -0.54510130095E+02  0.18455968126E+03  0.80802597467E+02 0.  0.
        254    2    1    2    0    0 -0.75690174208E+02 -0.13723286573E+03  0.74679986134E+03  0.11803609354E+04  0.90054430380E+03 0.  0.
         23    2    4    4    0    0  0.22220692622E+03  0.84144180998E+01 -0.10464267326E+03  0.26209197462E+03  0.91079051404E+02 0.  0.
         23    2    4    4    0    0 -0.29789710043E+03 -0.14564728383E+03  0.85144253461E+03  0.91826896082E+03  0.91146480645E+02 0.  0.
          2    1    3    3  502    0  0.40799012330E+02  0.32725338872E+02  0.14847474148E+02  0.54368692277E+02  0.00000000000E+00 0. -1.
         -1    1    3    3    0  502  0.34891161879E+02  0.10450752685E+03 -0.69357604243E+02  0.13019098898E+03  0.00000000000E+00 0.  1.
         11    1    5    5    0    0  0.15165705387E+03  0.38763839948E+02 -0.98721239596E+02  0.18506317955E+03  0.00000000000E+00 0.  1.
        -11    1    5    5    0    0  0.70549872347E+02 -0.30349421848E+02 -0.59214336651E+01  0.77028795080E+02  0.00000000000E+00 0. -1.
          1    1    6    6  503    0 -0.21849195406E+03 -0.60044891192E+02  0.53705553674E+03  0.58290031094E+03  0.00000000000E+00 0. -1.
         -1    1    6    6    0  503 -0.79405146361E+02 -0.85602392635E+02  0.31438699787E+03  0.33536864988E+03  0.00000000000E+00 0.  1.
<mgrwt>
<rscale>  0 0.11763262E+04</rscale>
<asrwt>0</asrwt>
<pdfrwt beam="1">  1        2 0.15824695E+00 0.11763262E+04</pdfrwt>
<pdfrwt beam="2">  1       -1 0.51740838E-01 0.11763262E+04</pdfrwt>
<totfact> 0.10230524E+02</totfact>
</mgrwt>
</event>
<event>
12    6  0.1403409E-007  0.1105650E+04  0.7818608E-02  0.9199702E-01
         -1   -1    0    0    0  501 -0.00000000000E+00  0.00000000000E+00  0.12584830298E+04  0.12584830298E+04  0.00000000000E+00 0.  1.
          2   -1    0    0  501    0  0.00000000000E+00 -0.00000000000E+00 -0.24284448340E+03  0.24284448340E+03  0.00000000000E+00 0. -1.
         24    2    1    2    0    0 -0.25996352984E+02 -0.18748341427E+02 -0.54496399581E+02  0.10084644039E+03  0.78567399706E+02 0.  0.
        254    2    1    2    0    0  0.25996352984E+02  0.18748341427E+02  0.10701349460E+04  0.14004810729E+04  0.90284612313E+03 0.  0.
         23    2    4    4    0    0  0.10455320590E+03 -0.42059394470E+03  0.58206200974E+03  0.73280184607E+03  0.10184165766E+03 0.  0.
         23    2    4    4    0    0 -0.78556852916E+02  0.43934228613E+03  0.48807293629E+03  0.66767922679E+03  0.91583487798E+02 0.  0.
          2    1    3    3  502    0 -0.15057858557E+01 -0.18115165786E+02 -0.69688054952E+02  0.72019800233E+02  0.00000000000E+00 0. -1.
         -1    1    3    3    0  502 -0.24490567128E+02 -0.63317564106E+00  0.15191655371E+02  0.28826640154E+02  0.00000000000E+00 0.  1.
         11    1    5    5    0    0  0.50442628324E+02 -0.90129821146E+02  0.19750790069E+03  0.22288385820E+03  0.00000000000E+00 0.  1.
        -11    1    5    5    0    0  0.54110577576E+02 -0.33046412355E+03  0.38455410905E+03  0.50991798787E+03  0.00000000000E+00 0. -1.
          4    1    6    6  503    0 -0.76373069286E+02  0.35605417014E+03  0.34230252627E+03  0.49977838816E+03  0.00000000000E+00 0. -1.
         -4    1    6    6    0  503 -0.21837836299E+01  0.83288115988E+02  0.14577041002E+03  0.16790083863E+03  0.00000000000E+00 0.  1.
<mgrwt>
<rscale>  0 0.11056503E+04</rscale>
<asrwt>0</asrwt>
<pdfrwt beam="1">  1        2 0.37360690E-01 0.11056503E+04</pdfrwt>
<pdfrwt beam="2">  1       -1 0.19361277E+00 0.11056503E+04</pdfrwt>
<totfact> 0.26400558E+01</totfact>
</mgrwt>
</event>
<event>
12    6  0.1403409E-007  0.3056050E+04  0.7818608E-02  0.8227904E-01
          2   -1    0    0  501    0  0.00000000000E+00  0.00000000000E+00  0.33359978291E+04  0.33359978291E+04  0.00000000000E+00 0. -1.
         -1   -1    0    0    0  501 -0.00000000000E+00 -0.00000000000E+00 -0.69989869905E+03  0.69989869905E+03  0.00000000000E+00 0.  1.
         24    2    1    2    0    0  0.11478270321E+04 -0.77316978852E+03  0.98158193731E+03  0.16987793717E+04  0.83963303829E+02 0.  0.
        254    2    1    2    0    0 -0.11478270321E+04  0.77316978852E+03  0.16545171927E+04  0.23371171565E+04  0.89966162782E+03 0.  0.
         23    2    4    4    0    0 -0.17272534399E+03 -0.13629382168E+03  0.56288582531E+03  0.61146801016E+03  0.92965718560E+02 0.  0.
         23    2    4    4    0    0 -0.97510168812E+03  0.90946361020E+03  0.10916313674E+04  0.17256491463E+04  0.90876693570E+02 0.  0.
          2    1    3    3  502    0  0.98090582661E+03 -0.66092599971E+03  0.87396162181E+03  0.14706489500E+04  0.00000000000E+00 0. -1.
         -1    1    3    3    0  502  0.16692120549E+03 -0.11224378881E+03  0.10762031550E+03  0.22813042164E+03  0.00000000000E+00 0.  1.
         11    1    5    5    0    0 -0.67644544638E+02 -0.60926772911E+02  0.12336779826E+03  0.15332145879E+03  0.00000000000E+00 0. -1.
        -11    1    5    5    0    0 -0.10508079935E+03 -0.75367048765E+02  0.43951802705E+03  0.45814655137E+03  0.00000000000E+00 0.  1.
          4    1    6    6  503    0 -0.90711543913E+02  0.10931894817E+03  0.14502816927E+03  0.20300834098E+03  0.00000000000E+00 0. -1.
         -4    1    6    6    0  503 -0.88439014421E+03  0.80014466203E+03  0.94660319817E+03  0.15226408053E+04  0.00000000000E+00 0.  1.
<mgrwt>
<rscale>  0 0.30560501E+04</rscale>
<asrwt>0</asrwt>
<pdfrwt beam="1">  1        2 0.51323043E+00 0.30560501E+04</pdfrwt>
<pdfrwt beam="2">  1       -1 0.10767673E+00 0.30560501E+04</pdfrwt>
<totfact> 0.81781655E-01</totfact>
</mgrwt>
</event>
<event>
12    6  0.1403409E-007  0.3394502E+04  0.7818608E-02  0.8139257E-01
          2   -1    0    0  501    0  0.00000000000E+00  0.00000000000E+00  0.27100557697E+04  0.27100557697E+04  0.00000000000E+00 0. -1.
         -1   -1    0    0    0  501 -0.00000000000E+00 -0.00000000000E+00 -0.10629525102E+04  0.10629525102E+04  0.00000000000E+00 0.  1.
         24    2    1    2    0    0  0.13600812634E+04 -0.65787060391E+03  0.27368874475E+03  0.15374161866E+04  0.78282994026E+02 0.  0.
        254    2    1    2    0    0 -0.13600812634E+04  0.65787060391E+03  0.13734145147E+04  0.22355920933E+04  0.91048877189E+03 0.  0.
         23    2    4    4    0    0  0.72777702173E+01 -0.10278129505E+03 -0.19320370854E+02  0.13895080427E+03  0.91198074134E+02 0.  0.
         23    2    4    4    0    0 -0.13673590337E+04  0.76065189896E+03  0.13927348856E+04  0.20966412890E+04  0.89062871267E+02 0.  0.
          2    1    3    3  502    0  0.52102927049E+03 -0.21060267448E+03  0.95220160550E+02  0.56999286503E+03  0.00000000000E+00 0. -1.
         -1    1    3    3    0  502  0.83905199295E+03 -0.44726792943E+03  0.17846858420E+03  0.96742332157E+03  0.00000000000E+00 0.  1.
         11    1    5    5    0    0  0.49304188264E+02 -0.54400234025E+02 -0.77127072575E+01  0.73822586622E+02  0.00000000000E+00 0.  1.
        -11    1    5    5    0    0 -0.42026418047E+02 -0.48381061029E+02 -0.11607663597E+02  0.65128217651E+02  0.00000000000E+00 0. -1.
          2    1    6    6  503    0 -0.41885580382E+03  0.27133218543E+03  0.41125870919E+03  0.64668003304E+03  0.00000000000E+00 0. -1.
         -2    1    6    6    0  503 -0.94850322984E+03  0.48931971353E+03  0.98147617638E+03  0.14499612560E+04  0.00000000000E+00 0.  1.
<mgrwt>
<rscale>  0 0.33945018E+04</rscale>
<asrwt>0</asrwt>
<pdfrwt beam="1">  1        2 0.41693165E+00 0.33945018E+04</pdfrwt>
<pdfrwt beam="2">  1       -1 0.16353116E+00 0.33945018E+04</pdfrwt>
<totfact> 0.67757707E-01</totfact>
</mgrwt>
</event>
<event>
12    6  0.1403409E-007  0.1463338E+04  0.7818608E-02  0.8909206E-01
         -1   -1    0    0    0  501 -0.00000000000E+00  0.00000000000E+00  0.55197363393E+03  0.55197363393E+03  0.00000000000E+00 0.  1.
          2   -1    0    0  501    0  0.00000000000E+00 -0.00000000000E+00 -0.96986389461E+03  0.96986389461E+03  0.00000000000E+00 0. -1.
         24    2    1    2    0    0 -0.14430576858E+03 -0.41284946409E+03 -0.59102661616E+02  0.44904606765E+03  0.82948245422E+02 0.  0.
        254    2    1    2    0    0  0.14430576858E+03  0.41284946409E+03 -0.35878759907E+03  0.10727914609E+04  0.91152846498E+03 0.  0.
         23    2    4    4    0    0 -0.31975908534E+03  0.34631762967E+03 -0.35174705573E+03  0.59516091345E+03  0.91152336257E+02 0.  0.
         23    2    4    4    0    0  0.46406485392E+03  0.66531834415E+02 -0.70405433356E+01  0.47763054744E+03  0.91097184151E+02 0.  0.
          2    1    3    3  502    0 -0.58925145318E+02 -0.73854413253E+02 -0.25447056770E+02  0.97847840068E+02  0.00000000000E+00 0. -1.
         -1    1    3    3    0  502 -0.85380623261E+02 -0.33899505083E+03 -0.33655604845E+02  0.35119822758E+03  0.00000000000E+00 0.  1.
         11    1    5    5    0    0 -0.88270796517E+02  0.91518979069E+02 -0.14805726760E+03  0.19516252595E+03  0.00000000000E+00 0. -1.
        -11    1    5    5    0    0 -0.23148828882E+03  0.25479865060E+03 -0.20368978813E+03  0.39999838750E+03  0.00000000000E+00 0.  1.
          4    1    6    6  503    0  0.13875158760E+03  0.59955492359E+02 -0.16959949680E+02  0.15209965161E+03  0.00000000000E+00 0. -1.
         -4    1    6    6    0  503  0.32531326631E+03  0.65763420561E+01  0.99194063443E+01  0.32553089583E+03  0.00000000000E+00 0.  1.
<mgrwt>
<rscale>  0 0.14633377E+04</rscale>
<asrwt>0</asrwt>
<pdfrwt beam="1">  1        2 0.14920983E+00 0.14633377E+04</pdfrwt>
<pdfrwt beam="2">  1       -1 0.84919022E-01 0.14633377E+04</pdfrwt>
<totfact> 0.39969148E+01</totfact>
</mgrwt>
</event>
<event>
12    6  0.1403409E-007  0.2354829E+04  0.7818608E-02  0.8456611E-01
         -1   -1    0    0    0  501 -0.00000000000E+00  0.00000000000E+00  0.10188855992E+04  0.10188855992E+04  0.00000000000E+00 0.  1.
          2   -1    0    0  501    0  0.00000000000E+00 -0.00000000000E+00 -0.13606094713E+04  0.13606094713E+04  0.00000000000E+00 0. -1.
         24    2    1    2    0    0  0.87773665271E+03  0.47027516670E+02  0.34305101345E+03  0.94728039063E+03  0.83802874616E+02 0.  0.
        254    2    1    2    0    0 -0.87773665271E+03 -0.47027516670E+02 -0.68477488560E+03  0.14322146799E+04  0.89982722038E+03 0.  0.
         23    2    4    4    0    0 -0.89815914268E+03  0.22120188101E+03 -0.35114954580E+03  0.99378776842E+03  0.93209481278E+02 0.  0.
         23    2    4    4    0    0  0.20422489971E+02 -0.26822939768E+03 -0.33362533980E+03  0.43842691148E+03  0.92456484255E+02 0.  0.
          2    1    3    3  502    0  0.45620128655E+03  0.16673416340E+02  0.22221990351E+03  0.50771970828E+03  0.00000000000E+00 0. -1.
         -1    1    3    3    0  502  0.42153536617E+03  0.30354100330E+02  0.12083110995E+03  0.43956068235E+03  0.00000000000E+00 0.  1.
         11    1    5    5    0    0 -0.77095745626E+03  0.15697891473E+03 -0.30783165687E+03  0.84485389743E+03  0.00000000000E+00 0.  1.
        -11    1    5    5    0    0 -0.12720168643E+03  0.64222966279E+02 -0.43317888923E+02  0.14893387099E+03  0.00000000000E+00 0. -1.
          1    1    6    6  503    0 -0.95564186159E+01 -0.16780470969E+03 -0.26274413414E+03  0.31190419323E+03  0.00000000000E+00 0. -1.
         -1    1    6    6    0  503  0.29978908587E+02 -0.10042468799E+03 -0.70881205659E+02  0.12652271825E+03  0.00000000000E+00 0.  1.
<mgrwt>
<rscale>  0 0.23548294E+04</rscale>
<asrwt>0</asrwt>
<pdfrwt beam="1">  1        2 0.20932453E+00 0.23548294E+04</pdfrwt>
<pdfrwt beam="2">  1       -1 0.15675163E+00 0.23548294E+04</pdfrwt>
<totfact> 0.48510417E+00</totfact>
</mgrwt>
</event>
<event>
12    6  0.1403409E-007  0.1113432E+04  0.7818608E-02  0.9192198E-01
         -1   -1    0    0    0  501 -0.00000000000E+00  0.00000000000E+00  0.65280176130E+03  0.65280176130E+03  0.00000000000E+00 0.  1.
          2   -1    0    0  501    0  0.00000000000E+00 -0.00000000000E+00 -0.47477294064E+03  0.47477294064E+03  0.00000000000E+00 0. -1.
         24    2    1    2    0    0  0.76600813496E+02  0.15403760988E+03  0.75803218390E+02  0.20557083589E+03  0.83174339580E+02 0.  0.
        254    2    1    2    0    0 -0.76600813496E+02 -0.15403760988E+03  0.10222560228E+03  0.92200386605E+03  0.90002543596E+03 0.  0.
         23    2    4    4    0    0  0.43193516000E+02 -0.10072630852E+03 -0.38489435307E+03  0.40872732263E+03  0.83083645706E+02 0.  0.
         23    2    4    4    0    0 -0.11979432950E+03 -0.53311301358E+02  0.48711995535E+03  0.51327654342E+03  0.94732163990E+02 0.  0.
          4    1    3    3  502    0 -0.37254484317E+01  0.37301963902E+02 -0.11404155542E+02  0.39183800742E+02  0.00000000000E+00 0. -1.
         -3    1    3    3    0  502  0.80326261928E+02  0.11673564598E+03  0.87207373932E+02  0.16638703515E+03  0.00000000000E+00 0.  1.
         11    1    5    5    0    0  0.40019074260E+02 -0.96314255645E+02 -0.21718633351E+03  0.24093124664E+03  0.00000000000E+00 0. -1.
        -11    1    5    5    0    0  0.31744417405E+01 -0.44120528756E+01 -0.16770801956E+03  0.16779607599E+03  0.00000000000E+00 0.  1.
          1    1    6    6  503    0 -0.57264535295E+02  0.19463683379E+02  0.12816429498E+03  0.14171855376E+03  0.00000000000E+00 0. -1.
         -1    1    6    6    0  503 -0.62529794201E+02 -0.72774984737E+02  0.35895566037E+03  0.37155798966E+03  0.00000000000E+00 0.  1.
<mgrwt>
<rscale>  0 0.11134318E+04</rscale>
<asrwt>0</asrwt>
<pdfrwt beam="1">  1        2 0.73041991E-01 0.11134318E+04</pdfrwt>
<pdfrwt beam="2">  1       -1 0.10043104E+00 0.11134318E+04</pdfrwt>
<totfact> 0.70071334E+01</totfact>
</mgrwt>
</event>
<event>
12    6  0.1403409E-007  0.1192564E+04  0.7818608E-02  0.9119390E-01
         -1   -1    0    0    0  501 -0.00000000000E+00  0.00000000000E+00  0.15629815088E+03  0.15629815088E+03  0.00000000000E+00 0.  1.
          2   -1    0    0  501    0  0.00000000000E+00 -0.00000000000E+00 -0.22748349241E+04  0.22748349241E+04  0.00000000000E+00 0. -1.
         24    2    1    2    0    0 -0.24402937142E+03 -0.38383899615E+02 -0.46250427142E+03  0.53026352924E+03  0.79028801650E+02 0.  0.
        254    2    1    2    0    0  0.24402937142E+03  0.38383899615E+02 -0.16560325018E+04  0.19008695458E+04  0.89990984275E+03 0.  0.
         23    2    4    4    0    0  0.44988215036E+03  0.20105955053E+03 -0.15016459280E+04  0.15831612705E+04  0.92952800925E+02 0.  0.
         23    2    4    4    0    0 -0.20585277894E+03 -0.16267565091E+03 -0.15438657386E+03  0.31770827533E+03  0.90909845578E+02 0.  0.
          2    1    3    3  502    0 -0.81153653302E+02 -0.50421558766E+02 -0.18684026624E+03  0.20985121901E+03  0.00000000000E+00 0. -1.
         -3    1    3    3    0  502 -0.16287571811E+03  0.12037659151E+02 -0.27566400519E+03  0.32041231023E+03  0.00000000000E+00 0.  1.
         11    1    5    5    0    0  0.37078198654E+03  0.19742462665E+03 -0.13133823524E+04  0.13789231191E+04  0.00000000000E+00 0.  1.
        -11    1    5    5    0    0  0.79100163822E+02  0.36349238772E+01 -0.18826357561E+03  0.20423815140E+03  0.00000000000E+00 0. -1.
          3    1    6    6  503    0 -0.16550950965E+02  0.16782116269E+01  0.85627517903E+01  0.18710186806E+02  0.00000000000E+00 0. -1.
         -3    1    6    6    0  503 -0.18930182798E+03 -0.16435386254E+03 -0.16294932565E+03  0.29899808852E+03  0.00000000000E+00 0.  1.
<mgrwt>
<rscale>  0 0.11925645E+04</rscale>
<asrwt>0</asrwt>
<pdfrwt beam="1">  1        2 0.34997458E+00 0.11925645E+04</pdfrwt>
<pdfrwt beam="2">  1       -1 0.24045871E-01 0.11925645E+04</pdfrwt>
<totfact> 0.79188383E+01</totfact>
</mgrwt>
</event>
<event>
12    6  0.1403409E-007  0.2184737E+04  0.7818608E-02  0.8524808E-01
         -1   -1    0    0    0  501 -0.00000000000E+00  0.00000000000E+00  0.51674460195E+03  0.51674460195E+03  0.00000000000E+00 0.  1.
          2   -1    0    0  501    0  0.00000000000E+00 -0.00000000000E+00 -0.23092053515E+04  0.23092053515E+04  0.00000000000E+00 0. -1.
         24    2    1    2    0    0  0.88891763021E+03  0.25464514888E+02 -0.96057929537E+03  0.13114947166E+04  0.80515924900E+02 0.  0.
        254    2    1    2    0    0 -0.88891763021E+03 -0.25464514888E+02 -0.83188145417E+03  0.15144552369E+04  0.90040264095E+03 0.  0.
         23    2    4    4    0    0 -0.51986225912E+03 -0.87867484138E+02  0.64131928717E+02  0.53907539259E+03  0.92260020519E+02 0.  0.
         23    2    4    4    0    0 -0.36905537109E+03  0.62402969250E+02 -0.89601338289E+03  0.97537984427E+03  0.91814273323E+02 0.  0.
          2    1    3    3  502    0  0.50386679245E+03 -0.25433689316E+02 -0.54600604097E+03  0.74340514785E+03  0.00000000000E+00 0. -1.
         -1    1    3    3    0  502  0.38505083776E+03  0.50898204204E+02 -0.41457325441E+03  0.56808956875E+03  0.00000000000E+00 0.  1.
         11    1    5    5    0    0 -0.16511862814E+03 -0.62147554621E+02  0.48883147467E+02  0.18307387037E+03  0.00000000000E+00 0. -1.
        -11    1    5    5    0    0 -0.35474363097E+03 -0.25719929517E+02  0.15248781250E+02  0.35600152222E+03  0.00000000000E+00 0.  1.
          2    1    6    6  503    0 -0.28706256174E+03  0.83621811160E+01 -0.66527044798E+03  0.72460997052E+03  0.00000000000E+00 0.  1.
         -2    1    6    6    0  503 -0.81992809342E+02  0.54040788134E+02 -0.23074293491E+03  0.25076987374E+03  0.00000000000E+00 0. -1.
<mgrwt>
<rscale>  0 0.21847374E+04</rscale>
<asrwt>0</asrwt>
<pdfrwt beam="1">  1        2 0.35526237E+00 0.21847374E+04</pdfrwt>
<pdfrwt beam="2">  1       -1 0.79499168E-01 0.21847374E+04</pdfrwt>
<totfact> 0.73752838E+00</totfact>
</mgrwt>
</event>
<event>
12    6  0.1403409E-007  0.1512738E+04  0.7818608E-02  0.8876026E-01
          2   -1    0    0  501    0  0.00000000000E+00  0.00000000000E+00  0.47809952703E+04  0.47809952703E+04  0.00000000000E+00 0. -1.
         -1   -1    0    0    0  501 -0.00000000000E+00 -0.00000000000E+00 -0.11966006358E+03  0.11966006358E+03  0.00000000000E+00 0.  1.
         24    2    1    2    0    0 -0.45224117022E+03  0.14858677539E+03  0.12356137362E+04  0.13264895688E+04  0.78950396734E+02 0.  0.
        254    2    1    2    0    0  0.45224117022E+03 -0.14858677539E+03  0.34257214705E+04  0.35741657651E+04  0.90138405629E+03 0.  0.
         23    2    4    4    0    0  0.26795889007E+03  0.34201979322E+03  0.20855033019E+04  0.21322389053E+04  0.91319336420E+02 0.  0.
         23    2    4    4    0    0  0.18428228016E+03 -0.49060656862E+03  0.13402181686E+04  0.14419268598E+04  0.91178756456E+02 0.  0.
          2    1    3    3  502    0 -0.11009546685E+03  0.74760789624E+01  0.23486346723E+03  0.25949518650E+03  0.00000000000E+00 0. -1.
         -1    1    3    3    0  502 -0.34214570337E+03  0.14111069643E+03  0.10007502690E+04  0.10669943823E+04  0.00000000000E+00 0.  1.
         11    1    5    5    0    0  0.16074335644E+03  0.15032471476E+03  0.89648089447E+03  0.92310017910E+03  0.00000000000E+00 0. -1.
        -11    1    5    5    0    0  0.10721553362E+03  0.19169507847E+03  0.11890224074E+04  0.12091387262E+04  0.00000000000E+00 0.  1.
          2    1    6    6  503    0  0.14189034379E+03 -0.45471529186E+03  0.11933148491E+04  0.12848732215E+04  0.00000000000E+00 0. -1.
         -2    1    6    6    0  503  0.42391936364E+02 -0.35891276752E+02  0.14690331949E+03  0.15705363827E+03  0.00000000000E+00 0.  1.
<mgrwt>
<rscale>  0 0.15127382E+04</rscale>
<asrwt>0</asrwt>
<pdfrwt beam="1">  1        2 0.73553759E+00 0.15127382E+04</pdfrwt>
<pdfrwt beam="2">  1       -1 0.18409244E-01 0.15127382E+04</pdfrwt>
<totfact> 0.16858941E+00</totfact>
</mgrwt>
</event>
<event>
12    6  0.1403409E-007  0.1720984E+04  0.7818608E-02  0.8749486E-01
          2   -1    0    0  501    0  0.00000000000E+00  0.00000000000E+00  0.63586606889E+03  0.63586606889E+03  0.00000000000E+00 0. -1.
         -1   -1    0    0    0  501 -0.00000000000E+00 -0.00000000000E+00 -0.11644687375E+04  0.11644687375E+04  0.00000000000E+00 0.  1.
         24    2    1    2    0    0 -0.48699952730E+03 -0.14896648855E+03 -0.55975578262E+03  0.76090027681E+03  0.79266264955E+02 0.  0.
        254    2    1    2    0    0  0.48699952730E+03  0.14896648855E+03  0.31153113962E+02  0.10394345296E+04  0.90559045411E+03 0.  0.
         23    2    4    4    0    0  0.16619173782E+03  0.50841728303E+03  0.72479079219E+02  0.54746710931E+03  0.91428613923E+02 0.  0.
         23    2    4    4    0    0  0.32080778948E+03 -0.35945079448E+03 -0.41325965257E+02  0.49196742032E+03  0.90562662297E+02 0.  0.
          4    1    3    3  502    0 -0.28937202117E+02 -0.30925002362E+02 -0.48109584818E+02  0.64095628469E+02  0.00000000000E+00 0. -1.
         -3    1    3    3    0  502 -0.45806232519E+03 -0.11804148619E+03 -0.51164619781E+03  0.69680464834E+03  0.00000000000E+00 0.  1.
         11    1    5    5    0    0  0.10451189047E+03  0.25807307603E+03 -0.42400724504E+01  0.27846440712E+03  0.00000000000E+00 0. -1.
        -11    1    5    5    0    0  0.61679847353E+02  0.25034420701E+03  0.76719151670E+02  0.26900270219E+03  0.00000000000E+00 0.  1.
          4    1    6    6  503    0  0.87921740530E+02 -0.62099129530E+02  0.19537252356E+02  0.10939944504E+03  0.00000000000E+00 0. -1.
         -4    1    6    6    0  503  0.23288604895E+03 -0.29735166495E+03 -0.60863217613E+02  0.38256797527E+03  0.00000000000E+00 0.  1.
<mgrwt>
<rscale>  0 0.17209836E+04</rscale>
<asrwt>0</asrwt>
<pdfrwt beam="1">  1        2 0.97825550E-01 0.17209836E+04</pdfrwt>
<pdfrwt beam="2">  1       -1 0.17914903E+00 0.17209836E+04</pdfrwt>
<totfact> 0.10579979E+01</totfact>
</mgrwt>
</event>
<event>
12    6  0.1403409E-007  0.1505465E+04  0.7818608E-02  0.8880827E-01
          2   -1    0    0  501    0  0.00000000000E+00  0.00000000000E+00  0.49831453827E+04  0.49831453827E+04  0.00000000000E+00 0. -1.
         -1   -1    0    0    0  501 -0.00000000000E+00 -0.00000000000E+00 -0.11370451305E+03  0.11370451305E+03  0.00000000000E+00 0.  1.
         24    2    1    2    0    0 -0.43469320764E+03 -0.46116022443E+02  0.22392204776E+04  0.22828755294E+04  0.79545352236E+02 0.  0.
        254    2    1    2    0    0  0.43469320764E+03  0.46116022443E+02  0.26302203920E+04  0.28139743663E+04  0.89961522413E+03 0.  0.
         23    2    4    4    0    0  0.69136961318E+03  0.39676593591E+02  0.21610430306E+04  0.22712583347E+04  0.94558282318E+02 0.  0.
         23    2    4    4    0    0 -0.25667640554E+03  0.64394288516E+01  0.46917736147E+03  0.54271603168E+03  0.92136046782E+02 0.  0.
          4    1    3    3  502    0 -0.39258699968E+03 -0.47724748421E+02  0.21162636345E+04  0.21528989699E+04  0.00000000000E+00 0. -1.
         -3    1    3    3    0  502 -0.42106207960E+02  0.16087259781E+01  0.12295684313E+03  0.12997655951E+03  0.00000000000E+00 0.  1.
         11    1    5    5    0    0  0.69409466684E+03  0.40417652158E+02  0.21572898026E+04  0.22665613351E+04  0.00000000000E+00 0.  1.
        -11    1    5    5    0    0 -0.27250536573E+01 -0.74105856664E+00  0.37532279207E+01  0.46969995805E+01  0.00000000000E+00 0. -1.
          4    1    6    6  503    0 -0.24455953656E+03  0.29628330400E+02  0.43095821483E+03  0.49639922221E+03  0.00000000000E+00 0.  1.
         -4    1    6    6    0  503 -0.12116868982E+02 -0.23188901548E+02  0.38219146640E+02  0.46316809463E+02  0.00000000000E+00 0. -1.
<mgrwt>
<rscale>  0 0.15054649E+04</rscale>
<asrwt>0</asrwt>
<pdfrwt beam="1">  1        2 0.76663758E+00 0.15054649E+04</pdfrwt>
<pdfrwt beam="2">  1       -1 0.17493006E-01 0.15054649E+04</pdfrwt>
<totfact> 0.10662939E+00</totfact>
</mgrwt>
</event>
<event>
12    6  0.1403409E-007  0.4116494E+04  0.7818608E-02  0.7981450E-01
         -1   -1    0    0    0  501 -0.00000000000E+00  0.00000000000E+00  0.91378877028E+03  0.91378877028E+03  0.00000000000E+00 0.  1.
          2   -1    0    0  501    0  0.00000000000E+00 -0.00000000000E+00 -0.46360605528E+04  0.46360605528E+04  0.00000000000E+00 0. -1.
         24    2    1    2    0    0 -0.92324448254E+03  0.61437647143E+03  0.40422788995E+03  0.11830521174E+04  0.79832964245E+02 0.  0.
        254    2    1    2    0    0  0.92324448254E+03 -0.61437647143E+03 -0.41264996724E+04  0.43667972057E+04  0.90059950353E+03 0.  0.
         23    2    4    4    0    0  0.16615680691E+03 -0.62049599541E+03 -0.22391651751E+04  0.23312139415E+04  0.89857636041E+02 0.  0.
         23    2    4    4    0    0  0.75708767563E+03  0.61195239804E+01 -0.18873344973E+04  0.20355832642E+04  0.91370255059E+02 0.  0.
          2    1    3    3  502    0 -0.79477730461E+03  0.49452497739E+03  0.33489882865E+03  0.99417460369E+03  0.00000000000E+00 0. -1.
         -1    1    3    3    0  502 -0.12846717793E+03  0.11985149404E+03  0.69329061302E+02  0.18887751367E+03  0.00000000000E+00 0.  1.
         11    1    5    5    0    0  0.16575890027E+02 -0.18858617749E+03 -0.74674550706E+03  0.77036897574E+03  0.00000000000E+00 0.  1.
        -11    1    5    5    0    0  0.14958091688E+03 -0.43190981792E+03 -0.14924196681E+04  0.15608449657E+04  0.00000000000E+00 0. -1.
          3    1    6    6  503    0  0.63021878579E+03  0.32849394349E+02 -0.15088336509E+04  0.16354919097E+04  0.00000000000E+00 0. -1.
         -3    1    6    6    0  503  0.12686888984E+03 -0.26729870369E+02 -0.37850084648E+03  0.40009135452E+03  0.00000000000E+00 0.  1.
<mgrwt>
<rscale>  0 0.41164937E+04</rscale>
<asrwt>0</asrwt>
<pdfrwt beam="1">  1        2 0.71324009E+00 0.41164937E+04</pdfrwt>
<pdfrwt beam="2">  1       -1 0.14058289E+00 0.41164937E+04</pdfrwt>
<totfact> 0.32662561E-02</totfact>
</mgrwt>
</event>
<event>
12    6  0.1403409E-007  0.2038795E+04  0.7818608E-02  0.8588694E-01
         -1   -1    0    0    0  501 -0.00000000000E+00  0.00000000000E+00  0.59760215605E+03  0.59760215605E+03  0.00000000000E+00 0.  1.
          2   -1    0    0  501    0  0.00000000000E+00 -0.00000000000E+00 -0.17389022881E+04  0.17389022881E+04  0.00000000000E+00 0. -1.
         24    2    1    2    0    0 -0.10739597434E+03 -0.72380255060E+03 -0.40110229519E+02  0.73717070262E+03  0.79923630577E+02 0.  0.
        254    2    1    2    0    0  0.10739597434E+03  0.72380255060E+03 -0.11011899026E+04  0.15993337416E+04  0.89990287689E+03 0.  0.
         23    2    4    4    0    0 -0.30126983010E+03  0.66114248815E+03 -0.76306117842E+03  0.10573677276E+04  0.88832703345E+02 0.  0.
         23    2    4    4    0    0  0.40866580444E+03  0.62660062454E+02 -0.33812872416E+03  0.54196601398E+03  0.91989689969E+02 0.  0.
          2    1    3    3  502    0 -0.44225899457E+02 -0.41183998004E+03 -0.58638301488E+02  0.41833784163E+03  0.00000000000E+00 0. -1.
         -1    1    3    3    0  502 -0.63170074881E+02 -0.31196257056E+03  0.18528071969E+02  0.31883286098E+03  0.00000000000E+00 0.  1.
         11    1    5    5    0    0 -0.14659142284E+03  0.42495403555E+03 -0.46010567770E+03  0.64325128234E+03  0.00000000000E+00 0.  1.
        -11    1    5    5    0    0 -0.15467840727E+03  0.23618845260E+03 -0.30295550071E+03  0.41411644525E+03  0.00000000000E+00 0. -1.
          3    1    6    6  503    0  0.19654405486E+03  0.48862624514E+02 -0.21899466876E+03  0.29828809317E+03  0.00000000000E+00 0. -1.
         -3    1    6    6    0  503  0.21212174958E+03  0.13797437940E+02 -0.11913405539E+03  0.24367792081E+03  0.00000000000E+00 0.  1.
<mgrwt>
<rscale>  0 0.20387955E+04</rscale>
<asrwt>0</asrwt>
<pdfrwt beam="1">  1        2 0.26752342E+00 0.20387955E+04</pdfrwt>
<pdfrwt beam="2">  1       -1 0.91938796E-01 0.20387955E+04</pdfrwt>
<totfact> 0.11337997E+01</totfact>
</mgrwt>
</event>
<event>
12    6  0.1403409E-007  0.1148664E+04  0.7818608E-02  0.9159017E-01
         -1   -1    0    0    0  501 -0.00000000000E+00  0.00000000000E+00  0.39955447202E+03  0.39955447202E+03  0.00000000000E+00 0.  1.
          2   -1    0    0  501    0  0.00000000000E+00 -0.00000000000E+00 -0.82556297828E+03  0.82556297828E+03  0.00000000000E+00 0. -1.
         24    2    1    2    0    0  0.19242501148E+03 -0.83652612587E+02 -0.91754813040E+02  0.24239721753E+03  0.79450114656E+02 0.  0.
        254    2    1    2    0    0 -0.19242501148E+03  0.83652612587E+02 -0.33425369321E+03  0.98272023276E+03  0.89999354432E+03 0.  0.
         23    2    4    4    0    0 -0.76630995789E+02  0.46458150367E+03 -0.48040094318E+02  0.48333274722E+03  0.97951063310E+02 0.  0.
         23    2    4    4    0    0 -0.11579401569E+03 -0.38092889108E+03 -0.28621359890E+03  0.49938748555E+03  0.94628549603E+02 0.  0.
          4    1    3    3  502    0  0.13418635363E+03 -0.16119211252E+02 -0.57288962432E+02  0.14679179707E+03  0.00000000000E+00 0. -1.
         -3    1    3    3    0  502  0.58238657848E+02 -0.67533401334E+02 -0.34465850608E+02  0.95605420462E+02  0.00000000000E+00 0.  1.
         11    1    5    5    0    0 -0.33161512533E+02  0.29044581181E+03  0.16000489775E+02  0.29277033863E+03  0.00000000000E+00 0.  1.
        -11    1    5    5    0    0 -0.43469483257E+02  0.17413569186E+03 -0.64040584093E+02  0.19056240859E+03  0.00000000000E+00 0. -1.
          4    1    6    6  503    0 -0.43373319272E+02 -0.28270561933E+03 -0.21765873389E+03  0.35941485287E+03  0.00000000000E+00 0.  1.
         -4    1    6    6    0  503 -0.72420696414E+02 -0.98223271746E+02 -0.68554865008E+02  0.13997263267E+03  0.00000000000E+00 0. -1.
<mgrwt>
<rscale>  0 0.11486642E+04</rscale>
<asrwt>0</asrwt>
<pdfrwt beam="1">  1        2 0.12700969E+00 0.11486642E+04</pdfrwt>
<pdfrwt beam="2">  1       -1 0.61469919E-01 0.11486642E+04</pdfrwt>
<totfact> 0.10017015E+02</totfact>
</mgrwt>
</event>
<event>
12    6  0.1403409E-007  0.2462894E+04  0.7818608E-02  0.8416325E-01
         -1   -1    0    0    0  501 -0.00000000000E+00  0.00000000000E+00  0.17067507820E+04  0.17067507820E+04  0.00000000000E+00 0.  1.
          2   -1    0    0  501    0  0.00000000000E+00 -0.00000000000E+00 -0.88850766958E+03  0.88850766958E+03  0.00000000000E+00 0. -1.
         24    2    1    2    0    0  0.24499697641E+03 -0.15666915210E+03  0.14347921677E+04  0.14662533058E+04  0.81862389123E+02 0.  0.
        254    2    1    2    0    0 -0.24499697641E+03  0.15666915210E+03 -0.61654905525E+03  0.11290051458E+04  0.89997285512E+03 0.  0.
         23    2    4    4    0    0  0.16660044542E+03 -0.28049445717E+03 -0.21246954210E+03  0.39993518531E+03  0.91498618603E+02 0.  0.
         23    2    4    4    0    0 -0.41159742184E+03  0.43716360928E+03 -0.40407951315E+03  0.72906996045E+03  0.87967581239E+02 0.  0.
          4    1    3    3  502    0 -0.27695207910E+01 -0.44589261321E+01  0.52048374026E+01  0.73920633149E+01  0.00000000000E+00 0. -1.
         -3    1    3    3    0  502  0.24776649720E+03 -0.15221022597E+03  0.14295873303E+04  0.14588612425E+04  0.00000000000E+00 0.  1.
         11    1    5    5    0    0  0.15961026460E+03 -0.26553437672E+03 -0.16785389884E+03  0.35236184972E+03  0.00000000000E+00 0. -1.
        -11    1    5    5    0    0  0.69901808282E+01 -0.14960080455E+02 -0.44615643260E+02  0.47573335585E+02  0.00000000000E+00 0.  1.
          1    1    6    6  503    0 -0.34862180370E+03  0.39869654110E+03 -0.37850201865E+03  0.65096841093E+03  0.00000000000E+00 0. -1.
         -1    1    6    6    0  503 -0.62975618136E+02  0.38467068177E+02 -0.25577494501E+02  0.78101549528E+02  0.00000000000E+00 0.  1.
<mgrwt>
<rscale>  0 0.24628936E+04</rscale>
<asrwt>0</asrwt>
<pdfrwt beam="1">  1        2 0.13669349E+00 0.24628936E+04</pdfrwt>
<pdfrwt beam="2">  1       -1 0.26257704E+00 0.24628936E+04</pdfrwt>
<totfact> 0.17583070E+00</totfact>
</mgrwt>
</event>
<event>
12    6  0.1403409E-007  0.1318309E+04  0.7818608E-02  0.9015170E-01
         -1   -1    0    0    0  501 -0.00000000000E+00  0.00000000000E+00  0.11929332486E+04  0.11929332486E+04  0.00000000000E+00 0.  1.
          2   -1    0    0  501    0  0.00000000000E+00 -0.00000000000E+00 -0.36421555748E+03  0.36421555748E+03  0.00000000000E+00 0. -1.
         24    2    1    2    0    0  0.65540845498E+01  0.32030458063E+03  0.37317871127E+03  0.49825136062E+03  0.79712529886E+02 0.  0.
        254    2    1    2    0    0 -0.65540845498E+01 -0.32030458063E+03  0.45553897986E+03  0.10588974455E+04  0.90061648744E+03 0.  0.
         23    2    4    4    0    0 -0.43161018496E+03 -0.53972484373E+02  0.18645078330E+03  0.48272795379E+03  0.95194547897E+02 0.  0.
         23    2    4    4    0    0  0.42505610041E+03 -0.26633209625E+03  0.26908819656E+03  0.57616949167E+03  0.89203988754E+02 0.  0.
          2    1    3    3  502    0 -0.88347557099E+01  0.63714595961E+01  0.75077696935E+00  0.10918428087E+02  0.00000000000E+00 0. -1.
         -1    1    3    3    0  502  0.15388840260E+02  0.31393312103E+03  0.37242793430E+03  0.48733293253E+03  0.00000000000E+00 0.  1.
         11    1    5    5    0    0 -0.15496619047E+02 -0.14302374106E+02  0.29436516090E+02  0.36210655704E+02  0.00000000000E+00 0.  1.
        -11    1    5    5    0    0 -0.41611356591E+03 -0.39670110267E+02  0.15701426721E+03  0.44651729809E+03  0.00000000000E+00 0. -1.
          1    1    6    6  503    0  0.31659247248E+03 -0.17372906036E+03  0.15268242034E+03  0.39207716272E+03  0.00000000000E+00 0. -1.
         -1    1    6    6    0  503  0.10846362794E+03 -0.92603035893E+02  0.11640577622E+03  0.18409232895E+03  0.00000000000E+00 0.  1.
<mgrwt>
<rscale>  0 0.13183093E+04</rscale>
<asrwt>0</asrwt>
<pdfrwt beam="1">  1        2 0.56033163E-01 0.13183093E+04</pdfrwt>
<pdfrwt beam="2">  1       -1 0.18352819E+00 0.13183093E+04</pdfrwt>
<totfact> 0.19443749E+01</totfact>
</mgrwt>
</event>
<event>
12    6  0.1403409E-007  0.2745770E+04  0.7818608E-02  0.8320305E-01
         -1   -1    0    0    0  501 -0.00000000000E+00  0.00000000000E+00  0.17684098908E+04  0.17684098908E+04  0.00000000000E+00 0.  1.
          2   -1    0    0  501    0  0.00000000000E+00 -0.00000000000E+00 -0.10658237778E+04  0.10658237778E+04  0.00000000000E+00 0. -1.
         24    2    1    2    0    0  0.10535884926E+04  0.59722370425E+03  0.13329106757E+03  0.12209942056E+04  0.79595708373E+02 0.  0.
        254    2    1    2    0    0 -0.10535884926E+04 -0.59722370425E+03  0.56929504549E+03  0.16132394630E+04  0.90095496643E+03 0.  0.
         23    2    4    4    0    0 -0.96078953898E+03 -0.10186722834E+03  0.51271765218E+03  0.10975239100E+04  0.90475807780E+02 0.  0.
         23    2    4    4    0    0 -0.92798953627E+02 -0.49535647591E+03  0.56577393307E+02  0.51571555299E+03  0.93658134407E+02 0.  0.
          2    1    3    3  502    0  0.56507835235E+03  0.33490729512E+03  0.34462316696E+02  0.65777206682E+03  0.00000000000E+00 0. -1.
         -1    1    3    3    0  502  0.48851014025E+03  0.26231640913E+03  0.98828750875E+02  0.56322213879E+03  0.00000000000E+00 0.  1.
         11    1    5    5    0    0 -0.30515074905E+03 -0.54819751790E+02  0.20543662212E+03  0.37192255987E+03  0.00000000000E+00 0.  1.
        -11    1    5    5    0    0 -0.65563878993E+03 -0.47047476547E+02  0.30728103007E+03  0.72560135016E+03  0.00000000000E+00 0. -1.
          1    1    6    6  503    0 -0.97315754408E+02 -0.27155087374E+03  0.40450948881E+02  0.29128424666E+03  0.00000000000E+00 0. -1.
         -1    1    6    6    0  503  0.45168007810E+01 -0.22380560217E+03  0.16126444426E+02  0.22443130633E+03  0.00000000000E+00 0.  1.
<mgrwt>
<rscale>  0 0.27457701E+04</rscale>
<asrwt>0</asrwt>
<pdfrwt beam="1">  1        2 0.16397289E+00 0.27457701E+04</pdfrwt>
<pdfrwt beam="2">  1       -1 0.27206306E+00 0.27457701E+04</pdfrwt>
<totfact> 0.11417802E+00</totfact>
</mgrwt>
</event>
<event>
12    6  0.1403409E-007  0.1624983E+04  0.7818608E-02  0.8805345E-01
         -1   -1    0    0    0  501 -0.00000000000E+00  0.00000000000E+00  0.90027638628E+03  0.90027638628E+03  0.00000000000E+00 0.  1.
          2   -1    0    0  501    0  0.00000000000E+00 -0.00000000000E+00 -0.73326629468E+03  0.73326629468E+03  0.00000000000E+00 0. -1.
         24    2    1    2    0    0  0.52797337970E+01  0.53333132520E+03  0.22782058052E+03  0.58549782233E+03  0.80220352934E+02 0.  0.
        254    2    1    2    0    0 -0.52797337970E+01 -0.53333132520E+03 -0.60810488926E+02  0.10480448586E+04  0.90012773099E+03 0.  0.
         23    2    4    4    0    0 -0.33139887759E+03  0.63208358776E+02 -0.91367657993E+02  0.36136547008E+03  0.91741164984E+02 0.  0.
         23    2    4    4    0    0  0.32611914379E+03 -0.59653968397E+03  0.30557169067E+02  0.68667938854E+03  0.91550814118E+02 0.  0.
          4    1    3    3  502    0  0.31062157402E+02  0.28164046065E+03  0.89495381573E+02  0.29714580599E+03  0.00000000000E+00 0. -1.
         -3    1    3    3    0  502 -0.25782423605E+02  0.25169086455E+03  0.13832519895E+03  0.28835201634E+03  0.00000000000E+00 0.  1.
         11    1    5    5    0    0 -0.97917786024E+02  0.60794341011E+02 -0.18251292261E+02  0.11669170660E+03  0.00000000000E+00 0.  1.
        -11    1    5    5    0    0 -0.23348109157E+03  0.24140177653E+01 -0.73116365732E+02  0.24467376349E+03  0.00000000000E+00 0. -1.
          3    1    6    6  503    0  0.11211773372E+03 -0.13295646292E+03 -0.11885659174E+02  0.17432462861E+03  0.00000000000E+00 0. -1.
         -3    1    6    6    0  503  0.21400141007E+03 -0.46358322105E+03  0.42442828240E+02  0.51235475993E+03  0.00000000000E+00 0.  1.
<mgrwt>
<rscale>  0 0.16249829E+04</rscale>
<asrwt>0</asrwt>
<pdfrwt beam="1">  1        2 0.11281020E+00 0.16249829E+04</pdfrwt>
<pdfrwt beam="2">  1       -1 0.13850406E+00 0.16249829E+04</pdfrwt>
<totfact> 0.18194582E+01</totfact>
</mgrwt>
</event>
<event>
12    6  0.1403409E-007  0.1569994E+04  0.7818608E-02  0.8839197E-01
          2   -1    0    0  501    0  0.00000000000E+00  0.00000000000E+00  0.10886016085E+04  0.10886016085E+04  0.00000000000E+00 0. -1.
         -1   -1    0    0    0  501 -0.00000000000E+00 -0.00000000000E+00 -0.56606622171E+03  0.56606622171E+03  0.00000000000E+00 0.  1.
         24    2    1    2    0    0 -0.33844929696E+03  0.32984682330E+02 -0.24259329556E+03  0.42514501119E+03  0.79125581240E+02 0.  0.
        254    2    1    2    0    0  0.33844929696E+03 -0.32984682330E+02  0.76512868235E+03  0.12295228190E+04  0.90037133788E+03 0.  0.
         23    2    4    4    0    0  0.43688189107E+03  0.34099271053E+03  0.39682287288E+03  0.68778176995E+03  0.91834390384E+02 0.  0.
         23    2    4    4    0    0 -0.98432594108E+02 -0.37397739286E+03  0.36830580947E+03  0.54174104908E+03  0.91028177053E+02 0.  0.
          4    1    3    3  502    0 -0.25153206526E+02 -0.45168569902E+01  0.23988817096E+01  0.25667887118E+02  0.00000000000E+00 0. -1.
         -3    1    3    3    0  502 -0.31329609043E+03  0.37501539320E+02 -0.24499217727E+03  0.39947712407E+03  0.00000000000E+00 0.  1.
         11    1    5    5    0    0  0.74611477098E+02  0.40041737867E+02  0.26719370639E+02  0.88792668918E+02  0.00000000000E+00 0.  1.
        -11    1    5    5    0    0  0.36227041397E+03  0.30095097266E+03  0.37010350224E+03  0.59898910103E+03  0.00000000000E+00 0. -1.
          3    1    6    6  503    0 -0.94366551327E+02 -0.25649129046E+03  0.29981847868E+03  0.40568947269E+03  0.00000000000E+00 0. -1.
         -3    1    6    6    0  503 -0.40660427818E+01 -0.11748610239E+03  0.68487330788E+02  0.13605157639E+03  0.00000000000E+00 0.  1.
<mgrwt>
<rscale>  0 0.15699944E+04</rscale>
<asrwt>0</asrwt>
<pdfrwt beam="1">  1        2 0.16747717E+00 0.15699944E+04</pdfrwt>
<pdfrwt beam="2">  1       -1 0.87087111E-01 0.15699944E+04</pdfrwt>
<totfact> 0.31528805E+01</totfact>
</mgrwt>
</event>
<event>
12    6  0.1403409E-007  0.1221860E+04  0.7818608E-02  0.9093935E-01
          2   -1    0    0  501    0  0.00000000000E+00  0.00000000000E+00  0.15175703915E+04  0.15175703915E+04  0.00000000000E+00 0. -1.
         -1   -1    0    0    0  501 -0.00000000000E+00 -0.00000000000E+00 -0.24594285886E+03  0.24594285886E+03  0.00000000000E+00 0.  1.
         24    2    1    2    0    0  0.13963935963E+03 -0.22128204013E+03  0.20039396103E+03  0.34047206173E+03  0.85431804136E+02 0.  0.
        254    2    1    2    0    0 -0.13963935963E+03  0.22128204013E+03  0.10712335716E+04  0.14230411887E+04  0.89946649051E+03 0.  0.
         23    2    4    4    0    0  0.29427166593E+03 -0.14369573821E+03  0.55520766453E+03  0.65092239403E+03  0.90554589900E+02 0.  0.
         23    2    4    4    0    0 -0.43391102556E+03  0.36497777835E+03  0.51602590712E+03  0.77211879463E+03  0.91635906784E+02 0.  0.
          4    1    3    3  502    0  0.85636762208E+02 -0.19162951321E+03  0.12984863837E+03  0.24681206263E+03  0.00000000000E+00 0. -1.
         -3    1    3    3    0  502  0.54002597423E+02 -0.29652526921E+02  0.70545322665E+02  0.93659999099E+02  0.00000000000E+00 0.  1.
         11    1    5    5    0    0  0.27932227334E+03 -0.15070630302E+03  0.49118068427E+03  0.58480063847E+03  0.00000000000E+00 0. -1.
        -11    1    5    5    0    0  0.14949392585E+02  0.70105648031E+01  0.64026980263E+02  0.66121755566E+02  0.00000000000E+00 0.  1.
          4    1    6    6  503    0 -0.79906208233E+02  0.84693794963E+02  0.15579021900E+03  0.19449584406E+03  0.00000000000E+00 0. -1.
         -4    1    6    6    0  503 -0.35400481733E+03  0.28028398338E+03  0.36023568812E+03  0.57762295057E+03  0.00000000000E+00 0.  1.
<mgrwt>
<rscale>  0 0.12218602E+04</rscale>
<asrwt>0</asrwt>
<pdfrwt beam="1">  1        2 0.23347236E+00 0.12218602E+04</pdfrwt>
<pdfrwt beam="2">  1       -1 0.37837364E-01 0.12218602E+04</pdfrwt>
<totfact> 0.93858634E+01</totfact>
</mgrwt>
</event>
<event>
12    6  0.1403409E-007  0.1941571E+04  0.7818608E-02  0.8634436E-01
          2   -1    0    0  501    0  0.00000000000E+00  0.00000000000E+00  0.23916839720E+04  0.23916839720E+04  0.00000000000E+00 0. -1.
         -1   -1    0    0    0  501 -0.00000000000E+00 -0.00000000000E+00 -0.39404215800E+03  0.39404215800E+03  0.00000000000E+00 0.  1.
         24    2    1    2    0    0 -0.45754902964E+03 -0.53898240489E+03  0.39398958584E+03  0.81353846356E+03  0.82242875924E+02 0.  0.
        254    2    1    2    0    0  0.45754902964E+03  0.53898240489E+03  0.16036522282E+04  0.19721876664E+04  0.90441725736E+03 0.  0.
         23    2    4    4    0    0  0.30811502005E+03  0.76096117032E+03  0.13927381323E+04  0.16195170463E+04  0.95494449030E+02 0.  0.
         23    2    4    4    0    0  0.14943400959E+03 -0.22197876543E+03  0.21091409588E+03  0.35267062014E+03  0.91031395381E+02 0.  0.
          4    1    3    3  502    0 -0.32758932901E+03 -0.41118947420E+03  0.25490176269E+03  0.58426574502E+03  0.00000000000E+00 0. -1.
         -3    1    3    3    0  502 -0.12995970063E+03 -0.12779293069E+03  0.13908782315E+03  0.22927271855E+03  0.00000000000E+00 0.  1.
         11    1    5    5    0    0  0.26069689242E+03  0.60404502173E+03  0.11792229302E+04  0.13503332837E+04  0.00000000000E+00 0.  1.
        -11    1    5    5    0    0  0.47418127635E+02  0.15691614858E+03  0.21351520211E+03  0.26918376260E+03  0.00000000000E+00 0. -1.
          2    1    6    6  503    0  0.71468847520E+02 -0.16134544556E+03  0.17227367865E+03  0.24661380603E+03  0.00000000000E+00 0. -1.
         -2    1    6    6    0  503  0.77965162071E+02 -0.60633319864E+02  0.38640417225E+02  0.10605681410E+03  0.00000000000E+00 0.  1.
<mgrwt>
<rscale>  0 0.19415708E+04</rscale>
<asrwt>0</asrwt>
<pdfrwt beam="1">  1        2 0.36795137E+00 0.19415708E+04</pdfrwt>
<pdfrwt beam="2">  1       -1 0.60621872E-01 0.19415708E+04</pdfrwt>
<totfact> 0.11791705E+01</totfact>
</mgrwt>
</event>
<event>
12    6  0.1403409E-007  0.3369890E+04  0.7818608E-02  0.8145336E-01
          2   -1    0    0  501    0  0.00000000000E+00  0.00000000000E+00  0.24395368240E+04  0.24395368240E+04  0.00000000000E+00 0. -1.
         -1   -1    0    0    0  501 -0.00000000000E+00 -0.00000000000E+00 -0.11637620896E+04  0.11637620896E+04  0.00000000000E+00 0.  1.
         24    2    1    2    0    0 -0.41141233998E+03  0.15095014264E+04  0.54164743175E+03  0.16574302438E+04  0.76409442929E+02 0.  0.
        254    2    1    2    0    0  0.41141233998E+03 -0.15095014264E+04  0.73412730265E+03  0.19458686699E+04  0.89420764599E+03 0.  0.
         23    2    4    4    0    0  0.53230200657E+03 -0.12052169543E+04  0.86858476625E+03  0.15806940415E+04  0.90889071750E+02 0.  0.
         23    2    4    4    0    0 -0.12088966659E+03 -0.30428447204E+03 -0.13445746360E+03  0.36517462839E+03  0.89835117241E+02 0.  0.
          2    1    3    3  502    0 -0.27215767571E+03  0.10867873629E+04  0.41447348239E+03  0.11945563361E+04  0.00000000000E+00 0. -1.
         -1    1    3    3    0  502 -0.13925466427E+03  0.42271406349E+03  0.12717394936E+03  0.46287390766E+03  0.00000000000E+00 0.  1.
         11    1    5    5    0    0  0.94957977147E+02 -0.29681813577E+03  0.22919613609E+03  0.38684479051E+03  0.00000000000E+00 0. -1.
        -11    1    5    5    0    0  0.43734402943E+03 -0.90839881857E+03  0.63938863017E+03  0.11938492510E+04  0.00000000000E+00 0.  1.
          1    1    6    6  503    0 -0.58884607660E+02 -0.19088258515E+03 -0.12486371311E+03  0.23557271740E+03  0.00000000000E+00 0. -1.
         -1    1    6    6    0  503 -0.62005058933E+02 -0.11340188689E+03 -0.95937504905E+01  0.12960191099E+03  0.00000000000E+00 0.  1.
<mgrwt>
<rscale>  0 0.33698905E+04</rscale>
<asrwt>0</asrwt>
<pdfrwt beam="1">  1        2 0.37531336E+00 0.33698905E+04</pdfrwt>
<pdfrwt beam="2">  1       -1 0.17904032E+00 0.33698905E+04</pdfrwt>
<totfact> 0.75287193E-01</totfact>
</mgrwt>
</event>
<event>
12    6  0.1403409E-007  0.1837451E+04  0.7818608E-02  0.8686633E-01
          2   -1    0    0  501    0  0.00000000000E+00  0.00000000000E+00  0.11670887423E+04  0.11670887423E+04  0.00000000000E+00 0. -1.
         -1   -1    0    0    0  501 -0.00000000000E+00 -0.00000000000E+00 -0.72321559981E+03  0.72321559981E+03  0.00000000000E+00 0.  1.
         24    2    1    2    0    0  0.27011957994E+03 -0.40007015814E+03  0.68452658741E+03  0.84149490044E+03  0.80723600659E+02 0.  0.
        254    2    1    2    0    0 -0.27011957994E+03  0.40007015814E+03 -0.24065344489E+03  0.10488094417E+04  0.89948120911E+03 0.  0.
         23    2    4    4    0    0 -0.46538425075E+03  0.19874497850E+03 -0.45373212951E+03  0.68559371441E+03  0.89910113773E+02 0.  0.
         23    2    4    4    0    0  0.19526467081E+03  0.20132517964E+03  0.21307868462E+03  0.36321572729E+03  0.88673666233E+02 0.  0.
          2    1    3    3  502    0  0.11796956866E+03 -0.18490658717E+03  0.38018939630E+03  0.43892054198E+03  0.00000000000E+00 0. -1.
         -3    1    3    3    0  502  0.15215001127E+03 -0.21516357097E+03  0.30433719111E+03  0.40257435847E+03  0.00000000000E+00 0.  1.
         11    1    5    5    0    0 -0.25340276069E+03  0.83052454444E+02 -0.28917517748E+03  0.39336109693E+03  0.00000000000E+00 0.  1.
        -11    1    5    5    0    0 -0.21198149006E+03  0.11569252406E+03 -0.16455695204E+03  0.29223261747E+03  0.00000000000E+00 0. -1.
          1    1    6    6  503    0  0.15344507873E+03  0.16709615577E+03  0.12271546353E+03  0.25792557541E+03  0.00000000000E+00 0. -1.
         -1    1    6    6    0  503  0.41819592081E+02  0.34229023872E+02  0.90363221088E+02  0.10529015188E+03  0.00000000000E+00 0.  1.
<mgrwt>
<rscale>  0 0.18374513E+04</rscale>
<asrwt>0</asrwt>
<pdfrwt beam="1">  1        2 0.17955211E+00 0.18374513E+04</pdfrwt>
<pdfrwt beam="2">  1       -1 0.11126394E+00 0.18374513E+04</pdfrwt>
<totfact> 0.15806426E+01</totfact>
</mgrwt>
</event>
<event>
12    6  0.1403409E-007  0.1758214E+04  0.7818608E-02  0.8728842E-01
          2   -1    0    0  501    0  0.00000000000E+00  0.00000000000E+00  0.15366420623E+04  0.15366420623E+04  0.00000000000E+00 0. -1.
         -1   -1    0    0    0  501 -0.00000000000E+00 -0.00000000000E+00 -0.50293351687E+03  0.50293351687E+03  0.00000000000E+00 0.  1.
         24    2    1    2    0    0 -0.16788688066E+03 -0.52038419317E+03  0.78276571335E+03  0.95817607141E+03  0.79959418651E+02 0.  0.
        254    2    1    2    0    0  0.16788688066E+03  0.52038419317E+03  0.25094283209E+03  0.10813995078E+04  0.89859160760E+03 0.  0.
         23    2    4    4    0    0 -0.69083769396E+02  0.61092736153E+03  0.43178191598E+03  0.75673436208E+03  0.90589533186E+02 0.  0.
         23    2    4    4    0    0  0.23697065005E+03 -0.90543168364E+02 -0.18083908389E+03  0.32466514570E+03  0.91386696222E+02 0.  0.
          4    1    3    3  502    0 -0.30724955435E+02 -0.12825216442E+03  0.24931264227E+03  0.28204509243E+03  0.00000000000E+00 0. -1.
         -3    1    3    3    0  502 -0.13716192522E+03 -0.39213202874E+03  0.53345307108E+03  0.67613097899E+03  0.00000000000E+00 0.  1.
         11    1    5    5    0    0 -0.81177162525E+02  0.36543661058E+03  0.28462681740E+03  0.47026170720E+03  0.00000000000E+00 0.  1.
        -11    1    5    5    0    0  0.12093393130E+02  0.24549075095E+03  0.14715509857E+03  0.28647265488E+03  0.00000000000E+00 0. -1.
          1    1    6    6  503    0  0.12568824328E+03 -0.74949810759E+02 -0.55963545811E+02  0.15667458981E+03  0.00000000000E+00 0. -1.
         -1    1    6    6    0  503  0.11128240677E+03 -0.15593357605E+02 -0.12487553808E+03  0.16799055589E+03  0.00000000000E+00 0.  1.
<mgrwt>
<rscale>  0 0.17582136E+04</rscale>
<asrwt>0</asrwt>
<pdfrwt beam="1">  1        2 0.23640647E+00 0.17582136E+04</pdfrwt>
<pdfrwt beam="2">  1       -1 0.77374388E-01 0.17582136E+04</pdfrwt>
<totfact> 0.21872687E+01</totfact>
</mgrwt>
</event>
<event>
12    6  0.1403409E-007  0.3442640E+04  0.7818608E-02  0.8127520E-01
          2   -1    0    0  501    0  0.00000000000E+00  0.00000000000E+00  0.40102685451E+04  0.40102685451E+04  0.00000000000E+00 0. -1.
         -1   -1    0    0    0  501 -0.00000000000E+00 -0.00000000000E+00 -0.73883905479E+03  0.73883905479E+03  0.00000000000E+00 0.  1.
         24    2    1    2    0    0 -0.82784475812E+02  0.45273295078E+03  0.36438154439E+04  0.36736101958E+04  0.78743171623E+02 0.  0.
        254    2    1    2    0    0  0.82784475812E+02 -0.45273295078E+03 -0.37238595357E+03  0.10754974041E+04  0.89788806303E+03 0.  0.
         23    2    4    4    0    0  0.23353949797E+03 -0.66094519369E+03 -0.14695781402E+03  0.72175565948E+03  0.89136898733E+02 0.  0.
         23    2    4    4    0    0 -0.15075502215E+03  0.20821224292E+03 -0.22542813955E+03  0.35374174465E+03  0.90752195584E+02 0.  0.
          2    1    3    3  502    0 -0.35065203337E+02  0.22655528774E+03  0.21204031884E+04  0.21327603120E+04  0.00000000000E+00 0. -1.
         -1    1    3    3    0  502 -0.47719272476E+02  0.22617766303E+03  0.15234122555E+04  0.15408498838E+04  0.00000000000E+00 0.  1.
         11    1    5    5    0    0  0.21530669918E+02 -0.14023270922E+02 -0.24481243116E+01  0.25811144629E+02  0.00000000000E+00 0.  1.
        -11    1    5    5    0    0  0.21200882805E+03 -0.64692192277E+03 -0.14450968971E+03  0.69594451485E+03  0.00000000000E+00 0. -1.
          4    1    6    6  503    0 -0.16227881995E+03  0.19177639087E+03 -0.19863407289E+03  0.32026253982E+03  0.00000000000E+00 0. -1.
         -4    1    6    6    0  503  0.11523797794E+02  0.16435852044E+02 -0.26794066653E+02  0.33479204826E+02  0.00000000000E+00 0.  1.
<mgrwt>
<rscale>  0 0.34426403E+04</rscale>
<asrwt>0</asrwt>
<pdfrwt beam="1">  1        2 0.61696438E+00 0.34426403E+04</pdfrwt>
<pdfrwt beam="2">  1       -1 0.11366755E+00 0.34426403E+04</pdfrwt>
<totfact> 0.22141994E-01</totfact>
</mgrwt>
</event>
<event>
12    6  0.1403409E-007  0.2051990E+04  0.7818608E-02  0.8582692E-01
          2   -1    0    0  501    0  0.00000000000E+00  0.00000000000E+00  0.16084142578E+04  0.16084142578E+04  0.00000000000E+00 0. -1.
         -1   -1    0    0    0  501 -0.00000000000E+00 -0.00000000000E+00 -0.65447425684E+03  0.65447425684E+03  0.00000000000E+00 0.  1.
         24    2    1    2    0    0  0.45974724778E+03 -0.50083143110E+03  0.90705089053E+03  0.11362706433E+04  0.78549363831E+02 0.  0.
        254    2    1    2    0    0 -0.45974724778E+03  0.50083143110E+03  0.46889110456E+02  0.11266178714E+04  0.89714524200E+03 0.  0.
         23    2    4    4    0    0 -0.71944760404E+03  0.31869347187E+03  0.73941659372E+02  0.79551145209E+03  0.90557812672E+02 0.  0.
         23    2    4    4    0    0  0.25970035627E+03  0.18213795923E+03 -0.27052548916E+02  0.33110641930E+03  0.91000600347E+02 0.  0.
          4    1    3    3  502    0  0.23397153654E+03 -0.25476426531E+03  0.52658957541E+03  0.63003499245E+03  0.00000000000E+00 0. -1.
         -3    1    3    3    0  502  0.22577571123E+03 -0.24606716579E+03  0.38046131512E+03  0.50623565083E+03  0.00000000000E+00 0.  1.
         11    1    5    5    0    0 -0.54447804333E+03  0.20647736975E+03  0.78615252508E+02  0.58759646171E+03  0.00000000000E+00 0.  1.
        -11    1    5    5    0    0 -0.17496956071E+03  0.11221610212E+03 -0.46735931355E+01  0.20791499037E+03  0.00000000000E+00 0. -1.
          3    1    6    6  503    0 -0.65016729436E+00  0.25301411291E+02  0.38405604641E+01  0.25599492876E+02  0.00000000000E+00 0. -1.
         -3    1    6    6    0  503  0.26035052356E+03  0.15683654794E+03 -0.30893109380E+02  0.30550692643E+03  0.00000000000E+00 0.  1.
<mgrwt>
<rscale>  0 0.20519900E+04</rscale>
<asrwt>0</asrwt>
<pdfrwt beam="1">  1        2 0.24744835E+00 0.20519900E+04</pdfrwt>
<pdfrwt beam="2">  1       -1 0.10068835E+00 0.20519900E+04</pdfrwt>
<totfact> 0.10907221E+01</totfact>
</mgrwt>
</event>
<event>
12    6  0.1403409E-007  0.1903346E+04  0.7818608E-02  0.8653193E-01
          2   -1    0    0  501    0  0.00000000000E+00  0.00000000000E+00  0.62527166617E+03  0.62527166617E+03  0.00000000000E+00 0. -1.
         -1   -1    0    0    0  501 -0.00000000000E+00 -0.00000000000E+00 -0.14484609299E+04  0.14484609299E+04  0.00000000000E+00 0.  1.
         24    2    1    2    0    0 -0.38286722964E+03 -0.61329157307E+03 -0.16325872301E+03  0.74537342669E+03  0.78830612397E+02 0.  0.
        254    2    1    2    0    0  0.38286722964E+03  0.61329157307E+03 -0.65993054073E+03  0.13283591694E+04  0.89795094252E+03 0.  0.
         23    2    4    4    0    0 -0.28144717419E+03  0.19657045417E+03 -0.13817611150E+03  0.38194765473E+03  0.94545850529E+02 0.  0.
         23    2    4    4    0    0  0.66431440383E+03  0.41672111889E+03 -0.52175442923E+03  0.94641151465E+03  0.92178916096E+02 0.  0.
          4    1    3    3  502    0 -0.51935978053E+02 -0.89490482053E+02  0.42156258151E+01  0.10355512395E+03  0.00000000000E+00 0. -1.
         -3    1    3    3    0  502 -0.33093125159E+03 -0.52380109101E+03 -0.16747434882E+03  0.64181830274E+03  0.00000000000E+00 0.  1.
         11    1    5    5    0    0 -0.22016331078E+03  0.10030724553E+03 -0.96022956423E+02  0.26029566858E+03  0.00000000000E+00 0. -1.
        -11    1    5    5    0    0 -0.61283863412E+02  0.96263208642E+02 -0.42153155079E+02  0.12165198616E+03  0.00000000000E+00 0.  1.
          3    1    6    6  503    0  0.21949697612E+03  0.11819263760E+03 -0.21431355596E+03  0.32875328497E+03  0.00000000000E+00 0. -1.
         -3    1    6    6    0  503  0.44481742771E+03  0.29852848129E+03 -0.30744087327E+03  0.61765822968E+03  0.00000000000E+00 0.  1.
<mgrwt>
<rscale>  0 0.19033461E+04</rscale>
<asrwt>0</asrwt>
<pdfrwt beam="1">  1        2 0.96195642E-01 0.19033461E+04</pdfrwt>
<pdfrwt beam="2">  1       -1 0.22284014E+00 0.19033461E+04</pdfrwt>
<totfact> 0.53115407E+00</totfact>
</mgrwt>
</event>
<event>
12    6  0.1403409E-007  0.2024709E+04  0.7818608E-02  0.8595155E-01
         -1   -1    0    0    0  501 -0.00000000000E+00  0.00000000000E+00  0.71410401733E+03  0.71410401733E+03  0.00000000000E+00 0.  1.
          2   -1    0    0  501    0  0.00000000000E+00 -0.00000000000E+00 -0.14351719655E+04  0.14351719655E+04  0.00000000000E+00 0. -1.
         24    2    1    2    0    0  0.80086460291E+03  0.14732734984E+03 -0.21493195138E+03  0.84597925521E+03  0.79973097472E+02 0.  0.
        254    2    1    2    0    0 -0.80086460291E+03 -0.14732734984E+03 -0.50613599683E+03  0.13032967277E+04  0.88279060533E+03 0.  0.
         23    2    4    4    0    0 -0.10545795636E+03 -0.29334918068E+03 -0.48939843517E+03  0.58678760848E+03  0.87371315398E+02 0.  0.
         23    2    4    4    0    0 -0.69540664654E+03  0.14602183084E+03 -0.16737561662E+02  0.71650911919E+03  0.90511837717E+02 0.  0.
          4    1    3    3  502    0  0.22227712126E+03  0.17155193252E+02 -0.31138747116E+02  0.22510228978E+03  0.00000000000E+00 0. -1.
         -3    1    3    3    0  502  0.57858748165E+03  0.13017215659E+03 -0.18379320426E+03  0.62087696543E+03  0.00000000000E+00 0.  1.
         11    1    5    5    0    0 -0.35705973199E+02 -0.18851340646E+03 -0.23877827576E+03  0.30631239922E+03  0.00000000000E+00 0.  1.
        -11    1    5    5    0    0 -0.69751983165E+02 -0.10483577422E+03 -0.25062015940E+03  0.28047520926E+03  0.00000000000E+00 0. -1.
          2    1    6    6  503    0 -0.62276310292E+02  0.29089292461E+02  0.20113150080E+02  0.71617487847E+02  0.00000000000E+00 0. -1.
         -2    1    6    6    0  503 -0.63313033625E+03  0.11693253838E+03 -0.36850711743E+02  0.64489163134E+03  0.00000000000E+00 0.  1.
<mgrwt>
<rscale>  0 0.20247094E+04</rscale>
<asrwt>0</asrwt>
<pdfrwt beam="1">  1        2 0.22079569E+00 0.20247094E+04</pdfrwt>
<pdfrwt beam="2">  1       -1 0.10986216E+00 0.20247094E+04</pdfrwt>
<totfact> 0.11174170E+01</totfact>
</mgrwt>
</event>
<event>
12    6  0.1403409E-007  0.3771076E+04  0.7818608E-02  0.8052391E-01
         -1   -1    0    0    0  501 -0.00000000000E+00  0.00000000000E+00  0.15199164401E+04  0.15199164401E+04  0.00000000000E+00 0.  1.
          2   -1    0    0  501    0  0.00000000000E+00 -0.00000000000E+00 -0.23391113020E+04  0.23391113020E+04  0.00000000000E+00 0. -1.
         24    2    1    2    0    0 -0.26726474132E+03  0.16209914790E+04  0.30721663366E+03  0.16732510380E+04  0.79643954477E+02 0.  0.
        254    2    1    2    0    0  0.26726474132E+03 -0.16209914790E+04 -0.11264114956E+04  0.21857767041E+04  0.89987394990E+03 0.  0.
         23    2    4    4    0    0  0.32465067428E+03 -0.14807072886E+04 -0.60448930407E+03  0.16345497500E+04  0.91942546310E+02 0.  0.
         23    2    4    4    0    0 -0.57385932963E+02 -0.14028419041E+03 -0.52192219152E+03  0.55122695404E+03  0.92062921283E+02 0.  0.
          2    1    3    3  502    0 -0.10535859807E+03  0.55677485185E+03  0.70016126173E+02  0.57096490940E+03  0.00000000000E+00 0. -1.
         -1    1    3    3    0  502 -0.16190614325E+03  0.10642166271E+04  0.23720050749E+03  0.11022861286E+04  0.00000000000E+00 0.  1.
         11    1    5    5    0    0  0.25045024363E+03 -0.98268305125E+03 -0.37519953237E+03  0.10812797940E+04  0.00000000000E+00 0.  1.
        -11    1    5    5    0    0  0.74200430658E+02 -0.49802423730E+03 -0.22928977170E+03  0.55326995604E+03  0.00000000000E+00 0. -1.
          3    1    6    6  503    0 -0.43027733837E+01  0.11845557074E+02 -0.77078660512E+02  0.78102182988E+02  0.00000000000E+00 0. -1.
         -3    1    6    6    0  503 -0.53083159579E+02 -0.15212974749E+03 -0.44484353101E+03  0.47312477105E+03  0.00000000000E+00 0.  1.
<mgrwt>
<rscale>  0 0.37710761E+04</rscale>
<asrwt>0</asrwt>
<pdfrwt beam="1">  1        2 0.35986328E+00 0.37710761E+04</pdfrwt>
<pdfrwt beam="2">  1       -1 0.23383330E+00 0.37710761E+04</pdfrwt>
<totfact> 0.35038075E-01</totfact>
</mgrwt>
</event>
<event>
12    6  0.1403409E-007  0.1223467E+04  0.7818608E-02  0.9092560E-01
          2   -1    0    0  501    0  0.00000000000E+00  0.00000000000E+00  0.82489920951E+03  0.82489920951E+03  0.00000000000E+00 0. -1.
         -1   -1    0    0    0  501 -0.00000000000E+00 -0.00000000000E+00 -0.45365291718E+03  0.45365291718E+03  0.00000000000E+00 0.  1.
         24    2    1    2    0    0 -0.45874816810E+02  0.22734850545E+03  0.22640470239E+03  0.33345613272E+03  0.78371304948E+02 0.  0.
        254    2    1    2    0    0  0.45874816810E+02 -0.22734850545E+03  0.14484158994E+03  0.94509599398E+03  0.90467425624E+03 0.  0.
         23    2    4    4    0    0 -0.31265054035E+03  0.18723684525E+03  0.91737202398E+02  0.38697637955E+03  0.92341796723E+02 0.  0.
         23    2    4    4    0    0  0.35852535716E+03 -0.41458535070E+03  0.53104387546E+02  0.55811961443E+03  0.90862441621E+02 0.  0.
          2    1    3    3  502    0  0.18981678801E+02  0.84451731976E+02  0.97458590309E+02  0.13034790366E+03  0.00000000000E+00 0. -1.
         -1    1    3    3    0  502 -0.64856495611E+02  0.14289677347E+03  0.12894611208E+03  0.20310822906E+03  0.00000000000E+00 0.  1.
         11    1    5    5    0    0 -0.14159422959E+03  0.80770064781E+02  0.88459837049E+02  0.18546663309E+03  0.00000000000E+00 0.  1.
        -11    1    5    5    0    0 -0.17105631076E+03  0.10646678047E+03  0.32773653494E+01  0.20150974646E+03  0.00000000000E+00 0. -1.
          4    1    6    6  503    0  0.51172645292E+01 -0.23048847036E+01  0.12356435916E+02  0.13571307907E+02  0.00000000000E+00 0. -1.
         -4    1    6    6    0  503  0.35340809263E+03 -0.41228046599E+03  0.40747951630E+02  0.54454830652E+03  0.00000000000E+00 0.  1.
<mgrwt>
<rscale>  0 0.12234671E+04</rscale>
<asrwt>0</asrwt>
<pdfrwt beam="1">  1        2 0.12690757E+00 0.12234671E+04</pdfrwt>
<pdfrwt beam="2">  1       -1 0.69792757E-01 0.12234671E+04</pdfrwt>
<totfact> 0.77201697E+01</totfact>
</mgrwt>
</event>
<event>
12    6  0.1403409E-007  0.2221407E+04  0.7818608E-02  0.8509571E-01
         -1   -1    0    0    0  501 -0.00000000000E+00  0.00000000000E+00  0.58704036528E+03  0.58704036528E+03  0.00000000000E+00 0.  1.
          2   -1    0    0  501    0  0.00000000000E+00 -0.00000000000E+00 -0.21014945098E+04  0.21014945098E+04  0.00000000000E+00 0. -1.
         24    2    1    2    0    0 -0.40239755854E+03  0.82350350538E+03 -0.80325252595E+03  0.12212905519E+04  0.79083331045E+02 0.  0.
        254    2    1    2    0    0  0.40239755854E+03 -0.82350350538E+03 -0.71120161860E+03  0.14672443232E+04  0.89828522372E+03 0.  0.
         23    2    4    4    0    0  0.52823340763E+03 -0.76377440117E+03 -0.84078905916E+03  0.12560466955E+04  0.91352013747E+02 0.  0.
         23    2    4    4    0    0 -0.12583584909E+03 -0.59729104208E+02  0.12958744056E+03  0.21119762771E+03  0.91702270379E+02 0.  0.
          4    1    3    3  502    0 -0.29381489241E+03  0.51588445631E+03 -0.52495621964E+03  0.79249163769E+03  0.00000000000E+00 0. -1.
         -3    1    3    3    0  502 -0.10858266613E+03  0.30761904907E+03 -0.27829630631E+03  0.42879891422E+03  0.00000000000E+00 0.  1.
         11    1    5    5    0    0  0.40986242987E+03 -0.60114697590E+03 -0.70678327057E+03  0.10143507725E+04  0.00000000000E+00 0.  1.
        -11    1    5    5    0    0  0.11837097776E+03 -0.16262742527E+03 -0.13400578858E+03  0.24169592301E+03  0.00000000000E+00 0. -1.
          1    1    6    6  503    0 -0.10870979438E+02  0.22324887567E+02  0.12865172256E+02  0.27965898091E+02  0.00000000000E+00 0. -1.
         -1    1    6    6    0  503 -0.11496486965E+03 -0.82053991775E+02  0.11672226830E+03  0.18323172962E+03  0.00000000000E+00 0.  1.
<mgrwt>
<rscale>  0 0.22214069E+04</rscale>
<asrwt>0</asrwt>
<pdfrwt beam="1">  1        2 0.32330685E+00 0.22214069E+04</pdfrwt>
<pdfrwt beam="2">  1       -1 0.90313902E-01 0.22214069E+04</pdfrwt>
<totfact> 0.72993444E+00</totfact>
</mgrwt>
</event>
<event>
12    6  0.1403409E-007  0.1470420E+04  0.7818608E-02  0.8904365E-01
          2   -1    0    0  501    0  0.00000000000E+00  0.00000000000E+00  0.41865530001E+04  0.41865530001E+04  0.00000000000E+00 0. -1.
         -1   -1    0    0    0  501 -0.00000000000E+00 -0.00000000000E+00 -0.12911188008E+03  0.12911188008E+03  0.00000000000E+00 0.  1.
         24    2    1    2    0    0 -0.19060944503E+03 -0.40162213521E+03  0.99747563334E+03  0.10949799531E+04  0.79944722252E+02 0.  0.
        254    2    1    2    0    0  0.19060944503E+03  0.40162213521E+03  0.30599654867E+04  0.32206849271E+04  0.90099407303E+03 0.  0.
         23    2    4    4    0    0  0.25294775515E+03  0.62559841422E+03  0.15930718007E+04  0.17325237609E+04  0.91678117029E+02 0.  0.
         23    2    4    4    0    0 -0.62338310114E+02 -0.22397627901E+03  0.14668936860E+04  0.14881611662E+04  0.93782365280E+02 0.  0.
          4    1    3    3  502    0 -0.15028107105E+03 -0.37022939642E+03  0.90597526901E+03  0.99017442622E+03  0.00000000000E+00 0. -1.
         -3    1    3    3    0  502 -0.40328373986E+02 -0.31392738795E+02  0.91500364327E+02  0.10480552690E+03  0.00000000000E+00 0.  1.
         11    1    5    5    0    0  0.46247855335E+02  0.61968642883E+02  0.24267100730E+03  0.25469235286E+03  0.00000000000E+00 0.  1.
        -11    1    5    5    0    0  0.20669989981E+03  0.56362977134E+03  0.13504007934E+04  0.14778314080E+04  0.00000000000E+00 0. -1.
          3    1    6    6  503    0 -0.42438932184E+02 -0.16163665949E+03  0.12633990874E+04  0.12744036749E+04  0.00000000000E+00 0. -1.
         -3    1    6    6    0  503 -0.19899377930E+02 -0.62339619519E+02  0.20349459867E+03  0.21375749131E+03  0.00000000000E+00 0.  1.
<mgrwt>
<rscale>  0 0.14704200E+04</rscale>
<asrwt>0</asrwt>
<pdfrwt beam="1">  1        2 0.64408497E+00 0.14704200E+04</pdfrwt>
<pdfrwt beam="2">  1       -1 0.19863369E-01 0.14704200E+04</pdfrwt>
<totfact> 0.56117651E+00</totfact>
</mgrwt>
</event>
<event>
12    6  0.1403409E-007  0.3402769E+04  0.7818608E-02  0.8137227E-01
          2   -1    0    0  501    0  0.00000000000E+00  0.00000000000E+00  0.14278563891E+04  0.14278563891E+04  0.00000000000E+00 0. -1.
         -1   -1    0    0    0  501 -0.00000000000E+00 -0.00000000000E+00 -0.20273112653E+04  0.20273112653E+04  0.00000000000E+00 0.  1.
         24    2    1    2    0    0  0.43171562059E+02  0.14961180350E+04  0.24220790415E+03  0.15182330051E+04  0.78318775844E+02 0.  0.
        254    2    1    2    0    0 -0.43171562059E+02 -0.14961180350E+04 -0.84166278033E+03  0.19369346493E+04  0.89615101475E+03 0.  0.
         23    2    4    4    0    0 -0.55170138449E+02 -0.86979114702E+03  0.94205229771E+01  0.87622259068E+03  0.89982768129E+02 0.  0.
         23    2    4    4    0    0  0.11998576389E+02 -0.62632688798E+03 -0.85108330331E+03  0.10607120586E+04  0.91312351718E+02 0.  0.
          4    1    3    3  502    0 -0.14418444731E+02  0.24930843706E+03  0.60363136725E+02  0.25691690605E+03  0.00000000000E+00 0. -1.
         -3    1    3    3    0  502  0.57590006790E+02  0.12468095979E+04  0.18184476742E+03  0.12613160991E+04  0.00000000000E+00 0.  1.
         11    1    5    5    0    0 -0.57043496313E+02 -0.74023749483E+03 -0.22530708739E+02  0.74277395085E+03  0.00000000000E+00 0. -1.
        -11    1    5    5    0    0  0.18733578646E+01 -0.12955365219E+03  0.31951231716E+02  0.13344863983E+03  0.00000000000E+00 0.  1.
          3    1    6    6  503    0 -0.31839953131E+02 -0.23099583582E+03 -0.35723919557E+03  0.42660602625E+03  0.00000000000E+00 0. -1.
         -3    1    6    6    0  503  0.43838529520E+02 -0.39533105216E+03 -0.49384410774E+03  0.63410603232E+03  0.00000000000E+00 0.  1.
<mgrwt>
<rscale>  0 0.34027691E+04</rscale>
<asrwt>0</asrwt>
<pdfrwt beam="1">  1        2 0.21967021E+00 0.34027691E+04</pdfrwt>
<pdfrwt beam="2">  1       -1 0.31189404E+00 0.34027691E+04</pdfrwt>
<totfact> 0.36357661E-01</totfact>
</mgrwt>
</event>
<event>
12    6  0.1403409E-007  0.2691803E+04  0.7818608E-02  0.8337669E-01
         -1   -1    0    0    0  501 -0.00000000000E+00  0.00000000000E+00  0.12967780594E+04  0.12967780594E+04  0.00000000000E+00 0.  1.
          2   -1    0    0  501    0  0.00000000000E+00 -0.00000000000E+00 -0.13968860924E+04  0.13968860924E+04  0.00000000000E+00 0. -1.
         24    2    1    2    0    0 -0.11748585405E+04 -0.15023719028E+03  0.10926340029E+03  0.11918894583E+04  0.76145825309E+02 0.  0.
        254    2    1    2    0    0  0.11748585405E+04  0.15023719028E+03 -0.20937143331E+03  0.15017746935E+04  0.89923691519E+03 0.  0.
         23    2    4    4    0    0  0.12703478800E+04  0.19140706821E+03 -0.31375907261E+03  0.13254935062E+04  0.89821363383E+02 0.  0.
         23    2    4    4    0    0 -0.95489339512E+02 -0.41169877936E+02  0.10438763930E+03  0.17628118738E+03  0.96773472482E+02 0.  0.
          2    1    3    3  502    0 -0.89625574742E+02 -0.29712200327E+02 -0.10319552539E+01  0.94427874210E+02  0.00000000000E+00 0. -1.
         -1    1    3    3    0  502 -0.10852329657E+04 -0.12052498995E+03  0.11029535554E+03  0.10974615841E+04  0.00000000000E+00 0.  1.
         11    1    5    5    0    0  0.65052553399E+03  0.70678393220E+02 -0.19656605911E+03  0.68324016366E+03  0.00000000000E+00 0.  1.
        -11    1    5    5    0    0  0.61982234597E+03  0.12072867499E+03 -0.11719301350E+03  0.64225334249E+03  0.00000000000E+00 0. -1.
          2    1    6    6  503    0 -0.89240471045E+02 -0.66834740168E+02  0.65621723468E+02  0.12937138307E+03  0.00000000000E+00 0. -1.
         -2    1    6    6    0  503 -0.62488684673E+01  0.25664862233E+02  0.38765915832E+02  0.46909804315E+02  0.00000000000E+00 0.  1.
<mgrwt>
<rscale>  0 0.26918033E+04</rscale>
<asrwt>0</asrwt>
<pdfrwt beam="1">  1        2 0.21490555E+00 0.26918033E+04</pdfrwt>
<pdfrwt beam="2">  1       -1 0.19950432E+00 0.26918033E+04</pdfrwt>
<totfact> 0.22041890E+00</totfact>
</mgrwt>
</event>
<event>
12    6  0.1403409E-007  0.1125707E+04  0.7818608E-02  0.9180492E-01
          2   -1    0    0  501    0  0.00000000000E+00  0.00000000000E+00  0.10475136495E+04  0.10475136495E+04  0.00000000000E+00 0. -1.
         -1   -1    0    0    0  501 -0.00000000000E+00 -0.00000000000E+00 -0.30243438789E+03  0.30243438789E+03  0.00000000000E+00 0.  1.
         24    2    1    2    0    0  0.14478666382E+03  0.44882953035E+02  0.27472250218E+03  0.32352155159E+03  0.78842143830E+02 0.  0.
        254    2    1    2    0    0 -0.14478666382E+03 -0.44882953035E+02  0.47035675940E+03  0.10264264858E+04  0.89963225381E+03 0.  0.
         23    2    4    4    0    0 -0.52077762691E+02  0.16763927109E+03  0.67514935333E+03  0.70394129113E+03  0.94295670507E+02 0.  0.
         23    2    4    4    0    0 -0.92708901133E+02 -0.21252222413E+03 -0.20479259393E+03  0.32248519465E+03  0.91082699451E+02 0.  0.
          2    1    3    3  502    0  0.47717218082E+02 -0.17357655148E+02  0.12209522629E+03  0.13223261843E+03  0.00000000000E+00 0. -1.
         -1    1    3    3    0  502  0.97069445742E+02  0.62240608183E+02  0.15262727589E+03  0.19128893316E+03  0.00000000000E+00 0.  1.
         11    1    5    5    0    0 -0.69463234021E+02  0.13481134948E+03  0.42926247767E+03  0.45526422610E+03  0.00000000000E+00 0.  1.
        -11    1    5    5    0    0  0.17385471330E+02  0.32827921609E+02  0.24588687566E+03  0.24867706503E+03  0.00000000000E+00 0. -1.
          4    1    6    6  503    0 -0.45904843302E+02 -0.15152176033E+03 -0.83808881905E+02  0.17913689508E+03  0.00000000000E+00 0.  1.
         -4    1    6    6    0  503 -0.46804057831E+02 -0.61000463795E+02 -0.12098371203E+03  0.14334829957E+03  0.00000000000E+00 0. -1.
<mgrwt>
<rscale>  0 0.11257072E+04</rscale>
<asrwt>0</asrwt>
<pdfrwt beam="1">  1        2 0.16115594E+00 0.11257072E+04</pdfrwt>
<pdfrwt beam="2">  1       -1 0.46528368E-01 0.11257072E+04</pdfrwt>
<totfact> 0.12211072E+02</totfact>
</mgrwt>
</event>
<event>
12    6  0.1403409E-007  0.1551781E+04  0.7818608E-02  0.8850731E-01
         -1   -1    0    0    0  501 -0.00000000000E+00  0.00000000000E+00  0.53246863878E+03  0.53246863878E+03  0.00000000000E+00 0.  1.
          2   -1    0    0  501    0  0.00000000000E+00 -0.00000000000E+00 -0.11305936962E+04  0.11305936962E+04  0.00000000000E+00 0. -1.
         24    2    1    2    0    0  0.39130605701E+01 -0.49088582671E+03 -0.46189642702E+02  0.49812448424E+03  0.70783555986E+02 0.  0.
        254    2    1    2    0    0 -0.39130605701E+01  0.49088582671E+03 -0.55193541475E+03  0.11649378508E+04  0.90081257052E+03 0.  0.
         23    2    4    4    0    0 -0.33094821325E+03  0.66206895703E+01 -0.44609051156E+03  0.56391836463E+03  0.97142287815E+02 0.  0.
         23    2    4    4    0    0  0.32703515268E+03  0.48426513714E+03 -0.10584490319E+03  0.60101948615E+03  0.92501703003E+02 0.  0.
          4    1    3    3  502    0  0.70612587145E+01 -0.16137089632E+03 -0.48284954984E+02  0.16858785375E+03  0.00000000000E+00 0. -1.
         -3    1    3    3    0  502 -0.31481981444E+01 -0.32951493039E+03  0.20953122827E+01  0.32953663049E+03  0.00000000000E+00 0.  1.
         11    1    5    5    0    0 -0.32682019256E+03  0.18185987988E+02 -0.40338339022E+03  0.51948082537E+03  0.00000000000E+00 0. -1.
        -11    1    5    5    0    0 -0.41280206907E+01 -0.11565298417E+02 -0.42707121345E+02  0.44437539264E+02  0.00000000000E+00 0.  1.
          3    1    6    6  503    0  0.30220575032E+03  0.38655211633E+03 -0.92772807450E+02  0.49935723482E+03  0.00000000000E+00 0. -1.
         -3    1    6    6    0  503  0.24829402358E+02  0.97713020809E+02 -0.13072095739E+02  0.10166225132E+03  0.00000000000E+00 0.  1.
<mgrwt>
<rscale>  0 0.15517805E+04</rscale>
<asrwt>0</asrwt>
<pdfrwt beam="1">  1        2 0.17393749E+00 0.15517805E+04</pdfrwt>
<pdfrwt beam="2">  1       -1 0.81918252E-01 0.15517805E+04</pdfrwt>
<totfact> 0.33960753E+01</totfact>
</mgrwt>
</event>
<event>
12    6  0.1403409E-007  0.1359231E+04  0.7818608E-02  0.8983869E-01
         -1   -1    0    0    0  501 -0.00000000000E+00  0.00000000000E+00  0.42717969296E+03  0.42717969296E+03  0.00000000000E+00 0.  1.
          2   -1    0    0  501    0  0.00000000000E+00 -0.00000000000E+00 -0.10812253754E+04  0.10812253754E+04  0.00000000000E+00 0. -1.
         24    2    1    2    0    0 -0.14024771544E+03 -0.34527475985E+03 -0.29013009898E+03  0.47639994080E+03  0.62428741579E+02 0.  0.
        254    2    1    2    0    0  0.14024771544E+03  0.34527475985E+03 -0.36391558349E+03  0.10320051276E+04  0.89090737452E+03 0.  0.
         23    2    4    4    0    0  0.15020630379E+02  0.22523431677E+03  0.27314587943E+03  0.36570572034E+03  0.90420604141E+02 0.  0.
         23    2    4    4    0    0  0.12522708507E+03  0.12004044308E+03 -0.63706146291E+03  0.66629940725E+03  0.89532462017E+02 0.  0.
          4    1    3    3  502    0 -0.22738190104E+02 -0.64379899391E+02 -0.86061079955E+02  0.10985584289E+03  0.00000000000E+00 0. -1.
         -3    1    3    3    0  502 -0.11750952534E+03 -0.28089486046E+03 -0.20406901903E+03  0.36654409790E+03  0.00000000000E+00 0.  1.
         11    1    5    5    0    0 -0.36939962075E+02  0.12325725313E+03  0.14807909777E+03  0.19617423492E+03  0.00000000000E+00 0. -1.
        -11    1    5    5    0    0  0.51960592455E+02  0.10197706364E+03  0.12506678166E+03  0.16953148542E+03  0.00000000000E+00 0.  1.
          1    1    6    6  503    0  0.13947677641E+03  0.10823809302E+03 -0.56826854847E+03  0.59506167674E+03  0.00000000000E+00 0. -1.
         -1    1    6    6    0  503 -0.14249691345E+02  0.11802350063E+02 -0.68792914445E+02  0.71237730510E+02  0.00000000000E+00 0.  1.
<mgrwt>
<rscale>  0 0.13592314E+04</rscale>
<asrwt>0</asrwt>
<pdfrwt beam="1">  1        2 0.16634236E+00 0.13592314E+04</pdfrwt>
<pdfrwt beam="2">  1       -1 0.65719954E-01 0.13592314E+04</pdfrwt>
<totfact> 0.58475069E+01</totfact>
</mgrwt>
</event>
<event>
12    6  0.1403409E-007  0.2798322E+04  0.7818608E-02  0.8303790E-01
          2   -1    0    0  501    0  0.00000000000E+00  0.00000000000E+00  0.19671634997E+04  0.19671634997E+04  0.00000000000E+00 0. -1.
         -1   -1    0    0    0  501 -0.00000000000E+00 -0.00000000000E+00 -0.99516433470E+03  0.99516433470E+03  0.00000000000E+00 0.  1.
         24    2    1    2    0    0  0.53593662315E+03 -0.96311889730E+02  0.16311872931E+04  0.17214647181E+04  0.78515899610E+02 0.  0.
        254    2    1    2    0    0 -0.53593662315E+03  0.96311889730E+02 -0.65918812805E+03  0.12408631163E+04  0.89928206983E+03 0.  0.
         23    2    4    4    0    0 -0.50992305293E+03  0.17217481739E+02  0.49958989059E+02  0.52088584705E+03  0.92239923467E+02 0.  0.
         23    2    4    4    0    0 -0.26013570222E+02  0.79094407991E+02 -0.70914711711E+03  0.71997726926E+03  0.92439187235E+02 0.  0.
          2    1    3    3  502    0  0.32004789255E+03 -0.53615199368E+02  0.10888582378E+04  0.11361855065E+04  0.00000000000E+00 0. -1.
         -3    1    3    3    0  502  0.21588873060E+03 -0.42696690362E+02  0.54232905528E+03  0.58527921163E+03  0.00000000000E+00 0.  1.
         11    1    5    5    0    0 -0.64893144942E+02 -0.19536978354E+02  0.29385964932E+02  0.73867101735E+02  0.00000000000E+00 0. -1.
        -11    1    5    5    0    0 -0.44502990799E+03  0.36754460094E+02  0.20573024127E+02  0.44701874531E+03  0.00000000000E+00 0.  1.
          3    1    6    6  503    0 -0.59201772259E+02  0.38910757737E+02 -0.35318672474E+03  0.36022181977E+03  0.00000000000E+00 0. -1.
         -3    1    6    6    0  503  0.33188202037E+02  0.40183650254E+02 -0.35596039237E+03  0.35975544949E+03  0.00000000000E+00 0.  1.
<mgrwt>
<rscale>  0 0.27983216E+04</rscale>
<asrwt>0</asrwt>
<pdfrwt beam="1">  1        2 0.30264054E+00 0.27983216E+04</pdfrwt>
<pdfrwt beam="2">  1       -1 0.15310221E+00 0.27983216E+04</pdfrwt>
<totfact> 0.22771609E+00</totfact>
</mgrwt>
</event>
<event>
12    6  0.1403409E-007  0.2886732E+04  0.7818608E-02  0.8276836E-01
          2   -1    0    0  501    0  0.00000000000E+00  0.00000000000E+00  0.12476609602E+04  0.12476609602E+04  0.00000000000E+00 0. -1.
         -1   -1    0    0    0  501 -0.00000000000E+00 -0.00000000000E+00 -0.16697688207E+04  0.16697688207E+04  0.00000000000E+00 0.  1.
         24    2    1    2    0    0 -0.44440924713E+03 -0.83426318752E+03  0.71467066181E+03  0.11877024692E+04  0.79927188953E+02 0.  0.
        254    2    1    2    0    0  0.44440924713E+03  0.83426318752E+03 -0.11367785223E+04  0.17297273117E+04  0.89788446866E+03 0.  0.
         23    2    4    4    0    0  0.13375218169E+03  0.66320118720E+03 -0.11764255077E+04  0.13604958330E+04  0.96158595050E+02 0.  0.
         23    2    4    4    0    0  0.31065706544E+03  0.17106200032E+03  0.39646985438E+02  0.36923147874E+03  0.94815511266E+02 0.  0.
          4    1    3    3  502    0 -0.30103129971E+03 -0.63714021654E+03  0.54144463457E+03  0.88866742443E+03  0.00000000000E+00 0. -1.
         -3    1    3    3    0  502 -0.14337794742E+03 -0.19712297098E+03  0.17322602724E+03  0.29903504478E+03  0.00000000000E+00 0.  1.
         11    1    5    5    0    0  0.11710641182E+03  0.36833016029E+03 -0.71136548736E+03  0.80958129628E+03  0.00000000000E+00 0. -1.
        -11    1    5    5    0    0  0.16645769866E+02  0.29487102691E+03 -0.46506002039E+03  0.55091453668E+03  0.00000000000E+00 0.  1.
          2    1    6    6  503    0  0.28299979875E+02 -0.36139025586E+00  0.26309426288E+02  0.38642015675E+02  0.00000000000E+00 0. -1.
         -2    1    6    6    0  503  0.28235708557E+03  0.17142339058E+03  0.13337559150E+02  0.33058946307E+03  0.00000000000E+00 0.  1.
<mgrwt>
<rscale>  0 0.28867320E+04</rscale>
<asrwt>0</asrwt>
<pdfrwt beam="1">  1        2 0.19194784E+00 0.28867320E+04</pdfrwt>
<pdfrwt beam="2">  1       -1 0.25688751E+00 0.28867320E+04</pdfrwt>
<totfact> 0.10979546E+00</totfact>
</mgrwt>
</event>
<event>
12    6  0.1403409E-007  0.1437632E+04  0.7818608E-02  0.8927020E-01
          2   -1    0    0  501    0  0.00000000000E+00  0.00000000000E+00  0.17956885989E+04  0.17956885989E+04  0.00000000000E+00 0. -1.
         -1   -1    0    0    0  501 -0.00000000000E+00 -0.00000000000E+00 -0.28774290949E+03  0.28774290949E+03  0.00000000000E+00 0.  1.
         24    2    1    2    0    0  0.37334604290E+03 -0.42283084927E+02  0.77148921749E+03  0.86140659412E+03  0.75170344318E+02 0.  0.
        254    2    1    2    0    0 -0.37334604290E+03  0.42283084927E+02  0.73645647197E+03  0.12220249143E+04  0.89988978720E+03 0.  0.
         23    2    4    4    0    0 -0.44356458442E+03 -0.31033184674E+03  0.23002975446E+03  0.59430164445E+03  0.85002123540E+02 0.  0.
         23    2    4    4    0    0  0.70218541523E+02  0.35261493167E+03  0.50642671750E+03  0.62772326987E+03  0.91107352765E+02 0.  0.
          2    1    3    3  502    0  0.37059340811E+03 -0.40053780026E+02  0.77249444292E+03  0.85772457337E+03  0.00000000000E+00 0. -1.
         -1    1    3    3    0  502  0.27526347891E+01 -0.22293049014E+01 -0.10052254244E+01  0.36820207467E+01  0.00000000000E+00 0.  1.
         11    1    5    5    0    0 -0.43635418290E+03 -0.31436539492E+03  0.21938610229E+03  0.58082771657E+03  0.00000000000E+00 0. -1.
        -11    1    5    5    0    0 -0.72104015208E+01  0.40335481778E+01  0.10643652175E+02  0.13473927884E+02  0.00000000000E+00 0.  1.
          4    1    6    6  503    0  0.11508534747E+02  0.26606972320E+03  0.36232887670E+03  0.44967517039E+03  0.00000000000E+00 0. -1.
         -4    1    6    6    0  503  0.58710006776E+02  0.86545208472E+02  0.14409784080E+03  0.17804809948E+03  0.00000000000E+00 0.  1.
<mgrwt>
<rscale>  0 0.14376323E+04</rscale>
<asrwt>0</asrwt>
<pdfrwt beam="1">  1        2 0.27625978E+00 0.14376323E+04</pdfrwt>
<pdfrwt beam="2">  1       -1 0.44268141E-01 0.14376323E+04</pdfrwt>
<totfact> 0.48451128E+01</totfact>
</mgrwt>
</event>
<event>
12    6  0.1403409E-007  0.1601610E+04  0.7818608E-02  0.8819559E-01
         -1   -1    0    0    0  501 -0.00000000000E+00  0.00000000000E+00  0.77704711230E+03  0.77704711230E+03  0.00000000000E+00 0.  1.
          2   -1    0    0  501    0  0.00000000000E+00 -0.00000000000E+00 -0.82528936049E+03  0.82528936049E+03  0.00000000000E+00 0. -1.
         24    2    1    2    0    0 -0.85783943347E+02 -0.27303894710E+03 -0.47827713015E+03  0.56290961705E+03  0.78797666002E+02 0.  0.
        254    2    1    2    0    0  0.85783943347E+02  0.27303894710E+03  0.43003488196E+03  0.10394268557E+04  0.90198061907E+03 0.  0.
         23    2    4    4    0    0 -0.84843640764E+02 -0.89112122415E+02 -0.22152144928E+03  0.26953549759E+03  0.91859774822E+02 0.  0.
         23    2    4    4    0    0  0.17062758411E+03  0.36215106952E+03  0.65155633124E+03  0.76989135815E+03  0.89106009726E+02 0.  0.
          2    1    3    3  502    0 -0.85540719172E+02 -0.22679460000E+03 -0.34343371276E+03  0.42035665843E+03  0.00000000000E+00 0. -1.
         -1    1    3    3    0  502 -0.24322417512E+00 -0.46244347104E+02 -0.13484341739E+03  0.14255295862E+03  0.00000000000E+00 0.  1.
         11    1    5    5    0    0 -0.96279621198E+02 -0.42579290520E+02 -0.14350739514E+03  0.17798071216E+03  0.00000000000E+00 0. -1.
        -11    1    5    5    0    0  0.11435980434E+02 -0.46532831895E+02 -0.78014054138E+02  0.91554785433E+02  0.00000000000E+00 0.  1.
          3    1    6    6  503    0  0.11800058148E+03  0.15343883327E+03  0.27779618382E+03  0.33858282965E+03  0.00000000000E+00 0. -1.
         -3    1    6    6    0  503  0.52627002627E+02  0.20871223625E+03  0.37376014742E+03  0.43130852851E+03  0.00000000000E+00 0.  1.
<mgrwt>
<rscale>  0 0.16016101E+04</rscale>
<asrwt>0</asrwt>
<pdfrwt beam="1">  1        2 0.12696759E+00 0.16016101E+04</pdfrwt>
<pdfrwt beam="2">  1       -1 0.11954571E+00 0.16016101E+04</pdfrwt>
<totfact> 0.22601326E+01</totfact>
</mgrwt>
</event>
<event>
12    6  0.1403409E-007  0.2291177E+04  0.7818608E-02  0.8481408E-01
          2   -1    0    0  501    0  0.00000000000E+00  0.00000000000E+00  0.90805755179E+03  0.90805755179E+03  0.00000000000E+00 0. -1.
         -1   -1    0    0    0  501 -0.00000000000E+00 -0.00000000000E+00 -0.14452529320E+04  0.14452529320E+04  0.00000000000E+00 0.  1.
         24    2    1    2    0    0 -0.71055758672E+03 -0.10155688739E+03  0.43850863384E+03  0.84498074760E+03  0.80602459263E+02 0.  0.
        254    2    1    2    0    0  0.71055758672E+03  0.10155688739E+03 -0.97570401403E+03  0.15083297362E+04  0.89880720100E+03 0.  0.
         23    2    4    4    0    0  0.66025936672E+03 -0.21528118113E+03 -0.31488890393E+03  0.76806433392E+03  0.92083554073E+02 0.  0.
         23    2    4    4    0    0  0.50298220008E+02  0.31683806852E+03 -0.66081511010E+03  0.74026540224E+03  0.91651423480E+02 0.  0.
          2    1    3    3  502    0 -0.43521051148E+03 -0.61764728063E+02  0.31388368278E+03  0.54013520275E+03  0.00000000000E+00 0. -1.
         -1    1    3    3    0  502 -0.27534707524E+03 -0.39792159324E+02  0.12462495106E+03  0.30484554485E+03  0.00000000000E+00 0.  1.
         11    1    5    5    0    0  0.48858411207E+03 -0.20055117098E+03 -0.24296736092E+03  0.58135044958E+03  0.00000000000E+00 0. -1.
        -11    1    5    5    0    0  0.17167525464E+03 -0.14730010150E+02 -0.71921543015E+02  0.18671388434E+03  0.00000000000E+00 0.  1.
          4    1    6    6  503    0  0.40913772290E+02  0.15848317895E+03 -0.23961246340E+03  0.29018095628E+03  0.00000000000E+00 0. -1.
         -4    1    6    6    0  503  0.93844477181E+01  0.15835488957E+03 -0.42120264670E+03  0.45008444596E+03  0.00000000000E+00 0.  1.
<mgrwt>
<rscale>  0 0.22911768E+04</rscale>
<asrwt>0</asrwt>
<pdfrwt beam="1">  1        2 0.13970116E+00 0.22911768E+04</pdfrwt>
<pdfrwt beam="2">  1       -1 0.22234660E+00 0.22911768E+04</pdfrwt>
<totfact> 0.31801406E+00</totfact>
</mgrwt>
</event>
<event>
12    6  0.1403409E-007  0.1807361E+04  0.7818608E-02  0.8702395E-01
         -1   -1    0    0    0  501 -0.00000000000E+00  0.00000000000E+00  0.64879991024E+03  0.64879991024E+03  0.00000000000E+00 0.  1.
          2   -1    0    0  501    0  0.00000000000E+00 -0.00000000000E+00 -0.12586905394E+04  0.12586905394E+04  0.00000000000E+00 0. -1.
         24    2    1    2    0    0  0.44076553968E+03  0.49332552268E+03 -0.92179612271E+02  0.67287124896E+03  0.81328374243E+02 0.  0.
        254    2    1    2    0    0 -0.44076553968E+03 -0.49332552268E+03 -0.51771101691E+03  0.12346192007E+04  0.90477375151E+03 0.  0.
         23    2    4    4    0    0 -0.27745491769E+03 -0.68345093933E+03 -0.60029024600E+03  0.95546130233E+03  0.92040767982E+02 0.  0.
         23    2    4    4    0    0 -0.16331062199E+03  0.19012541665E+03  0.82579229088E+02  0.27915789838E+03  0.91059155721E+02 0.  0.
          4    1    3    3  502    0  0.99184952983E+02  0.16082990130E+03 -0.41856353436E+02  0.19353518123E+03  0.00000000000E+00 0. -1.
         -3    1    3    3    0  502  0.34158058670E+03  0.33249562138E+03 -0.50323258836E+02  0.47933606773E+03  0.00000000000E+00 0.  1.
         11    1    5    5    0    0 -0.27390200639E+03 -0.59717588260E+03 -0.53066262575E+03  0.84453784180E+03  0.00000000000E+00 0. -1.
        -11    1    5    5    0    0 -0.35529113003E+01 -0.86275056738E+02 -0.69627620253E+02  0.11092346053E+03  0.00000000000E+00 0.  1.
          4    1    6    6  503    0 -0.12735799699E+03  0.19203966245E+03  0.67420912729E+02  0.24009346269E+03  0.00000000000E+00 0. -1.
         -4    1    6    6    0  503 -0.35952624999E+02 -0.19142457996E+01  0.15158316359E+02  0.39064435694E+02  0.00000000000E+00 0.  1.
<mgrwt>
<rscale>  0 0.18073608E+04</rscale>
<asrwt>0</asrwt>
<pdfrwt beam="1">  1        2 0.19364470E+00 0.18073608E+04</pdfrwt>
<pdfrwt beam="2">  1       -1 0.99815372E-01 0.18073608E+04</pdfrwt>
<totfact> 0.17999291E+01</totfact>
</mgrwt>
</event>
<event>
12    6  0.1403409E-007  0.2511161E+04  0.7818608E-02  0.8399020E-01
          2   -1    0    0  501    0  0.00000000000E+00  0.00000000000E+00  0.17262568778E+04  0.17262568778E+04  0.00000000000E+00 0. -1.
         -1   -1    0    0    0  501 -0.00000000000E+00 -0.00000000000E+00 -0.91323742755E+03  0.91323742755E+03  0.00000000000E+00 0.  1.
         24    2    1    2    0    0  0.80050137295E+03  0.13038940185E+02 -0.42702076666E+03  0.91086624619E+03  0.79737828122E+02 0.  0.
        254    2    1    2    0    0 -0.80050137295E+03 -0.13038940185E+02  0.12400402170E+04  0.17286280592E+04  0.89971260152E+03 0.  0.
         23    2    4    4    0    0  0.18096416139E+03 -0.35994485412E+02  0.31215717310E+03  0.37445631102E+03  0.93444087340E+02 0.  0.
         23    2    4    4    0    0 -0.98146553434E+03  0.22955545226E+02  0.92788304386E+03  0.13541717482E+04  0.94934863659E+02 0.  0.
          4    1    3    3  502    0  0.22763478196E+03  0.62806589663E+01 -0.81689654675E+02  0.24193023853E+03  0.00000000000E+00 0. -1.
         -3    1    3    3    0  502  0.57286659099E+03  0.67582812189E+01 -0.34533111199E+03  0.66893600766E+03  0.00000000000E+00 0.  1.
         11    1    5    5    0    0  0.18016843871E+03 -0.53261656241E+02  0.29716862892E+03  0.35157739454E+03  0.00000000000E+00 0. -1.
        -11    1    5    5    0    0  0.79572268090E+00  0.17267170829E+02  0.14988544173E+02  0.22878916483E+02  0.00000000000E+00 0.  1.
          3    1    6    6  503    0 -0.90149383080E+03 -0.51956395261E+01  0.84552462191E+03  0.12359733039E+04  0.00000000000E+00 0. -1.
         -3    1    6    6    0  503 -0.79971703537E+02  0.28151184753E+02  0.82358421943E+02  0.11819844430E+03  0.00000000000E+00 0.  1.
<mgrwt>
<rscale>  0 0.25111610E+04</rscale>
<asrwt>0</asrwt>
<pdfrwt beam="1">  1        2 0.26557798E+00 0.25111610E+04</pdfrwt>
<pdfrwt beam="2">  1       -1 0.14049807E+00 0.25111610E+04</pdfrwt>
<totfact> 0.39947131E+00</totfact>
</mgrwt>
</event>
<event>
12    6  0.1403409E-007  0.2005551E+04  0.7818608E-02  0.8604030E-01
         -1   -1    0    0    0  501 -0.00000000000E+00  0.00000000000E+00  0.29816693348E+03  0.29816693348E+03  0.00000000000E+00 0.  1.
          2   -1    0    0  501    0  0.00000000000E+00 -0.00000000000E+00 -0.33724703223E+04  0.33724703223E+04  0.00000000000E+00 0. -1.
         24    2    1    2    0    0  0.64771467398E+03 -0.43468136103E+03 -0.92062660034E+03  0.12093318580E+04  0.80299569972E+02 0.  0.
        254    2    1    2    0    0 -0.64771467398E+03  0.43468136103E+03 -0.21536767885E+04  0.24613053979E+04  0.90067661654E+03 0.  0.
         23    2    4    4    0    0  0.19354168314E+03 -0.38459652009E+02 -0.31604199396E+03  0.38359328953E+03  0.91234543219E+02 0.  0.
         23    2    4    4    0    0 -0.84125635712E+03  0.47314101304E+03 -0.18376347946E+04  0.20777121083E+04  0.91713086905E+02 0.  0.
          4    1    3    3  502    0  0.47627047730E+03 -0.36037964709E+03 -0.69417580308E+03  0.91574401618E+03  0.00000000000E+00 0. -1.
         -3    1    3    3    0  502  0.17144419668E+03 -0.74301713938E+02 -0.22645079726E+03  0.29358784179E+03  0.00000000000E+00 0.  1.
         11    1    5    5    0    0  0.71365132850E+02 -0.19630169263E+00 -0.19402569244E+03  0.20673410471E+03  0.00000000000E+00 0. -1.
        -11    1    5    5    0    0  0.12217655029E+03 -0.38263350316E+02 -0.12201630152E+03  0.17685918482E+03  0.00000000000E+00 0.  1.
          1    1    6    6  503    0 -0.24569172062E+03  0.91573340254E+02 -0.50190585029E+03  0.56626811740E+03  0.00000000000E+00 0. -1.
         -1    1    6    6    0  503 -0.59556463650E+03  0.38156767278E+03 -0.13357289443E+04  0.15114439909E+04  0.00000000000E+00 0.  1.
<mgrwt>
<rscale>  0 0.20055514E+04</rscale>
<asrwt>0</asrwt>
<pdfrwt beam="1">  1        2 0.51884155E+00 0.20055514E+04</pdfrwt>
<pdfrwt beam="2">  1       -1 0.45871839E-01 0.20055514E+04</pdfrwt>
<totfact> 0.49940203E+00</totfact>
</mgrwt>
</event>
<event>
12    6  0.1403409E-007  0.1308918E+04  0.7818608E-02  0.9022523E-01
         -1   -1    0    0    0  501 -0.00000000000E+00  0.00000000000E+00  0.10979789595E+04  0.10979789595E+04  0.00000000000E+00 0.  1.
          2   -1    0    0  501    0  0.00000000000E+00 -0.00000000000E+00 -0.39009570100E+03  0.39009570100E+03  0.00000000000E+00 0. -1.
         24    2    1    2    0    0  0.17189747517E+03 -0.78614589130E+02 -0.13005799396E+03  0.24281878160E+03  0.79478823012E+02 0.  0.
        254    2    1    2    0    0 -0.17189747517E+03  0.78614589130E+02  0.83794125243E+03  0.12452558789E+04  0.90154737299E+03 0.  0.
         23    2    4    4    0    0 -0.36966208952E+03  0.37741741799E+03  0.38293409393E+03  0.65898775311E+03  0.92370832084E+02 0.  0.
         23    2    4    4    0    0  0.19776461435E+03 -0.29880282886E+03  0.45500715851E+03  0.58626812577E+03  0.91021029296E+02 0.  0.
          4    1    3    3  502    0  0.11798822412E+03 -0.90450430074E+02 -0.10611973039E+03  0.18265787284E+03  0.00000000000E+00 0. -1.
         -3    1    3    3    0  502  0.53909251051E+02  0.11835840944E+02 -0.23938263578E+02  0.60160908761E+02  0.00000000000E+00 0.  1.
         11    1    5    5    0    0 -0.19669439844E+03  0.16295485007E+03  0.13793134894E+03  0.29028955640E+03  0.00000000000E+00 0.  1.
        -11    1    5    5    0    0 -0.17296769108E+03  0.21446256792E+03  0.24500274499E+03  0.36869819670E+03  0.00000000000E+00 0. -1.
          4    1    6    6  503    0  0.18462681027E+03 -0.25292359955E+03  0.43127804642E+03  0.53297106826E+03  0.00000000000E+00 0.  1.
         -4    1    6    6    0  503  0.13137804081E+02 -0.45879229312E+02  0.23729112083E+02  0.53297057504E+02  0.00000000000E+00 0. -1.
<mgrwt>
<rscale>  0 0.13089184E+04</rscale>
<asrwt>0</asrwt>
<pdfrwt beam="1">  1        2 0.60014724E-01 0.13089184E+04</pdfrwt>
<pdfrwt beam="2">  1       -1 0.16891984E+00 0.13089184E+04</pdfrwt>
<totfact> 0.22982689E+01</totfact>
</mgrwt>
</event>
<event>
12    6  0.1403409E-007  0.3270348E+04  0.7818608E-02  0.8170482E-01
         -1   -1    0    0    0  501 -0.00000000000E+00  0.00000000000E+00  0.12525745431E+04  0.12525745431E+04  0.00000000000E+00 0.  1.
          2   -1    0    0  501    0  0.00000000000E+00 -0.00000000000E+00 -0.21346381178E+04  0.21346381178E+04  0.00000000000E+00 0. -1.
         24    2    1    2    0    0  0.72746366314E+03 -0.13134996748E+04 -0.23845638712E+03  0.15223845404E+04  0.79425836864E+02 0.  0.
        254    2    1    2    0    0 -0.72746366314E+03  0.13134996748E+04 -0.64360718760E+03  0.18648281205E+04  0.89937140836E+03 0.  0.
         23    2    4    4    0    0 -0.43852003764E+03  0.58784468245E+03  0.14250360075E+03  0.75273641142E+03  0.91889252650E+02 0.  0.
         23    2    4    4    0    0 -0.28894362550E+03  0.72565499233E+03 -0.78611078835E+03  0.11120917091E+04  0.93349939465E+02 0.  0.
          4    1    3    3  502    0  0.40432344889E+03 -0.74870147300E+03 -0.17386748332E+03  0.86848215224E+03  0.00000000000E+00 0. -1.
         -3    1    3    3    0  502  0.32314021425E+03 -0.56479820179E+03 -0.64588903797E+02  0.65390238820E+03  0.00000000000E+00 0.  1.
         11    1    5    5    0    0 -0.94079770463E+02  0.12170200925E+03  0.68676937682E+02  0.16846039308E+03  0.00000000000E+00 0.  1.
        -11    1    5    5    0    0 -0.34444026718E+03  0.46614267320E+03  0.73826663069E+02  0.58427601835E+03  0.00000000000E+00 0. -1.
          4    1    6    6  503    0 -0.23457942199E+03  0.48788294000E+03 -0.57177453914E+03  0.78739024122E+03  0.00000000000E+00 0. -1.
         -4    1    6    6    0  503 -0.54364203507E+02  0.23777205233E+03 -0.21433624921E+03  0.32470146784E+03  0.00000000000E+00 0.  1.
<mgrwt>
<rscale>  0 0.32703476E+04</rscale>
<asrwt>0</asrwt>
<pdfrwt beam="1">  1        2 0.32840586E+00 0.32703476E+04</pdfrwt>
<pdfrwt beam="2">  1       -1 0.19270378E+00 0.32703476E+04</pdfrwt>
<totfact> 0.90493378E-01</totfact>
</mgrwt>
</event>
<event>
12    6  0.1403409E-007  0.1725765E+04  0.7818608E-02  0.8746804E-01
         -1   -1    0    0    0  501 -0.00000000000E+00  0.00000000000E+00  0.69461872435E+03  0.69461872435E+03  0.00000000000E+00 0.  1.
          2   -1    0    0  501    0  0.00000000000E+00 -0.00000000000E+00 -0.10719069227E+04  0.10719069227E+04  0.00000000000E+00 0. -1.
         24    2    1    2    0    0 -0.51140921869E+03  0.15303067757E+03  0.19569089905E+03  0.57402601800E+03  0.79076950694E+02 0.  0.
        254    2    1    2    0    0  0.51140921869E+03 -0.15303067757E+03 -0.57297909744E+03  0.11924996291E+04  0.89932893983E+03 0.  0.
         23    2    4    4    0    0  0.63114842407E+03 -0.39040212943E+03 -0.50857786038E+03  0.90440926362E+03  0.92425754937E+02 0.  0.
         23    2    4    4    0    0 -0.11973920538E+03  0.23737145186E+03 -0.64401237065E+02  0.28809036547E+03  0.90365125355E+02 0.  0.
          2    1    3    3  502    0 -0.23567922573E+03  0.87671200558E+02  0.53936435676E+02  0.25717712951E+03  0.00000000000E+00 0. -1.
         -1    1    3    3    0  502 -0.27572999296E+03  0.65359477013E+02  0.14175446337E+03  0.31684888849E+03  0.00000000000E+00 0.  1.
         11    1    5    5    0    0  0.21517748746E+03 -0.13439621031E+03 -0.12204025341E+03  0.28152711398E+03  0.00000000000E+00 0. -1.
        -11    1    5    5    0    0  0.41597093662E+03 -0.25600591911E+03 -0.38653760697E+03  0.62288214964E+03  0.00000000000E+00 0.  1.
          2    1    6    6  503    0 -0.91420176809E+02  0.81890834376E+02 -0.30124984875E+02  0.12637749877E+03  0.00000000000E+00 0. -1.
         -2    1    6    6    0  503 -0.28319028570E+02  0.15548061748E+03 -0.34276252190E+02  0.16171286670E+03  0.00000000000E+00 0.  1.
<mgrwt>
<rscale>  0 0.17257655E+04</rscale>
<asrwt>0</asrwt>
<pdfrwt beam="1">  1        2 0.16490876E+00 0.17257655E+04</pdfrwt>
<pdfrwt beam="2">  1       -1 0.10686442E+00 0.17257655E+04</pdfrwt>
<totfact> 0.20074547E+01</totfact>
</mgrwt>
</event>
<event>
12    6  0.1403409E-007  0.1292444E+04  0.7818608E-02  0.9035578E-01
         -1   -1    0    0    0  501 -0.00000000000E+00  0.00000000000E+00  0.89344256848E+03  0.89344256848E+03  0.00000000000E+00 0.  1.
          2   -1    0    0  501    0  0.00000000000E+00 -0.00000000000E+00 -0.46740894874E+03  0.46740894874E+03  0.00000000000E+00 0. -1.
         24    2    1    2    0    0 -0.61136717151E+02 -0.31711246367E+03  0.16207219709E+03  0.37057050293E+03  0.82201507136E+02 0.  0.
        254    2    1    2    0    0  0.61136717151E+02  0.31711246367E+03  0.26396142265E+03  0.99028101429E+03  0.89815524372E+03 0.  0.
         23    2    4    4    0    0 -0.15206750730E+03  0.49322948926E+03 -0.90751553204E+02  0.53176140828E+03  0.90191435720E+02 0.  0.
         23    2    4    4    0    0  0.21320422445E+03 -0.17611702558E+03  0.35471297586E+03  0.45851960601E+03  0.89138576568E+02 0.  0.
          2    1    3    3  502    0 -0.38289854441E+02 -0.72041862774E+02  0.12454029473E+02  0.82530271992E+02  0.00000000000E+00 0. -1.
         -1    1    3    3    0  502 -0.22846862711E+02 -0.24507060090E+03  0.14961816761E+03  0.28804023094E+03  0.00000000000E+00 0.  1.
         11    1    5    5    0    0 -0.57326797658E+02  0.76249681300E+02 -0.29080119245E+02  0.99729779722E+02  0.00000000000E+00 0. -1.
        -11    1    5    5    0    0 -0.94740709640E+02  0.41697980796E+03 -0.61671433960E+02  0.43203162856E+03  0.00000000000E+00 0.  1.
          4    1    6    6  503    0  0.76739223539E+02 -0.36155742744E+02  0.56410806267E+02  0.10187406552E+03  0.00000000000E+00 0. -1.
         -4    1    6    6    0  503  0.13646500091E+03 -0.13996128284E+03  0.29830216959E+03  0.35664554049E+03  0.00000000000E+00 0.  1.
<mgrwt>
<rscale>  0 0.12924443E+04</rscale>
<asrwt>0</asrwt>
<pdfrwt beam="1">  1        2 0.71909069E-01 0.12924443E+04</pdfrwt>
<pdfrwt beam="2">  1       -1 0.13745270E+00 0.12924443E+04</pdfrwt>
<totfact> 0.32847160E+01</totfact>
</mgrwt>
</event>
<event>
12    6  0.1403409E-007  0.2494398E+04  0.7818608E-02  0.8404984E-01
         -1   -1    0    0    0  501 -0.00000000000E+00  0.00000000000E+00  0.55563908139E+03  0.55563908139E+03  0.00000000000E+00 0.  1.
          2   -1    0    0  501    0  0.00000000000E+00 -0.00000000000E+00 -0.27994893670E+04  0.27994893670E+04  0.00000000000E+00 0. -1.
         24    2    1    2    0    0  0.61446369969E+03 -0.75924423317E+03 -0.16047004136E+04  0.18803109878E+04  0.80551534870E+02 0.  0.
        254    2    1    2    0    0 -0.61446369969E+03  0.75924423317E+03 -0.63914987204E+03  0.14748174606E+04  0.90141918065E+03 0.  0.
         23    2    4    4    0    0 -0.70421077669E+03  0.17566070084E+03 -0.35352457513E+03  0.81250133545E+03  0.91702208598E+02 0.  0.
         23    2    4    4    0    0  0.89747077000E+02  0.58358353233E+03 -0.28562529691E+03  0.66231612512E+03  0.91959568993E+02 0.  0.
          4    1    3    3  502    0  0.43504201553E+03 -0.52782489070E+03 -0.11914158646E+04  0.13738021812E+04  0.00000000000E+00 0. -1.
         -3    1    3    3    0  502  0.17942168416E+03 -0.23141934247E+03 -0.41328454899E+03  0.50650880668E+03  0.00000000000E+00 0.  1.
         11    1    5    5    0    0 -0.15386190525E+03  0.40344359696E+02 -0.36802240135E+02  0.16326529982E+03  0.00000000000E+00 0.  1.
        -11    1    5    5    0    0 -0.55034887144E+03  0.13531634114E+03 -0.31672233500E+03  0.64923603563E+03  0.00000000000E+00 0. -1.
          4    1    6    6  503    0  0.81326212645E+01  0.12722760357E+03 -0.10356610277E+03  0.16425267207E+03  0.00000000000E+00 0.  1.
         -4    1    6    6    0  503  0.81614455736E+02  0.45635592876E+03 -0.18205919414E+03  0.49806345306E+03  0.00000000000E+00 0. -1.
<mgrwt>
<rscale>  0 0.24943983E+04</rscale>
<asrwt>0</asrwt>
<pdfrwt beam="1">  1        2 0.43069067E+00 0.24943983E+04</pdfrwt>
<pdfrwt beam="2">  1       -1 0.85482936E-01 0.24943983E+04</pdfrwt>
<totfact> 0.31755068E+00</totfact>
</mgrwt>
</event>
<event>
12    6  0.1403409E-007  0.2919038E+04  0.7818608E-02  0.8267235E-01
         -1   -1    0    0    0  501 -0.00000000000E+00  0.00000000000E+00  0.59042359437E+03  0.59042359437E+03  0.00000000000E+00 0.  1.
          2   -1    0    0  501    0  0.00000000000E+00 -0.00000000000E+00 -0.36079116131E+04  0.36079116131E+04  0.00000000000E+00 0. -1.
         24    2    1    2    0    0 -0.89969656357E+03 -0.71013873384E+03 -0.23109851158E+04  0.25809085449E+04  0.81766643540E+02 0.  0.
        254    2    1    2    0    0  0.89969656357E+03  0.71013873384E+03 -0.70650290289E+03  0.16174266625E+04  0.89619848751E+03 0.  0.
         23    2    4    4    0    0  0.90910320135E+03  0.19890427038E+03 -0.46829523552E+03  0.10457531062E+04  0.90926299763E+02 0.  0.
         23    2    4    4    0    0 -0.94066377747E+01  0.51123446347E+03 -0.23820766737E+03  0.57167355634E+03  0.92836419360E+02 0.  0.
          2    1    3    3  502    0 -0.66521936850E+03 -0.47895799291E+03 -0.16653668169E+04  0.18561692277E+04  0.00000000000E+00 0. -1.
         -1    1    3    3    0  502 -0.23447719507E+03 -0.23118074093E+03 -0.64561829897E+03  0.72473931724E+03  0.00000000000E+00 0.  1.
         11    1    5    5    0    0  0.45654252060E+03  0.14640016170E+03 -0.23901974643E+03  0.53571869451E+03  0.00000000000E+00 0.  1.
        -11    1    5    5    0    0  0.45256068074E+03  0.52504108674E+02 -0.22927548908E+03  0.51003441166E+03  0.00000000000E+00 0. -1.
          3    1    6    6  503    0  0.80874623922E+01  0.44148253651E+03 -0.17183777327E+03  0.47381479231E+03  0.00000000000E+00 0. -1.
         -3    1    6    6    0  503 -0.17494100167E+02  0.69751926958E+02 -0.66369894107E+02  0.97858764036E+02  0.00000000000E+00 0.  1.
<mgrwt>
<rscale>  0 0.29190383E+04</rscale>
<asrwt>0</asrwt>
<pdfrwt beam="1">  1        2 0.55506334E+00 0.29190383E+04</pdfrwt>
<pdfrwt beam="2">  1       -1 0.90834397E-01 0.29190383E+04</pdfrwt>
<totfact> 0.78919958E-01</totfact>
</mgrwt>
</event>
<event>
12    6  0.1403409E-007  0.1410837E+04  0.7818608E-02  0.8946012E-01
         -1   -1    0    0    0  501 -0.00000000000E+00  0.00000000000E+00  0.36002305155E+03  0.36002305155E+03  0.00000000000E+00 0.  1.
          2   -1    0    0  501    0  0.00000000000E+00 -0.00000000000E+00 -0.13821751417E+04  0.13821751417E+04  0.00000000000E+00 0. -1.
         24    2    1    2    0    0  0.28553094135E+03  0.19786053356E+03 -0.29164860475E+02  0.35752957987E+03  0.79373183055E+02 0.  0.
        254    2    1    2    0    0 -0.28553094135E+03 -0.19786053356E+03 -0.99298722969E+03  0.13846686134E+04  0.90033705986E+03 0.  0.
         23    2    4    4    0    0 -0.27631411865E+02  0.65705430725E+01 -0.10355108396E+04  0.10402606800E+04  0.95146815579E+02 0.  0.
         23    2    4    4    0    0 -0.25789952949E+03 -0.20443107663E+03  0.42523609871E+02  0.34440793340E+03  0.92218950287E+02 0.  0.
          4    1    3    3  502    0  0.10233912247E+03  0.11869698607E+03 -0.15793671367E+02  0.15751733411E+03  0.00000000000E+00 0. -1.
         -3    1    3    3    0  502  0.18319181888E+03  0.79163547483E+02 -0.13371189107E+02  0.20001224576E+03  0.00000000000E+00 0.  1.
         11    1    5    5    0    0  0.34656869170E+02  0.40876356542E+01 -0.47894878681E+03  0.48021843752E+03  0.00000000000E+00 0. -1.
        -11    1    5    5    0    0 -0.62288281035E+02  0.24829074183E+01 -0.55656205275E+03  0.56004224247E+03  0.00000000000E+00 0.  1.
          3    1    6    6  503    0 -0.25846785072E+02  0.29292223334E+01  0.19204367052E+02  0.32333331965E+02  0.00000000000E+00 0. -1.
         -3    1    6    6    0  503 -0.23205274441E+03 -0.20736029896E+03  0.23319242819E+02  0.31207460144E+03  0.00000000000E+00 0.  1.
<mgrwt>
<rscale>  0 0.14108365E+04</rscale>
<asrwt>0</asrwt>
<pdfrwt beam="1">  1        2 0.21264233E+00 0.14108365E+04</pdfrwt>
<pdfrwt beam="2">  1       -1 0.55388163E-01 0.14108365E+04</pdfrwt>
<totfact> 0.54116797E+01</totfact>
</mgrwt>
</event>
<event>
12    6  0.1403409E-007  0.2899464E+04  0.7818608E-02  0.8273037E-01
         -1   -1    0    0    0  501 -0.00000000000E+00  0.00000000000E+00  0.10210592685E+04  0.10210592685E+04  0.00000000000E+00 0.  1.
          2   -1    0    0  501    0  0.00000000000E+00 -0.00000000000E+00 -0.20583752719E+04  0.20583752719E+04  0.00000000000E+00 0. -1.
         24    2    1    2    0    0  0.32165752625E+03 -0.12391594860E+04 -0.18220694397E+03  0.12956607580E+04  0.80979216717E+02 0.  0.
        254    2    1    2    0    0 -0.32165752625E+03  0.12391594860E+04 -0.85510905935E+03  0.17837737824E+04  0.90092042246E+03 0.  0.
         23    2    4    4    0    0 -0.52823917208E+03  0.86259661721E+03 -0.26754408886E+03  0.10501302846E+04  0.89912336501E+02 0.  0.
         23    2    4    4    0    0  0.20658164582E+03  0.37656286876E+03 -0.58756497050E+03  0.73364349780E+03  0.92328851342E+02 0.  0.
          2    1    3    3  502    0  0.18013673466E+03 -0.76487827652E+03 -0.76195071590E+02  0.78948952495E+03  0.00000000000E+00 0. -1.
         -1    1    3    3    0  502  0.14152079160E+03 -0.47428120944E+03 -0.10601187238E+03  0.50617123305E+03  0.00000000000E+00 0.  1.
         11    1    5    5    0    0 -0.42894608175E+02  0.12825410766E+03 -0.34849912760E+02  0.13965521817E+03  0.00000000000E+00 0.  1.
        -11    1    5    5    0    0 -0.48534456390E+03  0.73434250955E+03 -0.23269417610E+03  0.91047506645E+03  0.00000000000E+00 0. -1.
          4    1    6    6  503    0  0.16123757020E+03  0.33778021715E+03 -0.46173867058E+03  0.59438676722E+03  0.00000000000E+00 0. -1.
         -4    1    6    6    0  503  0.45344075625E+02  0.38782651608E+02 -0.12582629992E+03  0.13925673057E+03  0.00000000000E+00 0.  1.
<mgrwt>
<rscale>  0 0.28994642E+04</rscale>
<asrwt>0</asrwt>
<pdfrwt beam="1">  1        2 0.31667312E+00 0.28994642E+04</pdfrwt>
<pdfrwt beam="2">  1       -1 0.15708604E+00 0.28994642E+04</pdfrwt>
<totfact> 0.18717673E+00</totfact>
</mgrwt>
</event>
<event>
12    6  0.1403409E-007  0.1886457E+04  0.7818608E-02  0.8661627E-01
         -1   -1    0    0    0  501 -0.00000000000E+00  0.00000000000E+00  0.44437013827E+03  0.44437013827E+03  0.00000000000E+00 0.  1.
          2   -1    0    0  501    0  0.00000000000E+00 -0.00000000000E+00 -0.20021149595E+04  0.20021149595E+04  0.00000000000E+00 0. -1.
         24    2    1    2    0    0  0.35525490900E+03 -0.24398922869E+03  0.15176191275E+03  0.46636539996E+03  0.93424911219E+02 0.  0.
        254    2    1    2    0    0 -0.35525490900E+03  0.24398922869E+03 -0.17095067340E+04  0.19801196978E+04  0.90151203544E+03 0.  0.
         23    2    4    4    0    0 -0.50361230335E+03 -0.17756230777E+03 -0.87242858934E+03  0.10268480084E+04  0.90174628399E+02 0.  0.
         23    2    4    4    0    0  0.14835739435E+03  0.42155153646E+03 -0.83707814467E+03  0.95327168944E+03  0.91167314701E+02 0.  0.
          2    1    3    3  502    0  0.10859468394E+03 -0.10195502560E+03  0.12463140527E+02  0.14947562509E+03  0.00000000000E+00 0. -1.
         -1    1    3    3    0  502  0.24666022506E+03 -0.14203420308E+03  0.13929877222E+03  0.31688977487E+03  0.00000000000E+00 0.  1.
         11    1    5    5    0    0 -0.21027754086E+03 -0.11159669546E+03 -0.43823008051E+03  0.49871441737E+03  0.00000000000E+00 0. -1.
        -11    1    5    5    0    0 -0.29333476249E+03 -0.65965612306E+02 -0.43419850882E+03  0.52813359101E+03  0.00000000000E+00 0.  1.
          1    1    6    6  503    0  0.11723422163E+03  0.40241550136E+03 -0.78044686987E+03  0.88587776535E+03  0.00000000000E+00 0. -1.
         -1    1    6    6    0  503  0.31123172720E+02  0.19136035097E+02 -0.56631274795E+02  0.67393924090E+02  0.00000000000E+00 0.  1.
<mgrwt>
<rscale>  0 0.18864571E+04</rscale>
<asrwt>0</asrwt>
<pdfrwt beam="1">  1        2 0.30801768E+00 0.18864571E+04</pdfrwt>
<pdfrwt beam="2">  1       -1 0.68364637E-01 0.18864571E+04</pdfrwt>
<totfact> 0.15406325E+01</totfact>
</mgrwt>
</event>
<event>
12    6  0.1403409E-007  0.1788511E+04  0.7818608E-02  0.8712433E-01
          2   -1    0    0  501    0  0.00000000000E+00  0.00000000000E+00  0.12801021965E+04  0.12801021965E+04  0.00000000000E+00 0. -1.
         -1   -1    0    0    0  501 -0.00000000000E+00 -0.00000000000E+00 -0.62471048861E+03  0.62471048861E+03  0.00000000000E+00 0.  1.
         24    2    1    2    0    0  0.35777976116E+03 -0.48842104978E+03 -0.47801852803E+02  0.61259400527E+03  0.80155591211E+02 0.  0.
        254    2    1    2    0    0 -0.35777976116E+03  0.48842104978E+03  0.70319356067E+03  0.12922186798E+04  0.89932555472E+03 0.  0.
         23    2    4    4    0    0 -0.46786711727E+03  0.65929797804E+03  0.37487800294E+03  0.89579863925E+03  0.91368603632E+02 0.  0.
         23    2    4    4    0    0  0.11008735612E+03 -0.17087692826E+03  0.32831555774E+03  0.39642004057E+03  0.89663774887E+02 0.  0.
          4    1    3    3  502    0  0.26506494124E+03 -0.31240924262E+03 -0.55841636128E+02  0.41349394950E+03  0.00000000000E+00 0. -1.
         -3    1    3    3    0  502  0.92714819917E+02 -0.17601180716E+03  0.80397833245E+01  0.19910005577E+03  0.00000000000E+00 0.  1.
         11    1    5    5    0    0 -0.15238199880E+03  0.18077476560E+03  0.15058189264E+03  0.28031178325E+03  0.00000000000E+00 0. -1.
        -11    1    5    5    0    0 -0.31548511847E+03  0.47852321244E+03  0.22429611029E+03  0.61548685600E+03  0.00000000000E+00 0.  1.
          4    1    6    6  503    0  0.18166817210E+02 -0.42068212792E+02  0.20269776920E+02  0.50106203522E+02  0.00000000000E+00 0. -1.
         -4    1    6    6    0  503  0.91920538906E+02 -0.12880871547E+03  0.30804578082E+03  0.34631383705E+03  0.00000000000E+00 0.  1.
<mgrwt>
<rscale>  0 0.17885114E+04</rscale>
<asrwt>0</asrwt>
<pdfrwt beam="1">  1        2 0.19693880E+00 0.17885114E+04</pdfrwt>
<pdfrwt beam="2">  1       -1 0.96109306E-01 0.17885114E+04</pdfrwt>
<totfact> 0.19082508E+01</totfact>
</mgrwt>
</event>
<event>
12    6  0.1403409E-007  0.1659966E+04  0.7818608E-02  0.8784533E-01
         -1   -1    0    0    0  501 -0.00000000000E+00  0.00000000000E+00  0.21098215027E+03  0.21098215027E+03  0.00000000000E+00 0.  1.
          2   -1    0    0  501    0  0.00000000000E+00 -0.00000000000E+00 -0.32650699723E+04  0.32650699723E+04  0.00000000000E+00 0. -1.
         24    2    1    2    0    0 -0.73850791327E+02  0.50620216598E+03 -0.16709530410E+04  0.17494206680E+04  0.81817090195E+02 0.  0.
        254    2    1    2    0    0  0.73850791327E+02 -0.50620216598E+03 -0.13831347810E+04  0.17266314545E+04  0.89805333088E+03 0.  0.
         23    2    4    4    0    0 -0.19637985377E+03 -0.59460902275E+03 -0.53984571624E+03  0.83164702860E+03  0.89880175411E+02 0.  0.
         23    2    4    4    0    0  0.27023064509E+03  0.88406856768E+02 -0.84328906480E+03  0.89498442595E+03  0.94975270581E+02 0.  0.
          2    1    3    3  502    0 -0.45864112871E+01  0.26737963121E+03 -0.78926560039E+03  0.83333852084E+03  0.00000000000E+00 0. -1.
         -1    1    3    3    0  502 -0.69264380039E+02  0.23882253477E+03 -0.88168744062E+03  0.91608214719E+03  0.00000000000E+00 0.  1.
         11    1    5    5    0    0 -0.11347078950E+03 -0.44396792573E+03 -0.42406071394E+03  0.62434816269E+03  0.00000000000E+00 0. -1.
        -11    1    5    5    0    0 -0.82909064267E+02 -0.15064109702E+03 -0.11578500229E+03  0.20729886590E+03  0.00000000000E+00 0.  1.
          2    1    6    6  503    0  0.42250931190E+02  0.54168998505E+02 -0.21687246425E+03  0.22749304898E+03  0.00000000000E+00 0. -1.
         -2    1    6    6    0  503  0.22797971390E+03  0.34237858263E+02 -0.62641660055E+03  0.66749137697E+03  0.00000000000E+00 0.  1.
<mgrwt>
<rscale>  0 0.16599656E+04</rscale>
<asrwt>0</asrwt>
<pdfrwt beam="1">  1        2 0.50231845E+00 0.16599656E+04</pdfrwt>
<pdfrwt beam="2">  1       -1 0.32458793E-01 0.16599656E+04</pdfrwt>
<totfact> 0.11427457E+01</totfact>
</mgrwt>
</event>
<event>
12    6  0.1403409E-007  0.2081298E+04  0.7818608E-02  0.8569527E-01
          2   -1    0    0  501    0  0.00000000000E+00  0.00000000000E+00  0.27896754487E+04  0.27896754487E+04  0.00000000000E+00 0. -1.
         -1   -1    0    0    0  501 -0.00000000000E+00 -0.00000000000E+00 -0.38819954690E+03  0.38819954690E+03  0.00000000000E+00 0.  1.
         24    2    1    2    0    0 -0.10963214695E+03 -0.74988438544E+03  0.41001073903E+03  0.86490330522E+03  0.74854005105E+02 0.  0.
        254    2    1    2    0    0  0.10963214695E+03  0.74988438544E+03  0.19914651628E+04  0.23129716904E+04  0.89975482597E+03 0.  0.
         23    2    4    4    0    0  0.16945993227E+03  0.25701146161E+02  0.54848632819E+01  0.19621208759E+03  0.95351360935E+02 0.  0.
         23    2    4    4    0    0 -0.59827785328E+02  0.72418323928E+03  0.19859802995E+04  0.21167596028E+04  0.92372821418E+02 0.  0.
          4    1    3    3  502    0 -0.46433067646E+02 -0.16642991134E+03  0.68254317530E+02  0.18577835456E+03  0.00000000000E+00 0. -1.
         -3    1    3    3    0  502 -0.63199079300E+02 -0.58345447410E+03  0.34175642150E+03  0.67912495066E+03  0.00000000000E+00 0.  1.
         11    1    5    5    0    0  0.18135532255E+03  0.27107640198E+02  0.86020749639E+00  0.18337207293E+03  0.00000000000E+00 0.  1.
        -11    1    5    5    0    0 -0.11895390277E+02 -0.14064940375E+01  0.46246557855E+01  0.12840014660E+02  0.00000000000E+00 0. -1.
          1    1    6    6  503    0  0.12183621260E+02  0.39708554218E+03  0.10475408619E+04  0.11203424591E+04  0.00000000000E+00 0. -1.
         -1    1    6    6    0  503 -0.72011406588E+02  0.32709769710E+03  0.93843943764E+03  0.99641714369E+03  0.00000000000E+00 0.  1.
<mgrwt>
<rscale>  0 0.20812984E+04</rscale>
<asrwt>0</asrwt>
<pdfrwt beam="1">  1        2 0.42918083E+00 0.20812984E+04</pdfrwt>
<pdfrwt beam="2">  1       -1 0.59723009E-01 0.20812984E+04</pdfrwt>
<totfact> 0.70121982E+00</totfact>
</mgrwt>
</event>
<event>
12    6  0.1403409E-007  0.2196057E+04  0.7818608E-02  0.8520071E-01
          2   -1    0    0  501    0  0.00000000000E+00  0.00000000000E+00  0.13523308489E+04  0.13523308489E+04  0.00000000000E+00 0. -1.
         -1   -1    0    0    0  501 -0.00000000000E+00 -0.00000000000E+00 -0.89154715170E+03  0.89154715170E+03  0.00000000000E+00 0.  1.
         24    2    1    2    0    0  0.22319724458E+03 -0.45384008311E+03  0.96567444952E+03  0.10945362538E+04  0.98461350099E+02 0.  0.
        254    2    1    2    0    0 -0.22319724458E+03  0.45384008311E+03 -0.50489075230E+03  0.11493417468E+04  0.90015773515E+03 0.  0.
         23    2    4    4    0    0  0.58126422666E+02  0.24037671263E+03  0.21602174844E+03  0.34164378548E+03  0.94315615747E+02 0.  0.
         23    2    4    4    0    0 -0.28132366724E+03  0.21346337049E+03 -0.72091250073E+03  0.80769796132E+03  0.89171445652E+02 0.  0.
          2    1    3    3  502    0  0.11394089865E+03 -0.19681658346E+03  0.53382288476E+03  0.58024664428E+03  0.00000000000E+00 0. -1.
         -1    1    3    3    0  502  0.10925634593E+03 -0.25702349966E+03  0.43185156476E+03  0.51428960955E+03  0.00000000000E+00 0.  1.
         11    1    5    5    0    0  0.45521910967E+02  0.10332514948E+03  0.15330842304E+03  0.19039906372E+03  0.00000000000E+00 0. -1.
        -11    1    5    5    0    0  0.12604511699E+02  0.13705156315E+03  0.62713325400E+02  0.15124472175E+03  0.00000000000E+00 0.  1.
          3    1    6    6  503    0 -0.23898164081E+03  0.21263938073E+03 -0.66091875690E+03  0.73426244225E+03  0.00000000000E+00 0. -1.
         -3    1    6    6    0  503 -0.42342026438E+02  0.82398975708E+00 -0.59993743831E+02  0.73435519068E+02  0.00000000000E+00 0.  1.
<mgrwt>
<rscale>  0 0.21960571E+04</rscale>
<asrwt>0</asrwt>
<pdfrwt beam="1">  1        2 0.20805090E+00 0.21960571E+04</pdfrwt>
<pdfrwt beam="2">  1       -1 0.13716110E+00 0.21960571E+04</pdfrwt>
<totfact> 0.71020200E+00</totfact>
</mgrwt>
</event>
<event>
12    6  0.1403409E-007  0.1311928E+04  0.7818608E-02  0.9020159E-01
          2   -1    0    0  501    0  0.00000000000E+00  0.00000000000E+00  0.23661412777E+04  0.23661412777E+04  0.00000000000E+00 0. -1.
         -1   -1    0    0    0  501 -0.00000000000E+00 -0.00000000000E+00 -0.18185249779E+03  0.18185249779E+03  0.00000000000E+00 0.  1.
         24    2    1    2    0    0 -0.74144602463E+01 -0.17033526170E+03  0.10684537143E+02  0.18913709832E+03  0.81176394510E+02 0.  0.
        254    2    1    2    0    0  0.74144602463E+01  0.17033526170E+03  0.21736042428E+04  0.23588566772E+04  0.90032235540E+03 0.  0.
         23    2    4    4    0    0 -0.11266833633E+03  0.46019359271E+03  0.17945850018E+04  0.18584465031E+04  0.93892381647E+02 0.  0.
         23    2    4    4    0    0  0.12008279658E+03 -0.28985833101E+03  0.37901924096E+03  0.50041017408E+03  0.91197736911E+02 0.  0.
          2    1    3    3  502    0 -0.48545775235E+01 -0.86239766931E+02  0.46034864093E+02  0.97877847521E+02  0.00000000000E+00 0. -1.
         -1    1    3    3    0  502 -0.25598827228E+01 -0.84095494771E+02 -0.35350326950E+02  0.91259250796E+02  0.00000000000E+00 0.  1.
         11    1    5    5    0    0 -0.22063157098E+02  0.26297769712E+03  0.89857715096E+03  0.93652813535E+03  0.00000000000E+00 0.  1.
        -11    1    5    5    0    0 -0.90605179232E+02  0.19721589559E+03  0.89600785084E+03  0.92191836773E+03  0.00000000000E+00 0. -1.
          1    1    6    6  503    0 -0.83524986517E+00  0.54854942127E+01  0.16613958831E+02  0.17516047418E+02  0.00000000000E+00 0. -1.
         -1    1    6    6    0  503  0.12091804644E+03 -0.29534382522E+03  0.36240528213E+03  0.48289412666E+03  0.00000000000E+00 0.  1.
<mgrwt>
<rscale>  0 0.13119279E+04</rscale>
<asrwt>0</asrwt>
<pdfrwt beam="1">  1        2 0.36402171E+00 0.13119279E+04</pdfrwt>
<pdfrwt beam="2">  1       -1 0.27977309E-01 0.13119279E+04</pdfrwt>
<totfact> 0.53643441E+01</totfact>
</mgrwt>
</event>
<event>
12    6  0.1403409E-007  0.2564621E+04  0.7818608E-02  0.8380319E-01
          2   -1    0    0  501    0  0.00000000000E+00  0.00000000000E+00  0.26305739136E+04  0.26305739136E+04  0.00000000000E+00 0. -1.
         -1   -1    0    0    0  501 -0.00000000000E+00 -0.00000000000E+00 -0.62508043652E+03  0.62508043652E+03  0.00000000000E+00 0.  1.
         24    2    1    2    0    0 -0.10350355388E+04 -0.16279354220E+03  0.13943497504E+04  0.17458404123E+04  0.77118187917E+02 0.  0.
        254    2    1    2    0    0  0.10350355388E+04  0.16279354220E+03  0.61114372673E+03  0.15098139379E+04  0.89902234031E+03 0.  0.
         23    2    4    4    0    0  0.76101741908E+03  0.15262353789E+03 -0.54780664193E+02  0.78342626443E+03  0.91182970795E+02 0.  0.
         23    2    4    4    0    0  0.27401811969E+03  0.10170004312E+02  0.66592439093E+03  0.72638767345E+03  0.94838804308E+02 0.  0.
          2    1    3    3  502    0 -0.63734068351E+03 -0.13201660416E+03  0.89814234116E+03  0.11091849240E+04  0.00000000000E+00 0. -1.
         -3    1    3    3    0  502 -0.39769485525E+03 -0.30776938037E+02  0.49620740923E+03  0.63665548830E+03  0.00000000000E+00 0.  1.
         11    1    5    5    0    0  0.18537546672E+03  0.56107793233E+02 -0.48734753419E+02  0.19971786178E+03  0.00000000000E+00 0.  1.
        -11    1    5    5    0    0  0.57564195236E+03  0.96515744656E+02 -0.60459107738E+01  0.58370840264E+03  0.00000000000E+00 0. -1.
          3    1    6    6  503    0  0.16314958317E+03  0.13892986895E+01  0.50553817106E+03  0.53121423083E+03  0.00000000000E+00 0. -1.
         -3    1    6    6    0  503  0.11086853651E+03  0.87807056225E+01  0.16038621987E+03  0.19517344262E+03  0.00000000000E+00 0.  1.
<mgrwt>
<rscale>  0 0.25646211E+04</rscale>
<asrwt>0</asrwt>
<pdfrwt beam="1">  1        2 0.40470367E+00 0.25646211E+04</pdfrwt>
<pdfrwt beam="2">  1       -1 0.96166222E-01 0.25646211E+04</pdfrwt>
<totfact> 0.30677027E+00</totfact>
</mgrwt>
</event>
<event>
12    6  0.1403409E-007  0.1872438E+04  0.7818608E-02  0.8668699E-01
          2   -1    0    0  501    0  0.00000000000E+00  0.00000000000E+00  0.10712927214E+04  0.10712927214E+04  0.00000000000E+00 0. -1.
         -1   -1    0    0    0  501 -0.00000000000E+00 -0.00000000000E+00 -0.81817624484E+03  0.81817624484E+03  0.00000000000E+00 0.  1.
         24    2    1    2    0    0  0.48066462673E+03  0.52931297118E+03  0.15910060501E+03  0.73683241547E+03  0.79989381310E+02 0.  0.
        254    2    1    2    0    0 -0.48066462673E+03 -0.52931297118E+03  0.94015871512E+02  0.11526365507E+04  0.89917814095E+03 0.  0.
         23    2    4    4    0    0 -0.63209737632E+03 -0.51592348505E+03 -0.16646747316E+03  0.83776168938E+03  0.91701106821E+02 0.  0.
         23    2    4    4    0    0  0.15143274960E+03 -0.13389486129E+02  0.26048334467E+03  0.31487486136E+03  0.90462420243E+02 0.  0.
          2    1    3    3  502    0  0.96424199837E+02  0.95172358429E+02  0.62020128546E+02  0.14900302167E+03  0.00000000000E+00 0. -1.
         -1    1    3    3    0  502  0.38424042689E+03  0.43414061275E+03  0.97080476465E+02  0.58782939380E+03  0.00000000000E+00 0.  1.
         11    1    5    5    0    0 -0.40363453652E+03 -0.30421042893E+03 -0.14364052224E+03  0.52544973477E+03  0.00000000000E+00 0. -1.
        -11    1    5    5    0    0 -0.22846283980E+03 -0.21171305612E+03 -0.22826950912E+02  0.31231195461E+03  0.00000000000E+00 0.  1.
          3    1    6    6  503    0  0.61903423361E+02 -0.50392632313E+02  0.12527244851E+03  0.14854170313E+03  0.00000000000E+00 0. -1.
         -3    1    6    6    0  503  0.89529326235E+02  0.37003146184E+02  0.13521089616E+03  0.16633315822E+03  0.00000000000E+00 0.  1.
<mgrwt>
<rscale>  0 0.18724383E+04</rscale>
<asrwt>0</asrwt>
<pdfrwt beam="1">  1        2 0.16481426E+00 0.18724383E+04</pdfrwt>
<pdfrwt beam="2">  1       -1 0.12587327E+00 0.18724383E+04</pdfrwt>
<totfact> 0.13367366E+01</totfact>
</mgrwt>
</event>
<event>
12    6  0.1403409E-007  0.1380213E+04  0.7818608E-02  0.8968267E-01
          2   -1    0    0  501    0  0.00000000000E+00  0.00000000000E+00  0.18612664361E+04  0.18612664361E+04  0.00000000000E+00 0. -1.
         -1   -1    0    0    0  501 -0.00000000000E+00 -0.00000000000E+00 -0.25587241848E+03  0.25587241848E+03  0.00000000000E+00 0.  1.
         24    2    1    2    0    0  0.18212415678E+02 -0.36116873505E+03  0.67974116657E+03  0.77494292999E+03  0.87829060951E+02 0.  0.
        254    2    1    2    0    0 -0.18212415678E+02  0.36116873505E+03  0.92565285108E+03  0.13421959246E+04  0.90215417314E+03 0.  0.
         23    2    4    4    0    0  0.73419922944E+02  0.61448373918E+02 -0.16321996428E+03  0.20502933913E+03  0.78929623206E+02 0.  0.
         23    2    4    4    0    0 -0.91632338622E+02  0.29972036113E+03  0.10888728154E+04  0.11371665855E+04  0.96307085887E+02 0.  0.
          2    1    3    3  502    0  0.37779445626E+02 -0.64898998382E+02  0.12910639843E+03  0.14935738555E+03  0.00000000000E+00 0. -1.
         -1    1    3    3    0  502 -0.19567029947E+02 -0.29626973667E+03  0.55063476815E+03  0.62558554445E+03  0.00000000000E+00 0.  1.
         11    1    5    5    0    0  0.44480474663E+02  0.61807478829E+02 -0.57500851765E+02  0.95420254763E+02  0.00000000000E+00 0. -1.
        -11    1    5    5    0    0  0.28939448281E+02 -0.35910491037E+00 -0.10571911252E+03  0.10960908436E+03  0.00000000000E+00 0.  1.
          1    1    6    6  503    0 -0.19011074358E+02  0.27455828008E+02  0.25026022947E+03  0.25247856522E+03  0.00000000000E+00 0. -1.
         -1    1    6    6    0  503 -0.72621264264E+02  0.27226453312E+03  0.83861258589E+03  0.88468802029E+03  0.00000000000E+00 0.  1.
<mgrwt>
<rscale>  0 0.13802127E+04</rscale>
<asrwt>0</asrwt>
<pdfrwt beam="1">  1        2 0.28634867E+00 0.13802127E+04</pdfrwt>
<pdfrwt beam="2">  1       -1 0.39364989E-01 0.13802127E+04</pdfrwt>
<totfact> 0.55578556E+01</totfact>
</mgrwt>
</event>
<event>
12    6  0.1403409E-007  0.1806567E+04  0.7818608E-02  0.8702815E-01
          4   -1    0    0  501    0  0.00000000000E+00  0.00000000000E+00  0.30021441700E+03  0.30021441700E+03  0.00000000000E+00 0. -1.
         -3   -1    0    0    0  501 -0.00000000000E+00 -0.00000000000E+00 -0.27177943468E+04  0.27177943468E+04  0.00000000000E+00 0.  1.
         24    2    1    2    0    0  0.67083293709E+03  0.50373310251E+02 -0.80313723076E+03  0.10506648546E+04  0.79453920041E+02 0.  0.
        254    2    1    2    0    0 -0.67083293709E+03 -0.50373310251E+02 -0.16144426991E+04  0.19673439092E+04  0.90081214950E+03 0.  0.
         23    2    4    4    0    0 -0.47796297743E+02  0.36724873748E+02  0.94194913625E+02  0.14439110292E+03  0.91339511815E+02 0.  0.
         23    2    4    4    0    0 -0.62303663934E+03 -0.87098184000E+02 -0.17086376127E+04  0.18229528063E+04  0.89183489872E+02 0.  0.
          4    1    3    3  502    0  0.53657708320E+03  0.43435695061E+02 -0.59014145448E+03  0.79879193919E+03  0.00000000000E+00 0. -1.
         -3    1    3    3    0  502  0.13425585389E+03  0.69376151904E+01 -0.21299577629E+03  0.25187291542E+03  0.00000000000E+00 0.  1.
         11    1    5    5    0    0 -0.20393368389E+02 -0.29788354264E+02  0.21002607269E+02  0.41765356889E+02  0.00000000000E+00 0. -1.
        -11    1    5    5    0    0 -0.27402929354E+02  0.66513228012E+02  0.73192306356E+02  0.10262574603E+03  0.00000000000E+00 0.  1.
          1    1    6    6  503    0 -0.20213751450E+02 -0.92932691787E-01 -0.11750319195E+03  0.11922920994E+03  0.00000000000E+00 0. -1.
         -1    1    6    6    0  503 -0.60282288789E+03 -0.87005251308E+02 -0.15911344208E+04  0.17037235964E+04  0.00000000000E+00 0.  1.
<mgrwt>
<rscale>  0 0.18065670E+04</rscale>
<asrwt>0</asrwt>
<pdfrwt beam="1">  1        4 0.46186831E-01 0.18065670E+04</pdfrwt>
<pdfrwt beam="2">  1       -3 0.41812223E+00 0.18065670E+04</pdfrwt>
<totfact> 0.83250282E-02</totfact>
</mgrwt>
</event>
<event>
12    6  0.1403409E-007  0.1013851E+04  0.7818608E-02  0.9293483E-01
         -1   -1    0    0    0  501 -0.00000000000E+00  0.00000000000E+00  0.94806608926E+03  0.94806608926E+03  0.00000000000E+00 0.  1.
          2   -1    0    0  501    0  0.00000000000E+00 -0.00000000000E+00 -0.27104998572E+03  0.27104998572E+03  0.00000000000E+00 0. -1.
         24    2    1    2    0    0 -0.65748406529E+01 -0.74417420721E+02  0.84292387250E+02  0.13878100412E+03  0.81078847544E+02 0.  0.
        254    2    1    2    0    0  0.65748406529E+01  0.74417420721E+02  0.59272371629E+03  0.10803350709E+04  0.90012292518E+03 0.  0.
         23    2    4    4    0    0 -0.15856098174E+02  0.41450143483E+03  0.43174666210E+02  0.42714489812E+03  0.92335566589E+02 0.  0.
         23    2    4    4    0    0  0.22430938827E+02 -0.34008401411E+03  0.54954905008E+03  0.65319017274E+03  0.92157254993E+02 0.  0.
          2    1    3    3  502    0 -0.41525212416E+01 -0.11158170723E+02 -0.16143403939E+02  0.20058855832E+02  0.00000000000E+00 0. -1.
         -1    1    3    3    0  502 -0.24223194113E+01 -0.63259249998E+02  0.10043579119E+03  0.11872214829E+03  0.00000000000E+00 0.  1.
         11    1    5    5    0    0 -0.37411127140E+02  0.20860417334E+03 -0.13934195319E+02  0.21238986644E+03  0.00000000000E+00 0.  1.
        -11    1    5    5    0    0  0.21555028966E+02  0.20589726149E+03  0.57108861529E+02  0.21475503167E+03  0.00000000000E+00 0. -1.
          4    1    6    6  503    0 -0.20991448504E+02 -0.19211165166E+03  0.24711824269E+03  0.31371157690E+03  0.00000000000E+00 0. -1.
         -4    1    6    6    0  503  0.43422387330E+02 -0.14797236245E+03  0.30243080739E+03  0.33947859583E+03  0.00000000000E+00 0.  1.
<mgrwt>
<rscale>  0 0.10138507E+04</rscale>
<asrwt>0</asrwt>
<pdfrwt beam="1">  1        2 0.41699998E-01 0.10138507E+04</pdfrwt>
<pdfrwt beam="2">  1       -1 0.14585632E+00 0.10138507E+04</pdfrwt>
<totfact> 0.52918334E+01</totfact>
</mgrwt>
</event>
<event>
12    6  0.1403409E-007  0.1380364E+04  0.7818608E-02  0.8968156E-01
          2   -1    0    0  501    0  0.00000000000E+00  0.00000000000E+00  0.22855938680E+04  0.22855938680E+04  0.00000000000E+00 0. -1.
         -1   -1    0    0    0  501 -0.00000000000E+00 -0.00000000000E+00 -0.20841463847E+03  0.20841463847E+03  0.00000000000E+00 0.  1.
         24    2    1    2    0    0  0.23153952188E+03  0.29211193718E+03  0.38537597245E+03  0.54249850636E+03  0.82765060465E+02 0.  0.
        254    2    1    2    0    0 -0.23153952188E+03 -0.29211193718E+03  0.16918032570E+04  0.19515100001E+04  0.89847264052E+03 0.  0.
         23    2    4    4    0    0  0.23659984129E+03 -0.37606727324E+03  0.56084170600E+03  0.72134449059E+03  0.91588077888E+02 0.  0.
         23    2    4    4    0    0 -0.46813936318E+03  0.83955336060E+02  0.11309615510E+04  0.12301655095E+04  0.89611321599E+02 0.  0.
          4    1    3    3  502    0  0.21478252704E+03  0.21873590670E+03  0.30857318003E+03  0.43496475517E+03  0.00000000000E+00 0. -1.
         -3    1    3    3    0  502  0.16756994847E+02  0.73376030471E+02  0.76802792416E+02  0.10753375120E+03  0.00000000000E+00 0.  1.
         11    1    5    5    0    0  0.13539435917E+03 -0.19412837818E+03  0.22724173133E+03  0.32811014030E+03  0.00000000000E+00 0.  1.
        -11    1    5    5    0    0  0.10120548212E+03 -0.18193889506E+03  0.33359997467E+03  0.39323435029E+03  0.00000000000E+00 0. -1.
          3    1    6    6  503    0 -0.26706334663E+03  0.92657085640E+02  0.66755767424E+03  0.72494235293E+03  0.00000000000E+00 0. -1.
         -3    1    6    6    0  503 -0.20107601655E+03 -0.87017495793E+01  0.46340387679E+03  0.50522315654E+03  0.00000000000E+00 0.  1.
<mgrwt>
<rscale>  0 0.13803640E+04</rscale>
<asrwt>0</asrwt>
<pdfrwt beam="1">  1        2 0.35162981E+00 0.13803640E+04</pdfrwt>
<pdfrwt beam="2">  1       -1 0.32063792E-01 0.13803640E+04</pdfrwt>
<totfact> 0.46633212E+01</totfact>
</mgrwt>
</event>
<event>
12    6  0.1403409E-007  0.2408299E+04  0.7818608E-02  0.8436403E-01
         -1   -1    0    0    0  501 -0.00000000000E+00  0.00000000000E+00  0.91506422962E+03  0.91506422962E+03  0.00000000000E+00 0.  1.
          2   -1    0    0  501    0  0.00000000000E+00 -0.00000000000E+00 -0.15845619242E+04  0.15845619242E+04  0.00000000000E+00 0. -1.
         24    2    1    2    0    0 -0.34464655581E+03  0.76475635465E+03 -0.91682828109E+03  0.12450470801E+04  0.77036383047E+02 0.  0.
        254    2    1    2    0    0  0.34464655581E+03 -0.76475635465E+03  0.24733058646E+03  0.12545790737E+04  0.89953471464E+03 0.  0.
         23    2    4    4    0    0  0.47641959512E+03 -0.22624515695E+03  0.40470146519E+03  0.67095876585E+03  0.90773828202E+02 0.  0.
         23    2    4    4    0    0 -0.13177303932E+03 -0.53851119770E+03 -0.15737087873E+03  0.58362030788E+03  0.92133741667E+02 0.  0.
          2    1    3    3  502    0 -0.34158761079E+03  0.71393300880E+03 -0.86155127333E+03  0.11698944540E+04  0.00000000000E+00 0. -1.
         -1    1    3    3    0  502 -0.30589450148E+01  0.50823345847E+02 -0.55277007761E+02  0.75152626133E+02  0.00000000000E+00 0.  1.
         11    1    5    5    0    0  0.42436309707E+02 -0.89390950453E+00  0.12924924108E+02  0.44369957392E+02  0.00000000000E+00 0.  1.
        -11    1    5    5    0    0  0.43398328542E+03 -0.22535124744E+03  0.39177654108E+03  0.62658880846E+03  0.00000000000E+00 0. -1.
          4    1    6    6  503    0 -0.10127511739E+03 -0.24387548137E+03 -0.97006272357E+02  0.28132208710E+03  0.00000000000E+00 0. -1.
         -4    1    6    6    0  503 -0.30497921928E+02 -0.29463571633E+03 -0.60364606371E+02  0.30229822077E+03  0.00000000000E+00 0.  1.
<mgrwt>
<rscale>  0 0.24082989E+04</rscale>
<asrwt>0</asrwt>
<pdfrwt beam="1">  1        2 0.24377876E+00 0.24082989E+04</pdfrwt>
<pdfrwt beam="2">  1       -1 0.14077911E+00 0.24082989E+04</pdfrwt>
<totfact> 0.48097052E+00</totfact>
</mgrwt>
</event>
<event>
12    6  0.1403409E-007  0.2791742E+04  0.7818608E-02  0.8305837E-01
          2   -1    0    0  501    0  0.00000000000E+00  0.00000000000E+00  0.98344805372E+03  0.98344805372E+03  0.00000000000E+00 0. -1.
         -1   -1    0    0    0  501 -0.00000000000E+00 -0.00000000000E+00 -0.19812489692E+04  0.19812489692E+04  0.00000000000E+00 0.  1.
         24    2    1    2    0    0 -0.10494025244E+04  0.17864073266E+03 -0.11432629974E+04  0.15641877182E+04  0.80465935602E+02 0.  0.
        254    2    1    2    0    0  0.10494025244E+04 -0.17864073266E+03  0.14546208194E+03  0.14005093048E+04  0.89839241200E+03 0.  0.
         23    2    4    4    0    0  0.74234267856E+03 -0.22066751824E+03  0.49587458184E+03  0.92420154536E+03  0.92141681742E+02 0.  0.
         23    2    4    4    0    0  0.30705984583E+03  0.42026785579E+02 -0.35041249991E+03  0.47630775942E+03  0.89600010967E+02 0.  0.
          4    1    3    3  502    0 -0.48253099856E+03  0.10053455315E+03 -0.47680503215E+03  0.68577430663E+03  0.00000000000E+00 0. -1.
         -3    1    3    3    0  502 -0.56687152583E+03  0.78106179514E+02 -0.66645796529E+03  0.87841341154E+03  0.00000000000E+00 0.  1.
         11    1    5    5    0    0  0.45558282272E+03 -0.15898685853E+03  0.35347195962E+03  0.59814292254E+03  0.00000000000E+00 0. -1.
        -11    1    5    5    0    0  0.28675985583E+03 -0.61680659709E+02  0.14240262223E+03  0.32605862282E+03  0.00000000000E+00 0.  1.
          2    1    6    6  503    0  0.27162580414E+03  0.34721849474E+02 -0.34380252966E+03  0.43952970743E+03  0.00000000000E+00 0. -1.
         -2    1    6    6    0  503  0.35434041689E+02  0.73049361043E+01 -0.66099702434E+01  0.36778051995E+02  0.00000000000E+00 0.  1.
<mgrwt>
<rscale>  0 0.27917417E+04</rscale>
<asrwt>0</asrwt>
<pdfrwt beam="1">  1        2 0.15129970E+00 0.27917417E+04</pdfrwt>
<pdfrwt beam="2">  1       -1 0.30480753E+00 0.27917417E+04</pdfrwt>
<totfact> 0.78748542E-01</totfact>
</mgrwt>
</event>
<event>
12    6  0.1403409E-007  0.1710745E+04  0.7818608E-02  0.8755260E-01
         -1   -1    0    0    0  501 -0.00000000000E+00  0.00000000000E+00  0.29090200302E+03  0.29090200302E+03  0.00000000000E+00 0.  1.
          2   -1    0    0  501    0  0.00000000000E+00 -0.00000000000E+00 -0.25151494971E+04  0.25151494971E+04  0.00000000000E+00 0. -1.
         24    2    1    2    0    0  0.50076081612E+03  0.35697987667E+03 -0.74864336055E+03  0.97202566952E+03  0.78555672010E+02 0.  0.
        254    2    1    2    0    0 -0.50076081612E+03 -0.35697987667E+03 -0.14756041336E+04  0.18340258306E+04  0.89891443480E+03 0.  0.
         23    2    4    4    0    0 -0.64362352370E+03 -0.72363735770E+02 -0.56529229150E+03  0.86511562196E+03  0.96860280869E+02 0.  0.
         23    2    4    4    0    0  0.14286270758E+03 -0.28461614090E+03 -0.91031184206E+03  0.96891020867E+03  0.93291166652E+02 0.  0.
          2    1    3    3  502    0  0.15700580875E+03  0.14664434658E+03 -0.29951380941E+03  0.36859721973E+03  0.00000000000E+00 0. -1.
         -1    1    3    3    0  502  0.34375500738E+03  0.21033553009E+03 -0.44912955113E+03  0.60342844979E+03  0.00000000000E+00 0.  1.
         11    1    5    5    0    0 -0.50233477809E+03 -0.95712648435E+02 -0.45238134668E+03  0.68275180203E+03  0.00000000000E+00 0. -1.
        -11    1    5    5    0    0 -0.14128874562E+03  0.23348912665E+02 -0.11291094482E+03  0.18236381993E+03  0.00000000000E+00 0.  1.
          1    1    6    6  503    0  0.11355179474E+03 -0.18309626259E+03 -0.48556598868E+03  0.53121801629E+03  0.00000000000E+00 0. -1.
         -1    1    6    6    0  503  0.29310912843E+02 -0.10151987831E+03 -0.42474585338E+03  0.43769219238E+03  0.00000000000E+00 0.  1.
<mgrwt>
<rscale>  0 0.17107449E+04</rscale>
<asrwt>0</asrwt>
<pdfrwt beam="1">  1        2 0.38694608E+00 0.17107449E+04</pdfrwt>
<pdfrwt beam="2">  1       -1 0.44754153E-01 0.17107449E+04</pdfrwt>
<totfact> 0.18303291E+01</totfact>
</mgrwt>
</event>
<event>
12    6  0.1403409E-007  0.2350145E+04  0.7818608E-02  0.8458408E-01
         -1   -1    0    0    0  501 -0.00000000000E+00  0.00000000000E+00  0.39680486619E+03  0.39680486619E+03  0.00000000000E+00 0.  1.
          2   -1    0    0  501    0  0.00000000000E+00 -0.00000000000E+00 -0.34797849897E+04  0.34797849897E+04  0.00000000000E+00 0. -1.
         24    2    1    2    0    0  0.41433724435E+03 -0.90768734484E+03 -0.11798841703E+04  0.15473598611E+04  0.81389289956E+02 0.  0.
        254    2    1    2    0    0 -0.41433724435E+03  0.90768734484E+03 -0.19030959532E+04  0.23292299947E+04  0.89886956407E+03 0.  0.
         23    2    4    4    0    0 -0.22175852028E+03  0.48523879509E+02 -0.16122287137E+02  0.24453858099E+03  0.89486207029E+02 0.  0.
         23    2    4    4    0    0 -0.19257872407E+03  0.85916346533E+03 -0.18869736661E+04  0.20846914137E+04  0.10010119373E+03 0.  0.
          4    1    3    3  502    0  0.31483413202E+03 -0.75170364505E+03 -0.98903346231E+03  0.12815483176E+04  0.00000000000E+00 0. -1.
         -3    1    3    3    0  502  0.99503112337E+02 -0.15598369980E+03 -0.19085070799E+03  0.26581154360E+03  0.00000000000E+00 0.  1.
         11    1    5    5    0    0 -0.10614673935E+03 -0.21448925199E+02 -0.15524582635E+02  0.10939926569E+03  0.00000000000E+00 0. -1.
        -11    1    5    5    0    0 -0.11561178093E+03  0.69972804709E+02 -0.59770450200E+00  0.13513931530E+03  0.00000000000E+00 0.  1.
          2    1    6    6  503    0 -0.10069619109E+03  0.43471321316E+03 -0.83862371752E+03  0.94995001984E+03  0.00000000000E+00 0. -1.
         -2    1    6    6    0  503 -0.91882532976E+02  0.42445025217E+03 -0.10483499485E+04  0.11347413939E+04  0.00000000000E+00 0.  1.
<mgrwt>
<rscale>  0 0.23501452E+04</rscale>
<asrwt>0</asrwt>
<pdfrwt beam="1">  1        2 0.53535152E+00 0.23501452E+04</pdfrwt>
<pdfrwt beam="2">  1       -1 0.61046905E-01 0.23501452E+04</pdfrwt>
<totfact> 0.23527763E+00</totfact>
</mgrwt>
</event>
<event>
12    6  0.1403409E-007  0.3403474E+04  0.7818608E-02  0.8137054E-01
          2   -1    0    0  501    0  0.00000000000E+00  0.00000000000E+00  0.30601503855E+04  0.30601503855E+04  0.00000000000E+00 0. -1.
         -1   -1    0    0    0  501 -0.00000000000E+00 -0.00000000000E+00 -0.94632867954E+03  0.94632867954E+03  0.00000000000E+00 0.  1.
         24    2    1    2    0    0  0.15408283358E+04 -0.25533740278E+03  0.69756371292E+03  0.17123666806E+04  0.79090868369E+02 0.  0.
        254    2    1    2    0    0 -0.15408283358E+04  0.25533740278E+03  0.14162579930E+04  0.22941123844E+04  0.90433167580E+03 0.  0.
         23    2    4    4    0    0 -0.57042563411E+03 -0.31995364633E+03  0.65533778974E+03  0.93032399936E+03  0.90991127521E+02 0.  0.
         23    2    4    4    0    0 -0.97040270171E+03  0.57529104910E+03  0.76092020328E+03  0.13637883851E+04  0.90983563352E+02 0.  0.
          4    1    3    3  502    0  0.14285533279E+04 -0.24050582710E+03  0.66840654167E+03  0.15954231315E+04  0.00000000000E+00 0. -1.
         -3    1    3    3    0  502  0.11227500792E+03 -0.14831575681E+02  0.29157171252E+02  0.11694354910E+03  0.00000000000E+00 0.  1.
         11    1    5    5    0    0 -0.38475501475E+03 -0.23410177002E+03  0.50372024756E+03  0.67570270675E+03  0.00000000000E+00 0.  1.
        -11    1    5    5    0    0 -0.18567061936E+03 -0.85851876301E+02  0.15161754218E+03  0.25462129262E+03  0.00000000000E+00 0. -1.
          4    1    6    6  503    0 -0.14961670230E+03  0.12190100113E+03  0.15302916637E+03  0.24629847227E+03  0.00000000000E+00 0. -1.
         -4    1    6    6    0  503 -0.82078599941E+03  0.45339004797E+03  0.60789103691E+03  0.11174899128E+04  0.00000000000E+00 0.  1.
<mgrwt>
<rscale>  0 0.34034736E+04</rscale>
<asrwt>0</asrwt>
<pdfrwt beam="1">  1        2 0.47079236E+00 0.34034736E+04</pdfrwt>
<pdfrwt beam="2">  1       -1 0.14558903E+00 0.34034736E+04</pdfrwt>
<totfact> 0.56672021E-01</totfact>
</mgrwt>
</event>
<event>
12    6  0.1403409E-007  0.1671352E+04  0.7818608E-02  0.8777874E-01
         -1   -1    0    0    0  501 -0.00000000000E+00  0.00000000000E+00  0.46674863225E+03  0.46674863225E+03  0.00000000000E+00 0.  1.
          2   -1    0    0  501    0  0.00000000000E+00 -0.00000000000E+00 -0.14962107074E+04  0.14962107074E+04  0.00000000000E+00 0. -1.
         24    2    1    2    0    0  0.12490303455E+03 -0.53915031134E+03 -0.12800235795E+03  0.57382542062E+03  0.81284583081E+02 0.  0.
        254    2    1    2    0    0 -0.12490303455E+03  0.53915031134E+03 -0.90145971722E+03  0.13891339191E+04  0.90043300530E+03 0.  0.
         23    2    4    4    0    0 -0.33733350392E+02  0.75349216910E+03 -0.47772864956E+03  0.89722378926E+03  0.88867753267E+02 0.  0.
         23    2    4    4    0    0 -0.91169684158E+02 -0.21434185776E+03 -0.42373106766E+03  0.49191012980E+03  0.90405833886E+02 0.  0.
          2    1    3    3  502    0  0.45032623642E+02 -0.35159222280E+03 -0.98091979843E+02  0.36778671107E+03  0.00000000000E+00 0. -1.
         -1    1    3    3    0  502  0.79870410908E+02 -0.18755808854E+03 -0.29910378105E+02  0.20603870955E+03  0.00000000000E+00 0.  1.
         11    1    5    5    0    0 -0.31990452434E+02  0.85745562378E+02 -0.64324534054E+02  0.11186302426E+03  0.00000000000E+00 0. -1.
        -11    1    5    5    0    0 -0.17428979576E+01  0.66774660672E+03 -0.41340411551E+03  0.78536076500E+03  0.00000000000E+00 0.  1.
          4    1    6    6  503    0  0.12476618958E+02 -0.75097191934E+02 -0.13695702853E+03  0.15669231608E+03  0.00000000000E+00 0. -1.
         -4    1    6    6    0  503 -0.10364630312E+03 -0.13924466583E+03 -0.28677403914E+03  0.33521781372E+03  0.00000000000E+00 0.  1.
<mgrwt>
<rscale>  0 0.16713519E+04</rscale>
<asrwt>0</asrwt>
<pdfrwt beam="1">  1        2 0.23018626E+00 0.16713519E+04</pdfrwt>
<pdfrwt beam="2">  1       -1 0.71807482E-01 0.16713519E+04</pdfrwt>
<totfact> 0.27135919E+01</totfact>
</mgrwt>
</event>
<event>
12    6  0.1403409E-007  0.1882916E+04  0.7818608E-02  0.8663407E-01
          2   -1    0    0  501    0  0.00000000000E+00  0.00000000000E+00  0.46490184083E+04  0.46490184083E+04  0.00000000000E+00 0. -1.
         -1   -1    0    0    0  501 -0.00000000000E+00 -0.00000000000E+00 -0.19065166505E+03  0.19065166505E+03  0.00000000000E+00 0.  1.
         24    2    1    2    0    0  0.38504839597E+03 -0.59753637939E+03  0.13848404286E+04  0.15586260669E+04  0.78868319510E+02 0.  0.
        254    2    1    2    0    0 -0.38504839597E+03  0.59753637939E+03  0.30735263147E+04  0.32810440064E+04  0.90187237089E+03 0.  0.
         23    2    4    4    0    0  0.90419312352E+01  0.45937486974E+02  0.20338380950E+04  0.20363514335E+04  0.89653525394E+02 0.  0.
         23    2    4    4    0    0 -0.39409032720E+03  0.55159889241E+03  0.10396882196E+04  0.12446925730E+04  0.93485202241E+02 0.  0.
          2    1    3    3  502    0  0.31516640966E+03 -0.51473982961E+03  0.11156246625E+04  0.12684263264E+04  0.00000000000E+00 0. -1.
         -1    1    3    3    0  502  0.69881986309E+02 -0.82796549778E+02  0.26921576603E+03  0.29019974043E+03  0.00000000000E+00 0.  1.
         11    1    5    5    0    0 -0.31707819441E+01 -0.26937353963E+02  0.50191097164E+03  0.50264331125E+03  0.00000000000E+00 0.  1.
        -11    1    5    5    0    0  0.12212713179E+02  0.72874840937E+02  0.15319271234E+04  0.15337081222E+04  0.00000000000E+00 0. -1.
          3    1    6    6  503    0 -0.24856602351E+03  0.26807077447E+03  0.54728625971E+03  0.65815595283E+03  0.00000000000E+00 0. -1.
         -3    1    6    6    0  503 -0.14552430369E+03  0.28352811794E+03  0.49240195992E+03  0.58653662013E+03  0.00000000000E+00 0.  1.
<mgrwt>
<rscale>  0 0.18829159E+04</rscale>
<asrwt>0</asrwt>
<pdfrwt beam="1">  1        2 0.71523352E+00 0.18829159E+04</pdfrwt>
<pdfrwt beam="2">  1       -1 0.29331029E-01 0.18829159E+04</pdfrwt>
<totfact> 0.10076977E+00</totfact>
</mgrwt>
</event>
<event>
12    6  0.1403409E-007  0.2227365E+04  0.7818608E-02  0.8507124E-01
         -1   -1    0    0    0  501 -0.00000000000E+00  0.00000000000E+00  0.64597821793E+03  0.64597821793E+03  0.00000000000E+00 0.  1.
          2   -1    0    0  501    0  0.00000000000E+00 -0.00000000000E+00 -0.19200156450E+04  0.19200156450E+04  0.00000000000E+00 0. -1.
         24    2    1    2    0    0  0.65701178727E+03 -0.37853810157E+03  0.85979025381E+02  0.76727721375E+03  0.79789391416E+02 0.  0.
        254    2    1    2    0    0 -0.65701178727E+03  0.37853810157E+03 -0.13600164525E+04  0.17987166492E+04  0.90043392326E+03 0.  0.
         23    2    4    4    0    0 -0.27917629988E+03 -0.16781375447E+03 -0.95888007060E+03  0.10173305916E+04  0.97003506563E+02 0.  0.
         23    2    4    4    0    0 -0.37783548740E+03  0.54635185604E+03 -0.40113638187E+03  0.78138605756E+03  0.91617509004E+02 0.  0.
          4    1    3    3  502    0  0.47246341615E+03 -0.23867492641E+03  0.37179129439E+02  0.53063140481E+03  0.00000000000E+00 0. -1.
         -3    1    3    3    0  502  0.18454837112E+03 -0.13986317515E+03  0.48799895942E+02  0.23664580895E+03  0.00000000000E+00 0.  1.
         11    1    5    5    0    0 -0.28398106275E+03 -0.15941026845E+03 -0.88878888226E+03  0.94657411485E+03  0.00000000000E+00 0.  1.
        -11    1    5    5    0    0  0.48047628729E+01 -0.84034860268E+01 -0.70091188343E+02  0.70756476785E+02  0.00000000000E+00 0. -1.
          3    1    6    6  503    0 -0.39497447135E+02  0.40760844680E+02 -0.65190846130E+02  0.86436920401E+02  0.00000000000E+00 0. -1.
         -3    1    6    6    0  503 -0.33833804026E+03  0.50559101136E+03 -0.33594553574E+03  0.69494913716E+03  0.00000000000E+00 0.  1.
<mgrwt>
<rscale>  0 0.22273646E+04</rscale>
<asrwt>0</asrwt>
<pdfrwt beam="1">  1        2 0.29538702E+00 0.22273646E+04</pdfrwt>
<pdfrwt beam="2">  1       -1 0.99381264E-01 0.22273646E+04</pdfrwt>
<totfact> 0.74279328E+00</totfact>
</mgrwt>
</event>
<event>
12    6  0.1403409E-007  0.1625389E+04  0.7818608E-02  0.8805100E-01
          2   -1    0    0  501    0  0.00000000000E+00  0.00000000000E+00  0.39414793811E+04  0.39414793811E+04  0.00000000000E+00 0. -1.
         -1   -1    0    0    0  501 -0.00000000000E+00 -0.00000000000E+00 -0.16756972278E+03  0.16756972278E+03  0.00000000000E+00 0.  1.
         24    2    1    2    0    0 -0.42775786278E+03  0.18450560086E+03  0.20884771239E+04  0.21413097598E+04  0.80322379388E+02 0.  0.
        254    2    1    2    0    0  0.42775786278E+03 -0.18450560086E+03  0.16854325344E+04  0.19677393440E+04  0.90238361690E+03 0.  0.
         23    2    4    4    0    0  0.62786557078E+03 -0.13866050425E+03  0.16011967231E+04  0.17279004457E+04  0.91471819943E+02 0.  0.
         23    2    4    4    0    0 -0.20010770800E+03 -0.45845096617E+02  0.84235811358E+02  0.23983889835E+03  0.91006360002E+02 0.  0.
          2    1    3    3  502    0 -0.30955242116E+03  0.17066432040E+03  0.15910794495E+04  0.16298720276E+04  0.00000000000E+00 0. -1.
         -1    1    3    3    0  502 -0.11820544163E+03  0.13841280468E+02  0.49739767438E+03  0.51143773223E+03  0.00000000000E+00 0.  1.
         11    1    5    5    0    0  0.83910631944E+02 -0.51668368429E+01  0.29354299471E+03  0.30534436313E+03  0.00000000000E+00 0. -1.
        -11    1    5    5    0    0  0.54395493884E+03 -0.13349366740E+03  0.13076537284E+04  0.14225560826E+04  0.00000000000E+00 0.  1.
          1    1    6    6  503    0  0.28895099181E+01  0.96603329253E+01  0.15420733796E+02  0.18424720638E+02  0.00000000000E+00 0. -1.
         -1    1    6    6    0  503 -0.20299721792E+03 -0.55505429542E+02  0.68815077562E+02  0.22141417771E+03  0.00000000000E+00 0.  1.
<mgrwt>
<rscale>  0 0.16253893E+04</rscale>
<asrwt>0</asrwt>
<pdfrwt beam="1">  1        2 0.60638137E+00 0.16253893E+04</pdfrwt>
<pdfrwt beam="2">  1       -1 0.25779960E-01 0.16253893E+04</pdfrwt>
<totfact> 0.56212615E+00</totfact>
</mgrwt>
</event>
<event>
12    6  0.1403409E-007  0.2166988E+04  0.7818608E-02  0.8532295E-01
         -1   -1    0    0    0  501 -0.00000000000E+00  0.00000000000E+00  0.93851984289E+03  0.93851984289E+03  0.00000000000E+00 0.  1.
          2   -1    0    0  501    0  0.00000000000E+00 -0.00000000000E+00 -0.12508622308E+04  0.12508622308E+04  0.00000000000E+00 0. -1.
         24    2    1    2    0    0 -0.10853708761E+03  0.72118713945E+03  0.39277020291E+03  0.83203892130E+03  0.78288854708E+02 0.  0.
        254    2    1    2    0    0  0.10853708761E+03 -0.72118713945E+03 -0.70511259086E+03  0.13573431524E+04  0.90183450710E+03 0.  0.
         23    2    4    4    0    0 -0.19096905413E+02  0.15942766720E+03 -0.34728918923E+03  0.39347554412E+03  0.91822382902E+02 0.  0.
         23    2    4    4    0    0  0.12763399302E+03 -0.88061480665E+03 -0.35782340163E+03  0.96386760832E+03  0.96074480179E+02 0.  0.
          2    1    3    3  502    0 -0.15746729238E+02  0.16933067636E+02  0.13814815623E+02  0.26935801305E+02  0.00000000000E+00 0. -1.
         -1    1    3    3    0  502 -0.92790358368E+02  0.70425407182E+03  0.37895538728E+03  0.80510312000E+03  0.00000000000E+00 0.  1.
         11    1    5    5    0    0 -0.42428274700E+02  0.42530804657E+02 -0.73961113159E+02  0.95285224974E+02  0.00000000000E+00 0. -1.
        -11    1    5    5    0    0  0.23331369286E+02  0.11689686254E+03 -0.27332807607E+03  0.29819031915E+03  0.00000000000E+00 0.  1.
          3    1    6    6  503    0  0.33490498777E+02 -0.12792697013E+03 -0.20994613324E+02  0.13389435008E+03  0.00000000000E+00 0. -1.
         -3    1    6    6    0  503  0.94143494243E+02 -0.75268783652E+03 -0.33682878831E+03  0.82997325824E+03  0.00000000000E+00 0.  1.
<mgrwt>
<rscale>  0 0.21669878E+04</rscale>
<asrwt>0</asrwt>
<pdfrwt beam="1">  1        2 0.19244034E+00 0.21669878E+04</pdfrwt>
<pdfrwt beam="2">  1       -1 0.14438767E+00 0.21669878E+04</pdfrwt>
<totfact> 0.71323508E+00</totfact>
</mgrwt>
</event>
<event>
12    6  0.1403409E-007  0.2233902E+04  0.7818608E-02  0.8504448E-01
         -1   -1    0    0    0  501 -0.00000000000E+00  0.00000000000E+00  0.68090445220E+03  0.68090445220E+03  0.00000000000E+00 0.  1.
          2   -1    0    0  501    0  0.00000000000E+00 -0.00000000000E+00 -0.18322389622E+04  0.18322389622E+04  0.00000000000E+00 0. -1.
         24    2    1    2    0    0  0.83911189505E+03 -0.11648249103E+03 -0.92199090274E+03  0.12548595525E+04  0.83236582908E+02 0.  0.
        254    2    1    2    0    0 -0.83911189505E+03  0.11648249103E+03 -0.22934360729E+03  0.12582838619E+04  0.90166670325E+03 0.  0.
         23    2    4    4    0    0 -0.24731641792E+03 -0.28294370067E+03  0.18220245905E+03  0.42917324289E+03  0.98840214493E+02 0.  0.
         23    2    4    4    0    0 -0.59179547713E+03  0.39942619171E+03 -0.41154606634E+03  0.82911061900E+03  0.91055392191E+02 0.  0.
          4    1    3    3  502    0  0.62010273875E+03 -0.65670624373E+02 -0.72146856928E+03  0.95360208367E+03  0.00000000000E+00 0. -1.
         -3    1    3    3    0  502  0.21900915630E+03 -0.50811866660E+02 -0.20052233346E+03  0.30125746887E+03  0.00000000000E+00 0.  1.
         11    1    5    5    0    0 -0.25669193542E+03 -0.27225574993E+03  0.17303104922E+03  0.41225439606E+03  0.00000000000E+00 0.  1.
        -11    1    5    5    0    0  0.93755175003E+01 -0.10687950747E+02  0.91714098289E+01  0.16918846823E+02  0.00000000000E+00 0. -1.
          2    1    6    6  503    0 -0.30018970924E+03  0.15555875778E+03 -0.16689660732E+03  0.37705021707E+03  0.00000000000E+00 0. -1.
         -2    1    6    6    0  503 -0.29160576788E+03  0.24386743393E+03 -0.24464945902E+03  0.45206040193E+03  0.00000000000E+00 0.  1.
<mgrwt>
<rscale>  0 0.22339021E+04</rscale>
<asrwt>0</asrwt>
<pdfrwt beam="1">  1        2 0.28188292E+00 0.22339021E+04</pdfrwt>
<pdfrwt beam="2">  1       -1 0.10475453E+00 0.22339021E+04</pdfrwt>
<totfact> 0.73552283E+00</totfact>
</mgrwt>
</event>
<event>
12    6  0.1403409E-007  0.2746798E+04  0.7818608E-02  0.8319979E-01
          2   -1    0    0  501    0  0.00000000000E+00  0.00000000000E+00  0.12258872720E+04  0.12258872720E+04  0.00000000000E+00 0. -1.
         -1   -1    0    0    0  501 -0.00000000000E+00 -0.00000000000E+00 -0.15386603428E+04  0.15386603428E+04  0.00000000000E+00 0.  1.
         24    2    1    2    0    0  0.90991323939E+03 -0.78060218415E+03  0.11090994464E+03  0.12066565282E+04  0.80231465193E+02 0.  0.
        254    2    1    2    0    0 -0.90991323939E+03  0.78060218415E+03 -0.42368301545E+03  0.15578910866E+04  0.90013080545E+03 0.  0.
         23    2    4    4    0    0 -0.35464395369E+03  0.48931515480E+03 -0.64354389446E+03  0.88763869089E+03  0.92477277556E+02 0.  0.
         23    2    4    4    0    0 -0.55526928570E+03  0.29128702935E+03  0.21986087901E+03  0.67025239568E+03  0.87905373496E+02 0.  0.
          4    1    3    3  502    0  0.35993445789E+03 -0.27108031172E+03  0.68051468878E+02  0.45570643159E+03  0.00000000000E+00 0. -1.
         -3    1    3    3    0  502  0.54997878150E+03 -0.50952187243E+03  0.42858475761E+02  0.75095009657E+03  0.00000000000E+00 0.  1.
         11    1    5    5    0    0 -0.27816839194E+03  0.36704916432E+03 -0.43083814442E+03  0.63065382739E+03  0.00000000000E+00 0. -1.
        -11    1    5    5    0    0 -0.76475561748E+02  0.12226599047E+03 -0.21270575004E+03  0.25698486351E+03  0.00000000000E+00 0.  1.
          4    1    6    6  503    0 -0.35342861310E+03  0.14423495099E+03  0.10870374318E+03  0.39690302270E+03  0.00000000000E+00 0. -1.
         -4    1    6    6    0  503 -0.20184067260E+03  0.14705207836E+03  0.11115713583E+03  0.27334937298E+03  0.00000000000E+00 0.  1.
<mgrwt>
<rscale>  0 0.27467975E+04</rscale>
<asrwt>0</asrwt>
<pdfrwt beam="1">  1        2 0.18859804E+00 0.27467975E+04</pdfrwt>
<pdfrwt beam="2">  1       -1 0.23671697E+00 0.27467975E+04</pdfrwt>
<totfact> 0.15510021E+00</totfact>
</mgrwt>
</event>
<event>
12    6  0.1403409E-007  0.5843888E+04  0.7818608E-02  0.7710065E-01
         -1   -1    0    0    0  501 -0.00000000000E+00  0.00000000000E+00  0.44179573827E+04  0.44179573827E+04  0.00000000000E+00 0.  1.
          2   -1    0    0  501    0  0.00000000000E+00 -0.00000000000E+00 -0.19325121682E+04  0.19325121682E+04  0.00000000000E+00 0. -1.
         24    2    1    2    0    0  0.22552915578E+04 -0.17239969879E+04  0.92449332612E+03  0.29865633439E+04  0.79793934525E+02 0.  0.
        254    2    1    2    0    0 -0.22552915578E+04  0.17239969879E+04  0.15609518884E+04  0.33639062070E+04  0.90597381093E+03 0.  0.
         23    2    4    4    0    0 -0.13897214828E+04  0.15638047188E+04  0.11512447140E+04  0.23896753544E+04  0.91503603699E+02 0.  0.
         23    2    4    4    0    0 -0.86557007500E+03  0.16019226915E+03  0.40970717446E+03  0.97423085261E+03  0.79954158927E+02 0.  0.
          2    1    3    3  502    0  0.53323856471E+03 -0.36668767989E+03  0.21900169994E+03  0.68320199506E+03  0.00000000000E+00 0. -1.
         -1    1    3    3    0  502  0.17220529931E+04 -0.13573093080E+04  0.70549162618E+03  0.23033613489E+04  0.00000000000E+00 0.  1.
         11    1    5    5    0    0 -0.12188669539E+04  0.13583834211E+04  0.97004743551E+03  0.20668415994E+04  0.00000000000E+00 0. -1.
        -11    1    5    5    0    0 -0.17085452890E+03  0.20542129768E+03  0.18119727847E+03  0.32283375491E+03  0.00000000000E+00 0.  1.
          2    1    6    6  503    0 -0.39749565810E+02  0.12874214184E+02  0.27569816878E+01  0.41873312753E+02  0.00000000000E+00 0.  1.
         -2    1    6    6    0  503 -0.82582050919E+03  0.14731805497E+03  0.40695019277E+03  0.93235753985E+03  0.00000000000E+00 0. -1.
<mgrwt>
<rscale>  0 0.58438879E+04</rscale>
<asrwt>0</asrwt>
<pdfrwt beam="1">  1        2 0.29730957E+00 0.58438879E+04</pdfrwt>
<pdfrwt beam="2">  1       -1 0.67968575E+00 0.58438879E+04</pdfrwt>
<totfact> 0.13516932E-03</totfact>
</mgrwt>
</event>
<event>
12    6  0.1403409E-007  0.3063646E+04  0.7818608E-02  0.8225786E-01
          2   -1    0    0  501    0  0.00000000000E+00  0.00000000000E+00  0.23217914608E+04  0.23217914608E+04  0.00000000000E+00 0. -1.
         -1   -1    0    0    0  501 -0.00000000000E+00 -0.00000000000E+00 -0.10106343704E+04  0.10106343704E+04  0.00000000000E+00 0.  1.
         24    2    1    2    0    0 -0.13520250279E+04 -0.20407279745E+03  0.91832607360E+03  0.16489365945E+04  0.77792883994E+02 0.  0.
        254    2    1    2    0    0  0.13520250279E+04  0.20407279745E+03  0.39283101683E+03  0.16834892367E+04  0.90011244829E+03 0.  0.
         23    2    4    4    0    0  0.60177258971E+02  0.29785650265E+03  0.18850308392E+03  0.36904451475E+03  0.91217556179E+02 0.  0.
         23    2    4    4    0    0  0.12918477689E+04 -0.93783705202E+02  0.20432793291E+03  0.13144447219E+04  0.91372761008E+02 0.  0.
          2    1    3    3  502    0 -0.10770100324E+04 -0.18374000539E+03  0.76062841558E+03  0.13312650322E+04  0.00000000000E+00 0. -1.
         -1    1    3    3    0  502 -0.27501499550E+03 -0.20332792062E+02  0.15769765802E+03  0.31767156235E+03  0.00000000000E+00 0.  1.
         11    1    5    5    0    0 -0.21383753133E+02  0.51143448308E+02  0.18122415430E+02  0.58321000882E+02  0.00000000000E+00 0.  1.
        -11    1    5    5    0    0  0.81561012104E+02  0.24671305434E+03  0.17038066849E+03  0.31072351387E+03  0.00000000000E+00 0. -1.
          1    1    6    6  503    0  0.11028202206E+04 -0.47538060823E+02  0.17111571853E+03  0.11170286009E+04  0.00000000000E+00 0. -1.
         -1    1    6    6    0  503  0.18902754830E+03 -0.46245644380E+02  0.33212214378E+02  0.19741612099E+03  0.00000000000E+00 0.  1.
<mgrwt>
<rscale>  0 0.30636464E+04</rscale>
<asrwt>0</asrwt>
<pdfrwt beam="1">  1        2 0.35719869E+00 0.30636464E+04</pdfrwt>
<pdfrwt beam="2">  1       -1 0.15548221E+00 0.30636464E+04</pdfrwt>
<totfact> 0.13495141E+00</totfact>
</mgrwt>
</event>
<event>
12    6  0.1403409E-007  0.1225767E+04  0.7818608E-02  0.9090597E-01
         -1   -1    0    0    0  501 -0.00000000000E+00  0.00000000000E+00  0.85383709405E+03  0.85383709405E+03  0.00000000000E+00 0.  1.
          2   -1    0    0  501    0  0.00000000000E+00 -0.00000000000E+00 -0.43992720757E+03  0.43992720757E+03  0.00000000000E+00 0. -1.
         24    2    1    2    0    0  0.30087005928E+02 -0.15523805693E+03 -0.13653224271E+03  0.22451930788E+03  0.82242227998E+02 0.  0.
        254    2    1    2    0    0 -0.30087005928E+02  0.15523805693E+03  0.55044212918E+03  0.10692449937E+04  0.90293645226E+03 0.  0.
         23    2    4    4    0    0  0.76836616816E+02  0.15962830848E+03  0.77605247531E+03  0.80142775366E+03  0.92972777461E+02 0.  0.
         23    2    4    4    0    0 -0.10692362274E+03 -0.43902515492E+01 -0.22561034613E+03  0.26781724008E+03  0.96819989631E+02 0.  0.
          2    1    3    3  502    0  0.30655069278E+02 -0.75776543991E+02 -0.11693811532E+03  0.14267564861E+03  0.00000000000E+00 0. -1.
         -1    1    3    3    0  502 -0.56806335061E+00 -0.79461512941E+02 -0.19594127391E+02  0.81843659273E+02  0.00000000000E+00 0.  1.
         11    1    5    5    0    0  0.66973393479E+02  0.54811377301E+02  0.23980788670E+03  0.25494616106E+03  0.00000000000E+00 0.  1.
        -11    1    5    5    0    0  0.98632233373E+01  0.10481693118E+03  0.53624458861E+03  0.54648159260E+03  0.00000000000E+00 0. -1.
          4    1    6    6  503    0 -0.17434943002E+01  0.32633277716E+02 -0.55937159452E+02  0.64783766442E+02  0.00000000000E+00 0. -1.
         -4    1    6    6    0  503 -0.10518012844E+03 -0.37023529265E+02 -0.16967318668E+03  0.20303347364E+03  0.00000000000E+00 0.  1.
<mgrwt>
<rscale>  0 0.12257670E+04</rscale>
<asrwt>0</asrwt>
<pdfrwt beam="1">  1        2 0.67681109E-01 0.12257670E+04</pdfrwt>
<pdfrwt beam="2">  1       -1 0.13135955E+00 0.12257670E+04</pdfrwt>
<totfact> 0.39744130E+01</totfact>
</mgrwt>
</event>
<event>
12    6  0.1403409E-007  0.2504040E+04  0.7818608E-02  0.8401548E-01
         -1   -1    0    0    0  501 -0.00000000000E+00  0.00000000000E+00  0.60334180910E+03  0.60334180910E+03  0.00000000000E+00 0.  1.
          2   -1    0    0  501    0  0.00000000000E+00 -0.00000000000E+00 -0.25981192191E+04  0.25981192191E+04  0.00000000000E+00 0. -1.
         24    2    1    2    0    0 -0.67063466609E+03  0.64719158756E+03 -0.14985539365E+03  0.94765720023E+03  0.83604567885E+02 0.  0.
        254    2    1    2    0    0  0.67063466609E+03 -0.64719158756E+03 -0.18449220163E+04  0.22538038279E+04  0.89849131446E+03 0.  0.
         23    2    4    4    0    0  0.62593206858E+03 -0.32963286388E+03 -0.17733961456E+04  0.19114291416E+04  0.90436135187E+02 0.  0.
         23    2    4    4    0    0  0.44702597518E+02 -0.31755872369E+03 -0.71525870680E+02  0.34237468635E+03  0.96242456643E+02 0.  0.
          4    1    3    3  502    0 -0.40955231744E+03  0.41224049826E+03 -0.13238785355E+03  0.59598814828E+03  0.00000000000E+00 0. -1.
         -3    1    3    3    0  502 -0.26108234866E+03  0.23495108930E+03 -0.17467540098E+02  0.35166905195E+03  0.00000000000E+00 0.  1.
         11    1    5    5    0    0  0.31333764947E+03 -0.19473540922E+03 -0.10203607777E+04  0.10850062114E+04  0.00000000000E+00 0.  1.
        -11    1    5    5    0    0  0.31259441910E+03 -0.13489745466E+03 -0.75303536793E+03  0.82642293016E+03  0.00000000000E+00 0. -1.
          4    1    6    6  503    0  0.34141849509E+02 -0.28563162806E+03 -0.93177242442E+02  0.30237905243E+03  0.00000000000E+00 0. -1.
         -4    1    6    6    0  503  0.10560748009E+02 -0.31927095625E+02  0.21651371763E+02  0.39995633921E+02  0.00000000000E+00 0.  1.
<mgrwt>
<rscale>  0 0.25040399E+04</rscale>
<asrwt>0</asrwt>
<pdfrwt beam="1">  1        2 0.39971065E+00 0.25040399E+04</pdfrwt>
<pdfrwt beam="2">  1       -1 0.92821817E-01 0.25040399E+04</pdfrwt>
<totfact> 0.34888199E+00</totfact>
</mgrwt>
</event>
<event>
12    6  0.1403409E-007  0.3487241E+04  0.7818608E-02  0.8116820E-01
          2   -1    0    0  501    0  0.00000000000E+00  0.00000000000E+00  0.37006381737E+04  0.37006381737E+04  0.00000000000E+00 0. -1.
         -1   -1    0    0    0  501 -0.00000000000E+00 -0.00000000000E+00 -0.82153720945E+03  0.82153720945E+03  0.00000000000E+00 0.  1.
         24    2    1    2    0    0 -0.49028270856E+03 -0.13338778213E+04  0.31574977442E+03  0.14579375838E+04  0.79226901304E+02 0.  0.
        254    2    1    2    0    0  0.49028270856E+03  0.13338778213E+04  0.25633511898E+04  0.30642377993E+04  0.89396688533E+03 0.  0.
         23    2    4    4    0    0 -0.65688602653E+02  0.10224607233E+04  0.14365340797E+04  0.17667309708E+04  0.89259383096E+02 0.  0.
         23    2    4    4    0    0  0.55597131122E+03  0.31141709792E+03  0.11268171101E+04  0.12975068286E+04  0.87877544505E+02 0.  0.
          2    1    3    3  502    0 -0.37197198853E+03 -0.10646325330E+04  0.22313216515E+03  0.11496058254E+04  0.00000000000E+00 0. -1.
         -1    1    3    3    0  502 -0.11831072004E+03 -0.26924528823E+03  0.92617609274E+02  0.30833175843E+03  0.00000000000E+00 0.  1.
         11    1    5    5    0    0 -0.28069014831E+02  0.54161166080E+03  0.83569335692E+03  0.99625019323E+03  0.00000000000E+00 0.  1.
        -11    1    5    5    0    0 -0.37619587821E+02  0.48084906255E+03  0.60084072281E+03  0.77048077752E+03  0.00000000000E+00 0. -1.
          4    1    6    6  503    0  0.18838787557E+03  0.11638362788E+03  0.47668963777E+03  0.52561216810E+03  0.00000000000E+00 0. -1.
         -4    1    6    6    0  503  0.36758343565E+03  0.19503347004E+03  0.65012747234E+03  0.77189466049E+03  0.00000000000E+00 0.  1.
<mgrwt>
<rscale>  0 0.34872407E+04</rscale>
<asrwt>0</asrwt>
<pdfrwt beam="1">  1        2 0.56932894E+00 0.34872407E+04</pdfrwt>
<pdfrwt beam="2">  1       -1 0.12639034E+00 0.34872407E+04</pdfrwt>
<totfact> 0.29576304E-01</totfact>
</mgrwt>
</event>
<event>
12    6  0.1403409E-007  0.1193216E+04  0.7818608E-02  0.9118815E-01
          2   -1    0    0  501    0  0.00000000000E+00  0.00000000000E+00  0.69253579036E+03  0.69253579036E+03  0.00000000000E+00 0. -1.
         -1   -1    0    0    0  501 -0.00000000000E+00 -0.00000000000E+00 -0.51396779327E+03  0.51396779327E+03  0.00000000000E+00 0.  1.
         24    2    1    2    0    0  0.17884136491E+03  0.17071593915E+03  0.25727679312E+02  0.26075371627E+03  0.78755453036E+02 0.  0.
        254    2    1    2    0    0 -0.17884136491E+03 -0.17071593915E+03  0.15284031778E+03  0.94574986735E+03  0.89997471252E+03 0.  0.
         23    2    4    4    0    0 -0.18727246402E+03  0.26802581863E+03  0.32028431391E+03  0.46699119998E+03  0.92681842290E+02 0.  0.
         23    2    4    4    0    0  0.84310991165E+01 -0.43874175777E+03 -0.16744399613E+03  0.47875866737E+03  0.92773683224E+02 0.  0.
          2    1    3    3  502    0  0.93251891245E+02  0.12655012907E+03  0.42845982261E+02  0.16293136158E+03  0.00000000000E+00 0. -1.
         -3    1    3    3    0  502  0.85589473662E+02  0.44165810076E+02 -0.17118302949E+02  0.97822354691E+02  0.00000000000E+00 0.  1.
         11    1    5    5    0    0 -0.56984786049E+02  0.14625099274E+03  0.11218421875E+03  0.19292982573E+03  0.00000000000E+00 0.  1.
        -11    1    5    5    0    0 -0.13028767797E+03  0.12177482589E+03  0.20810009516E+03  0.27406137425E+03  0.00000000000E+00 0. -1.
          3    1    6    6  503    0 -0.86013677553E+01 -0.16878327131E+03 -0.11169772365E+03  0.20257876905E+03  0.00000000000E+00 0. -1.
         -3    1    6    6    0  503  0.17032466872E+02 -0.26995848647E+03 -0.55746272476E+02  0.27617989833E+03  0.00000000000E+00 0.  1.
<mgrwt>
<rscale>  0 0.11932160E+04</rscale>
<asrwt>0</asrwt>
<pdfrwt beam="1">  1        2 0.10654397E+00 0.11932160E+04</pdfrwt>
<pdfrwt beam="2">  1       -1 0.79071968E-01 0.11932160E+04</pdfrwt>
<totfact> 0.74927133E+01</totfact>
</mgrwt>
</event>
<event>
12    6  0.1403409E-007  0.1618291E+04  0.7818608E-02  0.8809389E-01
          2   -1    0    0  501    0  0.00000000000E+00  0.00000000000E+00  0.12229047282E+04  0.12229047282E+04  0.00000000000E+00 0. -1.
         -1   -1    0    0    0  501 -0.00000000000E+00 -0.00000000000E+00 -0.53537840398E+03  0.53537840398E+03  0.00000000000E+00 0.  1.
         24    2    1    2    0    0  0.24613255981E+03 -0.14357448963E+03 -0.27913783696E+03  0.40787889023E+03  0.85160941743E+02 0.  0.
        254    2    1    2    0    0 -0.24613255981E+03  0.14357448963E+03  0.96666416122E+03  0.13504042420E+04  0.89886436416E+03 0.  0.
         23    2    4    4    0    0 -0.38543120326E+03 -0.13924260810E+03  0.92689888049E+03  0.10174485190E+04  0.90079064276E+02 0.  0.
         23    2    4    4    0    0  0.13929864345E+03  0.28281709774E+03  0.39765280731E+02  0.33295572300E+03  0.99441505851E+02 0.  0.
          4    1    3    3  502    0  0.27659401510E+02 -0.46925471018E+02 -0.27931259991E+02  0.61214357849E+02  0.00000000000E+00 0. -1.
         -3    1    3    3    0  502  0.21847315830E+03 -0.96649018614E+02 -0.25120657697E+03  0.34666453238E+03  0.00000000000E+00 0.  1.
         11    1    5    5    0    0 -0.33926551138E+03 -0.15081254394E+03  0.80130767971E+03  0.88314183922E+03  0.00000000000E+00 0.  1.
        -11    1    5    5    0    0 -0.46165691884E+02  0.11569935836E+02  0.12559120078E+03  0.13430667979E+03  0.00000000000E+00 0. -1.
          1    1    6    6  503    0  0.59619775253E+02  0.15322977377E+03 -0.27359938355E+02  0.16668067494E+03  0.00000000000E+00 0. -1.
         -1    1    6    6    0  503  0.79678868192E+02  0.12958732397E+03  0.67125219087E+02  0.16627504806E+03  0.00000000000E+00 0.  1.
<mgrwt>
<rscale>  0 0.16182914E+04</rscale>
<asrwt>0</asrwt>
<pdfrwt beam="1">  1        2 0.18813919E+00 0.16182914E+04</pdfrwt>
<pdfrwt beam="2">  1       -1 0.82365909E-01 0.16182914E+04</pdfrwt>
<totfact> 0.29371468E+01</totfact>
</mgrwt>
</event>
<event>
12    6  0.1403409E-007  0.3636631E+04  0.7818608E-02  0.8082152E-01
         -1   -1    0    0    0  501 -0.00000000000E+00  0.00000000000E+00  0.14314864601E+04  0.14314864601E+04  0.00000000000E+00 0.  1.
          2   -1    0    0  501    0  0.00000000000E+00 -0.00000000000E+00 -0.23096773058E+04  0.23096773058E+04  0.00000000000E+00 0. -1.
         24    2    1    2    0    0  0.47600969123E+03  0.71347289188E+03  0.11046616978E+04  0.14007941698E+04  0.79486137280E+02 0.  0.
        254    2    1    2    0    0 -0.47600969123E+03 -0.71347289188E+03 -0.19828525435E+04  0.23403695961E+04  0.89999824631E+03 0.  0.
         23    2    4    4    0    0 -0.29635785001E+03 -0.32500170652E+03 -0.17760906969E+03  0.48265449547E+03  0.89198070967E+02 0.  0.
         23    2    4    4    0    0 -0.17965184122E+03 -0.38847118537E+03 -0.18052434738E+04  0.18577151006E+04  0.94956565608E+02 0.  0.
          2    1    3    3  502    0  0.14867425986E+03  0.19626195080E+03  0.26519642858E+03  0.36187281551E+03  0.00000000000E+00 0. -1.
         -1    1    3    3    0  502  0.32733543137E+03  0.51721094108E+03  0.83946526921E+03  0.10389213543E+04  0.00000000000E+00 0.  1.
         11    1    5    5    0    0 -0.29573839490E+03 -0.29893623417E+03 -0.17788045237E+03  0.45658025106E+03  0.00000000000E+00 0. -1.
        -11    1    5    5    0    0 -0.61945510658E+00 -0.26065472346E+02  0.27138268614E+00  0.26074244415E+02  0.00000000000E+00 0.  1.
          3    1    6    6  503    0 -0.18959089931E+03 -0.34355842292E+03 -0.16195004365E+04  0.16663609341E+04  0.00000000000E+00 0. -1.
         -3    1    6    6    0  503  0.99390580894E+01 -0.44912762445E+02 -0.18574303735E+03  0.19135416648E+03  0.00000000000E+00 0.  1.
<mgrwt>
<rscale>  0 0.36366313E+04</rscale>
<asrwt>0</asrwt>
<pdfrwt beam="1">  1        2 0.35533497E+00 0.36366313E+04</pdfrwt>
<pdfrwt beam="2">  1       -1 0.22022869E+00 0.36366313E+04</pdfrwt>
<totfact> 0.45349943E-01</totfact>
</mgrwt>
</event>
<event>
12    6  0.1403409E-007  0.2425335E+04  0.7818608E-02  0.8430079E-01
          2   -1    0    0  501    0  0.00000000000E+00  0.00000000000E+00  0.15237472358E+04  0.15237472358E+04  0.00000000000E+00 0. -1.
         -1   -1    0    0    0  501 -0.00000000000E+00 -0.00000000000E+00 -0.96509595642E+03  0.96509595642E+03  0.00000000000E+00 0.  1.
         24    2    1    2    0    0  0.10265283486E+04 -0.13912406968E+03  0.37362868377E+03  0.11041621466E+04  0.80372230447E+02 0.  0.
        254    2    1    2    0    0 -0.10265283486E+04  0.13912406968E+03  0.18502259561E+03  0.13846810456E+04  0.89999571113E+03 0.  0.
         23    2    4    4    0    0 -0.10153507677E+04 -0.59376982830E+02 -0.98345179887E+02  0.10257203038E+04  0.89261188703E+02 0.  0.
         23    2    4    4    0    0 -0.11177580916E+02  0.19850105251E+03  0.28336777549E+03  0.35896074180E+03  0.95015324057E+02 0.  0.
          2    1    3    3  502    0  0.76662273600E+03 -0.98874714627E+02  0.31506508762E+03  0.83471710057E+03  0.00000000000E+00 0. -1.
         -1    1    3    3    0  502  0.25990561257E+03 -0.40249355053E+02  0.58563596154E+02  0.26944504601E+03  0.00000000000E+00 0.  1.
         11    1    5    5    0    0 -0.52734684586E+03 -0.66085877394E+02 -0.78776488477E+02  0.53727811622E+03  0.00000000000E+00 0. -1.
        -11    1    5    5    0    0 -0.48800392179E+03  0.67088945637E+01 -0.19568691411E+02  0.48844218761E+03  0.00000000000E+00 0.  1.
          3    1    6    6  503    0 -0.43363871612E+02  0.41851225003E+02  0.71455881384E+02  0.93476699663E+02  0.00000000000E+00 0. -1.
         -3    1    6    6    0  503  0.32186290696E+02  0.15664982751E+03  0.21191189411E+03  0.26548404214E+03  0.00000000000E+00 0.  1.
<mgrwt>
<rscale>  0 0.24253349E+04</rscale>
<asrwt>0</asrwt>
<pdfrwt beam="1">  1        2 0.23442265E+00 0.24253349E+04</pdfrwt>
<pdfrwt beam="2">  1       -1 0.14847630E+00 0.24253349E+04</pdfrwt>
<totfact> 0.45117094E+00</totfact>
</mgrwt>
</event>
<event>
12    6  0.1403409E-007  0.2747268E+04  0.7818608E-02  0.8319829E-01
         -1   -1    0    0    0  501 -0.00000000000E+00  0.00000000000E+00  0.97379788667E+03  0.97379788667E+03  0.00000000000E+00 0.  1.
          2   -1    0    0  501    0  0.00000000000E+00 -0.00000000000E+00 -0.19376412907E+04  0.19376412907E+04  0.00000000000E+00 0. -1.
         24    2    1    2    0    0 -0.96548438984E+03 -0.68238865572E+03 -0.77019440315E+03  0.14132922845E+04  0.79882904115E+02 0.  0.
        254    2    1    2    0    0  0.96548438984E+03  0.68238865572E+03 -0.19364900091E+03  0.14981468929E+04  0.89951642151E+03 0.  0.
         23    2    4    4    0    0  0.65230610374E+03  0.66379472494E+03  0.23098051273E+03  0.96249986588E+03  0.83230431488E+02 0.  0.
         23    2    4    4    0    0  0.31317828611E+03  0.18593930785E+02 -0.42462951364E+03  0.53564702699E+03  0.90449657403E+02 0.  0.
          2    1    3    3  502    0 -0.54272432515E+03 -0.35950332791E+03 -0.46489753680E+03  0.79995128327E+03  0.00000000000E+00 0. -1.
         -1    1    3    3    0  502 -0.42276006469E+03 -0.32288532782E+03 -0.30529686636E+03  0.61334100126E+03  0.00000000000E+00 0.  1.
         11    1    5    5    0    0  0.47613220236E+03  0.44868080546E+03  0.19136579624E+03  0.68164302041E+03  0.00000000000E+00 0. -1.
        -11    1    5    5    0    0  0.17617390138E+03  0.21511391948E+03  0.39614716488E+02  0.28085684547E+03  0.00000000000E+00 0.  1.
          3    1    6    6  503    0  0.22313623532E+03  0.32719685643E+01 -0.36072929838E+03  0.42417698194E+03  0.00000000000E+00 0. -1.
         -3    1    6    6    0  503  0.90042050782E+02  0.15321962220E+02 -0.63900215254E+02  0.11147004506E+03  0.00000000000E+00 0.  1.
<mgrwt>
<rscale>  0 0.27472685E+04</rscale>
<asrwt>0</asrwt>
<pdfrwt beam="1">  1        2 0.29809866E+00 0.27472685E+04</pdfrwt>
<pdfrwt beam="2">  1       -1 0.14981506E+00 0.27472685E+04</pdfrwt>
<totfact> 0.25189162E+00</totfact>
</mgrwt>
</event>
<event>
12    6  0.1403409E-007  0.4001833E+04  0.7818608E-02  0.8004177E-01
          2   -1    0    0  501    0  0.00000000000E+00  0.00000000000E+00  0.22917638909E+04  0.22917638909E+04  0.00000000000E+00 0. -1.
         -1   -1    0    0    0  501 -0.00000000000E+00 -0.00000000000E+00 -0.17469802100E+04  0.17469802100E+04  0.00000000000E+00 0.  1.
         24    2    1    2    0    0  0.16103488487E+04  0.27884203305E+03  0.12359809954E+04  0.20504910492E+04  0.76734792419E+02 0.  0.
        254    2    1    2    0    0 -0.16103488487E+04 -0.27884203305E+03 -0.69119731442E+03  0.19882530516E+04  0.89689474077E+03 0.  0.
         23    2    4    4    0    0 -0.14388343306E+04 -0.15554709514E+03 -0.22359007624E+03  0.14672086136E+04  0.90936593500E+02 0.  0.
         23    2    4    4    0    0 -0.17151451807E+03 -0.12329493792E+03 -0.46760723818E+03  0.52104443799E+03  0.90619564848E+02 0.  0.
          2    1    3    3  502    0  0.45901537550E+03  0.87528589878E+02  0.39623765083E+03  0.61266683028E+03  0.00000000000E+00 0. -1.
         -3    1    3    3    0  502  0.11513334732E+04  0.19131344317E+03  0.83974334453E+03  0.14378242190E+04  0.00000000000E+00 0.  1.
         11    1    5    5    0    0 -0.34432861457E+03 -0.58921363686E+02 -0.86869136221E+02  0.35997245553E+03  0.00000000000E+00 0. -1.
        -11    1    5    5    0    0 -0.10945057160E+04 -0.96625731450E+02 -0.13672094002E+03  0.11072361581E+04  0.00000000000E+00 0.  1.
          1    1    6    6  503    0 -0.62377297334E+02 -0.16081644015E+02 -0.70558472840E+02  0.95540800638E+02  0.00000000000E+00 0. -1.
         -1    1    6    6    0  503 -0.10913722074E+03 -0.10721329390E+03 -0.39704876534E+03  0.42550363735E+03  0.00000000000E+00 0.  1.
<mgrwt>
<rscale>  0 0.40018327E+04</rscale>
<asrwt>0</asrwt>
<pdfrwt beam="1">  1        2 0.35257906E+00 0.40018327E+04</pdfrwt>
<pdfrwt beam="2">  1       -1 0.26876619E+00 0.40018327E+04</pdfrwt>
<totfact> 0.21632504E-01</totfact>
</mgrwt>
</event>
<event>
12    6  0.1403409E-007  0.1809277E+04  0.7818608E-02  0.8701382E-01
         -1   -1    0    0    0  501 -0.00000000000E+00  0.00000000000E+00  0.50553373425E+03  0.50553373425E+03  0.00000000000E+00 0.  1.
          2   -1    0    0  501    0  0.00000000000E+00 -0.00000000000E+00 -0.16188251262E+04  0.16188251262E+04  0.00000000000E+00 0. -1.
         24    2    1    2    0    0 -0.71111967385E+02  0.67448497079E+03 -0.40109368047E+03  0.79212863727E+03  0.81269611460E+02 0.  0.
        254    2    1    2    0    0  0.71111967385E+02 -0.67448497079E+03 -0.71219771152E+03  0.13322302232E+04  0.89867953111E+03 0.  0.
         23    2    4    4    0    0 -0.14913678219E+03  0.11538074424E+03  0.44300640084E+02  0.21343157291E+03  0.89643703956E+02 0.  0.
         23    2    4    4    0    0  0.22024874957E+03 -0.78986571504E+03 -0.75649835161E+03  0.11187986503E+04  0.83805157836E+02 0.  0.
          4    1    3    3  502    0  0.32651448957E+00  0.37074863003E+03 -0.20604847884E+03  0.42415873080E+03  0.00000000000E+00 0. -1.
         -3    1    3    3    0  502 -0.71438481875E+02  0.30373634076E+03 -0.19504520163E+03  0.36796990648E+03  0.00000000000E+00 0.  1.
         11    1    5    5    0    0 -0.73896478523E+01  0.37974619301E+01  0.31504160293E+02  0.32581278800E+02  0.00000000000E+00 0. -1.
        -11    1    5    5    0    0 -0.14174713434E+03  0.11158328231E+03  0.12796479791E+02  0.18085029411E+03  0.00000000000E+00 0.  1.
          1    1    6    6  503    0  0.77872117848E+02 -0.31590922208E+03 -0.35487265834E+03  0.48145332792E+03  0.00000000000E+00 0. -1.
         -1    1    6    6    0  503  0.14237663173E+03 -0.47395649296E+03 -0.40162569327E+03  0.63734532239E+03  0.00000000000E+00 0.  1.
<mgrwt>
<rscale>  0 0.18092769E+04</rscale>
<asrwt>0</asrwt>
<pdfrwt beam="1">  1        2 0.24905001E+00 0.18092769E+04</pdfrwt>
<pdfrwt beam="2">  1       -1 0.77774422E-01 0.18092769E+04</pdfrwt>
<totfact> 0.19374088E+01</totfact>
</mgrwt>
</event>
<event>
12    6  0.1403409E-007  0.1359553E+04  0.7818608E-02  0.8983628E-01
          2   -1    0    0  501    0  0.00000000000E+00  0.00000000000E+00  0.16958431148E+04  0.16958431148E+04  0.00000000000E+00 0. -1.
         -1   -1    0    0    0  501 -0.00000000000E+00 -0.00000000000E+00 -0.27248753856E+03  0.27248753856E+03  0.00000000000E+00 0.  1.
         24    2    1    2    0    0  0.31816982821E+03  0.21489947964E+02  0.11454992891E+03  0.34847378478E+03  0.81353764639E+02 0.  0.
        254    2    1    2    0    0 -0.31816982821E+03 -0.21489947964E+02  0.13088056474E+04  0.16198568686E+04  0.89959446128E+03 0.  0.
         23    2    4    4    0    0 -0.25955399094E+03  0.22657227587E+03  0.85217237150E+02  0.36661135525E+03  0.91862059003E+02 0.  0.
         23    2    4    4    0    0 -0.58615837266E+02 -0.24806222383E+03  0.12235884102E+04  0.12532455134E+04  0.92114254434E+02 0.  0.
          4    1    3    3  502    0  0.89381094756E+02  0.43226416534E+02  0.35385469305E+02  0.10540225151E+03  0.00000000000E+00 0. -1.
         -3    1    3    3    0  502  0.22878873346E+03 -0.21736468570E+02  0.79164459602E+02  0.24307153327E+03  0.00000000000E+00 0.  1.
         11    1    5    5    0    0 -0.25817804399E+03  0.20524275641E+03  0.94821706594E+02  0.34317873987E+03  0.00000000000E+00 0. -1.
        -11    1    5    5    0    0 -0.13759469583E+01  0.21329519465E+02 -0.96044694440E+01  0.23432615388E+02  0.00000000000E+00 0.  1.
          2    1    6    6  503    0 -0.59398142276E+02 -0.24198819183E+03  0.12216792499E+04  0.12468306276E+04  0.00000000000E+00 0. -1.
         -2    1    6    6    0  503  0.78230501032E+00 -0.60740320074E+01  0.19091602906E+01  0.64148857333E+01  0.00000000000E+00 0.  1.
<mgrwt>
<rscale>  0 0.13595530E+04</rscale>
<asrwt>0</asrwt>
<pdfrwt beam="1">  1        2 0.26089893E+00 0.13595530E+04</pdfrwt>
<pdfrwt beam="2">  1       -1 0.41921161E-01 0.13595530E+04</pdfrwt>
<totfact> 0.61253646E+01</totfact>
</mgrwt>
</event>
<event>
12    6  0.1403409E-007  0.2674579E+04  0.7818608E-02  0.8343301E-01
          2   -1    0    0  501    0  0.00000000000E+00  0.00000000000E+00  0.11722862261E+04  0.11722862261E+04  0.00000000000E+00 0. -1.
         -1   -1    0    0    0  501 -0.00000000000E+00 -0.00000000000E+00 -0.15255176155E+04  0.15255176155E+04  0.00000000000E+00 0.  1.
         24    2    1    2    0    0  0.53477698632E+03 -0.22075612288E+03  0.88334061127E+03  0.10589371746E+04  0.79609129007E+02 0.  0.
        254    2    1    2    0    0 -0.53477698632E+03  0.22075612288E+03 -0.12365720007E+04  0.16388666670E+04  0.90667190777E+03 0.  0.
         23    2    4    4    0    0  0.11527785587E+03  0.16119639251E+03  0.20844846079E+02  0.21920354561E+03  0.91336880775E+02 0.  0.
         23    2    4    4    0    0 -0.65005484219E+03  0.59559730369E+02 -0.12574168468E+04  0.14196631214E+04  0.90706076340E+02 0.  0.
          4    1    3    3  502    0  0.24936197531E+03 -0.69463421113E+02  0.34860881936E+03  0.43420579285E+03  0.00000000000E+00 0. -1.
         -3    1    3    3    0  502  0.28541501101E+03 -0.15129270177E+03  0.53473179190E+03  0.62473138179E+03  0.00000000000E+00 0.  1.
         11    1    5    5    0    0 -0.23152689479E+01  0.67126506428E+02 -0.83235447683E-01  0.67166474254E+02  0.00000000000E+00 0. -1.
        -11    1    5    5    0    0  0.11759312481E+03  0.94069886082E+02  0.20928081527E+02  0.15203707136E+03  0.00000000000E+00 0.  1.
          3    1    6    6  503    0 -0.14052154826E+03 -0.20737658708E+02 -0.30781430331E+03  0.33900737652E+03  0.00000000000E+00 0. -1.
         -3    1    6    6    0  503 -0.50953329392E+03  0.80297389077E+02 -0.94960254347E+03  0.10806557449E+04  0.00000000000E+00 0.  1.
<mgrwt>
<rscale>  0 0.26745791E+04</rscale>
<asrwt>0</asrwt>
<pdfrwt beam="1">  1        2 0.18035173E+00 0.26745791E+04</pdfrwt>
<pdfrwt beam="2">  1       -1 0.23469502E+00 0.26745791E+04</pdfrwt>
<totfact> 0.17325363E+00</totfact>
</mgrwt>
</event>
<event>
12    6  0.1403409E-007  0.2317874E+04  0.7818608E-02  0.8470907E-01
          2   -1    0    0  501    0  0.00000000000E+00  0.00000000000E+00  0.23323421072E+04  0.23323421072E+04  0.00000000000E+00 0. -1.
         -1   -1    0    0    0  501 -0.00000000000E+00 -0.00000000000E+00 -0.57587401762E+03  0.57587401762E+03  0.00000000000E+00 0.  1.
         24    2    1    2    0    0 -0.33764366195E+02 -0.78294961612E+03  0.38203679016E+01  0.78786382914E+03  0.81022739054E+02 0.  0.
        254    2    1    2    0    0  0.33764366195E+02  0.78294961612E+03  0.17526477217E+04  0.21203522957E+04  0.89998315966E+03 0.  0.
         23    2    4    4    0    0  0.36976371642E+03  0.28666789457E+03  0.34716083862E+03  0.58969374536E+03  0.91183209478E+02 0.  0.
         23    2    4    4    0    0 -0.33599935022E+03  0.49628172155E+03  0.14054868831E+04  0.15306585504E+04  0.91274907299E+02 0.  0.
          4    1    3    3  502    0  0.24159544906E+02 -0.16804053531E+03  0.11837092932E+02  0.17018055672E+03  0.00000000000E+00 0. -1.
         -3    1    3    3    0  502 -0.57923911101E+02 -0.61490908082E+03 -0.80167250304E+01  0.61768327242E+03  0.00000000000E+00 0.  1.
         11    1    5    5    0    0  0.63936089190E+02  0.19761594181E+02  0.24885919177E+02  0.71397850659E+02  0.00000000000E+00 0. -1.
        -11    1    5    5    0    0  0.30582762723E+03  0.26690630039E+03  0.32227491944E+03  0.51829589470E+03  0.00000000000E+00 0.  1.
          2    1    6    6  503    0 -0.39356857097E+02  0.38987098317E+02  0.78471984838E+02  0.96056277463E+02  0.00000000000E+00 0. -1.
         -2    1    6    6    0  503 -0.29664249313E+03  0.45729462324E+03  0.13270148983E+04  0.14346022729E+04  0.00000000000E+00 0.  1.
<mgrwt>
<rscale>  0 0.23178742E+04</rscale>
<asrwt>0</asrwt>
<pdfrwt beam="1">  1        2 0.35882186E+00 0.23178742E+04</pdfrwt>
<pdfrwt beam="2">  1       -1 0.88596004E-01 0.23178742E+04</pdfrwt>
<totfact> 0.55970729E+00</totfact>
</mgrwt>
</event>
<event>
12    6  0.1403409E-007  0.2117686E+04  0.7818608E-02  0.8553493E-01
         -1   -1    0    0    0  501 -0.00000000000E+00  0.00000000000E+00  0.43864092063E+03  0.43864092063E+03  0.00000000000E+00 0.  1.
          2   -1    0    0  501    0  0.00000000000E+00 -0.00000000000E+00 -0.25559584582E+04  0.25559584582E+04  0.00000000000E+00 0. -1.
         24    2    1    2    0    0  0.31707046287E+03 -0.86674933937E+02 -0.19992714955E+04  0.20277702438E+04  0.81972106587E+02 0.  0.
        254    2    1    2    0    0 -0.31707046287E+03  0.86674933937E+02 -0.11804604215E+03  0.96682913512E+03  0.90154172718E+03 0.  0.
         23    2    4    4    0    0 -0.49503981735E+03 -0.23548244933E+03 -0.17715446971E+03  0.58293325071E+03  0.88944161919E+02 0.  0.
         23    2    4    4    0    0  0.17796935448E+03  0.32215738327E+03  0.59108427561E+02  0.38389588440E+03  0.91781115279E+02 0.  0.
          4    1    3    3  502    0  0.19953160352E+03 -0.45149715127E+02 -0.14609450495E+04  0.14751989002E+04  0.00000000000E+00 0. -1.
         -3    1    3    3    0  502  0.11753885935E+03 -0.41525218810E+02 -0.53832644601E+03  0.55257134357E+03  0.00000000000E+00 0.  1.
         11    1    5    5    0    0 -0.33954368132E+03 -0.20260737105E+03 -0.11015984847E+03  0.41045688025E+03  0.00000000000E+00 0. -1.
        -11    1    5    5    0    0 -0.15549613604E+03 -0.32875078282E+02 -0.66994621238E+02  0.17247637047E+03  0.00000000000E+00 0.  1.
          4    1    6    6  503    0  0.13546693528E+02  0.94961811110E+02 -0.55656860968E+01  0.96084521836E+02  0.00000000000E+00 0. -1.
         -4    1    6    6    0  503  0.16442266095E+03  0.22719557216E+03  0.64674113658E+02  0.28781136257E+03  0.00000000000E+00 0.  1.
<mgrwt>
<rscale>  0 0.21176855E+04</rscale>
<asrwt>0</asrwt>
<pdfrwt beam="1">  1        2 0.39322437E+00 0.21176855E+04</pdfrwt>
<pdfrwt beam="2">  1       -1 0.67483220E-01 0.21176855E+04</pdfrwt>
<totfact> 0.75247576E+00</totfact>
</mgrwt>
</event>
<event>
12    6  0.1403409E-007  0.2525118E+04  0.7818608E-02  0.8394092E-01
         -1   -1    0    0    0  501 -0.00000000000E+00  0.00000000000E+00  0.54580687477E+03  0.54580687477E+03  0.00000000000E+00 0.  1.
          2   -1    0    0  501    0  0.00000000000E+00 -0.00000000000E+00 -0.29205470735E+04  0.29205470735E+04  0.00000000000E+00 0. -1.
         24    2    1    2    0    0  0.59532998986E+03 -0.54208569367E+03 -0.73473813580E+01  0.80907210828E+03  0.79176993266E+02 0.  0.
        254    2    1    2    0    0 -0.59532998986E+03  0.54208569367E+03 -0.23673928174E+04  0.26572818400E+04  0.89906803377E+03 0.  0.
         23    2    4    4    0    0 -0.14623865922E+03  0.63490075571E+03 -0.18257929910E+04  0.19407179538E+04  0.91550068650E+02 0.  0.
         23    2    4    4    0    0 -0.44909133065E+03 -0.92815062032E+02 -0.54159982637E+03  0.71656388623E+03  0.99175461269E+02 0.  0.
          2    1    3    3  502    0  0.32711431631E+03 -0.25082746441E+03 -0.22651793712E+02  0.41283325520E+03  0.00000000000E+00 0. -1.
         -1    1    3    3    0  502  0.26821567355E+03 -0.29125822926E+03  0.15304412354E+02  0.39623885307E+03  0.00000000000E+00 0.  1.
         11    1    5    5    0    0 -0.11457468352E+03  0.33370858045E+03 -0.10618493003E+04  0.11189337386E+04  0.00000000000E+00 0. -1.
        -11    1    5    5    0    0 -0.31663975693E+02  0.30119217526E+03 -0.76394369073E+03  0.82178421523E+03  0.00000000000E+00 0.  1.
          1    1    6    6  503    0 -0.41870071097E+03 -0.92044709262E+02 -0.53479542713E+03  0.68541130918E+03  0.00000000000E+00 0. -1.
         -1    1    6    6    0  503 -0.30390619678E+02 -0.77035276973E+00 -0.68043992408E+01  0.31152577050E+02  0.00000000000E+00 0.  1.
<mgrwt>
<rscale>  0 0.25251176E+04</rscale>
<asrwt>0</asrwt>
<pdfrwt beam="1">  1        2 0.44931494E+00 0.25251176E+04</pdfrwt>
<pdfrwt beam="2">  1       -1 0.83970288E-01 0.25251176E+04</pdfrwt>
<totfact> 0.27762936E+00</totfact>
</mgrwt>
</event>
<event>
12    6  0.1403409E-007  0.3037365E+04  0.7818608E-02  0.8233141E-01
          2   -1    0    0  501    0  0.00000000000E+00  0.00000000000E+00  0.34094419619E+04  0.34094419619E+04  0.00000000000E+00 0. -1.
         -1   -1    0    0    0  501 -0.00000000000E+00 -0.00000000000E+00 -0.67647343249E+03  0.67647343249E+03  0.00000000000E+00 0.  1.
         24    2    1    2    0    0 -0.13836334290E+04  0.77802736981E+01  0.12829254672E+04  0.18885111598E+04  0.77940026665E+02 0.  0.
        254    2    1    2    0    0  0.13836334290E+04 -0.77802736981E+01  0.14500430623E+04  0.21974042346E+04  0.90080990740E+03 0.  0.
         23    2    4    4    0    0  0.56539471698E+03 -0.39017360384E+03  0.36840247317E+03  0.78538631423E+03  0.95940883967E+02 0.  0.
         23    2    4    4    0    0  0.81823871207E+03  0.38239333014E+03  0.10816405891E+04  0.14120179204E+04  0.90049956501E+02 0.  0.
          2    1    3    3  502    0 -0.82718476340E+03  0.31056471701E+02  0.80436862906E+03  0.11542131643E+04  0.00000000000E+00 0. -1.
         -1    1    3    3    0  502 -0.55644866564E+03 -0.23276198003E+02  0.47855683809E+03  0.73429799549E+03  0.00000000000E+00 0.  1.
         11    1    5    5    0    0  0.18996913879E+03 -0.17944726273E+03  0.11214623560E+03  0.28437013196E+03  0.00000000000E+00 0. -1.
        -11    1    5    5    0    0  0.37542557818E+03 -0.21072634111E+03  0.25625623757E+03  0.50101618226E+03  0.00000000000E+00 0.  1.
          4    1    6    6  503    0  0.67634151756E+03  0.27723064284E+03  0.87886763939E+03  0.11431111080E+04  0.00000000000E+00 0. -1.
         -4    1    6    6    0  503  0.14189719451E+03  0.10516268730E+03  0.20277294972E+03  0.26890681239E+03  0.00000000000E+00 0.  1.
<mgrwt>
<rscale>  0 0.30373652E+04</rscale>
<asrwt>0</asrwt>
<pdfrwt beam="1">  1        2 0.52452952E+00 0.30373652E+04</pdfrwt>
<pdfrwt beam="2">  1       -1 0.10407284E+00 0.30373652E+04</pdfrwt>
<totfact> 0.79074655E-01</totfact>
</mgrwt>
</event>
<event>
12    6  0.1403409E-007  0.1713400E+04  0.7818608E-02  0.8753759E-01
         -1   -1    0    0    0  501 -0.00000000000E+00  0.00000000000E+00  0.31763308879E+03  0.31763308879E+03  0.00000000000E+00 0.  1.
          2   -1    0    0  501    0  0.00000000000E+00 -0.00000000000E+00 -0.23106371692E+04  0.23106371692E+04  0.00000000000E+00 0. -1.
         24    2    1    2    0    0  0.18456542949E+03 -0.37783678978E+03 -0.14150931528E+04  0.14784933889E+04  0.81418869985E+02 0.  0.
        254    2    1    2    0    0 -0.18456542949E+03  0.37783678978E+03 -0.57791092761E+03  0.11497768691E+04  0.90065574501E+03 0.  0.
         23    2    4    4    0    0  0.33138187683E+03 -0.43662710005E+01 -0.23875090496E+03  0.41864414645E+03  0.91803671650E+02 0.  0.
         23    2    4    4    0    0 -0.51594730632E+03  0.38220306078E+03 -0.33916002266E+03  0.73113272266E+03  0.85116006790E+02 0.  0.
          4    1    3    3  502    0  0.11791536075E+03 -0.28480365594E+03 -0.11299661477E+04  0.11712560137E+04  0.00000000000E+00 0. -1.
         -3    1    3    3    0  502  0.66650068742E+02 -0.93033133842E+02 -0.28512700507E+03  0.30723737513E+03  0.00000000000E+00 0.  1.
         11    1    5    5    0    0  0.33150807452E+03  0.45076927721E+01 -0.21997952455E+03  0.39788052728E+03  0.00000000000E+00 0. -1.
        -11    1    5    5    0    0 -0.12619769047E+00 -0.88739637725E+01 -0.18771380405E+02  0.20763619174E+02  0.00000000000E+00 0.  1.
          3    1    6    6  503    0 -0.47000992103E+03  0.36255805846E+03 -0.33345866382E+03  0.68084679048E+03  0.00000000000E+00 0. -1.
         -3    1    6    6    0  503 -0.45937385292E+02  0.19645002317E+02 -0.57013588336E+01  0.50285932188E+02  0.00000000000E+00 0.  1.
<mgrwt>
<rscale>  0 0.17133999E+04</rscale>
<asrwt>0</asrwt>
<pdfrwt beam="1">  1        2 0.35548263E+00 0.17133999E+04</pdfrwt>
<pdfrwt beam="2">  1       -1 0.48866631E-01 0.17133999E+04</pdfrwt>
<totfact> 0.20308518E+01</totfact>
</mgrwt>
</event>
<event>
12    6  0.1403409E-007  0.4036113E+04  0.7818608E-02  0.7997301E-01
          2   -1    0    0  501    0  0.00000000000E+00  0.00000000000E+00  0.27877418780E+04  0.27877418780E+04  0.00000000000E+00 0. -1.
         -1   -1    0    0    0  501 -0.00000000000E+00 -0.00000000000E+00 -0.14608783983E+04  0.14608783983E+04  0.00000000000E+00 0.  1.
         24    2    1    2    0    0 -0.17598124143E+04 -0.37920594086E+03 -0.62074423859E+02  0.18029997455E+04  0.78854100588E+02 0.  0.
        254    2    1    2    0    0  0.17598124143E+04  0.37920594086E+03  0.13889379036E+04  0.24456205308E+04  0.90065220908E+03 0.  0.
         23    2    4    4    0    0  0.24471047930E+03 -0.16458941836E+03 -0.13293372222E+02  0.30873241934E+03  0.90366463306E+02 0.  0.
         23    2    4    4    0    0  0.15151019350E+04  0.54379535923E+03  0.14022312758E+04  0.21368881115E+04  0.93760247645E+02 0.  0.
          4    1    3    3  502    0 -0.18336712269E+03 -0.20183316437E+02  0.82653486025E+01  0.18465964349E+03  0.00000000000E+00 0. -1.
         -3    1    3    3    0  502 -0.15764452916E+04 -0.35902262443E+03 -0.70339772461E+02  0.16183401020E+04  0.00000000000E+00 0.  1.
         11    1    5    5    0    0  0.80139106489E+02 -0.49525086055E+02  0.37830935010E+02  0.10151940790E+03  0.00000000000E+00 0.  1.
        -11    1    5    5    0    0  0.16457137281E+03 -0.11506433231E+03 -0.51124307231E+02  0.20721301143E+03  0.00000000000E+00 0. -1.
          4    1    6    6  503    0  0.13376896082E+04  0.46674452492E+03  0.11954405042E+04  0.18537372895E+04  0.00000000000E+00 0. -1.
         -4    1    6    6    0  503  0.17741232675E+03  0.77050834303E+02  0.20679077161E+03  0.28315082195E+03  0.00000000000E+00 0.  1.
<mgrwt>
<rscale>  0 0.40361129E+04</rscale>
<asrwt>0</asrwt>
<pdfrwt beam="1">  1        2 0.42888337E+00 0.40361129E+04</pdfrwt>
<pdfrwt beam="2">  1       -1 0.22475052E+00 0.40361129E+04</pdfrwt>
<totfact> 0.21495897E-01</totfact>
</mgrwt>
</event>
<event>
12    6  0.1403409E-007  0.2040926E+04  0.7818608E-02  0.8587722E-01
         -1   -1    0    0    0  501 -0.00000000000E+00  0.00000000000E+00  0.42156101727E+03  0.42156101727E+03  0.00000000000E+00 0.  1.
          2   -1    0    0  501    0  0.00000000000E+00 -0.00000000000E+00 -0.24702106981E+04  0.24702106981E+04  0.00000000000E+00 0. -1.
         24    2    1    2    0    0 -0.72506766093E+03 -0.12136255066E+03 -0.13400414984E+04  0.15305571684E+04  0.80262361866E+02 0.  0.
        254    2    1    2    0    0  0.72506766093E+03  0.12136255066E+03 -0.70860818247E+03  0.13612145470E+04  0.90018192887E+03 0.  0.
         23    2    4    4    0    0  0.65232148697E+03  0.38212478483E+03 -0.21571212414E+03  0.79146178099E+03  0.91309127270E+02 0.  0.
         23    2    4    4    0    0  0.72746173962E+02 -0.26076223417E+03 -0.49289605833E+03  0.56975276601E+03  0.91557312466E+02 0.  0.
          4    1    3    3  502    0 -0.55283418417E+03 -0.88943820624E+02 -0.10870706092E+04  0.12228078949E+04  0.00000000000E+00 0. -1.
         -3    1    3    3    0  502 -0.17223347676E+03 -0.32418730033E+02 -0.25297088916E+03  0.30774927349E+03  0.00000000000E+00 0.  1.
         11    1    5    5    0    0  0.43186259649E+03  0.28407799312E+03 -0.11241782763E+03  0.52900224611E+03  0.00000000000E+00 0. -1.
        -11    1    5    5    0    0  0.22045889048E+03  0.98046791707E+02 -0.10329429652E+03  0.26245953488E+03  0.00000000000E+00 0.  1.
          4    1    6    6  503    0  0.61967980864E+02 -0.22507201241E+03 -0.47305188198E+03  0.52751826932E+03  0.00000000000E+00 0. -1.
         -4    1    6    6    0  503  0.10778193098E+02 -0.35690221764E+02 -0.19844176354E+02  0.42234496696E+02  0.00000000000E+00 0.  1.
<mgrwt>
<rscale>  0 0.20409258E+04</rscale>
<asrwt>0</asrwt>
<pdfrwt beam="1">  1        2 0.38003242E+00 0.20409258E+04</pdfrwt>
<pdfrwt beam="2">  1       -1 0.64855540E-01 0.20409258E+04</pdfrwt>
<totfact> 0.92064349E+00</totfact>
</mgrwt>
</event>
<event>
12    6  0.1403409E-007  0.2784825E+04  0.7818608E-02  0.8307995E-01
         -1   -1    0    0    0  501 -0.00000000000E+00  0.00000000000E+00  0.97945563043E+03  0.97945563043E+03  0.00000000000E+00 0.  1.
          2   -1    0    0  501    0  0.00000000000E+00 -0.00000000000E+00 -0.19794801780E+04  0.19794801780E+04  0.00000000000E+00 0. -1.
         24    2    1    2    0    0  0.11001837737E+04 -0.38161798359E+03  0.21344900781E+02  0.11674447331E+04  0.80218318899E+02 0.  0.
        254    2    1    2    0    0 -0.11001837737E+04  0.38161798359E+03 -0.10213694483E+04  0.17914910753E+04  0.90011560455E+03 0.  0.
         23    2    4    4    0    0 -0.89885247237E+03  0.64674500348E+03 -0.88303964223E+03  0.14197253341E+04  0.98214805216E+02 0.  0.
         23    2    4    4    0    0 -0.20133130135E+03 -0.26512701989E+03 -0.13832980607E+03  0.37176574118E+03  0.90818508469E+02 0.  0.
          4    1    3    3  502    0  0.79999535556E+03 -0.30420110523E+03 -0.92326214150E+01  0.85592997531E+03  0.00000000000E+00 0. -1.
         -3    1    3    3    0  502  0.30018841816E+03 -0.77416878355E+02  0.30577522196E+02  0.31151475778E+03  0.00000000000E+00 0.  1.
         11    1    5    5    0    0 -0.34742915516E+03  0.19248191858E+03 -0.32309084141E+03  0.51199999867E+03  0.00000000000E+00 0. -1.
        -11    1    5    5    0    0 -0.55142331721E+03  0.45426308490E+03 -0.55994880082E+03  0.90772533544E+03  0.00000000000E+00 0.  1.
          3    1    6    6  503    0 -0.35400882750E+02 -0.11482260195E+03 -0.62132681430E+02  0.13526981378E+03  0.00000000000E+00 0. -1.
         -3    1    6    6    0  503 -0.16593041860E+03 -0.15030441795E+03 -0.76197124644E+02  0.23649592740E+03  0.00000000000E+00 0.  1.
<mgrwt>
<rscale>  0 0.27848253E+04</rscale>
<asrwt>0</asrwt>
<pdfrwt beam="1">  1        2 0.30453541E+00 0.27848253E+04</pdfrwt>
<pdfrwt beam="2">  1       -1 0.15068548E+00 0.27848253E+04</pdfrwt>
<totfact> 0.23430263E+00</totfact>
</mgrwt>
</event>
<event>
12    6  0.1403409E-007  0.2387143E+04  0.7818608E-02  0.8444333E-01
          2   -1    0    0  501    0  0.00000000000E+00  0.00000000000E+00  0.86053565613E+03  0.86053565613E+03  0.00000000000E+00 0. -1.
         -1   -1    0    0    0  501 -0.00000000000E+00 -0.00000000000E+00 -0.16554955935E+04  0.16554955935E+04  0.00000000000E+00 0.  1.
         24    2    1    2    0    0 -0.66651936729E+03  0.72811280913E+03 -0.61331886464E+02  0.99221081761E+03  0.79525948493E+02 0.  0.
        254    2    1    2    0    0  0.66651936729E+03 -0.72811280913E+03 -0.73362805087E+03  0.15238204320E+04  0.89967897726E+03 0.  0.
         23    2    4    4    0    0  0.67638619582E+02 -0.37290137976E+03 -0.72327318146E+03  0.82164748300E+03  0.91378714243E+02 0.  0.
         23    2    4    4    0    0  0.59888074771E+03 -0.35521142938E+03 -0.10354869411E+02  0.70217294899E+03  0.90035090018E+02 0.  0.
          4    1    3    3  502    0 -0.33388390455E+03  0.37059880411E+03  0.86492730067E+01  0.49889552538E+03  0.00000000000E+00 0. -1.
         -3    1    3    3    0  502 -0.33263546274E+03  0.35751400502E+03 -0.69981159471E+02  0.49331529222E+03  0.00000000000E+00 0.  1.
         11    1    5    5    0    0  0.26691667995E+02 -0.52034634944E+02 -0.18114480527E+03  0.19035096230E+03  0.00000000000E+00 0. -1.
        -11    1    5    5    0    0  0.40946951587E+02 -0.32086674481E+03 -0.54212837619E+03  0.63129652070E+03  0.00000000000E+00 0.  1.
          3    1    6    6  503    0  0.31794688096E+03 -0.23316436886E+03  0.17070070093E+02  0.39464823490E+03  0.00000000000E+00 0. -1.
         -3    1    6    6    0  503  0.28093386675E+03 -0.12204706051E+03 -0.27424939504E+02  0.30752471408E+03  0.00000000000E+00 0.  1.
<mgrwt>
<rscale>  0 0.23871431E+04</rscale>
<asrwt>0</asrwt>
<pdfrwt beam="1">  1        2 0.13239010E+00 0.23871431E+04</pdfrwt>
<pdfrwt beam="2">  1       -1 0.25469163E+00 0.23871431E+04</pdfrwt>
<totfact> 0.20816384E+00</totfact>
</mgrwt>
</event>
<event>
12    6  0.1403409E-007  0.1222235E+04  0.7818608E-02  0.9093614E-01
          2   -1    0    0  501    0  0.00000000000E+00  0.00000000000E+00  0.12996278261E+04  0.12996278261E+04  0.00000000000E+00 0. -1.
         -1   -1    0    0    0  501 -0.00000000000E+00 -0.00000000000E+00 -0.28736268235E+03  0.28736268235E+03  0.00000000000E+00 0.  1.
         24    2    1    2    0    0 -0.11618536290E+03  0.15790889798E+03  0.47783484472E+03  0.52251272161E+03  0.79114769804E+02 0.  0.
        254    2    1    2    0    0  0.11618536290E+03 -0.15790889798E+03  0.53443029897E+03  0.10644777868E+04  0.89947926908E+03 0.  0.
         23    2    4    4    0    0 -0.25491099690E+03 -0.37000410371E+03  0.15200259752E+03  0.48370676243E+03  0.94788128302E+02 0.  0.
         23    2    4    4    0    0  0.37109635980E+03  0.21209520573E+03  0.38242770145E+03  0.58077102436E+03  0.91362745989E+02 0.  0.
          2    1    3    3  502    0 -0.10023030468E+03  0.16418334703E+03  0.41557437011E+03  0.45793486711E+03  0.00000000000E+00 0. -1.
         -1    1    3    3    0  502 -0.15955058218E+02 -0.62744490502E+01  0.62260474609E+02  0.64577854503E+02  0.00000000000E+00 0.  1.
         11    1    5    5    0    0 -0.49469464783E+02 -0.24792479182E+02  0.34290372119E+02  0.65097807874E+02  0.00000000000E+00 0.  1.
        -11    1    5    5    0    0 -0.20544153211E+03 -0.34521162453E+03  0.11771222540E+03  0.41860895456E+03  0.00000000000E+00 0. -1.
          3    1    6    6  503    0  0.29729672122E+03  0.14053596038E+03  0.32799310134E+03  0.46445147339E+03  0.00000000000E+00 0. -1.
         -3    1    6    6    0  503  0.73799638579E+02  0.71559245350E+02  0.54434600110E+02  0.11631955097E+03  0.00000000000E+00 0.  1.
<mgrwt>
<rscale>  0 0.12222349E+04</rscale>
<asrwt>0</asrwt>
<pdfrwt beam="1">  1        2 0.19994274E+00 0.12222349E+04</pdfrwt>
<pdfrwt beam="2">  1       -1 0.44209644E-01 0.12222349E+04</pdfrwt>
<totfact> 0.93986958E+01</totfact>
</mgrwt>
</event>
<event>
12    6  0.1403409E-007  0.3542497E+04  0.7818608E-02  0.8103792E-01
         -1   -1    0    0    0  501 -0.00000000000E+00  0.00000000000E+00  0.10339316994E+04  0.10339316994E+04  0.00000000000E+00 0.  1.
          2   -1    0    0  501    0  0.00000000000E+00 -0.00000000000E+00 -0.30343600042E+04  0.30343600042E+04  0.00000000000E+00 0. -1.
         24    2    1    2    0    0  0.93593835018E+03 -0.12543466785E+04 -0.31680382028E+03  0.15988409518E+04  0.81003354462E+02 0.  0.
        254    2    1    2    0    0 -0.93593835018E+03  0.12543466785E+04 -0.16836244845E+04  0.24694507518E+04  0.90234662150E+03 0.  0.
         23    2    4    4    0    0 -0.45903549675E+03  0.14796602112E+03 -0.14203385362E+03  0.51097028024E+03  0.91156354887E+02 0.  0.
         23    2    4    4    0    0 -0.47690285343E+03  0.11063806574E+04 -0.15415906309E+04  0.19584804715E+04  0.87347543902E+02 0.  0.
          2    1    3    3  502    0  0.81908073732E+03 -0.11386176031E+04 -0.27946835939E+03  0.14301908489E+04  0.00000000000E+00 0. -1.
         -1    1    3    3    0  502  0.11685761286E+03 -0.11572907542E+03 -0.37335460895E+02  0.16865010294E+03  0.00000000000E+00 0.  1.
         11    1    5    5    0    0 -0.19701353903E+03  0.10775984290E+03 -0.82854128936E+02  0.23935606318E+03  0.00000000000E+00 0. -1.
        -11    1    5    5    0    0 -0.26202195772E+03  0.40206178228E+02 -0.59179724685E+02  0.27161421706E+03  0.00000000000E+00 0.  1.
          1    1    6    6  503    0 -0.24460739427E+03  0.64622310987E+03 -0.93115444817E+03  0.11595195951E+04  0.00000000000E+00 0. -1.
         -1    1    6    6    0  503 -0.23229545917E+03  0.46015754753E+03 -0.61043618273E+03  0.79896087645E+03  0.00000000000E+00 0.  1.
<mgrwt>
<rscale>  0 0.35424969E+04</rscale>
<asrwt>0</asrwt>
<pdfrwt beam="1">  1        2 0.46682462E+00 0.35424969E+04</pdfrwt>
<pdfrwt beam="2">  1       -1 0.15906642E+00 0.35424969E+04</pdfrwt>
<totfact> 0.45723430E-01</totfact>
</mgrwt>
</event>
<event>
12    6  0.1403409E-007  0.1669115E+04  0.7818608E-02  0.8779178E-01
         -1   -1    0    0    0  501 -0.00000000000E+00  0.00000000000E+00  0.58624999330E+03  0.58624999330E+03  0.00000000000E+00 0.  1.
          2   -1    0    0  501    0  0.00000000000E+00 -0.00000000000E+00 -0.11880368996E+04  0.11880368996E+04  0.00000000000E+00 0. -1.
         24    2    1    2    0    0 -0.68424304000E+02 -0.58046514194E+03 -0.27342728262E+03  0.65051736368E+03  0.82393538472E+02 0.  0.
        254    2    1    2    0    0  0.68424304000E+02  0.58046514194E+03 -0.32835962371E+03  0.11237695293E+04  0.90189591750E+03 0.  0.
         23    2    4    4    0    0  0.32600126832E+03  0.34752401435E+03  0.16571452634E+03  0.51299798469E+03  0.93036877409E+02 0.  0.
         23    2    4    4    0    0 -0.25757696432E+03  0.23294112758E+03 -0.49407415006E+03  0.61077154456E+03  0.91242273201E+02 0.  0.
          2    1    3    3  502    0 -0.38194151814E+02 -0.42829353155E+03 -0.16197268666E+03  0.45948807778E+03  0.00000000000E+00 0. -1.
         -1    1    3    3    0  502 -0.30230152186E+02 -0.15217161039E+03 -0.11145459596E+03  0.19102928589E+03  0.00000000000E+00 0.  1.
         11    1    5    5    0    0  0.47562574973E+01  0.17107621438E+02 -0.92996115357E+01  0.20044337638E+02  0.00000000000E+00 0. -1.
        -11    1    5    5    0    0  0.32124501083E+03  0.33041639292E+03  0.17501413788E+03  0.49295364706E+03  0.00000000000E+00 0.  1.
          1    1    6    6  503    0 -0.60189997243E+01  0.27981986682E+02 -0.15456134986E+02  0.32528634233E+02  0.00000000000E+00 0. -1.
         -1    1    6    6    0  503 -0.25155796460E+03  0.20495914090E+03 -0.47861801507E+03  0.57824291033E+03  0.00000000000E+00 0.  1.
<mgrwt>
<rscale>  0 0.16691155E+04</rscale>
<asrwt>0</asrwt>
<pdfrwt beam="1">  1        2 0.18277491E+00 0.16691155E+04</pdfrwt>
<pdfrwt beam="2">  1       -1 0.90192308E-01 0.16691155E+04</pdfrwt>
<totfact> 0.25183996E+01</totfact>
</mgrwt>
</event>
<event>
12    6  0.1403409E-007  0.2704076E+04  0.7818608E-02  0.8333684E-01
          2   -1    0    0  501    0  0.00000000000E+00  0.00000000000E+00  0.19712675936E+04  0.19712675936E+04  0.00000000000E+00 0. -1.
         -1   -1    0    0    0  501 -0.00000000000E+00 -0.00000000000E+00 -0.92732569681E+03  0.92732569681E+03  0.00000000000E+00 0.  1.
         24    2    1    2    0    0  0.10081553958E+04  0.37178991739E+03 -0.11482167115E+03  0.10836846338E+04  0.81137688663E+02 0.  0.
        254    2    1    2    0    0 -0.10081553958E+04 -0.37178991739E+03  0.11587635679E+04  0.18149086566E+04  0.89249951308E+03 0.  0.
         23    2    4    4    0    0 -0.40272046734E+03 -0.20880356002E+03  0.10817018097E+04  0.11764880872E+04  0.90899465082E+02 0.  0.
         23    2    4    4    0    0 -0.60543492845E+03 -0.16298635737E+03  0.77061758230E+02  0.63842056943E+03  0.92337985786E+02 0.  0.
          2    1    3    3  502    0  0.24612947670E+03  0.82994512488E+02  0.62745048823E+01  0.25982143448E+03  0.00000000000E+00 0. -1.
         -1    1    3    3    0  502  0.76202591909E+03  0.28879540490E+03 -0.12109617604E+03  0.82386319927E+03  0.00000000000E+00 0.  1.
         11    1    5    5    0    0 -0.19921489120E+02 -0.88920647810E+01  0.17392999406E+02  0.27900734277E+02  0.00000000000E+00 0.  1.
        -11    1    5    5    0    0 -0.38279897822E+03 -0.19991149524E+03  0.10643088103E+04  0.11485873529E+04  0.00000000000E+00 0. -1.
          4    1    6    6  503    0 -0.53718255597E+03 -0.15830228305E+03  0.42127441366E+02  0.56160433810E+03  0.00000000000E+00 0. -1.
         -4    1    6    6    0  503 -0.68252372478E+02 -0.46840743170E+01  0.34934316865E+02  0.76816231331E+02  0.00000000000E+00 0.  1.
<mgrwt>
<rscale>  0 0.27040763E+04</rscale>
<asrwt>0</asrwt>
<pdfrwt beam="1">  1        2 0.30327194E+00 0.27040763E+04</pdfrwt>
<pdfrwt beam="2">  1       -1 0.14266549E+00 0.27040763E+04</pdfrwt>
<totfact> 0.27587997E+00</totfact>
</mgrwt>
</event>
<event>
12    6  0.1403409E-007  0.3552262E+04  0.7818608E-02  0.8101515E-01
          2   -1    0    0  501    0  0.00000000000E+00  0.00000000000E+00  0.18607946426E+04  0.18607946426E+04  0.00000000000E+00 0. -1.
         -1   -1    0    0    0  501 -0.00000000000E+00 -0.00000000000E+00 -0.16953194517E+04  0.16953194517E+04  0.00000000000E+00 0.  1.
         24    2    1    2    0    0 -0.59696418431E+03 -0.15477771008E+04  0.16118254821E+03  0.16686614046E+04  0.80441767723E+02 0.  0.
        254    2    1    2    0    0  0.59696418431E+03  0.15477771008E+04  0.42926426703E+01  0.18874526898E+04  0.90026609294E+03 0.  0.
         23    2    4    4    0    0  0.53308244692E+03  0.14156446952E+04 -0.29316846413E+03  0.15434924333E+04  0.90522621586E+02 0.  0.
         23    2    4    4    0    0  0.63881737398E+02  0.13213240563E+03  0.29746110680E+03  0.34396025646E+03  0.91025814886E+02 0.  0.
          2    1    3    3  502    0 -0.27755857322E+03 -0.83119803087E+03  0.83962289336E+02  0.88032868527E+03  0.00000000000E+00 0. -1.
         -1    1    3    3    0  502 -0.31940561110E+03 -0.71657906997E+03  0.77220258878E+02  0.78833271929E+03  0.00000000000E+00 0.  1.
         11    1    5    5    0    0  0.99883846100E+02  0.34627343983E+03 -0.96278341989E+02  0.37303028963E+03  0.00000000000E+00 0.  1.
        -11    1    5    5    0    0  0.43319860082E+03  0.10693712554E+04 -0.19689012214E+03  0.11704621437E+04  0.00000000000E+00 0. -1.
          2    1    6    6  503    0  0.29165123537E+02 -0.54897187804E+01  0.67326126660E+02  0.73576822262E+02  0.00000000000E+00 0. -1.
         -2    1    6    6    0  503  0.34716613862E+02  0.13762212441E+03  0.23013498014E+03  0.27038343420E+03  0.00000000000E+00 0.  1.
<mgrwt>
<rscale>  0 0.35522620E+04</rscale>
<asrwt>0</asrwt>
<pdfrwt beam="1">  1        2 0.28627610E+00 0.35522620E+04</pdfrwt>
<pdfrwt beam="2">  1       -1 0.26081838E+00 0.35522620E+04</pdfrwt>
<totfact> 0.44053220E-01</totfact>
</mgrwt>
</event>
<event>
12    6  0.1403409E-007  0.3477425E+04  0.7818608E-02  0.8119161E-01
          2   -1    0    0  501    0  0.00000000000E+00  0.00000000000E+00  0.29981491417E+04  0.29981491417E+04  0.00000000000E+00 0. -1.
         -1   -1    0    0    0  501 -0.00000000000E+00 -0.00000000000E+00 -0.10083290496E+04  0.10083290496E+04  0.00000000000E+00 0.  1.
         24    2    1    2    0    0  0.75726912525E+03  0.59360840015E+03 -0.57482164218E+03  0.11236450744E+04  0.79566777712E+02 0.  0.
        254    2    1    2    0    0 -0.75726912525E+03 -0.59360840015E+03  0.25646417343E+04  0.28828331169E+04  0.89861676700E+03 0.  0.
         23    2    4    4    0    0 -0.47087567238E+03 -0.33845240780E+03  0.47183586531E+03  0.75323973073E+03  0.92016721075E+02 0.  0.
         23    2    4    4    0    0 -0.28639345287E+03 -0.25515599234E+03  0.20928058690E+04  0.21295933862E+04  0.90585843250E+02 0.  0.
          2    1    3    3  502    0  0.18722917094E+03  0.18187300461E+03 -0.18161339625E+03  0.31798738647E+03  0.00000000000E+00 0. -1.
         -3    1    3    3    0  502  0.57003995431E+03  0.41173539554E+03 -0.39320824593E+03  0.80565768793E+03  0.00000000000E+00 0.  1.
         11    1    5    5    0    0 -0.79764305847E+02 -0.77810041725E+02  0.13474698343E+03  0.17485278558E+03  0.00000000000E+00 0. -1.
        -11    1    5    5    0    0 -0.39111136654E+03 -0.26064236608E+03  0.33708888188E+03  0.57838694515E+03  0.00000000000E+00 0.  1.
          2    1    6    6  503    0 -0.42902564165E+02 -0.21398638952E+01  0.23439972927E+03  0.23830325661E+03  0.00000000000E+00 0. -1.
         -2    1    6    6    0  503 -0.24349088870E+03 -0.25301612845E+03  0.18584061397E+04  0.18912901296E+04  0.00000000000E+00 0.  1.
<mgrwt>
<rscale>  0 0.34774248E+04</rscale>
<asrwt>0</asrwt>
<pdfrwt beam="1">  1        2 0.46125371E+00 0.34774248E+04</pdfrwt>
<pdfrwt beam="2">  1       -1 0.15512755E+00 0.34774248E+04</pdfrwt>
<totfact> 0.51931818E-01</totfact>
</mgrwt>
</event>
<event>
12    6  0.1403409E-007  0.1581151E+04  0.7818608E-02  0.8832212E-01
         -1   -1    0    0    0  501 -0.00000000000E+00  0.00000000000E+00  0.79470848163E+03  0.79470848163E+03  0.00000000000E+00 0.  1.
          2   -1    0    0  501    0  0.00000000000E+00 -0.00000000000E+00 -0.78646355560E+03  0.78646355560E+03  0.00000000000E+00 0. -1.
         24    2    1    2    0    0  0.20432029889E+03  0.30879526919E+03  0.38135049046E+03  0.53731822423E+03  0.78621719031E+02 0.  0.
        254    2    1    2    0    0 -0.20432029889E+03 -0.30879526919E+03 -0.37310556442E+03  0.10438538130E+04  0.90184351076E+03 0.  0.
         23    2    4    4    0    0  0.48222957647E+02 -0.50432371838E+03 -0.47201093088E+03  0.69806798357E+03  0.88525274609E+02 0.  0.
         23    2    4    4    0    0 -0.25254325654E+03  0.19552844919E+03  0.98905366457E+02  0.34578582944E+03  0.88182183345E+02 0.  0.
          4    1    3    3  502    0  0.38554526531E+02  0.68136986906E+02  0.39824739614E+02  0.87835701090E+02  0.00000000000E+00 0. -1.
         -3    1    3    3    0  502  0.16576577236E+03  0.24065828228E+03  0.34152575084E+03  0.44948252314E+03  0.00000000000E+00 0.  1.
         11    1    5    5    0    0  0.62226801765E+02 -0.23740537746E+03 -0.19860942720E+03  0.31572011764E+03  0.00000000000E+00 0. -1.
        -11    1    5    5    0    0 -0.14003844118E+02 -0.26691834091E+03 -0.27340150368E+03  0.38234786593E+03  0.00000000000E+00 0.  1.
          3    1    6    6  503    0 -0.24981571267E+03  0.16608550476E+03  0.79245321303E+02  0.31027746637E+03  0.00000000000E+00 0. -1.
         -3    1    6    6    0  503 -0.27275438678E+01  0.29442944430E+02  0.19660045154E+02  0.35508363067E+02  0.00000000000E+00 0.  1.
<mgrwt>
<rscale>  0 0.15811505E+04</rscale>
<asrwt>0</asrwt>
<pdfrwt beam="1">  1        2 0.12099439E+00 0.15811505E+04</pdfrwt>
<pdfrwt beam="2">  1       -1 0.12226284E+00 0.15811505E+04</pdfrwt>
<totfact> 0.22847391E+01</totfact>
</mgrwt>
</event>
<event>
12    6  0.1403409E-007  0.1414064E+04  0.7818608E-02  0.8943701E-01
         -1   -1    0    0    0  501 -0.00000000000E+00  0.00000000000E+00  0.35021786881E+03  0.35021786881E+03  0.00000000000E+00 0.  1.
          2   -1    0    0  501    0  0.00000000000E+00 -0.00000000000E+00 -0.14273811800E+04  0.14273811800E+04  0.00000000000E+00 0. -1.
         24    2    1    2    0    0 -0.99004027196E+02  0.25708335222E+03 -0.71159164932E+03  0.76731354425E+03  0.80707821270E+02 0.  0.
        254    2    1    2    0    0  0.99004027196E+02 -0.25708335222E+03 -0.36557166186E+03  0.10102855045E+04  0.90063339564E+03 0.  0.
         23    2    4    4    0    0 -0.34575824366E+03 -0.31336896514E+03 -0.25665451568E+03  0.54051771213E+03  0.92406630365E+02 0.  0.
         23    2    4    4    0    0  0.44476227085E+03  0.56285612915E+02 -0.10891714618E+03  0.46976779242E+03  0.88528448917E+02 0.  0.
          2    1    3    3  502    0 -0.83956580448E+02  0.24933913151E+03 -0.60994496026E+03  0.66426769035E+03  0.00000000000E+00 0. -1.
         -1    1    3    3    0  502 -0.15047446747E+02  0.77442207180E+01 -0.10164668906E+03  0.10304585390E+03  0.00000000000E+00 0.  1.
         11    1    5    5    0    0 -0.14314529723E+02 -0.42135988472E+02 -0.77721387319E+01  0.45174698960E+02  0.00000000000E+00 0. -1.
        -11    1    5    5    0    0 -0.33144371393E+03 -0.27123297667E+03 -0.24888237695E+03  0.49534301317E+03  0.00000000000E+00 0.  1.
          3    1    6    6  503    0  0.20147301985E+03 -0.18653453128E+02 -0.52109294117E+02  0.20893708999E+03  0.00000000000E+00 0. -1.
         -3    1    6    6    0  503  0.24328925101E+03  0.74939066043E+02 -0.56807852063E+02  0.26083070243E+03  0.00000000000E+00 0.  1.
<mgrwt>
<rscale>  0 0.14140642E+04</rscale>
<asrwt>0</asrwt>
<pdfrwt beam="1">  1        2 0.21959711E+00 0.14140642E+04</pdfrwt>
<pdfrwt beam="2">  1       -1 0.53879671E-01 0.14140642E+04</pdfrwt>
<totfact> 0.53774476E+01</totfact>
</mgrwt>
</event>
<event>
12    6  0.1403409E-007  0.2008120E+04  0.7818608E-02  0.8602834E-01
         -1   -1    0    0    0  501 -0.00000000000E+00  0.00000000000E+00  0.28703875586E+03  0.28703875586E+03  0.00000000000E+00 0.  1.
          2   -1    0    0  501    0  0.00000000000E+00 -0.00000000000E+00 -0.35121948881E+04  0.35121948881E+04  0.00000000000E+00 0. -1.
         24    2    1    2    0    0 -0.34186018404E+03 -0.66466393077E+03 -0.75046201897E+03  0.10621751303E+04  0.79851357646E+02 0.  0.
        254    2    1    2    0    0  0.34186018404E+03  0.66466393077E+03 -0.24746941133E+04  0.27370585136E+04  0.89929518310E+03 0.  0.
         23    2    4    4    0    0  0.28015144567E+03 -0.12851373205E+02 -0.15922659585E+04  0.16192653303E+04  0.89773809940E+02 0.  0.
         23    2    4    4    0    0  0.61708738366E+02  0.67751530398E+03 -0.88242815482E+03  0.11177931834E+04  0.89147051853E+02 0.  0.
          4    1    3    3  502    0 -0.78472555584E+02 -0.10210046259E+03 -0.10272604976E+03  0.16472731328E+03  0.00000000000E+00 0. -1.
         -3    1    3    3    0  502 -0.26338762846E+03 -0.56256346818E+03 -0.64773596921E+03  0.89744781707E+03  0.00000000000E+00 0.  1.
         11    1    5    5    0    0  0.10378850229E+03 -0.11108652999E+02 -0.37378548594E+03  0.38808638842E+03  0.00000000000E+00 0. -1.
        -11    1    5    5    0    0  0.17636294339E+03 -0.17427202066E+01 -0.12184804725E+04  0.12311789418E+04  0.00000000000E+00 0.  1.
          2    1    6    6  503    0  0.62255375965E+02  0.29732096268E+03 -0.43638457980E+03  0.53170197307E+03  0.00000000000E+00 0.  1.
         -2    1    6    6    0  503 -0.54663759948E+00  0.38019434130E+03 -0.44604357502E+03  0.58609121030E+03  0.00000000000E+00 0. -1.
<mgrwt>
<rscale>  0 0.20081196E+04</rscale>
<asrwt>0</asrwt>
<pdfrwt beam="1">  1        2 0.54033773E+00 0.20081196E+04</pdfrwt>
<pdfrwt beam="2">  1       -1 0.44159804E-01 0.20081196E+04</pdfrwt>
<totfact> 0.42972701E+00</totfact>
</mgrwt>
</event>
<event>
12    6  0.1403409E-007  0.1655056E+04  0.7818608E-02  0.8787421E-01
          2   -1    0    0  501    0  0.00000000000E+00  0.00000000000E+00  0.78659299398E+03  0.78659299398E+03  0.00000000000E+00 0. -1.
         -1   -1    0    0    0  501 -0.00000000000E+00 -0.00000000000E+00 -0.87059305645E+03  0.87059305645E+03  0.00000000000E+00 0.  1.
         24    2    1    2    0    0 -0.53118989034E+03  0.22523947106E+03  0.26862586740E+02  0.58313034824E+03  0.80149145690E+02 0.  0.
        254    2    1    2    0    0  0.53118989034E+03 -0.22523947106E+03 -0.11086264921E+03  0.10740557022E+04  0.89911601336E+03 0.  0.
         23    2    4    4    0    0 -0.69642675112E+02 -0.31970429471E+03 -0.27523193554E+03  0.43751590285E+03  0.92771809570E+02 0.  0.
         23    2    4    4    0    0  0.60083256545E+03  0.94464823657E+02  0.16436928634E+03  0.63653979933E+03  0.90786999228E+02 0.  0.
          2    1    3    3  502    0 -0.31230497905E+03  0.97282780761E+02  0.38237697294E+02  0.32933335827E+03  0.00000000000E+00 0. -1.
         -1    1    3    3    0  502 -0.21888491129E+03  0.12795669029E+03 -0.11375110554E+02  0.25379698998E+03  0.00000000000E+00 0.  1.
         11    1    5    5    0    0 -0.18266641795E+02 -0.26278016886E+03 -0.21414857443E+03  0.33948004253E+03  0.00000000000E+00 0. -1.
        -11    1    5    5    0    0 -0.51376033317E+02 -0.56924125855E+02 -0.61083361114E+02  0.98035860320E+02  0.00000000000E+00 0.  1.
          4    1    6    6  503    0  0.16750381565E+03  0.21640807057E+02  0.45021944678E+01  0.16895597812E+03  0.00000000000E+00 0.  1.
         -4    1    6    6    0  503  0.43332874980E+03  0.72824016599E+02  0.15986709187E+03  0.46758382122E+03  0.00000000000E+00 0. -1.
<mgrwt>
<rscale>  0 0.16550558E+04</rscale>
<asrwt>0</asrwt>
<pdfrwt beam="1">  1        2 0.12101431E+00 0.16550558E+04</pdfrwt>
<pdfrwt beam="2">  1       -1 0.13393739E+00 0.16550558E+04</pdfrwt>
<totfact> 0.18055932E+01</totfact>
</mgrwt>
</event>
<event>
12    6  0.1403409E-007  0.1568937E+04  0.7818608E-02  0.8839862E-01
         -1   -1    0    0    0  501 -0.00000000000E+00  0.00000000000E+00  0.27472181215E+04  0.27472181215E+04  0.00000000000E+00 0.  1.
          2   -1    0    0  501    0  0.00000000000E+00 -0.00000000000E+00 -0.22400494789E+03  0.22400494789E+03  0.00000000000E+00 0. -1.
         24    2    1    2    0    0 -0.29841771692E+02  0.30871564343E+03  0.58703591090E+02  0.32571252738E+03  0.80291089490E+02 0.  0.
        254    2    1    2    0    0  0.29841771692E+02 -0.30871564343E+03  0.24645095825E+04  0.26455105420E+04  0.91034205975E+03 0.  0.
         23    2    4    4    0    0  0.13921806846E+03 -0.54337857699E+03  0.21725577460E+04  0.22455951095E+04  0.89712248572E+02 0.  0.
         23    2    4    4    0    0 -0.10937629677E+03  0.23466293356E+03  0.29195183647E+03  0.39991543248E+03  0.87559189323E+02 0.  0.
          4    1    3    3  502    0 -0.52968914409E+02  0.13430017021E+03  0.29804056747E+02  0.14741276543E+03  0.00000000000E+00 0. -1.
         -3    1    3    3    0  502  0.23127142717E+02  0.17441547321E+03  0.28899534344E+02  0.17829976195E+03  0.00000000000E+00 0.  1.
         11    1    5    5    0    0  0.52770632903E+02 -0.32504405393E+03  0.11356336383E+04  0.11824136912E+04  0.00000000000E+00 0.  1.
        -11    1    5    5    0    0  0.86447435559E+02 -0.21833452306E+03  0.10369241077E+04  0.10631814183E+04  0.00000000000E+00 0. -1.
          1    1    6    6  503    0 -0.48136292286E+02  0.48142680898E+02  0.12443790765E+03  0.14184362241E+03  0.00000000000E+00 0. -1.
         -1    1    6    6    0  503 -0.61240004484E+02  0.18652025266E+03  0.16751392882E+03  0.25807181007E+03  0.00000000000E+00 0.  1.
<mgrwt>
<rscale>  0 0.15689365E+04</rscale>
<asrwt>0</asrwt>
<pdfrwt beam="1">  1        2 0.34462302E-01 0.15689365E+04</pdfrwt>
<pdfrwt beam="2">  1       -1 0.42264892E+00 0.15689365E+04</pdfrwt>
<totfact> 0.84308955E-01</totfact>
</mgrwt>
</event>
<event>
12    6  0.1403409E-007  0.1617915E+04  0.7818608E-02  0.8809617E-01
         -3   -1    0    0    0  501 -0.00000000000E+00  0.00000000000E+00  0.16585101290E+03  0.16585101290E+03  0.00000000000E+00 0.  1.
          2   -1    0    0  501    0  0.00000000000E+00 -0.00000000000E+00 -0.39457856305E+04  0.39457856305E+04  0.00000000000E+00 0. -1.
         24    2    1    2    0    0 -0.29923466565E+03 -0.25733497921E+03 -0.23036566818E+04  0.23385721989E+04  0.79518206756E+02 0.  0.
        254    2    1    2    0    0  0.29923466565E+03  0.25733497921E+03 -0.14762779358E+04  0.17730644445E+04  0.89922094279E+03 0.  0.
         23    2    4    4    0    0  0.56342628283E+03  0.32533074611E+03 -0.77978546713E+03  0.10196401000E+04  0.91166267211E+02 0.  0.
         23    2    4    4    0    0 -0.26419161718E+03 -0.67995766898E+02 -0.69649246868E+03  0.75342434448E+03  0.90143491298E+02 0.  0.
          4    1    3    3  502    0 -0.26360607042E+03 -0.25266120816E+03 -0.21486701131E+04  0.21794745012E+04  0.00000000000E+00 0. -1.
         -3    1    3    3    0  502 -0.35628595230E+02 -0.46737710501E+01 -0.15498656866E+03  0.15909769765E+03  0.00000000000E+00 0.  1.
         11    1    5    5    0    0  0.28774436505E+03  0.16302365527E+03 -0.32562984659E+03  0.46412102817E+03  0.00000000000E+00 0. -1.
        -11    1    5    5    0    0  0.27568191778E+03  0.16230709085E+03 -0.45415562054E+03  0.55551907186E+03  0.00000000000E+00 0.  1.
          1    1    6    6  503    0 -0.54770407364E+02 -0.26157495425E+01 -0.25000916330E+03  0.25595159972E+03  0.00000000000E+00 0. -1.
         -1    1    6    6    0  503 -0.20942120982E+03 -0.65380017355E+02 -0.44648330538E+03  0.49747274476E+03  0.00000000000E+00 0.  1.
<mgrwt>
<rscale>  0 0.16179154E+04</rscale>
<asrwt>0</asrwt>
<pdfrwt beam="1">  1        2 0.60704390E+00 0.16179154E+04</pdfrwt>
<pdfrwt beam="2">  1       -3 0.25515542E-01 0.16179154E+04</pdfrwt>
<totfact> 0.35431868E+00</totfact>
</mgrwt>
</event>
<event>
12    6  0.1403409E-007  0.5055352E+04  0.7818608E-02  0.7820025E-01
         -1   -1    0    0    0  501 -0.00000000000E+00  0.00000000000E+00  0.26511696327E+04  0.26511696327E+04  0.00000000000E+00 0.  1.
          2   -1    0    0  501    0  0.00000000000E+00 -0.00000000000E+00 -0.24099348851E+04  0.24099348851E+04  0.00000000000E+00 0. -1.
         24    2    1    2    0    0 -0.12605258743E+04 -0.18196337180E+04  0.11607060821E+04  0.25006785702E+04  0.78500669623E+02 0.  0.
        254    2    1    2    0    0  0.12605258743E+04  0.18196337180E+04 -0.91947133445E+03  0.25604259476E+04  0.90020061698E+03 0.  0.
         23    2    4    4    0    0  0.15350332989E+03  0.85501184507E+03 -0.10865076106E+03  0.88012661200E+03  0.90605395878E+02 0.  0.
         23    2    4    4    0    0  0.11070225444E+04  0.96462187297E+03 -0.81082057339E+03  0.16802993356E+04  0.99907874923E+02 0.  0.
          2    1    3    3  502    0 -0.11260374060E+03 -0.16438112285E+03  0.79704210915E+02  0.21460083220E+03  0.00000000000E+00 0. -1.
         -1    1    3    3    0  502 -0.11479221337E+04 -0.16552525952E+04  0.10810018711E+04  0.22860777380E+04  0.00000000000E+00 0.  1.
         11    1    5    5    0    0  0.15713149563E+03  0.78089272604E+03 -0.11834458171E+03  0.80528826921E+03  0.00000000000E+00 0. -1.
        -11    1    5    5    0    0 -0.36281657360E+01  0.74119119033E+02  0.96938206504E+01  0.74838342790E+02  0.00000000000E+00 0.  1.
          3    1    6    6  503    0  0.59302439335E+03  0.45425485976E+03 -0.39270695213E+03  0.84394559005E+03  0.00000000000E+00 0. -1.
         -3    1    6    6    0  503  0.51399815105E+03  0.51036701321E+03 -0.41811362126E+03  0.83635374558E+03  0.00000000000E+00 0.  1.
<mgrwt>
<rscale>  0 0.50553521E+04</rscale>
<asrwt>0</asrwt>
<pdfrwt beam="1">  1        2 0.37075921E+00 0.50553521E+04</pdfrwt>
<pdfrwt beam="2">  1       -1 0.40787225E+00 0.50553521E+04</pdfrwt>
<totfact> 0.20464448E-02</totfact>
</mgrwt>
</event>
<event>
12    6  0.1403409E-007  0.2214763E+04  0.7818608E-02  0.8512308E-01
         -1   -1    0    0    0  501 -0.00000000000E+00  0.00000000000E+00  0.37593000154E+03  0.37593000154E+03  0.00000000000E+00 0.  1.
          2   -1    0    0  501    0  0.00000000000E+00 -0.00000000000E+00 -0.32620271846E+04  0.32620271846E+04  0.00000000000E+00 0. -1.
         24    2    1    2    0    0  0.36639929799E+02 -0.37297001037E+02  0.30676738625E+03  0.31988567527E+03  0.74074727369E+02 0.  0.
        254    2    1    2    0    0 -0.36639929799E+02  0.37297001037E+02 -0.31928645693E+04  0.33180715108E+04  0.90137719213E+03 0.  0.
         23    2    4    4    0    0  0.21193837034E+03  0.86392714970E+02 -0.21787882754E+03  0.33090956386E+03  0.98226177446E+02 0.  0.
         23    2    4    4    0    0 -0.24857830014E+03 -0.49095713933E+02 -0.29749857417E+04  0.29871619470E+04  0.91622996528E+02 0.  0.
          2    1    3    3  502    0 -0.15442723444E+02 -0.15466721377E+02  0.28340509060E+02  0.35789406691E+02  0.00000000000E+00 0. -1.
         -1    1    3    3    0  502  0.52082653243E+02 -0.21830279659E+02  0.27842687719E+03  0.28409626858E+03  0.00000000000E+00 0.  1.
         11    1    5    5    0    0  0.16035006322E+03  0.71162218929E+02 -0.10144320614E+03  0.20264976745E+03  0.00000000000E+00 0. -1.
        -11    1    5    5    0    0  0.51588307126E+02  0.15230496041E+02 -0.11643562140E+03  0.12825979640E+03  0.00000000000E+00 0.  1.
          4    1    6    6  503    0 -0.14109003952E+03 -0.69001851523E+02 -0.15271076885E+04  0.15351630360E+04  0.00000000000E+00 0.  1.
         -4    1    6    6    0  503 -0.10748826062E+03  0.19906137590E+02 -0.14478780533E+04  0.14519989110E+04  0.00000000000E+00 0. -1.
<mgrwt>
<rscale>  0 0.22147631E+04</rscale>
<asrwt>0</asrwt>
<pdfrwt beam="1">  1        2 0.50185034E+00 0.22147631E+04</pdfrwt>
<pdfrwt beam="2">  1       -1 0.57835385E-01 0.22147631E+04</pdfrwt>
<totfact> 0.37217813E+00</totfact>
</mgrwt>
</event>
<event>
12    6  0.1403409E-007  0.2179138E+04  0.7818608E-02  0.8527162E-01
         -1   -1    0    0    0  501 -0.00000000000E+00  0.00000000000E+00  0.71663913895E+03  0.71663913895E+03  0.00000000000E+00 0.  1.
          2   -1    0    0  501    0  0.00000000000E+00 -0.00000000000E+00 -0.16565669411E+04  0.16565669411E+04  0.00000000000E+00 0. -1.
         24    2    1    2    0    0  0.61184263544E+03  0.14909810616E+03 -0.10927957254E+04  0.12635403782E+04  0.75829638697E+02 0.  0.
        254    2    1    2    0    0 -0.61184263544E+03 -0.14909810616E+03  0.15286792316E+03  0.11096657019E+04  0.90078172288E+03 0.  0.
         23    2    4    4    0    0 -0.32370024408E+03 -0.36750416189E+03 -0.25251460654E+03  0.55842745194E+03  0.90754809974E+02 0.  0.
         23    2    4    4    0    0 -0.28814239135E+03  0.21840605573E+03  0.40538252971E+03  0.55123824998E+03  0.93815616912E+02 0.  0.
          4    1    3    3  502    0  0.52331115951E+03  0.99228641665E+02 -0.92345688440E+03  0.10660551160E+04  0.00000000000E+00 0. -1.
         -3    1    3    3    0  502  0.88531475930E+02  0.49869464498E+02 -0.16933884096E+03  0.19748526218E+03  0.00000000000E+00 0.  1.
         11    1    5    5    0    0 -0.36434920501E+02 -0.52862197561E+02 -0.21078776497E+01  0.64236738017E+02  0.00000000000E+00 0. -1.
        -11    1    5    5    0    0 -0.28726532358E+03 -0.31464196433E+03 -0.25040672889E+03  0.49419071392E+03  0.00000000000E+00 0.  1.
          2    1    6    6  503    0 -0.53994088063E+02  0.86278075117E+01  0.32871365745E+02  0.63799116719E+02  0.00000000000E+00 0. -1.
         -2    1    6    6    0  503 -0.23414830329E+03  0.20977824822E+03  0.37251116396E+03  0.48743913326E+03  0.00000000000E+00 0.  1.
<mgrwt>
<rscale>  0 0.21791381E+04</rscale>
<asrwt>0</asrwt>
<pdfrwt beam="1">  1        2 0.25485645E+00 0.21791381E+04</pdfrwt>
<pdfrwt beam="2">  1       -1 0.11025218E+00 0.21791381E+04</pdfrwt>
<totfact> 0.82070613E+00</totfact>
</mgrwt>
</event>
<event>
12    6  0.1403409E-007  0.1851932E+04  0.7818608E-02  0.8679160E-01
         -1   -1    0    0    0  501 -0.00000000000E+00  0.00000000000E+00  0.12936751535E+04  0.12936751535E+04  0.00000000000E+00 0.  1.
          2   -1    0    0  501    0  0.00000000000E+00 -0.00000000000E+00 -0.66277292826E+03  0.66277292826E+03  0.00000000000E+00 0. -1.
         24    2    1    2    0    0  0.40650980954E+03  0.37540225682E+03  0.70203591318E+03  0.89759258965E+03  0.81492048224E+02 0.  0.
        254    2    1    2    0    0 -0.40650980954E+03 -0.37540225682E+03 -0.71133687926E+02  0.10588554921E+04  0.89996548377E+03 0.  0.
         23    2    4    4    0    0  0.14749192179E+03  0.59200429258E+02 -0.26604748800E+03  0.32303209745E+03  0.91158720336E+02 0.  0.
         23    2    4    4    0    0 -0.55400173133E+03 -0.43460268608E+03  0.19491380007E+03  0.73582339468E+03  0.87448645659E+02 0.  0.
          4    1    3    3  502    0  0.32530245249E+01  0.97817250596E+01  0.14690667130E+01  0.10412611138E+02  0.00000000000E+00 0. -1.
         -3    1    3    3    0  502  0.40325678501E+03  0.36562053176E+03  0.70056684646E+03  0.88717997851E+03  0.00000000000E+00 0.  1.
         11    1    5    5    0    0 -0.71369678409E+01  0.22617960293E+02 -0.26366117305E+02  0.35463792514E+02  0.00000000000E+00 0.  1.
        -11    1    5    5    0    0  0.15462888964E+03  0.36582468965E+02 -0.23968137070E+03  0.28756830494E+03  0.00000000000E+00 0. -1.
          2    1    6    6  503    0 -0.33098671467E+03 -0.20487503103E+03  0.10072554770E+03  0.40208409517E+03  0.00000000000E+00 0. -1.
         -2    1    6    6    0  503 -0.22301501666E+03 -0.22972765505E+03  0.94188252369E+02  0.33373929951E+03  0.00000000000E+00 0.  1.
<mgrwt>
<rscale>  0 0.18519318E+04</rscale>
<asrwt>0</asrwt>
<pdfrwt beam="1">  1        2 0.10196507E+00 0.18519318E+04</pdfrwt>
<pdfrwt beam="2">  1       -1 0.19902695E+00 0.18519318E+04</pdfrwt>
<totfact> 0.72008984E+00</totfact>
</mgrwt>
</event>
<event>
12    6  0.1403409E-007  0.2474307E+04  0.7818608E-02  0.8412196E-01
          2   -1    0    0  501    0  0.00000000000E+00  0.00000000000E+00  0.12683749740E+04  0.12683749740E+04  0.00000000000E+00 0. -1.
         -1   -1    0    0    0  501 -0.00000000000E+00 -0.00000000000E+00 -0.12067003787E+04  0.12067003787E+04  0.00000000000E+00 0.  1.
         24    2    1    2    0    0  0.63691811785E+03  0.86128616921E+03  0.49178607217E+02  0.10752565668E+04  0.79243895036E+02 0.  0.
        254    2    1    2    0    0 -0.63691811785E+03 -0.86128616921E+03  0.12495988121E+02  0.13998187859E+04  0.90103159187E+03 0.  0.
         23    2    4    4    0    0 -0.48595930878E+03 -0.36342409935E+03 -0.39694423752E+03  0.73075734644E+03  0.90598266523E+02 0.  0.
         23    2    4    4    0    0 -0.15095880907E+03 -0.49786206986E+03  0.40944022564E+03  0.66906143947E+03  0.96678378008E+02 0.  0.
          2    1    3    3  502    0  0.24287544506E+03  0.31160083056E+03  0.55111698297E+02  0.39889955968E+03  0.00000000000E+00 0. -1.
         -1    1    3    3    0  502  0.39404267279E+03  0.54968533865E+03 -0.59330910804E+01  0.67635700711E+03  0.00000000000E+00 0.  1.
         11    1    5    5    0    0 -0.15372004711E+03 -0.66064336154E+02 -0.11951625849E+03  0.20561732768E+03  0.00000000000E+00 0. -1.
        -11    1    5    5    0    0 -0.33223926166E+03 -0.29735976320E+03 -0.27742797902E+03  0.52514001876E+03  0.00000000000E+00 0.  1.
          3    1    6    6  503    0 -0.10157487856E+03 -0.43901462318E+03  0.32980507199E+03  0.55841085307E+03  0.00000000000E+00 0. -1.
         -3    1    6    6    0  503 -0.49383930508E+02 -0.58847446680E+02  0.79635153650E+02  0.11065058640E+03  0.00000000000E+00 0.  1.
<mgrwt>
<rscale>  0 0.24743068E+04</rscale>
<asrwt>0</asrwt>
<pdfrwt beam="1">  1        2 0.19513461E+00 0.24743068E+04</pdfrwt>
<pdfrwt beam="2">  1       -1 0.18564621E+00 0.24743068E+04</pdfrwt>
<totfact> 0.33326206E+00</totfact>
</mgrwt>
</event>
<event>
12    6  0.1403409E-007  0.2267623E+04  0.7818608E-02  0.8490797E-01
          2   -1    0    0  501    0  0.00000000000E+00  0.00000000000E+00  0.26342896414E+04  0.26342896414E+04  0.00000000000E+00 0. -1.
         -1   -1    0    0    0  501 -0.00000000000E+00 -0.00000000000E+00 -0.48799811457E+03  0.48799811457E+03  0.00000000000E+00 0.  1.
         24    2    1    2    0    0 -0.17823818521E+03 -0.93406006620E+03  0.10084156786E+04  0.13884428561E+04  0.81451370862E+02 0.  0.
        254    2    1    2    0    0  0.17823818521E+03  0.93406006620E+03  0.11378758483E+04  0.17338448999E+04  0.89845402384E+03 0.  0.
         23    2    4    4    0    0  0.45748180812E+02  0.30852992077E+03 -0.98283372477E+02  0.33975747632E+03  0.92151578138E+02 0.  0.
         23    2    4    4    0    0  0.13249000440E+03  0.62553014543E+03  0.12361592207E+04  0.13940874236E+04  0.80923182680E+02 0.  0.
          4    1    3    3  502    0 -0.11170755645E+03 -0.37207406378E+03  0.40845959183E+03  0.56369932168E+03  0.00000000000E+00 0. -1.
         -3    1    3    3    0  502 -0.66530628758E+02 -0.56198600242E+03  0.59995608674E+03  0.82474353438E+03  0.00000000000E+00 0.  1.
         11    1    5    5    0    0  0.63621643340E+02  0.12971095212E+03 -0.57379885294E+02  0.15545126515E+03  0.00000000000E+00 0.  1.
        -11    1    5    5    0    0 -0.17873462528E+02  0.17881896865E+03 -0.40903487183E+02  0.18430621117E+03  0.00000000000E+00 0. -1.
          1    1    6    6  503    0  0.13825963334E+03  0.53693256335E+03  0.10940579406E+04  0.12265296903E+04  0.00000000000E+00 0. -1.
         -1    1    6    6    0  503 -0.57696289457E+01  0.88597582076E+02  0.14210128009E+03  0.16755773325E+03  0.00000000000E+00 0.  1.
<mgrwt>
<rscale>  0 0.22676229E+04</rscale>
<asrwt>0</asrwt>
<pdfrwt beam="1">  1        2 0.40527532E+00 0.22676229E+04</pdfrwt>
<pdfrwt beam="2">  1       -1 0.75076635E-01 0.22676229E+04</pdfrwt>
<totfact> 0.53611086E+00</totfact>
</mgrwt>
</event>
<event>
12    6  0.1403409E-007  0.2916323E+04  0.7818608E-02  0.8268037E-01
          2   -1    0    0  501    0  0.00000000000E+00  0.00000000000E+00  0.21870286495E+04  0.21870286495E+04  0.00000000000E+00 0. -1.
         -1   -1    0    0    0  501 -0.00000000000E+00 -0.00000000000E+00 -0.97220272758E+03  0.97220272758E+03  0.00000000000E+00 0.  1.
         24    2    1    2    0    0 -0.79694656918E+03  0.82163284750E+03 -0.15695005699E+03  0.11582035645E+04  0.81226881576E+02 0.  0.
        254    2    1    2    0    0  0.79694656918E+03 -0.82163284750E+03  0.13717759789E+04  0.20010278126E+04  0.90118732796E+03 0.  0.
         23    2    4    4    0    0  0.40561331557E+03 -0.57751712489E+03  0.20162221440E+03  0.73991534896E+03  0.93675049903E+02 0.  0.
         23    2    4    4    0    0  0.39133325361E+03 -0.24411572262E+03  0.11701537645E+04  0.12611124636E+04  0.91709387838E+02 0.  0.
          2    1    3    3  502    0 -0.39390498686E+03  0.46036107949E+03 -0.97771650290E+02  0.61372042314E+03  0.00000000000E+00 0. -1.
         -1    1    3    3    0  502 -0.40304158231E+03  0.36127176802E+03 -0.59178406699E+02  0.54448314139E+03  0.00000000000E+00 0.  1.
         11    1    5    5    0    0  0.36173474778E+03 -0.45197960359E+03  0.16609059233E+03  0.60226545199E+03  0.00000000000E+00 0.  1.
        -11    1    5    5    0    0  0.43878567793E+02 -0.12553752130E+03  0.35531622073E+02  0.13764989696E+03  0.00000000000E+00 0. -1.
          4    1    6    6  503    0  0.17585809949E+03 -0.15367497782E+03  0.51341053930E+03  0.56403231452E+03  0.00000000000E+00 0. -1.
         -4    1    6    6    0  503  0.21547515412E+03 -0.90440744800E+02  0.65674322525E+03  0.69708014910E+03  0.00000000000E+00 0.  1.
<mgrwt>
<rscale>  0 0.29163232E+04</rscale>
<asrwt>0</asrwt>
<pdfrwt beam="1">  1        2 0.33646595E+00 0.29163232E+04</pdfrwt>
<pdfrwt beam="2">  1       -1 0.14956965E+00 0.29163232E+04</pdfrwt>
<totfact> 0.18096722E+00</totfact>
</mgrwt>
</event>
<event>
12    6  0.1403409E-007  0.2219173E+04  0.7818608E-02  0.8510490E-01
         -1   -1    0    0    0  501 -0.00000000000E+00  0.00000000000E+00  0.80867478853E+03  0.80867478853E+03  0.00000000000E+00 0.  1.
          2   -1    0    0  501    0  0.00000000000E+00 -0.00000000000E+00 -0.15224687865E+04  0.15224687865E+04  0.00000000000E+00 0. -1.
         24    2    1    2    0    0  0.56386152527E+02 -0.17414541993E+03 -0.12522958137E+04  0.12680238632E+04  0.78317859689E+02 0.  0.
        254    2    1    2    0    0 -0.56386152527E+02  0.17414541993E+03  0.53850181567E+03  0.10631197119E+04  0.89818332809E+03 0.  0.
         23    2    4    4    0    0  0.37152681930E+03  0.22974860042E+03  0.40373381039E+03  0.60189958661E+03  0.92008292311E+02 0.  0.
         23    2    4    4    0    0 -0.42791297182E+03 -0.55603180486E+02  0.13476800527E+03  0.46122012529E+03  0.91435023863E+02 0.  0.
          4    1    3    3  502    0  0.60803178735E+02 -0.10651018057E+03 -0.96911214833E+03  0.97684174827E+03  0.00000000000E+00 0. -1.
         -3    1    3    3    0  502 -0.44170262081E+01 -0.67635239366E+02 -0.28318366532E+03  0.29118211488E+03  0.00000000000E+00 0.  1.
         11    1    5    5    0    0  0.25687770186E+03  0.13488745474E+03  0.31669869722E+03  0.42951000452E+03  0.00000000000E+00 0. -1.
        -11    1    5    5    0    0  0.11464911743E+03  0.94861145678E+02  0.87035113168E+02  0.17238958209E+03  0.00000000000E+00 0.  1.
          4    1    6    6  503    0 -0.31315711672E+03 -0.22038605252E+02  0.58312757432E+02  0.31930151511E+03  0.00000000000E+00 0. -1.
         -4    1    6    6    0  503 -0.11475585510E+03 -0.33564575234E+02  0.76455247841E+02  0.14191861017E+03  0.00000000000E+00 0.  1.
<mgrwt>
<rscale>  0 0.22191729E+04</rscale>
<asrwt>0</asrwt>
<pdfrwt beam="1">  1        2 0.23422596E+00 0.22191729E+04</pdfrwt>
<pdfrwt beam="2">  1       -1 0.12441151E+00 0.22191729E+04</pdfrwt>
<totfact> 0.72574983E+00</totfact>
</mgrwt>
</event>
<event>
12    6  0.1403409E-007  0.1312405E+04  0.7818608E-02  0.9019785E-01
         -1   -1    0    0    0  501 -0.00000000000E+00  0.00000000000E+00  0.59381211286E+03  0.59381211286E+03  0.00000000000E+00 0.  1.
          2   -1    0    0  501    0  0.00000000000E+00 -0.00000000000E+00 -0.72514840325E+03  0.72514840325E+03  0.00000000000E+00 0. -1.
         24    2    1    2    0    0  0.19952866059E+03  0.24371729892E+03  0.98211743645E+02  0.33909127611E+03  0.78278597020E+02 0.  0.
        254    2    1    2    0    0 -0.19952866059E+03 -0.24371729892E+03 -0.22954803404E+03  0.97986924000E+03  0.89902259114E+03 0.  0.
         23    2    4    4    0    0 -0.51067825512E+03 -0.15749270172E+03  0.49645366635E+02  0.54434052919E+03  0.90805935606E+02 0.  0.
         23    2    4    4    0    0  0.31114959453E+03 -0.86224597206E+02 -0.27919340067E+03  0.43552871081E+03  0.86530639756E+02 0.  0.
          4    1    3    3  502    0  0.36451872698E+02  0.85554322192E+02  0.37912020591E+01  0.93073381167E+02  0.00000000000E+00 0. -1.
         -1    1    3    3    0  502  0.16307678789E+03  0.15816297673E+03  0.94420541586E+02  0.24601789494E+03  0.00000000000E+00 0.  1.
         11    1    5    5    0    0 -0.17271729899E+03 -0.93269144068E+02  0.39232255122E+02  0.20017384556E+03  0.00000000000E+00 0.  1.
        -11    1    5    5    0    0 -0.33796095613E+03 -0.64223557649E+02  0.10413111513E+02  0.34416668363E+03  0.00000000000E+00 0. -1.
          1    1    6    6  503    0  0.17523698927E+03 -0.51815452613E+02 -0.10099489036E+03  0.20878891593E+03  0.00000000000E+00 0. -1.
         -1    1    6    6    0  503  0.13591260526E+03 -0.34409144593E+02 -0.17819851032E+03  0.22673979488E+03  0.00000000000E+00 0.  1.
<mgrwt>
<rscale>  0 0.13124053E+04</rscale>
<asrwt>0</asrwt>
<pdfrwt beam="1">  1        2 0.11156129E+00 0.13124053E+04</pdfrwt>
<pdfrwt beam="2">  1       -1 0.91355711E-01 0.13124053E+04</pdfrwt>
<totfact> 0.51219757E+01</totfact>
</mgrwt>
</event>
<event>
12    6  0.1403409E-007  0.2323475E+04  0.7818608E-02  0.8468722E-01
         -1   -1    0    0    0  501 -0.00000000000E+00  0.00000000000E+00  0.18140142255E+04  0.18140142255E+04  0.00000000000E+00 0.  1.
          2   -1    0    0  501    0  0.00000000000E+00 -0.00000000000E+00 -0.74400410122E+03  0.74400410122E+03  0.00000000000E+00 0. -1.
         24    2    1    2    0    0  0.82278356903E+03  0.44040432823E+03  0.79501967048E+03  0.12285166513E+04  0.79171410326E+02 0.  0.
        254    2    1    2    0    0 -0.82278356903E+03 -0.44040432823E+03  0.27499045380E+03  0.13295016755E+04  0.90610495063E+03 0.  0.
         23    2    4    4    0    0  0.50233541772E+02 -0.11872764887E+03 -0.22018171489E+03  0.27163393172E+03  0.93195182095E+02 0.  0.
         23    2    4    4    0    0 -0.87301711081E+03 -0.32167667936E+03  0.49517216869E+03  0.10578677437E+04  0.90851113193E+02 0.  0.
          4    1    3    3  502    0  0.82415576672E+02  0.65133563733E+02  0.68312298284E+02  0.12530474253E+03  0.00000000000E+00 0. -1.
         -3    1    3    3    0  502  0.74036799236E+03  0.37527076449E+03  0.72670737220E+03  0.11032119088E+04  0.00000000000E+00 0.  1.
         11    1    5    5    0    0  0.22021454477E+02 -0.55093728196E+02 -0.24949690061E+02  0.64364201059E+02  0.00000000000E+00 0. -1.
        -11    1    5    5    0    0  0.28212087295E+02 -0.63633920670E+02 -0.19523202483E+03  0.20726973066E+03  0.00000000000E+00 0.  1.
          4    1    6    6  503    0 -0.50786890910E+03 -0.14015348828E+03  0.28964213637E+03  0.60122075502E+03  0.00000000000E+00 0. -1.
         -4    1    6    6    0  503 -0.36514820171E+03 -0.18152319108E+03  0.20553003232E+03  0.45664698871E+03  0.00000000000E+00 0.  1.
<mgrwt>
<rscale>  0 0.23234750E+04</rscale>
<asrwt>0</asrwt>
<pdfrwt beam="1">  1        2 0.11446217E+00 0.23234750E+04</pdfrwt>
<pdfrwt beam="2">  1       -1 0.27907911E+00 0.23234750E+04</pdfrwt>
<totfact> 0.17653649E+00</totfact>
</mgrwt>
</event>
<event>
12    6  0.1403409E-007  0.2720360E+04  0.7818608E-02  0.8328429E-01
         -1   -1    0    0    0  501 -0.00000000000E+00  0.00000000000E+00  0.75033138224E+03  0.75033138224E+03  0.00000000000E+00 0.  1.
          2   -1    0    0  501    0  0.00000000000E+00 -0.00000000000E+00 -0.24656968181E+04  0.24656968181E+04  0.00000000000E+00 0. -1.
         24    2    1    2    0    0  0.94583650622E+03  0.50533049853E+03 -0.10122306861E+03  0.10799615986E+04  0.78136647377E+02 0.  0.
        254    2    1    2    0    0 -0.94583650622E+03 -0.50533049853E+03 -0.16141423672E+04  0.21360666017E+04  0.89853176677E+03 0.  0.
         23    2    4    4    0    0 -0.24701981574E+03  0.17004355267E+03 -0.90377775357E+02  0.32649391964E+03  0.92176667929E+02 0.  0.
         23    2    4    4    0    0 -0.69881669048E+03 -0.67537405120E+03 -0.15237645919E+04  0.18095726820E+04  0.90663577161E+02 0.  0.
          2    1    3    3  502    0  0.45946030289E+02  0.81595065943E+01 -0.10786923583E+02  0.47895437857E+02  0.00000000000E+00 0. -1.
         -1    1    3    3    0  502  0.89989047593E+03  0.49717099193E+03 -0.90436145030E+02  0.10320661608E+04  0.00000000000E+00 0.  1.
         11    1    5    5    0    0 -0.14052056761E+03  0.89736042690E+02 -0.24712012935E+01  0.16674739612E+03  0.00000000000E+00 0. -1.
        -11    1    5    5    0    0 -0.10649924814E+03  0.80307509982E+02 -0.87906574064E+02  0.15974652352E+03  0.00000000000E+00 0.  1.
          1    1    6    6  503    0 -0.64262279395E+03 -0.63652317208E+03 -0.14504188428E+04  0.17093392359E+04  0.00000000000E+00 0. -1.
         -1    1    6    6    0  503 -0.56193896525E+02 -0.38850879116E+02 -0.73345749086E+02  0.10023344613E+03  0.00000000000E+00 0.  1.
<mgrwt>
<rscale>  0 0.27203601E+04</rscale>
<asrwt>0</asrwt>
<pdfrwt beam="1">  1        2 0.37933798E+00 0.27203601E+04</pdfrwt>
<pdfrwt beam="2">  1       -1 0.11543560E+00 0.27203601E+04</pdfrwt>
<totfact> 0.24677093E+00</totfact>
</mgrwt>
</event>
<event>
12    6  0.1403409E-007  0.1855700E+04  0.7818608E-02  0.8677227E-01
          2   -1    0    0  501    0  0.00000000000E+00  0.00000000000E+00  0.11415305268E+04  0.11415305268E+04  0.00000000000E+00 0. -1.
         -1   -1    0    0    0  501 -0.00000000000E+00 -0.00000000000E+00 -0.75416798363E+03  0.75416798363E+03  0.00000000000E+00 0.  1.
         24    2    1    2    0    0 -0.50739203930E+03 -0.44157458101E+03 -0.74376440291E+02  0.68152870090E+03  0.80713834940E+02 0.  0.
        254    2    1    2    0    0  0.50739203930E+03  0.44157458101E+03  0.46173898347E+03  0.12141698095E+04  0.89920556349E+03 0.  0.
         23    2    4    4    0    0 -0.11171853009E+03  0.39392239667E+02 -0.17899333594E+03  0.23226962214E+03  0.88756884492E+02 0.  0.
         23    2    4    4    0    0  0.61911056939E+03  0.40218234134E+03  0.64073231941E+03  0.98190018740E+03  0.92420452678E+02 0.  0.
          4    1    3    3  502    0 -0.97937736172E+02 -0.13082553600E+03 -0.16082404735E+02  0.16421255975E+03  0.00000000000E+00 0. -1.
         -3    1    3    3    0  502 -0.40945430313E+03 -0.31074904501E+03 -0.58294035556E+02  0.51731614116E+03  0.00000000000E+00 0.  1.
         11    1    5    5    0    0 -0.37069489663E+02  0.31032436061E+02 -0.12984722926E+02  0.50057588647E+02  0.00000000000E+00 0. -1.
        -11    1    5    5    0    0 -0.74649040426E+02  0.83598036063E+01 -0.16600861301E+03  0.18221203349E+03  0.00000000000E+00 0.  1.
          3    1    6    6  503    0  0.38710656830E+03  0.24445600303E+03  0.33740725570E+03  0.56873006676E+03  0.00000000000E+00 0. -1.
         -3    1    6    6    0  503  0.23200400109E+03  0.15772633830E+03  0.30332506371E+03  0.41317012064E+03  0.00000000000E+00 0.  1.
<mgrwt>
<rscale>  0 0.18557002E+04</rscale>
<asrwt>0</asrwt>
<pdfrwt beam="1">  1        2 0.17562008E+00 0.18557002E+04</pdfrwt>
<pdfrwt beam="2">  1       -1 0.11602584E+00 0.18557002E+04</pdfrwt>
<totfact> 0.14797156E+01</totfact>
</mgrwt>
</event>
<event>
12    6  0.1403409E-007  0.2134073E+04  0.7818608E-02  0.8546381E-01
          2   -1    0    0  501    0  0.00000000000E+00  0.00000000000E+00  0.21447149878E+04  0.21447149878E+04  0.00000000000E+00 0. -1.
         -1   -1    0    0    0  501 -0.00000000000E+00 -0.00000000000E+00 -0.53087075906E+03  0.53087075906E+03  0.00000000000E+00 0.  1.
         24    2    1    2    0    0  0.24422489747E+03 -0.83327565185E+03  0.53249470352E+03  0.10216033976E+04  0.78286526303E+02 0.  0.
        254    2    1    2    0    0 -0.24422489747E+03  0.83327565185E+03  0.10813495252E+04  0.16539823493E+04  0.90130278123E+03 0.  0.
         23    2    4    4    0    0  0.29343974367E+03  0.56596255560E+03  0.54769985245E+03  0.84548880179E+03  0.91954815403E+02 0.  0.
         23    2    4    4    0    0 -0.53766464114E+03  0.26731309625E+03  0.53364967279E+03  0.80849354748E+03  0.91325162428E+02 0.  0.
          2    1    3    3  502    0  0.18138713723E+03 -0.49678395792E+03  0.34286234568E+03  0.63027786133E+03  0.00000000000E+00 0. -1.
         -1    1    3    3    0  502  0.62837760244E+02 -0.33649169394E+03  0.18963235784E+03  0.39132553627E+03  0.00000000000E+00 0.  1.
         11    1    5    5    0    0  0.13750652257E+03  0.35453022625E+03  0.34836874839E+03  0.51571359292E+03  0.00000000000E+00 0.  1.
        -11    1    5    5    0    0  0.15593322110E+03  0.21143232936E+03  0.19933110407E+03  0.32977520888E+03  0.00000000000E+00 0. -1.
          4    1    6    6  503    0 -0.43020926581E+03  0.25158378338E+03  0.44895384768E+03  0.67077117544E+03  0.00000000000E+00 0. -1.
         -4    1    6    6    0  503 -0.10745537533E+03  0.15729312867E+02  0.84695825106E+02  0.13772237204E+03  0.00000000000E+00 0.  1.
<mgrwt>
<rscale>  0 0.21340726E+04</rscale>
<asrwt>0</asrwt>
<pdfrwt beam="1">  1        2 0.32995615E+00 0.21340726E+04</pdfrwt>
<pdfrwt beam="2">  1       -1 0.81672426E-01 0.21340726E+04</pdfrwt>
<totfact> 0.86580334E+00</totfact>
</mgrwt>
</event>
<event>
12    6  0.1403409E-007  0.2469361E+04  0.7818608E-02  0.8413983E-01
         -1   -1    0    0    0  501 -0.00000000000E+00  0.00000000000E+00  0.94434278865E+03  0.94434278865E+03  0.00000000000E+00 0.  1.
          2   -1    0    0  501    0  0.00000000000E+00 -0.00000000000E+00 -0.16142828534E+04  0.16142828534E+04  0.00000000000E+00 0. -1.
         24    2    1    2    0    0  0.23150819237E+03  0.27375157669E+03 -0.13346002086E+04  0.13842016747E+04  0.79502141706E+02 0.  0.
        254    2    1    2    0    0 -0.23150819237E+03 -0.27375157669E+03  0.66466014391E+03  0.11744239673E+04  0.89942347047E+03 0.  0.
         23    2    4    4    0    0 -0.33310293439E+03 -0.15405153093E+03 -0.98372946614E+02  0.39005962490E+03  0.88203374459E+02 0.  0.
         23    2    4    4    0    0  0.10159474203E+03 -0.11970004576E+03  0.76303309052E+03  0.78436434242E+03  0.91423912989E+02 0.  0.
          4    1    3    3  502    0  0.17758075284E+03  0.15117311922E+03 -0.86314000496E+03  0.89409110493E+03  0.00000000000E+00 0. -1.
         -3    1    3    3    0  502  0.53927439523E+02  0.12257845747E+03 -0.47146020368E+03  0.49011056979E+03  0.00000000000E+00 0.  1.
         11    1    5    5    0    0 -0.23463435691E+03 -0.63581076880E+02 -0.52593087715E+02  0.24872046087E+03  0.00000000000E+00 0. -1.
        -11    1    5    5    0    0 -0.98468577486E+02 -0.90470454047E+02 -0.45779858899E+02  0.14133916403E+03  0.00000000000E+00 0.  1.
          1    1    6    6  503    0  0.63984305477E+02 -0.11525989739E+03  0.68568253211E+03  0.69824019516E+03  0.00000000000E+00 0. -1.
         -1    1    6    6    0  503  0.37610436548E+02 -0.44401483729E+01  0.77350558405E+02  0.86124147256E+02  0.00000000000E+00 0.  1.
<mgrwt>
<rscale>  0 0.24693614E+04</rscale>
<asrwt>0</asrwt>
<pdfrwt beam="1">  1        2 0.24835121E+00 0.24693614E+04</pdfrwt>
<pdfrwt beam="2">  1       -1 0.14528351E+00 0.24693614E+04</pdfrwt>
<totfact> 0.42373233E+00</totfact>
</mgrwt>
</event>
<event>
12    6  0.1403409E-007  0.3121114E+04  0.7818608E-02  0.8209967E-01
         -1   -1    0    0    0  501 -0.00000000000E+00  0.00000000000E+00  0.10655589584E+04  0.10655589584E+04  0.00000000000E+00 0.  1.
          2   -1    0    0  501    0  0.00000000000E+00 -0.00000000000E+00 -0.22855035468E+04  0.22855035468E+04  0.00000000000E+00 0. -1.
         24    2    1    2    0    0 -0.10759329502E+04 -0.60114080501E+03 -0.13371410853E+04  0.18203471340E+04  0.81947699731E+02 0.  0.
        254    2    1    2    0    0  0.10759329502E+04  0.60114080501E+03  0.11719649688E+03  0.15307153712E+04  0.90019583857E+03 0.  0.
         23    2    4    4    0    0 -0.11288538109E+03 -0.34620665663E+02  0.94439293986E+02  0.17922977178E+03  0.96243602835E+02 0.  0.
         23    2    4    4    0    0  0.11888183313E+04  0.63576147067E+03  0.22757202892E+02  0.13514855994E+04  0.92270052394E+02 0.  0.
          4    1    3    3  502    0 -0.33857330722E+03 -0.18634862305E+03 -0.47630829804E+03  0.61337369397E+03  0.00000000000E+00 0. -1.
         -3    1    3    3    0  502 -0.73735964301E+03 -0.41479218196E+03 -0.86083278725E+03  0.12069734400E+04  0.00000000000E+00 0.  1.
         11    1    5    5    0    0 -0.34544963632E+02 -0.59248510172E+02  0.56076063133E+02  0.88590435863E+02  0.00000000000E+00 0.  1.
        -11    1    5    5    0    0 -0.78340417462E+02  0.24627844509E+02  0.38363230854E+02  0.90639335913E+02  0.00000000000E+00 0. -1.
          2    1    6    6  503    0  0.39628594672E+03  0.19430189272E+03  0.47889669475E+02  0.44394729138E+03  0.00000000000E+00 0. -1.
         -2    1    6    6    0  503  0.79253238461E+03  0.44145957794E+03 -0.25132466583E+02  0.90753830800E+03  0.00000000000E+00 0.  1.
<mgrwt>
<rscale>  0 0.31211144E+04</rscale>
<asrwt>0</asrwt>
<pdfrwt beam="1">  1        2 0.35161593E+00 0.31211144E+04</pdfrwt>
<pdfrwt beam="2">  1       -1 0.16393215E+00 0.31211144E+04</pdfrwt>
<totfact> 0.12150887E+00</totfact>
</mgrwt>
</event>
<event>
12    6  0.1403409E-007  0.2960373E+04  0.7818608E-02  0.8255138E-01
         -1   -1    0    0    0  501 -0.00000000000E+00  0.00000000000E+00  0.15700984352E+04  0.15700984352E+04  0.00000000000E+00 0.  1.
          2   -1    0    0  501    0  0.00000000000E+00 -0.00000000000E+00 -0.13954234424E+04  0.13954234424E+04  0.00000000000E+00 0. -1.
         24    2    1    2    0    0 -0.10153553827E+04  0.32245385860E+03  0.89683624980E+03  0.13947844936E+04  0.78647825398E+02 0.  0.
        254    2    1    2    0    0  0.10153553827E+04 -0.32245385860E+03 -0.72216125702E+03  0.15707373841E+04  0.90043101037E+03 0.  0.
         23    2    4    4    0    0  0.11329861330E+04 -0.38983717210E+03 -0.73244767905E+03  0.14073664829E+04  0.92575463080E+02 0.  0.
         23    2    4    4    0    0 -0.11763075028E+03  0.67383313510E+02  0.10286422030E+02  0.16337090116E+03  0.90591039937E+02 0.  0.
          2    1    3    3  502    0 -0.59121097225E+03  0.17468493938E+03  0.47045675700E+03  0.77548359232E+03  0.00000000000E+00 0. -1.
         -1    1    3    3    0  502 -0.42414441044E+03  0.14776891922E+03  0.42637949279E+03  0.61930090123E+03  0.00000000000E+00 0.  1.
         11    1    5    5    0    0  0.32837251256E+03 -0.15794566192E+03 -0.22342899812E+03  0.42742935828E+03  0.00000000000E+00 0. -1.
        -11    1    5    5    0    0  0.80461362041E+03 -0.23189151019E+03 -0.50901868093E+03  0.97993712461E+03  0.00000000000E+00 0.  1.
          3    1    6    6  503    0 -0.48407969747E+02  0.70561693555E+02 -0.19791024787E+02  0.87829202401E+02  0.00000000000E+00 0. -1.
         -3    1    6    6    0  503 -0.69222780534E+02 -0.31783800450E+01  0.30077446817E+02  0.75541698760E+02  0.00000000000E+00 0.  1.
<mgrwt>
<rscale>  0 0.29603731E+04</rscale>
<asrwt>0</asrwt>
<pdfrwt beam="1">  1        2 0.21468053E+00 0.29603731E+04</pdfrwt>
<pdfrwt beam="2">  1       -1 0.24155361E+00 0.29603731E+04</pdfrwt>
<totfact> 0.11276009E+00</totfact>
</mgrwt>
</event>
<event>
12    6  0.1403409E-007  0.2431378E+04  0.7818608E-02  0.8427849E-01
          2   -1    0    0  501    0  0.00000000000E+00  0.00000000000E+00  0.17717171755E+04  0.17717171755E+04  0.00000000000E+00 0. -1.
         -1   -1    0    0    0  501 -0.00000000000E+00 -0.00000000000E+00 -0.83416260366E+03  0.83416260366E+03  0.00000000000E+00 0.  1.
         24    2    1    2    0    0 -0.53336458637E+03 -0.75478236446E+03  0.93310056828E+03  0.13159150746E+04  0.82350551216E+02 0.  0.
        254    2    1    2    0    0  0.53336458637E+03  0.75478236446E+03  0.44540035655E+01  0.12899647046E+04  0.89989716148E+03 0.  0.
         23    2    4    4    0    0 -0.40625133405E+02 -0.14416464320E+03 -0.11790692379E+03  0.21205525293E+03  0.92906091315E+02 0.  0.
         23    2    4    4    0    0  0.57398971978E+03  0.89894700766E+03  0.12236092735E+03  0.10779094517E+04  0.96678169483E+02 0.  0.
          4    1    3    3  502    0 -0.27027623859E+03 -0.45021637074E+03  0.54482205494E+03  0.75668692150E+03  0.00000000000E+00 0. -1.
         -3    1    3    3    0  502 -0.26308834778E+03 -0.30456599372E+03  0.38827851334E+03  0.55922815307E+03  0.00000000000E+00 0.  1.
         11    1    5    5    0    0 -0.64242010701E+02 -0.13003792202E+03 -0.81347165539E+02  0.16629569581E+03  0.00000000000E+00 0.  1.
        -11    1    5    5    0    0  0.23616877296E+02 -0.14126721176E+02 -0.36559758248E+02  0.45759557117E+02  0.00000000000E+00 0. -1.
          4    1    6    6  503    0  0.10763281616E+02  0.52324814635E+02  0.14481253450E+02  0.55348361847E+02  0.00000000000E+00 0. -1.
         -4    1    6    6    0  503  0.56322643816E+03  0.84662219302E+03  0.10787967390E+03  0.10225610898E+04  0.00000000000E+00 0.  1.
<mgrwt>
<rscale>  0 0.24313784E+04</rscale>
<asrwt>0</asrwt>
<pdfrwt beam="1">  1        2 0.27257187E+00 0.24313784E+04</pdfrwt>
<pdfrwt beam="2">  1       -1 0.12833271E+00 0.24313784E+04</pdfrwt>
<totfact> 0.47861187E+00</totfact>
</mgrwt>
</event>
<event>
12    6  0.1403409E-007  0.2390235E+04  0.7818608E-02  0.8443168E-01
          2   -1    0    0  501    0  0.00000000000E+00  0.00000000000E+00  0.10584560462E+04  0.10584560462E+04  0.00000000000E+00 0. -1.
         -1   -1    0    0    0  501 -0.00000000000E+00 -0.00000000000E+00 -0.13494239032E+04  0.13494239032E+04  0.00000000000E+00 0.  1.
         24    2    1    2    0    0 -0.80378910552E+03 -0.62966338068E+03 -0.19883412644E+03  0.10432735521E+04  0.79572580073E+02 0.  0.
        254    2    1    2    0    0  0.80378910552E+03  0.62966338068E+03 -0.92133730582E+02  0.13646063973E+04  0.90061595366E+03 0.  0.
         23    2    4    4    0    0 -0.92360602976E+02  0.88777548431E+02  0.21819598477E+03  0.26885422752E+03  0.90890999531E+02 0.  0.
         23    2    4    4    0    0  0.89614970850E+03  0.54088583225E+03 -0.31032971536E+03  0.10957521697E+04  0.93415746394E+02 0.  0.
          4    1    3    3  502    0 -0.50715437488E+03 -0.41471603259E+03 -0.91093424974E+02  0.66143250579E+03  0.00000000000E+00 0. -1.
         -3    1    3    3    0  502 -0.29663473064E+03 -0.21494734809E+03 -0.10774070147E+03  0.38184104628E+03  0.00000000000E+00 0.  1.
         11    1    5    5    0    0 -0.53878287765E+02  0.29105856763E+02  0.30984236103E+02  0.68629757958E+02  0.00000000000E+00 0.  1.
        -11    1    5    5    0    0 -0.38482315211E+02  0.59671691668E+02  0.18721174867E+03  0.20022446956E+03  0.00000000000E+00 0. -1.
          4    1    6    6  503    0  0.66216508739E+03  0.42935991185E+03 -0.26584679733E+03  0.83275870245E+03  0.00000000000E+00 0. -1.
         -4    1    6    6    0  503  0.23398462111E+03  0.11152592040E+03 -0.44482918026E+02  0.26299346728E+03  0.00000000000E+00 0.  1.
<mgrwt>
<rscale>  0 0.23902350E+04</rscale>
<asrwt>0</asrwt>
<pdfrwt beam="1">  1        2 0.16283939E+00 0.23902350E+04</pdfrwt>
<pdfrwt beam="2">  1       -1 0.20760368E+00 0.23902350E+04</pdfrwt>
<totfact> 0.31667133E+00</totfact>
</mgrwt>
</event>
<event>
12    6  0.1403409E-007  0.2250461E+04  0.7818608E-02  0.8497714E-01
          2   -1    0    0  501    0  0.00000000000E+00  0.00000000000E+00  0.17096038739E+04  0.17096038739E+04  0.00000000000E+00 0. -1.
         -1   -1    0    0    0  501 -0.00000000000E+00 -0.00000000000E+00 -0.74060658053E+03  0.74060658053E+03  0.00000000000E+00 0.  1.
         24    2    1    2    0    0 -0.84797073154E+03  0.41127555464E+03  0.36276628997E+03  0.10133925630E+04  0.84635467176E+02 0.  0.
        254    2    1    2    0    0  0.84797073154E+03 -0.41127555464E+03  0.60623100338E+03  0.14368178914E+04  0.89929287782E+03 0.  0.
         23    2    4    4    0    0  0.81114787168E+01 -0.44559211845E+03  0.17101281043E+03  0.48598703157E+03  0.91213383966E+02 0.  0.
         23    2    4    4    0    0  0.83985925282E+03  0.34316563809E+02  0.43521819295E+03  0.95083085979E+03  0.90129114940E+02 0.  0.
          2    1    3    3  502    0 -0.61033863611E+03  0.25602097628E+03  0.23836833653E+03  0.70347669107E+03  0.00000000000E+00 0. -1.
         -1    1    3    3    0  502 -0.23763209543E+03  0.15525457836E+03  0.12439795344E+03  0.30991587197E+03  0.00000000000E+00 0.  1.
         11    1    5    5    0    0 -0.13954504389E+02 -0.41991294719E+03  0.14989271371E+03  0.44608232092E+03  0.00000000000E+00 0.  1.
        -11    1    5    5    0    0  0.22065983106E+02 -0.25679171255E+02  0.21120096723E+02  0.39904710654E+02  0.00000000000E+00 0. -1.
          4    1    6    6  503    0  0.30252515267E+03  0.20091135613E+02  0.20554072257E+03  0.36629511376E+03  0.00000000000E+00 0. -1.
         -4    1    6    6    0  503  0.53733410015E+03  0.14225428197E+02  0.22967747037E+03  0.58453574603E+03  0.00000000000E+00 0.  1.
<mgrwt>
<rscale>  0 0.22504612E+04</rscale>
<asrwt>0</asrwt>
<pdfrwt beam="1">  1        2 0.26301598E+00 0.22504612E+04</pdfrwt>
<pdfrwt beam="2">  1       -1 0.11393947E+00 0.22504612E+04</pdfrwt>
<totfact> 0.70468508E+00</totfact>
</mgrwt>
</event>
<event>
12    6  0.1403409E-007  0.2706724E+04  0.7818608E-02  0.8332826E-01
          2   -1    0    0  501    0  0.00000000000E+00  0.00000000000E+00  0.20036541577E+04  0.20036541577E+04  0.00000000000E+00 0. -1.
         -1   -1    0    0    0  501 -0.00000000000E+00 -0.00000000000E+00 -0.91412445676E+03  0.91412445676E+03  0.00000000000E+00 0.  1.
         24    2    1    2    0    0  0.42147970445E+03 -0.77739539437E+02  0.16959231472E+04  0.17510600528E+04  0.79796053486E+02 0.  0.
        254    2    1    2    0    0 -0.42147970445E+03  0.77739539437E+02 -0.60639344624E+03  0.11667185617E+04  0.89990589131E+03 0.  0.
         23    2    4    4    0    0  0.73330281812E+02 -0.46993615585E+02  0.18289660395E+03  0.22242563408E+03  0.91849141674E+02 0.  0.
         23    2    4    4    0    0 -0.49480998626E+03  0.12473315502E+03 -0.78929005019E+03  0.94429292757E+03  0.91186990676E+02 0.  0.
          4    1    3    3  502    0  0.16281092441E+03 -0.58542189678E+02  0.79076272980E+03  0.80946913463E+03  0.00000000000E+00 0. -1.
         -3    1    3    3    0  502  0.25866878005E+03 -0.19197349759E+02  0.90516041736E+03  0.94159091816E+03  0.00000000000E+00 0.  1.
         11    1    5    5    0    0  0.91480446105E+02 -0.27921469130E+02  0.11484087908E+03  0.14945470205E+03  0.00000000000E+00 0.  1.
        -11    1    5    5    0    0 -0.18150164293E+02 -0.19072146455E+02  0.68055724869E+02  0.72970932033E+02  0.00000000000E+00 0. -1.
          1    1    6    6  503    0 -0.31074886445E+03  0.85594947507E+02 -0.57441263985E+03  0.65866625283E+03  0.00000000000E+00 0. -1.
         -1    1    6    6    0  503 -0.18406112182E+03  0.39138207516E+02 -0.21487741034E+03  0.28562667474E+03  0.00000000000E+00 0.  1.
<mgrwt>
<rscale>  0 0.27067244E+04</rscale>
<asrwt>0</asrwt>
<pdfrwt beam="1">  1        2 0.30825448E+00 0.27067244E+04</pdfrwt>
<pdfrwt beam="2">  1       -1 0.14063453E+00 0.27067244E+04</pdfrwt>
<totfact> 0.27477091E+00</totfact>
</mgrwt>
</event>
<event>
12    6  0.1403409E-007  0.1237737E+04  0.7818608E-02  0.9080452E-01
          2   -1    0    0  501    0  0.00000000000E+00  0.00000000000E+00  0.35606311388E+04  0.35606311388E+04  0.00000000000E+00 0. -1.
         -1   -1    0    0    0  501 -0.00000000000E+00 -0.00000000000E+00 -0.10756474816E+03  0.10756474816E+03  0.00000000000E+00 0.  1.
         24    2    1    2    0    0  0.54371393045E+02  0.58528741834E+02  0.15311947267E+02  0.11415929812E+03  0.80100109957E+02 0.  0.
        254    2    1    2    0    0 -0.54371393045E+02 -0.58528741834E+02  0.34377544434E+04  0.35540365889E+04  0.89813061404E+03 0.  0.
         23    2    4    4    0    0 -0.41103567922E+03  0.17542404885E+03  0.14833408944E+04  0.15515168809E+04  0.84737808275E+02 0.  0.
         23    2    4    4    0    0  0.35666428618E+03 -0.23395279068E+03  0.19544135490E+04  0.20025197080E+04  0.91703538925E+02 0.  0.
          2    1    3    3  502    0  0.51653137385E+02  0.77742819905E+02  0.16200472264E+02  0.94733562954E+02  0.00000000000E+00 0. -1.
         -1    1    3    3    0  502  0.27182556602E+01 -0.19214078071E+02 -0.88852499657E+00  0.19425735163E+02  0.00000000000E+00 0.  1.
         11    1    5    5    0    0 -0.10966093619E+03  0.45837560561E+02  0.27824578749E+03  0.30256787856E+03  0.00000000000E+00 0. -1.
        -11    1    5    5    0    0 -0.30137474303E+03  0.12958648829E+03  0.12050951069E+04  0.12489490023E+04  0.00000000000E+00 0.  1.
          1    1    6    6  503    0  0.63290887806E+02 -0.43726435582E+02  0.54401950648E+03  0.54943148897E+03  0.00000000000E+00 0. -1.
         -1    1    6    6    0  503  0.29337339837E+03 -0.19022635510E+03  0.14103940425E+04  0.14530882190E+04  0.00000000000E+00 0.  1.
<mgrwt>
<rscale>  0 0.12377373E+04</rscale>
<asrwt>0</asrwt>
<pdfrwt beam="1">  1        2 0.54778932E+00 0.12377373E+04</pdfrwt>
<pdfrwt beam="2">  1       -1 0.16548425E-01 0.12377373E+04</pdfrwt>
<totfact> 0.23726472E+01</totfact>
</mgrwt>
</event>
<event>
12    6  0.1403409E-007  0.1398693E+04  0.7818608E-02  0.8954765E-01
         -1   -1    0    0    0  501 -0.00000000000E+00  0.00000000000E+00  0.57049781972E+03  0.57049781972E+03  0.00000000000E+00 0.  1.
          2   -1    0    0  501    0  0.00000000000E+00 -0.00000000000E+00 -0.85729559026E+03  0.85729559026E+03  0.00000000000E+00 0. -1.
         24    2    1    2    0    0  0.13289720594E+03 -0.26504348540E+03  0.19250501432E+03  0.36174060463E+03  0.76735702292E+02 0.  0.
        254    2    1    2    0    0 -0.13289720594E+03  0.26504348540E+03 -0.47930278486E+03  0.10660528053E+04  0.90489099217E+03 0.  0.
         23    2    4    4    0    0  0.24788659370E+03  0.21492231717E+03 -0.56730432301E+03  0.66150084929E+03  0.90054499915E+02 0.  0.
         23    2    4    4    0    0 -0.38078379964E+03  0.50121168225E+02  0.88001538146E+02  0.40455195606E+03  0.91703766887E+02 0.  0.
          4    1    3    3  502    0  0.40912459246E+02 -0.56314012960E+02  0.11500818106E+02  0.70550451411E+02  0.00000000000E+00 0. -1.
         -3    1    3    3    0  502  0.91984746693E+02 -0.20872947243E+03  0.18100419621E+03  0.29119015322E+03  0.00000000000E+00 0.  1.
         11    1    5    5    0    0 -0.72106534267E+01  0.21760630388E+01 -0.18871625552E+02  0.20319129513E+02  0.00000000000E+00 0.  1.
        -11    1    5    5    0    0  0.25509724713E+03  0.21274625413E+03 -0.54843269745E+03  0.64118171977E+03  0.00000000000E+00 0. -1.
          4    1    6    6  503    0 -0.11977700335E+03  0.57219822369E+02  0.43464448742E+02  0.13967747459E+03  0.00000000000E+00 0.  1.
         -4    1    6    6    0  503 -0.26100679629E+03 -0.70986541436E+01  0.44537089404E+02  0.26487448146E+03  0.00000000000E+00 0. -1.
<mgrwt>
<rscale>  0 0.13986926E+04</rscale>
<asrwt>0</asrwt>
<pdfrwt beam="1">  1        2 0.13189163E+00 0.13986926E+04</pdfrwt>
<pdfrwt beam="2">  1       -1 0.87768895E-01 0.13986926E+04</pdfrwt>
<totfact> 0.44511023E+01</totfact>
</mgrwt>
</event>
<event>
12    6  0.1403409E-007  0.1859397E+04  0.7818608E-02  0.8675335E-01
         -1   -1    0    0    0  501 -0.00000000000E+00  0.00000000000E+00  0.79556251976E+03  0.79556251976E+03  0.00000000000E+00 0.  1.
          2   -1    0    0  501    0  0.00000000000E+00 -0.00000000000E+00 -0.10864509903E+04  0.10864509903E+04  0.00000000000E+00 0. -1.
         24    2    1    2    0    0  0.46508367478E+03  0.37177015292E+03  0.27800008593E+03  0.66191307001E+03  0.79554970461E+02 0.  0.
        254    2    1    2    0    0 -0.46508367478E+03 -0.37177015292E+03 -0.56888855643E+03  0.12201004400E+04  0.90027497072E+03 0.  0.
         23    2    4    4    0    0 -0.34611821109E+03 -0.66168491649E+03 -0.38049100664E+03  0.84293679690E+03  0.90245734980E+02 0.  0.
         23    2    4    4    0    0 -0.11896546369E+03  0.28991476357E+03 -0.18839754979E+03  0.37716364310E+03  0.92495541661E+02 0.  0.
          2    1    3    3  502    0  0.37071406797E+03  0.26637257961E+03  0.18466852894E+03  0.49242840793E+03  0.00000000000E+00 0. -1.
         -1    1    3    3    0  502  0.94369606811E+02  0.10539757331E+03  0.93331556995E+02  0.16948466208E+03  0.00000000000E+00 0.  1.
         11    1    5    5    0    0 -0.13834447224E+03 -0.19221767952E+03 -0.14875028227E+03  0.27966672272E+03  0.00000000000E+00 0. -1.
        -11    1    5    5    0    0 -0.20777373885E+03 -0.46946723697E+03 -0.23174072437E+03  0.56327007418E+03  0.00000000000E+00 0.  1.
          4    1    6    6  503    0 -0.13755530487E+02  0.91468162644E+02 -0.15663370851E+02  0.93813541575E+02  0.00000000000E+00 0. -1.
         -4    1    6    6    0  503 -0.10520993320E+03  0.19844660092E+03 -0.17273417894E+03  0.28335010153E+03  0.00000000000E+00 0.  1.
<mgrwt>
<rscale>  0 0.18593974E+04</rscale>
<asrwt>0</asrwt>
<pdfrwt beam="1">  1        2 0.16714631E+00 0.18593974E+04</pdfrwt>
<pdfrwt beam="2">  1       -1 0.12239423E+00 0.18593974E+04</pdfrwt>
<totfact> 0.14037884E+01</totfact>
</mgrwt>
</event>
<event>
12    6  0.1403409E-007  0.2085520E+04  0.7818608E-02  0.8567649E-01
          2   -1    0    0  501    0  0.00000000000E+00  0.00000000000E+00  0.15061931480E+04  0.15061931480E+04  0.00000000000E+00 0. -1.
         -1   -1    0    0    0  501 -0.00000000000E+00 -0.00000000000E+00 -0.72191799367E+03  0.72191799367E+03  0.00000000000E+00 0.  1.
         24    2    1    2    0    0  0.15539873800E+03 -0.78226236992E+03  0.62136321389E+03  0.10137778806E+04  0.74633534220E+02 0.  0.
        254    2    1    2    0    0 -0.15539873800E+03  0.78226236992E+03  0.16291194043E+03  0.12143332611E+04  0.90110031930E+03 0.  0.
         23    2    4    4    0    0 -0.20093830387E+03  0.70325556922E+02  0.39480170670E+03  0.45847067839E+03  0.94895149605E+02 0.  0.
         23    2    4    4    0    0  0.45539565864E+02  0.71193681300E+03 -0.23188976626E+03  0.75586258268E+03  0.92884349754E+02 0.  0.
          2    1    3    3  502    0  0.69123656709E+02 -0.30018984254E+03  0.28496262600E+03  0.41963760520E+03  0.00000000000E+00 0. -1.
         -1    1    3    3    0  502  0.86275081293E+02 -0.48207252738E+03  0.33640058789E+03  0.59414027539E+03  0.00000000000E+00 0.  1.
         11    1    5    5    0    0 -0.67521685901E+02  0.56392771035E+02  0.22824830689E+03  0.24461523315E+03  0.00000000000E+00 0.  1.
        -11    1    5    5    0    0 -0.13341661797E+03  0.13932785888E+02  0.16655339980E+03  0.21385544524E+03  0.00000000000E+00 0. -1.
          1    1    6    6  503    0  0.56784672927E+01  0.58309035866E+03 -0.16945584386E+03  0.60724121597E+03  0.00000000000E+00 0. -1.
         -1    1    6    6    0  503  0.39861098572E+02  0.12884645434E+03 -0.62433922406E+02  0.14862136671E+03  0.00000000000E+00 0.  1.
<mgrwt>
<rscale>  0 0.20855195E+04</rscale>
<asrwt>0</asrwt>
<pdfrwt beam="1">  1        2 0.23172202E+00 0.20855195E+04</pdfrwt>
<pdfrwt beam="2">  1       -1 0.11106431E+00 0.20855195E+04</pdfrwt>
<totfact> 0.98736971E+00</totfact>
</mgrwt>
</event>
<event>
12    6  0.1403409E-007  0.3218241E+04  0.7818608E-02  0.8184016E-01
         -1   -1    0    0    0  501 -0.00000000000E+00  0.00000000000E+00  0.13078404685E+04  0.13078404685E+04  0.00000000000E+00 0.  1.
          2   -1    0    0  501    0  0.00000000000E+00 -0.00000000000E+00 -0.19798045385E+04  0.19798045385E+04  0.00000000000E+00 0. -1.
         24    2    1    2    0    0 -0.88127897557E+03  0.93365943441E+03  0.44700584957E+03  0.13617956020E+04  0.79375435944E+02 0.  0.
        254    2    1    2    0    0  0.88127897557E+03 -0.93365943441E+03 -0.11189699195E+04  0.19258494050E+04  0.89912717541E+03 0.  0.
         23    2    4    4    0    0 -0.10483384648E+03 -0.40808413227E+03 -0.43392684588E+03  0.61184253277E+03  0.92390383475E+02 0.  0.
         23    2    4    4    0    0  0.98611282205E+03 -0.52557530214E+03 -0.68504307367E+03  0.13140068722E+04  0.93178062822E+02 0.  0.
          2    1    3    3  502    0 -0.23391880064E+03  0.20698751196E+03  0.88312334216E+02  0.32459344383E+03  0.00000000000E+00 0. -1.
         -1    1    3    3    0  502 -0.64736017493E+03  0.72667192245E+03  0.35869351535E+03  0.10372021582E+04  0.00000000000E+00 0.  1.
         11    1    5    5    0    0 -0.84034737658E+01 -0.14801033227E+03 -0.10549255273E+03  0.18195151967E+03  0.00000000000E+00 0.  1.
        -11    1    5    5    0    0 -0.96430372713E+02 -0.26007380000E+03 -0.32843429315E+03  0.42989101310E+03  0.00000000000E+00 0. -1.
          4    1    6    6  503    0  0.95052180608E+03 -0.48575704487E+03 -0.64420845330E+03  0.12467783050E+04  0.00000000000E+00 0. -1.
         -4    1    6    6    0  503  0.35591015966E+02 -0.39818257276E+02 -0.40834620369E+02  0.67228567221E+02  0.00000000000E+00 0.  1.
<mgrwt>
<rscale>  0 0.32182408E+04</rscale>
<asrwt>0</asrwt>
<pdfrwt beam="1">  1        2 0.30458531E+00 0.32182408E+04</pdfrwt>
<pdfrwt beam="2">  1       -1 0.20120623E+00 0.32182408E+04</pdfrwt>
<totfact> 0.96821969E-01</totfact>
</mgrwt>
</event>
<event>
12    6  0.1403409E-007  0.2105896E+04  0.7818608E-02  0.8558651E-01
          2   -1    0    0  501    0  0.00000000000E+00  0.00000000000E+00  0.30335945844E+04  0.30335945844E+04  0.00000000000E+00 0. -1.
         -1   -1    0    0    0  501 -0.00000000000E+00 -0.00000000000E+00 -0.36547379098E+03  0.36547379098E+03  0.00000000000E+00 0.  1.
         24    2    1    2    0    0 -0.53312873034E+03  0.67240095577E+03  0.10224533408E+04  0.13372017587E+04  0.79676977731E+02 0.  0.
        254    2    1    2    0    0  0.53312873034E+03 -0.67240095577E+03  0.16456674526E+04  0.20618666167E+04  0.89817776198E+03 0.  0.
         23    2    4    4    0    0  0.60694812485E+03 -0.51155704902E+03  0.60555650694E+03  0.10028834474E+04  0.94867725577E+02 0.  0.
         23    2    4    4    0    0 -0.73819394506E+02 -0.16084390675E+03  0.10401109457E+04  0.10589831693E+04  0.91074190668E+02 0.  0.
          4    1    3    3  502    0 -0.28660572117E+03  0.34488586612E+03  0.59362176079E+03  0.74395960572E+03  0.00000000000E+00 0. -1.
         -3    1    3    3    0  502 -0.24652300917E+03  0.32751508965E+03  0.42883158003E+03  0.59324215294E+03  0.00000000000E+00 0.  1.
         11    1    5    5    0    0  0.20016270364E+03 -0.15624674668E+03  0.14085740772E+03  0.29037727715E+03  0.00000000000E+00 0. -1.
        -11    1    5    5    0    0  0.40678542121E+03 -0.35531030234E+03  0.46469909922E+03  0.71250617027E+03  0.00000000000E+00 0.  1.
          1    1    6    6  503    0  0.18236396342E+01 -0.95572019544E+02  0.40966032059E+03  0.42066484860E+03  0.00000000000E+00 0. -1.
         -1    1    6    6    0  503 -0.75643034140E+02 -0.65271887208E+02  0.63045062508E+03  0.63831832070E+03  0.00000000000E+00 0.  1.
<mgrwt>
<rscale>  0 0.21058958E+04</rscale>
<asrwt>0</asrwt>
<pdfrwt beam="1">  1        2 0.46670684E+00 0.21058958E+04</pdfrwt>
<pdfrwt beam="2">  1       -1 0.56226739E-01 0.21058958E+04</pdfrwt>
<totfact> 0.55745146E+00</totfact>
</mgrwt>
</event>
<event>
12    6  0.1403409E-007  0.1388797E+04  0.7818608E-02  0.8961968E-01
          2   -1    0    0  501    0  0.00000000000E+00  0.00000000000E+00  0.17280058356E+04  0.17280058356E+04  0.00000000000E+00 0. -1.
         -1   -1    0    0    0  501 -0.00000000000E+00 -0.00000000000E+00 -0.27904376507E+03  0.27904376507E+03  0.00000000000E+00 0.  1.
         24    2    1    2    0    0 -0.29366928402E+03  0.23121163274E+03  0.22858323861E+03  0.44531553695E+03  0.79719276163E+02 0.  0.
        254    2    1    2    0    0  0.29366928402E+03 -0.23121163274E+03  0.12203788319E+04  0.15617340637E+04  0.89999351381E+03 0.  0.
         23    2    4    4    0    0  0.18549055511E+03  0.32123111217E+03  0.33138766564E+03  0.50553002522E+03  0.90258783520E+02 0.  0.
         23    2    4    4    0    0  0.10817872891E+03 -0.55244274490E+03  0.88899116628E+03  0.10562040385E+04  0.91466132698E+02 0.  0.
          2    1    3    3  502    0 -0.74356609826E+02  0.67391441009E+02  0.10411345317E+03  0.14460332941E+03  0.00000000000E+00 0. -1.
         -1    1    3    3    0  502 -0.21931267419E+03  0.16382019173E+03  0.12446978545E+03  0.30071220755E+03  0.00000000000E+00 0.  1.
         11    1    5    5    0    0  0.44702271792E+02  0.16644823611E+03  0.14192804788E+03  0.22326414666E+03  0.00000000000E+00 0.  1.
        -11    1    5    5    0    0  0.14078828332E+03  0.15478287606E+03  0.18945961776E+03  0.28226587856E+03  0.00000000000E+00 0. -1.
          2    1    6    6  503    0  0.88739016411E+02 -0.53085003647E+03  0.81464675180E+03  0.97638399437E+03  0.00000000000E+00 0. -1.
         -2    1    6    6    0  503  0.19439712495E+02 -0.21592708437E+02  0.74344414486E+02  0.79820044129E+02  0.00000000000E+00 0.  1.
<mgrwt>
<rscale>  0 0.13887970E+04</rscale>
<asrwt>0</asrwt>
<pdfrwt beam="1">  1        2 0.26584704E+00 0.13887970E+04</pdfrwt>
<pdfrwt beam="2">  1       -1 0.42929811E-01 0.13887970E+04</pdfrwt>
<totfact> 0.56133948E+01</totfact>
</mgrwt>
</event>
<event>
12    6  0.1403409E-007  0.2958279E+04  0.7818608E-02  0.8255746E-01
          2   -1    0    0  501    0  0.00000000000E+00  0.00000000000E+00  0.23239790403E+04  0.23239790403E+04  0.00000000000E+00 0. -1.
         -1   -1    0    0    0  501 -0.00000000000E+00 -0.00000000000E+00 -0.94142577075E+03  0.94142577075E+03  0.00000000000E+00 0.  1.
         24    2    1    2    0    0  0.28172015232E+03 -0.94567065163E+03  0.16306754712E+04  0.19076448717E+04  0.79669558645E+02 0.  0.
        254    2    1    2    0    0 -0.28172015232E+03  0.94567065163E+03 -0.24812220165E+03  0.13577599394E+04  0.89904849724E+03 0.  0.
         23    2    4    4    0    0  0.42924616177E+02 -0.15377727445E+03 -0.12212653897E+02  0.18344682186E+03  0.89518795362E+02 0.  0.
         23    2    4    4    0    0 -0.32464476850E+03  0.10994479261E+04 -0.23590954775E+03  0.11743131175E+04  0.95801958818E+02 0.  0.
          4    1    3    3  502    0  0.12685577963E+03 -0.55917431334E+03  0.96362907474E+03  0.11213158766E+04  0.00000000000E+00 0. -1.
         -3    1    3    3    0  502  0.15486437269E+03 -0.38649633829E+03  0.66704639651E+03  0.78632899510E+03  0.00000000000E+00 0.  1.
         11    1    5    5    0    0  0.64175465262E+02 -0.90754134815E+02 -0.28956570433E+02  0.11486203158E+03  0.00000000000E+00 0. -1.
        -11    1    5    5    0    0 -0.21250849084E+02 -0.63023139639E+02  0.16743916536E+02  0.68584790280E+02  0.00000000000E+00 0.  1.
          1    1    6    6  503    0 -0.66958211551E+02  0.19561698424E+03 -0.64466043536E+01  0.20685977213E+03  0.00000000000E+00 0. -1.
         -1    1    6    6    0  503 -0.25768655695E+03  0.90383094185E+03 -0.22946294339E+03  0.96745334537E+03  0.00000000000E+00 0.  1.
<mgrwt>
<rscale>  0 0.29582791E+04</rscale>
<asrwt>0</asrwt>
<pdfrwt beam="1">  1        2 0.35753524E+00 0.29582791E+04</pdfrwt>
<pdfrwt beam="2">  1       -1 0.14483473E+00 0.29582791E+04</pdfrwt>
<totfact> 0.16440907E+00</totfact>
</mgrwt>
</event>
<event>
12    6  0.1403409E-007  0.2673680E+04  0.7818608E-02  0.8343596E-01
          2   -1    0    0  501    0  0.00000000000E+00  0.00000000000E+00  0.26548477325E+04  0.26548477325E+04  0.00000000000E+00 0. -1.
         -1   -1    0    0    0  501 -0.00000000000E+00 -0.00000000000E+00 -0.67316151036E+03  0.67316151036E+03  0.00000000000E+00 0.  1.
         24    2    1    2    0    0 -0.12917351356E+03  0.95768799137E+01  0.23442913161E+04  0.23492070827E+04  0.79338699206E+02 0.  0.
        254    2    1    2    0    0  0.12917351356E+03 -0.95768799137E+01 -0.36260509398E+03  0.97880216018E+03  0.89988538234E+03 0.  0.
         23    2    4    4    0    0  0.25043822738E+01  0.88216235860E+02 -0.63630502500E+03  0.64869335004E+03  0.90169847188E+02 0.  0.
         23    2    4    4    0    0  0.12666913128E+03 -0.97793115773E+02  0.27369993102E+03  0.33010881014E+03  0.91932649159E+02 0.  0.
          2    1    3    3  502    0 -0.11607309780E+03  0.36513403169E+02  0.19336555291E+04  0.19374802962E+04  0.00000000000E+00 0. -1.
         -1    1    3    3    0  502 -0.13100415755E+02 -0.26936523255E+02  0.41063578697E+03  0.41172678650E+03  0.00000000000E+00 0.  1.
         11    1    5    5    0    0 -0.42311653620E+02  0.41627717437E+02 -0.36488126587E+03  0.36967753661E+03  0.00000000000E+00 0.  1.
        -11    1    5    5    0    0  0.44816035894E+02  0.46588518422E+02 -0.27142375914E+03  0.27901581343E+03  0.00000000000E+00 0. -1.
          3    1    6    6  503    0  0.96765337488E+02 -0.73540274820E+02  0.26365149642E+03  0.29031674792E+03  0.00000000000E+00 0. -1.
         -3    1    6    6    0  503  0.29903793796E+02 -0.24252840953E+02  0.10048434595E+02  0.39792062217E+02  0.00000000000E+00 0.  1.
<mgrwt>
<rscale>  0 0.26736801E+04</rscale>
<asrwt>0</asrwt>
<pdfrwt beam="1">  1        2 0.40843811E+00 0.26736801E+04</pdfrwt>
<pdfrwt beam="2">  1       -1 0.10356331E+00 0.26736801E+04</pdfrwt>
<totfact> 0.24815146E+00</totfact>
</mgrwt>
</event>
<event>
12    6  0.1403409E-007  0.2843747E+04  0.7818608E-02  0.8289814E-01
          2   -1    0    0  501    0  0.00000000000E+00  0.00000000000E+00  0.24794745713E+04  0.24794745713E+04  0.00000000000E+00 0. -1.
         -1   -1    0    0    0  501 -0.00000000000E+00 -0.00000000000E+00 -0.81538409627E+03  0.81538409627E+03  0.00000000000E+00 0.  1.
         24    2    1    2    0    0 -0.11237740304E+04 -0.57746492310E+03  0.52692817318E+03  0.13712681329E+04  0.79932370090E+02 0.  0.
        254    2    1    2    0    0  0.11237740304E+04  0.57746492310E+03  0.11371623019E+04  0.19235905347E+04  0.90040470657E+03 0.  0.
         23    2    4    4    0    0  0.11245685324E+04  0.32280300291E+03  0.59130146344E+03  0.13141952846E+04  0.92820594914E+02 0.  0.
         23    2    4    4    0    0 -0.79450197484E+00  0.25466192019E+03  0.54586083844E+03  0.60939525006E+03  0.92440202467E+02 0.  0.
          2    1    3    3  502    0 -0.99421007226E+03 -0.50536441135E+03  0.49174578339E+03  0.12188768484E+04  0.00000000000E+00 0. -1.
         -1    1    3    3    0  502 -0.12956395812E+03 -0.72100511751E+02  0.35182389785E+02  0.15239128450E+03  0.00000000000E+00 0.  1.
         11    1    5    5    0    0  0.80001042923E+03  0.25002807904E+03  0.46413194237E+03  0.95809664811E+03  0.00000000000E+00 0.  1.
        -11    1    5    5    0    0  0.32455810313E+03  0.72774923864E+02  0.12716952108E+03  0.35609863653E+03  0.00000000000E+00 0. -1.
          1    1    6    6  503    0  0.42805639931E+02  0.15753594236E+03  0.35801132511E+03  0.39347427470E+03  0.00000000000E+00 0. -1.
         -1    1    6    6    0  503 -0.43600141906E+02  0.97125977833E+02  0.18784951332E+03  0.21592097536E+03  0.00000000000E+00 0.  1.
<mgrwt>
<rscale>  0 0.28437469E+04</rscale>
<asrwt>0</asrwt>
<pdfrwt beam="1">  1        2 0.38145762E+00 0.28437469E+04</pdfrwt>
<pdfrwt beam="2">  1       -1 0.12544371E+00 0.28437469E+04</pdfrwt>
<totfact> 0.19557269E+00</totfact>
</mgrwt>
</event>
<event>
12    6  0.1403409E-007  0.2679131E+04  0.7818608E-02  0.8341808E-01
         -1   -1    0    0    0  501 -0.00000000000E+00  0.00000000000E+00  0.11032945480E+04  0.11032945480E+04  0.00000000000E+00 0.  1.
          2   -1    0    0  501    0  0.00000000000E+00 -0.00000000000E+00 -0.16264340221E+04  0.16264340221E+04  0.00000000000E+00 0. -1.
         24    2    1    2    0    0  0.90015378596E+03 -0.46737462529E+03 -0.85941653160E+03  0.13318566439E+04  0.80805112690E+02 0.  0.
        254    2    1    2    0    0 -0.90015378596E+03  0.46737462529E+03  0.33627705750E+03  0.13978719262E+04  0.90124790368E+03 0.  0.
         23    2    4    4    0    0  0.58777943749E+02  0.37392730828E+03  0.86008029149E+02  0.39822636945E+03  0.88940326600E+02 0.  0.
         23    2    4    4    0    0 -0.95893172971E+03  0.93447317009E+02  0.25026902835E+03  0.99964555674E+03  0.91510596466E+02 0.  0.
          4    1    3    3  502    0  0.47207163449E+03 -0.27969931664E+03 -0.42987770313E+03  0.69704962195E+03  0.00000000000E+00 0. -1.
         -3    1    3    3    0  502  0.42808215147E+03 -0.18767530865E+03 -0.42953882848E+03  0.63480702190E+03  0.00000000000E+00 0.  1.
         11    1    5    5    0    0  0.50281262096E+02  0.35569578700E+03  0.10097612450E+03  0.37315395740E+03  0.00000000000E+00 0.  1.
        -11    1    5    5    0    0  0.84966816529E+01  0.18231521284E+02 -0.14968095349E+02  0.25072412047E+02  0.00000000000E+00 0. -1.
          3    1    6    6  503    0 -0.16892344386E+02 -0.10526638202E+02  0.76574738973E+01  0.21326000966E+02  0.00000000000E+00 0. -1.
         -3    1    6    6    0  503 -0.94203938532E+03  0.10397395521E+03  0.24261155446E+03  0.97831955578E+03  0.00000000000E+00 0.  1.
<mgrwt>
<rscale>  0 0.26791310E+04</rscale>
<asrwt>0</asrwt>
<pdfrwt beam="1">  1        2 0.25022062E+00 0.26791310E+04</pdfrwt>
<pdfrwt beam="2">  1       -1 0.16973762E+00 0.26791310E+04</pdfrwt>
<totfact> 0.26656448E+00</totfact>
</mgrwt>
</event>
<event>
12    6  0.1403409E-007  0.1648023E+04  0.7818608E-02  0.8791577E-01
          2   -1    0    0  501    0  0.00000000000E+00  0.00000000000E+00  0.16755610717E+04  0.16755610717E+04  0.00000000000E+00 0. -1.
         -1   -1    0    0    0  501 -0.00000000000E+00 -0.00000000000E+00 -0.40523445049E+03  0.40523445049E+03  0.00000000000E+00 0.  1.
         24    2    1    2    0    0 -0.91838175827E+02 -0.53637957506E+03  0.67586341242E+03  0.87148047789E+03  0.80929426208E+02 0.  0.
        254    2    1    2    0    0  0.91838175827E+02  0.53637957506E+03  0.59446320881E+03  0.12093150443E+04  0.90162024749E+03 0.  0.
         23    2    4    4    0    0  0.79096204971E+02  0.35933028457E+03 -0.17383824776E+03  0.41651709253E+03  0.88838555503E+02 0.  0.
         23    2    4    4    0    0  0.12741970855E+02  0.17704929050E+03  0.76830145656E+03  0.79279795177E+03  0.82052757967E+02 0.  0.
          4    1    3    3  502    0 -0.90984175534E+02 -0.35556252804E+03  0.48952851280E+03  0.61183412490E+03  0.00000000000E+00 0. -1.
         -3    1    3    3    0  502 -0.85400029317E+00 -0.18081704702E+03  0.18633489962E+03  0.25964635300E+03  0.00000000000E+00 0.  1.
         11    1    5    5    0    0  0.92676099132E+02  0.22968228728E+03 -0.12373062346E+03  0.27686111974E+03  0.00000000000E+00 0.  1.
        -11    1    5    5    0    0 -0.13579894160E+02  0.12964799728E+03 -0.50107624299E+02  0.13965597280E+03  0.00000000000E+00 0. -1.
          1    1    6    6  503    0  0.44647105605E+02  0.13062525809E+03  0.58319135067E+03  0.59930666072E+03  0.00000000000E+00 0. -1.
         -1    1    6    6    0  503 -0.31905134749E+02  0.46424032401E+02  0.18511010590E+03  0.19349129105E+03  0.00000000000E+00 0.  1.
<mgrwt>
<rscale>  0 0.16480231E+04</rscale>
<asrwt>0</asrwt>
<pdfrwt beam="1">  1        2 0.25777862E+00 0.16480231E+04</pdfrwt>
<pdfrwt beam="2">  1       -1 0.62343763E-01 0.16480231E+04</pdfrwt>
<totfact> 0.28740771E+01</totfact>
</mgrwt>
</event>
<event>
12    6  0.1403409E-007  0.3422241E+04  0.7818608E-02  0.8132469E-01
         -1   -1    0    0    0  501 -0.00000000000E+00  0.00000000000E+00  0.80028935140E+03  0.80028935140E+03  0.00000000000E+00 0.  1.
          2   -1    0    0  501    0  0.00000000000E+00 -0.00000000000E+00 -0.36585925709E+04  0.36585925709E+04  0.00000000000E+00 0. -1.
         24    2    1    2    0    0 -0.11136587314E+04 -0.28662585981E+03 -0.27652136652E+04  0.29958708400E+04  0.80282765065E+02 0.  0.
        254    2    1    2    0    0  0.11136587314E+04  0.28662585981E+03 -0.93089554285E+02  0.14630110823E+04  0.89963637557E+03 0.  0.
         23    2    4    4    0    0  0.96804945008E+03  0.37014906855E+03  0.24999621420E+03  0.10699220608E+04  0.90027986276E+02 0.  0.
         23    2    4    4    0    0  0.14560928129E+03 -0.83523208739E+02 -0.34308576849E+03  0.39308902147E+03  0.92913643059E+02 0.  0.
          4    1    3    3  502    0 -0.42213592421E+03 -0.14513956733E+03 -0.11150675454E+04  0.12010994394E+04  0.00000000000E+00 0. -1.
         -3    1    3    3    0  502 -0.69152280716E+03 -0.14148629247E+03 -0.16501461198E+04  0.17947714006E+04  0.00000000000E+00 0.  1.
         11    1    5    5    0    0  0.69971634324E+03  0.30730975038E+03  0.16925041095E+03  0.78274385676E+03  0.00000000000E+00 0.  1.
        -11    1    5    5    0    0  0.26833310683E+03  0.62839318162E+02  0.80745803252E+02  0.28717820404E+03  0.00000000000E+00 0. -1.
          2    1    6    6  503    0  0.97746426462E+02 -0.16429210754E+02 -0.24904687429E+03  0.26804594465E+03  0.00000000000E+00 0. -1.
         -2    1    6    6    0  503  0.47862854830E+02 -0.67093997985E+02 -0.94038894200E+02  0.12504307682E+03  0.00000000000E+00 0.  1.
<mgrwt>
<rscale>  0 0.34222406E+04</rscale>
<asrwt>0</asrwt>
<pdfrwt beam="1">  1        2 0.56286039E+00 0.34222406E+04</pdfrwt>
<pdfrwt beam="2">  1       -1 0.12312144E+00 0.34222406E+04</pdfrwt>
<totfact> 0.34088821E-01</totfact>
</mgrwt>
</event>
<event>
12    6  0.1403409E-007  0.2178072E+04  0.7818608E-02  0.8527611E-01
         -1   -1    0    0    0  501 -0.00000000000E+00  0.00000000000E+00  0.61597577440E+03  0.61597577440E+03  0.00000000000E+00 0.  1.
          2   -1    0    0  501    0  0.00000000000E+00 -0.00000000000E+00 -0.19253988446E+04  0.19253988446E+04  0.00000000000E+00 0. -1.
         24    2    1    2    0    0 -0.15059502191E+02  0.88339674917E+03 -0.33727563825E+03  0.94900434231E+03  0.78979620962E+02 0.  0.
        254    2    1    2    0    0  0.15059502191E+02 -0.88339674917E+03 -0.97214743196E+03  0.15923702767E+04  0.89997547942E+03 0.  0.
         23    2    4    4    0    0 -0.25256469704E+03 -0.17815381546E+03 -0.72506829894E+03  0.79349914788E+03  0.91592310786E+02 0.  0.
         23    2    4    4    0    0  0.26762419923E+03 -0.70524293371E+03 -0.24707913301E+03  0.79887112880E+03  0.90314311761E+02 0.  0.
          4    1    3    3  502    0  0.88826362213E+01  0.25659067206E+03 -0.13410525061E+03  0.28965823388E+03  0.00000000000E+00 0. -1.
         -3    1    3    3    0  502 -0.23942138412E+02  0.62680607711E+03 -0.20317038764E+03  0.65934610843E+03  0.00000000000E+00 0.  1.
         11    1    5    5    0    0 -0.47534417999E+02 -0.83064857427E+02 -0.19325739634E+03  0.21565646912E+03  0.00000000000E+00 0.  1.
        -11    1    5    5    0    0 -0.20503027904E+03 -0.95088958033E+02 -0.53181090261E+03  0.57784267876E+03  0.00000000000E+00 0. -1.
          1    1    6    6  503    0  0.43385452431E+02 -0.20575693573E+03 -0.94194556810E+02  0.23041447137E+03  0.00000000000E+00 0.  1.
         -1    1    6    6    0  503  0.22423874680E+03 -0.49948599798E+03 -0.15288457620E+03  0.56845665743E+03  0.00000000000E+00 0. -1.
<mgrwt>
<rscale>  0 0.21780717E+04</rscale>
<asrwt>0</asrwt>
<pdfrwt beam="1">  1        2 0.29621521E+00 0.21780717E+04</pdfrwt>
<pdfrwt beam="2">  1       -1 0.94765504E-01 0.21780717E+04</pdfrwt>
<totfact> 0.82498582E+00</totfact>
</mgrwt>
</event>
<event>
12    6  0.1403409E-007  0.2649623E+04  0.7818608E-02  0.8351538E-01
         -1   -1    0    0    0  501 -0.00000000000E+00  0.00000000000E+00  0.86909852182E+03  0.86909852182E+03  0.00000000000E+00 0.  1.
          2   -1    0    0  501    0  0.00000000000E+00 -0.00000000000E+00 -0.20194778252E+04  0.20194778252E+04  0.00000000000E+00 0. -1.
         24    2    1    2    0    0  0.92674972086E+03 -0.59154734897E+03 -0.94754855347E+03  0.14537490465E+04  0.82126231399E+02 0.  0.
        254    2    1    2    0    0 -0.92674972086E+03  0.59154734897E+03 -0.20283074990E+03  0.14348273005E+04  0.89933072778E+03 0.  0.
         23    2    4    4    0    0 -0.71977729187E+03  0.26805917243E+03 -0.51668848356E+03  0.93041998851E+03  0.93697898374E+02 0.  0.
         23    2    4    4    0    0 -0.20697242899E+03  0.32348817654E+03  0.31385773365E+03  0.50440731198E+03  0.91857893954E+02 0.  0.
          4    1    3    3  502    0  0.28321108028E+03 -0.16910438826E+03 -0.33312877660E+03  0.46880656130E+03  0.00000000000E+00 0. -1.
         -3    1    3    3    0  502  0.64353864058E+03 -0.42244296071E+03 -0.61441977687E+03  0.98494248521E+03  0.00000000000E+00 0.  1.
         11    1    5    5    0    0 -0.91062684106E+02  0.59246541839E+01 -0.79421230636E+02  0.12097622014E+03  0.00000000000E+00 0.  1.
        -11    1    5    5    0    0 -0.62871460776E+03  0.26213451825E+03 -0.43726725292E+03  0.80944376837E+03  0.00000000000E+00 0. -1.
          1    1    6    6  503    0 -0.15993809294E+03  0.17193812396E+03  0.20761420006E+03  0.31344308592E+03  0.00000000000E+00 0. -1.
         -1    1    6    6    0  503 -0.47034336050E+02  0.15155005258E+03  0.10624353360E+03  0.19096422606E+03  0.00000000000E+00 0.  1.
<mgrwt>
<rscale>  0 0.26496228E+04</rscale>
<asrwt>0</asrwt>
<pdfrwt beam="1">  1        2 0.31068889E+00 0.26496228E+04</pdfrwt>
<pdfrwt beam="2">  1       -1 0.13370747E+00 0.26496228E+04</pdfrwt>
<totfact> 0.30834539E+00</totfact>
</mgrwt>
</event>
<event>
12    6  0.1403409E-007  0.3714465E+04  0.7818608E-02  0.8064764E-01
         -1   -1    0    0    0  501 -0.00000000000E+00  0.00000000000E+00  0.19507129856E+04  0.19507129856E+04  0.00000000000E+00 0.  1.
          2   -1    0    0  501    0  0.00000000000E+00 -0.00000000000E+00 -0.17682314389E+04  0.17682314389E+04  0.00000000000E+00 0. -1.
         24    2    1    2    0    0 -0.11070323034E+04  0.13034694311E+04  0.44491983747E+03  0.17688774060E+04  0.80128254667E+02 0.  0.
        254    2    1    2    0    0  0.11070323034E+04 -0.13034694311E+04 -0.26243829084E+03  0.19500670185E+04  0.89963016951E+03 0.  0.
         23    2    4    4    0    0  0.94776203913E+03 -0.11844755611E+04  0.10418273914E+03  0.15229528989E+04  0.85418099064E+02 0.  0.
         23    2    4    4    0    0  0.15927026423E+03 -0.11899387000E+03 -0.36662102997E+03  0.42711411961E+03  0.92135407893E+02 0.  0.
          2    1    3    3  502    0 -0.41829678734E+03  0.49235630898E+03  0.12805933333E+03  0.65862442267E+03  0.00000000000E+00 0. -1.
         -1    1    3    3    0  502 -0.68873551603E+03  0.81111312208E+03  0.31686050414E+03  0.11102529833E+04  0.00000000000E+00 0.  1.
         11    1    5    5    0    0  0.44583069048E+03 -0.54534006358E+03  0.90436328021E+02  0.71016865528E+03  0.00000000000E+00 0. -1.
        -11    1    5    5    0    0  0.50193134865E+03 -0.63913549748E+03  0.13746411116E+02  0.81278424364E+03  0.00000000000E+00 0.  1.
          3    1    6    6  503    0  0.13416224398E+03 -0.12116405265E+03 -0.35695688166E+03  0.40012304449E+03  0.00000000000E+00 0. -1.
         -3    1    6    6    0  503  0.25108020251E+02  0.21701826545E+01 -0.96641483099E+01  0.26991075122E+02  0.00000000000E+00 0.  1.
<mgrwt>
<rscale>  0 0.37144647E+04</rscale>
<asrwt>0</asrwt>
<pdfrwt beam="1">  1        2 0.27203561E+00 0.37144647E+04</pdfrwt>
<pdfrwt beam="2">  1       -1 0.30010969E+00 0.37144647E+04</pdfrwt>
<totfact> 0.27224819E-01</totfact>
</mgrwt>
</event>
<event>
12    6  0.1403409E-007  0.2118853E+04  0.7818608E-02  0.8552984E-01
         -1   -1    0    0    0  501 -0.00000000000E+00  0.00000000000E+00  0.98559550551E+03  0.98559550551E+03  0.00000000000E+00 0.  1.
          2   -1    0    0  501    0  0.00000000000E+00 -0.00000000000E+00 -0.11387880299E+04  0.11387880299E+04  0.00000000000E+00 0. -1.
         24    2    1    2    0    0  0.12725662709E+03 -0.57499473960E+03 -0.69991082304E+03  0.91821262427E+03  0.80162731023E+02 0.  0.
        254    2    1    2    0    0 -0.12725662709E+03  0.57499473960E+03  0.54671829864E+03  0.12061709112E+04  0.89951885425E+03 0.  0.
         23    2    4    4    0    0 -0.51609895339E+02  0.80214419060E+03  0.47949486101E+03  0.94088063503E+03  0.96136173386E+02 0.  0.
         23    2    4    4    0    0 -0.75646731748E+02 -0.22714945100E+03  0.67223437632E+02  0.26529027613E+03  0.92415577313E+02 0.  0.
          4    1    3    3  502    0  0.67194510404E+02 -0.42118414408E+03 -0.54247368335E+03  0.69006440466E+03  0.00000000000E+00 0. -1.
         -3    1    3    3    0  502  0.60062116683E+02 -0.15381059552E+03 -0.15743713969E+03  0.22814821960E+03  0.00000000000E+00 0.  1.
         11    1    5    5    0    0 -0.73527806849E+02  0.45882904278E+03  0.25433526143E+03  0.52973281387E+03  0.00000000000E+00 0. -1.
        -11    1    5    5    0    0  0.21917911510E+02  0.34331514782E+03  0.22515959958E+03  0.41114782116E+03  0.00000000000E+00 0.  1.
          4    1    6    6  503    0  0.74373130650E+01 -0.10776917042E+03  0.82405199109E+01  0.10833934597E+03  0.00000000000E+00 0. -1.
         -4    1    6    6    0  503 -0.83084044813E+02 -0.11938028058E+03  0.58982917721E+02  0.15695093016E+03  0.00000000000E+00 0.  1.
<mgrwt>
<rscale>  0 0.21188529E+04</rscale>
<asrwt>0</asrwt>
<pdfrwt beam="1">  1        2 0.17519816E+00 0.21188529E+04</pdfrwt>
<pdfrwt beam="2">  1       -1 0.15163008E+00 0.21188529E+04</pdfrwt>
<totfact> 0.73322016E+00</totfact>
</mgrwt>
</event>
<event>
12    6  0.1403409E-007  0.3306651E+04  0.7818608E-02  0.8161205E-01
         -1   -1    0    0    0  501 -0.00000000000E+00  0.00000000000E+00  0.63370463996E+03  0.63370463996E+03  0.00000000000E+00 0.  1.
          2   -1    0    0  501    0  0.00000000000E+00 -0.00000000000E+00 -0.43135014925E+04  0.43135014925E+04  0.00000000000E+00 0. -1.
         24    2    1    2    0    0  0.46531765060E+03  0.13045936020E+04 -0.26768032749E+04  0.30150400804E+04  0.81889751006E+02 0.  0.
        254    2    1    2    0    0 -0.46531765060E+03 -0.13045936020E+04 -0.10029935776E+04  0.19321660521E+04  0.89932449854E+03 0.  0.
         23    2    4    4    0    0 -0.20080101931E+03 -0.23236995593E+03 -0.72043845891E+03  0.78868216615E+03  0.93118958049E+02 0.  0.
         23    2    4    4    0    0 -0.26451663129E+03 -0.10722236461E+04 -0.28255511868E+03  0.11434838859E+04  0.89918890159E+02 0.  0.
          4    1    3    3  502    0  0.33148606102E+03  0.10198996175E+04 -0.21035095929E+04  0.23611079699E+04  0.00000000000E+00 0. -1.
         -3    1    3    3    0  502  0.13383158958E+03  0.28469398454E+03 -0.57329368207E+03  0.65393211047E+03  0.00000000000E+00 0.  1.
         11    1    5    5    0    0 -0.19849757628E+03 -0.23927228702E+03 -0.68140363601E+03  0.74897491967E+03  0.00000000000E+00 0. -1.
        -11    1    5    5    0    0 -0.23034430313E+01  0.69023310879E+01 -0.39034822894E+02  0.39707246474E+02  0.00000000000E+00 0.  1.
          1    1    6    6  503    0 -0.20669599346E+03 -0.94381789497E+03 -0.23009601785E+03  0.99320674082E+03  0.00000000000E+00 0. -1.
         -1    1    6    6    0  503 -0.57820637831E+02 -0.12840575110E+03 -0.52459100832E+02  0.15027714509E+03  0.00000000000E+00 0.  1.
<mgrwt>
<rscale>  0 0.33066514E+04</rscale>
<asrwt>0</asrwt>
<pdfrwt beam="1">  1        2 0.66361561E+00 0.33066514E+04</pdfrwt>
<pdfrwt beam="2">  1       -1 0.97493022E-01 0.33066514E+04</pdfrwt>
<totfact> 0.17599867E-01</totfact>
</mgrwt>
</event>
<event>
12    6  0.1403409E-007  0.1420723E+04  0.7818608E-02  0.8938953E-01
          2   -1    0    0  501    0  0.00000000000E+00  0.00000000000E+00  0.19141119575E+04  0.19141119575E+04  0.00000000000E+00 0. -1.
         -1   -1    0    0    0  501 -0.00000000000E+00 -0.00000000000E+00 -0.26362792863E+03  0.26362792863E+03  0.00000000000E+00 0.  1.
         24    2    1    2    0    0  0.38594444949E+03 -0.21864767999E+02  0.72475650202E+03  0.82519110214E+03  0.78975829526E+02 0.  0.
        254    2    1    2    0    0 -0.38594444949E+03  0.21864767999E+02  0.92572752682E+03  0.13525487840E+04  0.90718552288E+03 0.  0.
         23    2    4    4    0    0 -0.41159672883E+03  0.40506044273E+03  0.63335963348E+03  0.86172107123E+03  0.89067108566E+02 0.  0.
         23    2    4    4    0    0  0.25652279343E+02 -0.38319567473E+03  0.29236789334E+03  0.49082771273E+03  0.89083634674E+02 0.  0.
          4    1    3    3  502    0  0.21720381423E+02 -0.46925204381E+01  0.94322091138E+02  0.96904342492E+02  0.00000000000E+00 0. -1.
         -3    1    3    3    0  502  0.36422406807E+03 -0.17172247561E+02  0.63043441089E+03  0.72828675965E+03  0.00000000000E+00 0.  1.
         11    1    5    5    0    0 -0.16909714531E+03  0.22035943941E+03  0.26906266244E+03  0.38671286946E+03  0.00000000000E+00 0.  1.
        -11    1    5    5    0    0 -0.24249958352E+03  0.18470100332E+03  0.36429697104E+03  0.47500820176E+03  0.00000000000E+00 0. -1.
          2    1    6    6  503    0  0.54096226774E+02 -0.30420861654E+03  0.21289120219E+03  0.37522253144E+03  0.00000000000E+00 0. -1.
         -2    1    6    6    0  503 -0.28443947432E+02 -0.78987058184E+02  0.79476691144E+02  0.11560518129E+03  0.00000000000E+00 0.  1.
<mgrwt>
<rscale>  0 0.14207229E+04</rscale>
<asrwt>0</asrwt>
<pdfrwt beam="1">  1        2 0.29447875E+00 0.14207229E+04</pdfrwt>
<pdfrwt beam="2">  1       -1 0.40558144E-01 0.14207229E+04</pdfrwt>
<totfact> 0.49040348E+01</totfact>
</mgrwt>
</event>
<event>
12    6  0.1403409E-007  0.1270133E+04  0.7818608E-02  0.9053591E-01
         -1   -1    0    0    0  501 -0.00000000000E+00  0.00000000000E+00  0.28420984395E+03  0.28420984395E+03  0.00000000000E+00 0.  1.
          2   -1    0    0  501    0  0.00000000000E+00 -0.00000000000E+00 -0.14190544912E+04  0.14190544912E+04  0.00000000000E+00 0. -1.
         24    2    1    2    0    0 -0.68969003018E+02  0.19156179962E+03  0.25327130440E+02  0.22117976606E+03  0.82621903448E+02 0.  0.
        254    2    1    2    0    0  0.68969003018E+02 -0.19156179962E+03 -0.11601717777E+04  0.14820845691E+04  0.89951290695E+03 0.  0.
         23    2    4    4    0    0  0.43695063010E+03 -0.42540012524E+01 -0.34746708805E+03  0.56596448154E+03  0.92943355977E+02 0.  0.
         23    2    4    4    0    0 -0.36798162708E+03 -0.18730779836E+03 -0.81270468968E+03  0.91612008759E+03  0.91062687542E+02 0.  0.
          2    1    3    3  502    0 -0.11274227063E+02  0.14266965690E+03  0.65789550092E+01  0.14326556406E+03  0.00000000000E+00 0. -1.
         -1    1    3    3    0  502 -0.57694775954E+02  0.48892142714E+02  0.18748175431E+02  0.77914202002E+02  0.00000000000E+00 0.  1.
         11    1    5    5    0    0  0.43233205827E+03  0.56418856532E+01 -0.34801655398E+03  0.55503005444E+03  0.00000000000E+00 0. -1.
        -11    1    5    5    0    0  0.46185718252E+01 -0.98958869056E+01  0.54946592791E+00  0.10934427107E+02  0.00000000000E+00 0.  1.
          4    1    6    6  503    0 -0.29164077229E+03 -0.12602563220E+03 -0.68604333679E+03  0.75603720807E+03  0.00000000000E+00 0. -1.
         -4    1    6    6    0  503 -0.76340854788E+02 -0.61282166159E+02 -0.12666135289E+03  0.16008287952E+03  0.00000000000E+00 0.  1.
<mgrwt>
<rscale>  0 0.12701327E+04</rscale>
<asrwt>0</asrwt>
<pdfrwt beam="1">  1        2 0.21831607E+00 0.12701327E+04</pdfrwt>
<pdfrwt beam="2">  1       -1 0.43724593E-01 0.12701327E+04</pdfrwt>
<totfact> 0.81586890E+01</totfact>
</mgrwt>
</event>
<event>
12    6  0.1403409E-007  0.3204445E+04  0.7818608E-02  0.8187644E-01
          2   -1    0    0  501    0  0.00000000000E+00  0.00000000000E+00  0.19065972809E+04  0.19065972809E+04  0.00000000000E+00 0. -1.
         -1   -1    0    0    0  501 -0.00000000000E+00 -0.00000000000E+00 -0.13464388156E+04  0.13464388156E+04  0.00000000000E+00 0.  1.
         24    2    1    2    0    0 -0.31385998608E+03 -0.14052099457E+04 -0.66184408123E+02  0.14437180116E+04  0.82572627541E+02 0.  0.
        254    2    1    2    0    0  0.31385998608E+03  0.14052099457E+04  0.62634287342E+03  0.18093180850E+04  0.89900136558E+03 0.  0.
         23    2    4    4    0    0 -0.92887418398E+01  0.89792627068E+03 -0.44523087910E+02  0.90405533962E+03  0.94741139116E+02 0.  0.
         23    2    4    4    0    0  0.32314872792E+03  0.50728367498E+03  0.67086596133E+03  0.90526274536E+03  0.87622330512E+02 0.  0.
          4    1    3    3  502    0 -0.25205765574E+03 -0.95960420735E+03 -0.55899524687E+02  0.99372936630E+03  0.00000000000E+00 0. -1.
         -3    1    3    3    0  502 -0.61802330338E+02 -0.44560573831E+03 -0.10284883436E+02  0.44998864527E+03  0.00000000000E+00 0.  1.
         11    1    5    5    0    0  0.28206646917E+02  0.93802725650E+02 -0.35595496281E+01  0.98016512196E+02  0.00000000000E+00 0. -1.
        -11    1    5    5    0    0 -0.37495388757E+02  0.80412354503E+03 -0.40963538282E+02  0.80603882742E+03  0.00000000000E+00 0.  1.
          3    1    6    6  503    0  0.42143209058E+01  0.87230113595E+01  0.36137975615E+02  0.37413964097E+02  0.00000000000E+00 0. -1.
         -3    1    6    6    0  503  0.31893440701E+03  0.49856066362E+03  0.63472798572E+03  0.86784878126E+03  0.00000000000E+00 0.  1.
<mgrwt>
<rscale>  0 0.32044448E+04</rscale>
<asrwt>0</asrwt>
<pdfrwt beam="1">  1        2 0.29332266E+00 0.32044448E+04</pdfrwt>
<pdfrwt beam="2">  1       -1 0.20714443E+00 0.32044448E+04</pdfrwt>
<totfact> 0.96944018E-01</totfact>
</mgrwt>
</event>
<event>
12    6  0.1403409E-007  0.1803412E+04  0.7818608E-02  0.8704487E-01
          2   -1    0    0  501    0  0.00000000000E+00  0.00000000000E+00  0.22406908806E+04  0.22406908806E+04  0.00000000000E+00 0. -1.
         -1   -1    0    0    0  501 -0.00000000000E+00 -0.00000000000E+00 -0.36286726972E+03  0.36286726972E+03  0.00000000000E+00 0.  1.
         24    2    1    2    0    0  0.40000628086E+03  0.53933514317E+03  0.80719263303E+03  0.10527682456E+04  0.76639484929E+02 0.  0.
        254    2    1    2    0    0 -0.40000628086E+03 -0.53933514317E+03  0.10706309778E+04  0.15507899047E+04  0.89878318662E+03 0.  0.
         23    2    4    4    0    0 -0.63952085269E+02 -0.66946260732E+03  0.93413693121E+03  0.11549531598E+04  0.95052318955E+02 0.  0.
         23    2    4    4    0    0 -0.33605419559E+03  0.13012746415E+03  0.13649404661E+03  0.39583674490E+03  0.90501516853E+02 0.  0.
          2    1    3    3  502    0  0.93178104613E+02  0.85163102703E+02  0.12479430515E+03  0.17750642760E+03  0.00000000000E+00 0. -1.
         -1    1    3    3    0  502  0.30682817625E+03  0.45417204047E+03  0.68239832788E+03  0.87526181796E+03  0.00000000000E+00 0.  1.
         11    1    5    5    0    0 -0.67367239498E+02 -0.66887352345E+03  0.93479899541E+03  0.11514248986E+04  0.00000000000E+00 0. -1.
        -11    1    5    5    0    0  0.34151542288E+01 -0.58908387017E+00 -0.66206419733E+00  0.35282612168E+01  0.00000000000E+00 0.  1.
          3    1    6    6  503    0 -0.19015025882E+03  0.12039914493E+03  0.90071456561E+02  0.24241687713E+03  0.00000000000E+00 0. -1.
         -3    1    6    6    0  503 -0.14590393677E+03  0.97283192168E+01  0.46422590046E+02  0.15341986777E+03  0.00000000000E+00 0.  1.
<mgrwt>
<rscale>  0 0.18034116E+04</rscale>
<asrwt>0</asrwt>
<pdfrwt beam="1">  1        2 0.34472166E+00 0.18034116E+04</pdfrwt>
<pdfrwt beam="2">  1       -1 0.55825735E-01 0.18034116E+04</pdfrwt>
<totfact> 0.17091275E+01</totfact>
</mgrwt>
</event>
<event>
12    6  0.1403409E-007  0.1878415E+04  0.7818608E-02  0.8665676E-01
          2   -1    0    0  501    0  0.00000000000E+00  0.00000000000E+00  0.59163607799E+03  0.59163607799E+03  0.00000000000E+00 0. -1.
         -1   -1    0    0    0  501 -0.00000000000E+00 -0.00000000000E+00 -0.14909687942E+04  0.14909687942E+04  0.00000000000E+00 0.  1.
         24    2    1    2    0    0 -0.31269583030E+03 -0.51326641703E+03 -0.78782378416E+03  0.99429630946E+03  0.82083731610E+02 0.  0.
        254    2    1    2    0    0  0.31269583030E+03  0.51326641703E+03 -0.11150893207E+03  0.10883085627E+04  0.90042222800E+03 0.  0.
         23    2    4    4    0    0  0.78613217039E+01 -0.24150147283E+03  0.19657868999E+02  0.25863725224E+03  0.90122331736E+02 0.  0.
         23    2    4    4    0    0  0.30483450860E+03  0.75476788985E+03 -0.13116680107E+03  0.82967131050E+03  0.92472204365E+02 0.  0.
          2    1    3    3  502    0 -0.23681382628E+03 -0.42811615696E+03 -0.59558988251E+03  0.77077333914E+03  0.00000000000E+00 0. -1.
         -1    1    3    3    0  502 -0.75882004025E+02 -0.85150260063E+02 -0.19223390164E+03  0.22352297033E+03  0.00000000000E+00 0.  1.
         11    1    5    5    0    0 -0.28465448556E+02 -0.19023705971E+03  0.30863717381E+02  0.19481527070E+03  0.00000000000E+00 0.  1.
        -11    1    5    5    0    0  0.36326770260E+02 -0.51264413121E+02 -0.11205848382E+02  0.63821981544E+02  0.00000000000E+00 0. -1.
          3    1    6    6  503    0  0.17423664957E+03  0.54395551791E+03 -0.96458171771E+02  0.57926694573E+03  0.00000000000E+00 0. -1.
         -3    1    6    6    0  503  0.13059785903E+03  0.21081237194E+03 -0.34708629296E+02  0.25040436477E+03  0.00000000000E+00 0.  1.
<mgrwt>
<rscale>  0 0.18784152E+04</rscale>
<asrwt>0</asrwt>
<pdfrwt beam="1">  1        2 0.91020937E-01 0.18784152E+04</pdfrwt>
<pdfrwt beam="2">  1       -1 0.22937981E+00 0.18784152E+04</pdfrwt>
<totfact> 0.51505229E+00</totfact>
</mgrwt>
</event>
<event>
12    6  0.1403409E-007  0.3069437E+04  0.7818608E-02  0.8224176E-01
         -1   -1    0    0    0  501 -0.00000000000E+00  0.00000000000E+00  0.77017751944E+03  0.77017751944E+03  0.00000000000E+00 0.  1.
          2   -1    0    0  501    0  0.00000000000E+00 -0.00000000000E+00 -0.30582048563E+04  0.30582048563E+04  0.00000000000E+00 0. -1.
         24    2    1    2    0    0  0.67492901631E+03 -0.11945313641E+04 -0.14027987735E+04  0.19638342806E+04  0.79789259127E+02 0.  0.
        254    2    1    2    0    0 -0.67492901631E+03  0.11945313641E+04 -0.88522856336E+03  0.18645480952E+04  0.90026420179E+03 0.  0.
         23    2    4    4    0    0  0.23759462845E+02  0.47362492930E+03  0.55655113151E+02  0.48569544575E+03  0.88980271253E+02 0.  0.
         23    2    4    4    0    0 -0.69868847915E+03  0.72090643477E+03 -0.94088367651E+03  0.13788526494E+04  0.90004763837E+02 0.  0.
          4    1    3    3  502    0  0.49104658113E+03 -0.93577161399E+03 -0.10891317302E+04  0.15175648863E+04  0.00000000000E+00 0. -1.
         -3    1    3    3    0  502  0.18388243517E+03 -0.25875975007E+03 -0.31366704332E+03  0.44626939430E+03  0.00000000000E+00 0.  1.
         11    1    5    5    0    0 -0.82179337342E+01  0.46511718640E+00  0.16053785609E+01  0.83861796535E+01  0.00000000000E+00 0. -1.
        -11    1    5    5    0    0  0.31977396579E+02  0.47315981211E+03  0.54049734590E+02  0.47730926609E+03  0.00000000000E+00 0.  1.
          3    1    6    6  503    0 -0.46471888262E+03  0.42029948109E+03 -0.56538107960E+03  0.84396152688E+03  0.00000000000E+00 0. -1.
         -3    1    6    6    0  503 -0.23396959653E+03  0.30060695367E+03 -0.37550259691E+03  0.53489112255E+03  0.00000000000E+00 0.  1.
<mgrwt>
<rscale>  0 0.30694368E+04</rscale>
<asrwt>0</asrwt>
<pdfrwt beam="1">  1        2 0.47049305E+00 0.30694368E+04</pdfrwt>
<pdfrwt beam="2">  1       -1 0.11848885E+00 0.30694368E+04</pdfrwt>
<totfact> 0.98727870E-01</totfact>
</mgrwt>
</event>
<event>
12    6  0.1403409E-007  0.2493109E+04  0.7818608E-02  0.8405445E-01
         -1   -1    0    0    0  501 -0.00000000000E+00  0.00000000000E+00  0.69040915804E+03  0.69040915804E+03  0.00000000000E+00 0.  1.
          2   -1    0    0  501    0  0.00000000000E+00 -0.00000000000E+00 -0.22506908825E+04  0.22506908825E+04  0.00000000000E+00 0. -1.
         24    2    1    2    0    0  0.54309111291E+03  0.12700810319E+03  0.41495594306E+03  0.69976982700E+03  0.80064729452E+02 0.  0.
        254    2    1    2    0    0 -0.54309111291E+03 -0.12700810319E+03 -0.19752376676E+04  0.22413302136E+04  0.90051000428E+03 0.  0.
         23    2    4    4    0    0  0.19265200235E+03 -0.35853078646E+02 -0.94319205357E+03  0.96757791728E+03  0.90529215275E+02 0.  0.
         23    2    4    4    0    0 -0.73574311526E+03 -0.91155024547E+02 -0.10320456140E+04  0.12737522963E+04  0.87747323970E+02 0.  0.
          2    1    3    3  502    0  0.25719157748E+03  0.28903840275E+02  0.22362973465E+03  0.34204268408E+03  0.00000000000E+00 0. -1.
         -1    1    3    3    0  502  0.28589953543E+03  0.98104262918E+02  0.19132620841E+03  0.35772714292E+03  0.00000000000E+00 0.  1.
         11    1    5    5    0    0  0.12304651785E+03 -0.59524849474E+02 -0.50082023942E+03  0.51913829127E+03  0.00000000000E+00 0. -1.
        -11    1    5    5    0    0  0.69605484502E+02  0.23671770828E+02 -0.44237181416E+03  0.44843962600E+03  0.00000000000E+00 0.  1.
          2    1    6    6  503    0 -0.56232664287E+03 -0.51565627183E+02 -0.83813237939E+03  0.10106117714E+04  0.00000000000E+00 0. -1.
         -2    1    6    6    0  503 -0.17341647239E+03 -0.39589397364E+02 -0.19391323459E+03  0.26314052487E+03  0.00000000000E+00 0.  1.
<mgrwt>
<rscale>  0 0.24931086E+04</rscale>
<asrwt>0</asrwt>
<pdfrwt beam="1">  1        2 0.34626015E+00 0.24931086E+04</pdfrwt>
<pdfrwt beam="2">  1       -1 0.10621679E+00 0.24931086E+04</pdfrwt>
<totfact> 0.40668202E+00</totfact>
</mgrwt>
</event>
<event>
12    6  0.1403409E-007  0.1297107E+04  0.7818608E-02  0.9031863E-01
         -1   -1    0    0    0  501 -0.00000000000E+00  0.00000000000E+00  0.43662221751E+03  0.43662221751E+03  0.00000000000E+00 0.  1.
          2   -1    0    0  501    0  0.00000000000E+00 -0.00000000000E+00 -0.96335348297E+03  0.96335348297E+03  0.00000000000E+00 0. -1.
         24    2    1    2    0    0  0.22238221762E+03  0.17450675087E+03  0.50461249692E+02  0.29805055954E+03  0.79883299288E+02 0.  0.
        254    2    1    2    0    0 -0.22238221762E+03 -0.17450675087E+03 -0.57719251514E+03  0.11019251409E+04  0.89508734763E+03 0.  0.
         23    2    4    4    0    0 -0.34589160308E+03 -0.46499250468E+03 -0.24885902460E+03  0.63733942114E+03  0.91715282979E+02 0.  0.
         23    2    4    4    0    0  0.12350938546E+03  0.29048575380E+03 -0.32833349055E+03  0.46458571980E+03  0.91654070110E+02 0.  0.
          4    1    3    3  502    0  0.12943419325E+03  0.10855980948E+03 -0.96391964789E+01  0.16920802796E+03  0.00000000000E+00 0. -1.
         -3    1    3    3    0  502  0.92948024378E+02  0.65946941390E+02  0.60100446171E+02  0.12884253158E+03  0.00000000000E+00 0.  1.
         11    1    5    5    0    0 -0.64701953596E+02 -0.46544223731E+02 -0.56683002725E+02  0.97804245101E+02  0.00000000000E+00 0.  1.
        -11    1    5    5    0    0 -0.28118964948E+03 -0.41844828095E+03 -0.19217602187E+03  0.53953517604E+03  0.00000000000E+00 0. -1.
          3    1    6    6  503    0  0.20301721128E+02  0.15782923766E+03 -0.13767683578E+03  0.21042133744E+03  0.00000000000E+00 0. -1.
         -3    1    6    6    0  503  0.10320766433E+03  0.13265651614E+03 -0.19065665477E+03  0.25416438235E+03  0.00000000000E+00 0.  1.
<mgrwt>
<rscale>  0 0.12971068E+04</rscale>
<asrwt>0</asrwt>
<pdfrwt beam="1">  1        2 0.14820823E+00 0.12971068E+04</pdfrwt>
<pdfrwt beam="2">  1       -1 0.67172650E-01 0.12971068E+04</pdfrwt>
<totfact> 0.66821913E+01</totfact>
</mgrwt>
</event>
<event>
12    6  0.1403409E-007  0.1533644E+04  0.7818608E-02  0.8862383E-01
         -1   -1    0    0    0  501 -0.00000000000E+00  0.00000000000E+00  0.47310888745E+03  0.47310888745E+03  0.00000000000E+00 0.  1.
          2   -1    0    0  501    0  0.00000000000E+00 -0.00000000000E+00 -0.12428770548E+04  0.12428770548E+04  0.00000000000E+00 0. -1.
         24    2    1    2    0    0  0.42613540993E+03  0.20922910972E+03 -0.89124523857E+02  0.49097921824E+03  0.88029563481E+02 0.  0.
        254    2    1    2    0    0 -0.42613540993E+03 -0.20922910972E+03 -0.68064364346E+03  0.12250067240E+04  0.90110903693E+03 0.  0.
         23    2    4    4    0    0 -0.25794894475E+03 -0.46784652023E+03 -0.85105559426E+02  0.54870378956E+03  0.91732588753E+02 0.  0.
         23    2    4    4    0    0 -0.16818646518E+03  0.25861741051E+03 -0.59553808403E+03  0.67630293441E+03  0.86893023162E+02 0.  0.
          2    1    3    3  502    0  0.27166321679E+03  0.17923397412E+03 -0.59326203438E+02  0.33082520951E+03  0.00000000000E+00 0. -1.
         -1    1    3    3    0  502  0.15447219314E+03  0.29995135597E+02 -0.29798320419E+02  0.16015400873E+03  0.00000000000E+00 0.  1.
         11    1    5    5    0    0 -0.16069801285E+03 -0.21191751282E+03 -0.16568718742E+02  0.26647214866E+03  0.00000000000E+00 0. -1.
        -11    1    5    5    0    0 -0.97250931905E+02 -0.25592900741E+03 -0.68536840684E+02  0.28223164089E+03  0.00000000000E+00 0.  1.
          3    1    6    6  503    0 -0.49861816625E+02  0.69214188654E+02 -0.25657353197E+03  0.27038265842E+03  0.00000000000E+00 0. -1.
         -3    1    6    6    0  503 -0.11832464855E+03  0.18940322186E+03 -0.33896455206E+03  0.40592027599E+03  0.00000000000E+00 0.  1.
<mgrwt>
<rscale>  0 0.15336443E+04</rscale>
<asrwt>0</asrwt>
<pdfrwt beam="1">  1        2 0.19121185E+00 0.15336443E+04</pdfrwt>
<pdfrwt beam="2">  1       -1 0.72785983E-01 0.15336443E+04</pdfrwt>
<totfact> 0.37353792E+01</totfact>
</mgrwt>
</event>
<event>
12    6  0.1403409E-007  0.2870423E+04  0.7818608E-02  0.8281732E-01
          2   -1    0    0  501    0  0.00000000000E+00  0.00000000000E+00  0.14347323004E+04  0.14347323004E+04  0.00000000000E+00 0. -1.
         -1   -1    0    0    0  501 -0.00000000000E+00 -0.00000000000E+00 -0.14356912337E+04  0.14356912337E+04  0.00000000000E+00 0.  1.
         24    2    1    2    0    0 -0.66304518701E+03 -0.11037724692E+04  0.95306764722E+02  0.12936228127E+04  0.80212333928E+02 0.  0.
        254    2    1    2    0    0  0.66304518701E+03  0.11037724692E+04 -0.96265698047E+02  0.15768007214E+04  0.90503637864E+03 0.  0.
         23    2    4    4    0    0  0.31458544247E+03  0.10569750069E+04 -0.31835604393E+03  0.11513699992E+04  0.90233799590E+02 0.  0.
         23    2    4    4    0    0  0.34845974454E+03  0.46797462325E+02  0.22209034588E+03  0.42543072222E+03  0.89738406648E+02 0.  0.
          4    1    3    3  502    0 -0.50599290422E+03 -0.77274218473E+03  0.63398393036E+02  0.92583943501E+03  0.00000000000E+00 0. -1.
         -3    1    3    3    0  502 -0.15705228279E+03 -0.33103028445E+03  0.31908371686E+02  0.36778337773E+03  0.00000000000E+00 0.  1.
         11    1    5    5    0    0  0.21668893044E+03  0.78865267805E+03 -0.19853109495E+03  0.84163040275E+03  0.00000000000E+00 0. -1.
        -11    1    5    5    0    0  0.97896512028E+02  0.26832232881E+03 -0.11982494898E+03  0.30973959644E+03  0.00000000000E+00 0.  1.
          4    1    6    6  503    0  0.16593719199E+03 -0.87720812023E+01  0.65527673302E+02  0.17862244277E+03  0.00000000000E+00 0. -1.
         -4    1    6    6    0  503  0.18252255256E+03  0.55569543527E+02  0.15656267258E+03  0.24680827945E+03  0.00000000000E+00 0.  1.
<mgrwt>
<rscale>  0 0.28704234E+04</rscale>
<asrwt>0</asrwt>
<pdfrwt beam="1">  1        2 0.22072805E+00 0.28704234E+04</pdfrwt>
<pdfrwt beam="2">  1       -1 0.22087557E+00 0.28704234E+04</pdfrwt>
<totfact> 0.14788881E+00</totfact>
</mgrwt>
</event>
<event>
12    6  0.1403409E-007  0.2427849E+04  0.7818608E-02  0.8429150E-01
         -1   -1    0    0    0  501 -0.00000000000E+00  0.00000000000E+00  0.59439983996E+03  0.59439983996E+03  0.00000000000E+00 0.  1.
          2   -1    0    0  501    0  0.00000000000E+00 -0.00000000000E+00 -0.24791609680E+04  0.24791609680E+04  0.00000000000E+00 0. -1.
         24    2    1    2    0    0 -0.37241292481E+03  0.65302230481E+03  0.10624300784E+03  0.76358471843E+03  0.81513976463E+02 0.  0.
        254    2    1    2    0    0  0.37241292481E+03 -0.65302230481E+03 -0.19910041359E+04  0.23099760895E+04  0.89819961479E+03 0.  0.
         23    2    4    4    0    0  0.27569662653E+03  0.92064590940E+02 -0.10940875747E+04  0.11358506105E+04  0.92975638667E+02 0.  0.
         23    2    4    4    0    0  0.96716298280E+02 -0.74508689575E+03 -0.89691656112E+03  0.11741254790E+04  0.97993868739E+02 0.  0.
          4    1    3    3  502    0 -0.24099212871E+02  0.82429268984E+02 -0.43670535480E+01  0.85990857670E+02  0.00000000000E+00 0. -1.
         -3    1    3    3    0  502 -0.34831371193E+03  0.57059303583E+03  0.11061006138E+03  0.67759386076E+03  0.00000000000E+00 0.  1.
         11    1    5    5    0    0  0.42336409231E+02  0.37357474502E+02 -0.33792093588E+03  0.34260547479E+03  0.00000000000E+00 0. -1.
        -11    1    5    5    0    0  0.23336021729E+03  0.54707116438E+02 -0.75616663886E+03  0.79324513571E+03  0.00000000000E+00 0.  1.
          3    1    6    6  503    0  0.11665624880E+03 -0.64246476999E+03 -0.76390079855E+03  0.10049448199E+04  0.00000000000E+00 0. -1.
         -3    1    6    6    0  503 -0.19939950519E+02 -0.10262212576E+03 -0.13301576257E+03  0.16918065910E+03  0.00000000000E+00 0.  1.
<mgrwt>
<rscale>  0 0.24278492E+04</rscale>
<asrwt>0</asrwt>
<pdfrwt beam="1">  1        2 0.38140938E+00 0.24278492E+04</pdfrwt>
<pdfrwt beam="2">  1       -1 0.91446130E-01 0.24278492E+04</pdfrwt>
<totfact> 0.42587166E+00</totfact>
</mgrwt>
</event>
<event>
12    6  0.1403409E-007  0.1395893E+04  0.7818608E-02  0.8956797E-01
         -3   -1    0    0    0  501 -0.00000000000E+00  0.00000000000E+00  0.23532784991E+03  0.23532784991E+03  0.00000000000E+00 0.  1.
          2   -1    0    0  501    0  0.00000000000E+00 -0.00000000000E+00 -0.20700036323E+04  0.20700036323E+04  0.00000000000E+00 0. -1.
         24    2    1    2    0    0 -0.32578667314E+03 -0.16538639942E+03 -0.81618966543E+03  0.89783400229E+03  0.80316301025E+02 0.  0.
        254    2    1    2    0    0  0.32578667314E+03  0.16538639942E+03 -0.10184861169E+04  0.14074974799E+04  0.90013641632E+03 0.  0.
         23    2    4    4    0    0  0.71568848178E+02  0.16609585128E+03 -0.11047823988E+04  0.11232721015E+04  0.92120212451E+02 0.  0.
         23    2    4    4    0    0  0.25421782496E+03 -0.70945186001E+00  0.86296281850E+02  0.28422537836E+03  0.93326371381E+02 0.  0.
          4    1    3    3  502    0 -0.13062925721E+03 -0.10752578125E+03 -0.40854921554E+03  0.44219708049E+03  0.00000000000E+00 0. -1.
         -3    1    3    3    0  502 -0.19515741592E+03 -0.57860618174E+02 -0.40764044989E+03  0.45563692180E+03  0.00000000000E+00 0.  1.
         11    1    5    5    0    0 -0.12180114030E+02  0.62315277930E+02 -0.23951179522E+03  0.24778508650E+03  0.00000000000E+00 0.  1.
        -11    1    5    5    0    0  0.83748962208E+02  0.10378057336E+03 -0.86527060357E+03  0.87548701503E+03  0.00000000000E+00 0. -1.
          1    1    6    6  503    0  0.11656345460E+03 -0.10184293045E+02  0.87719923069E+02  0.14623796934E+03  0.00000000000E+00 0. -1.
         -1    1    6    6    0  503  0.13765437036E+03  0.94748411854E+01 -0.14236412191E+01  0.13798740903E+03  0.00000000000E+00 0.  1.
<mgrwt>
<rscale>  0 0.13958933E+04</rscale>
<asrwt>0</asrwt>
<pdfrwt beam="1">  1        2 0.31846209E+00 0.13958933E+04</pdfrwt>
<pdfrwt beam="2">  1       -3 0.36204286E-01 0.13958933E+04</pdfrwt>
<totfact> 0.29027437E+01</totfact>
</mgrwt>
</event>
<event>
12    6  0.1403409E-007  0.1841684E+04  0.7818608E-02  0.8684441E-01
          2   -1    0    0  501    0  0.00000000000E+00  0.00000000000E+00  0.68073632278E+03  0.68073632278E+03  0.00000000000E+00 0. -1.
         -1   -1    0    0    0  501 -0.00000000000E+00 -0.00000000000E+00 -0.12456367623E+04  0.12456367623E+04  0.00000000000E+00 0.  1.
         24    2    1    2    0    0 -0.17555639418E+03 -0.43525592233E+03  0.32468177227E+03  0.57612958161E+03  0.78989088509E+02 0.  0.
        254    2    1    2    0    0  0.17555639418E+03  0.43525592233E+03 -0.88958221178E+03  0.13502435035E+04  0.90085139822E+03 0.  0.
         23    2    4    4    0    0 -0.33658073937E+03  0.17460108255E+03 -0.55705061493E+03  0.68001618351E+03  0.91348180575E+02 0.  0.
         23    2    4    4    0    0  0.51213713354E+03  0.26065483978E+03 -0.33253159685E+03  0.67022731996E+03  0.91662470292E+02 0.  0.
          2    1    3    3  502    0 -0.11597423651E+03 -0.26753763713E+03  0.24611003203E+03  0.38157117118E+03  0.00000000000E+00 0. -1.
         -1    1    3    3    0  502 -0.59582157670E+02 -0.16771828520E+03  0.78571740243E+02  0.19455841043E+03  0.00000000000E+00 0.  1.
         11    1    5    5    0    0 -0.23596965928E+03  0.16353455773E+03 -0.38276419249E+03  0.47847012313E+03  0.00000000000E+00 0.  1.
        -11    1    5    5    0    0 -0.10061108009E+03  0.11066524829E+02 -0.17428642244E+03  0.20154606038E+03  0.00000000000E+00 0. -1.
          1    1    6    6  503    0  0.45345694204E+03  0.26105724694E+03 -0.29940382795E+03  0.60284055658E+03  0.00000000000E+00 0. -1.
         -1    1    6    6    0  503  0.58680191504E+02 -0.40240716290E+00 -0.33127768899E+02  0.67386763379E+02  0.00000000000E+00 0.  1.
<mgrwt>
<rscale>  0 0.18416842E+04</rscale>
<asrwt>0</asrwt>
<pdfrwt beam="1">  1        2 0.10472867E+00 0.18416842E+04</pdfrwt>
<pdfrwt beam="2">  1       -1 0.19163642E+00 0.18416842E+04</pdfrwt>
<totfact> 0.78463741E+00</totfact>
</mgrwt>
</event>
<event>
12    6  0.1403409E-007  0.2257514E+04  0.7818608E-02  0.8494864E-01
          2   -1    0    0  501    0  0.00000000000E+00  0.00000000000E+00  0.12841014777E+04  0.12841014777E+04  0.00000000000E+00 0. -1.
         -1   -1    0    0    0  501 -0.00000000000E+00 -0.00000000000E+00 -0.99220561912E+03  0.99220561912E+03  0.00000000000E+00 0.  1.
         24    2    1    2    0    0 -0.93420520662E+03  0.37903395580E+02  0.27430307970E+03  0.97753889715E+03  0.78511657903E+02 0.  0.
        254    2    1    2    0    0  0.93420520662E+03 -0.37903395580E+02  0.17592778854E+02  0.12987681996E+04  0.90128424764E+03 0.  0.
         23    2    4    4    0    0  0.98519202793E+02 -0.37025572156E+03  0.29770843599E+02  0.39483768282E+03  0.90637519719E+02 0.  0.
         23    2    4    4    0    0  0.83568600383E+03  0.33235232598E+03 -0.12178064745E+02  0.90393051682E+03  0.90071684799E+02 0.  0.
          4    1    3    3  502    0 -0.32943881458E+03 -0.13416759528E+02  0.12406157179E+03  0.35228002439E+03  0.00000000000E+00 0. -1.
         -3    1    3    3    0  502 -0.60476639204E+03  0.51320155108E+02  0.15024150790E+03  0.62525887275E+03  0.00000000000E+00 0.  1.
         11    1    5    5    0    0  0.69377763076E+02 -0.25926275083E+03 -0.21305748081E+02  0.26922923853E+03  0.00000000000E+00 0. -1.
        -11    1    5    5    0    0  0.29141439716E+02 -0.11099297073E+03  0.51076591679E+02  0.12560844429E+03  0.00000000000E+00 0.  1.
          1    1    6    6  503    0  0.33918110903E+03  0.10200763551E+03  0.26857200504E+02  0.35520514023E+03  0.00000000000E+00 0. -1.
         -1    1    6    6    0  503  0.49650489480E+03  0.23034469046E+03 -0.39035265249E+02  0.54872537659E+03  0.00000000000E+00 0.  1.
<mgrwt>
<rscale>  0 0.22575143E+04</rscale>
<asrwt>0</asrwt>
<pdfrwt beam="1">  1        2 0.19755407E+00 0.22575143E+04</pdfrwt>
<pdfrwt beam="2">  1       -1 0.15264702E+00 0.22575143E+04</pdfrwt>
<totfact> 0.58273107E+00</totfact>
</mgrwt>
</event>
<event>
12    6  0.1403409E-007  0.1923231E+04  0.7818608E-02  0.8643378E-01
         -1   -1    0    0    0  501 -0.00000000000E+00  0.00000000000E+00  0.50897785637E+03  0.50897785637E+03  0.00000000000E+00 0.  1.
          2   -1    0    0  501    0  0.00000000000E+00 -0.00000000000E+00 -0.18167878847E+04  0.18167878847E+04  0.00000000000E+00 0. -1.
         24    2    1    2    0    0 -0.29791843706E+03 -0.12864351541E+03 -0.13276822480E+04  0.13688421212E+04  0.75392650851E+02 0.  0.
        254    2    1    2    0    0  0.29791843706E+03  0.12864351541E+03  0.19872219684E+02  0.95692361989E+03  0.90000186666E+03 0.  0.
         23    2    4    4    0    0  0.29222721658E+03  0.30890029877E+03 -0.33600267909E+03  0.54950142989E+03  0.90762769950E+02 0.  0.
         23    2    4    4    0    0  0.56912204850E+01 -0.18025678336E+03  0.35587489878E+03  0.40742219000E+03  0.82589341833E+02 0.  0.
          2    1    3    3  502    0 -0.26257622260E+03 -0.86367021181E+02 -0.11532291542E+04  0.11858933414E+04  0.00000000000E+00 0. -1.
         -1    1    3    3    0  502 -0.35342214464E+02 -0.42276494232E+02 -0.17445309384E+03  0.18294877982E+03  0.00000000000E+00 0.  1.
         11    1    5    5    0    0  0.17826794942E+03  0.24583108023E+03 -0.21874935534E+03  0.37425080127E+03  0.00000000000E+00 0. -1.
        -11    1    5    5    0    0  0.11395926716E+03  0.63069218542E+02 -0.11725332376E+03  0.17525062862E+03  0.00000000000E+00 0.  1.
          1    1    6    6  503    0  0.84517629106E+01 -0.16877502985E+03  0.25532866357E+03  0.30618486154E+03  0.00000000000E+00 0. -1.
         -1    1    6    6    0  503 -0.27605424256E+01 -0.11481753506E+02  0.10054623521E+03  0.10123732845E+03  0.00000000000E+00 0.  1.
<mgrwt>
<rscale>  0 0.19232315E+04</rscale>
<asrwt>0</asrwt>
<pdfrwt beam="1">  1        2 0.27950583E+00 0.19232315E+04</pdfrwt>
<pdfrwt beam="2">  1       -1 0.78304285E-01 0.19232315E+04</pdfrwt>
<totfact> 0.14678499E+01</totfact>
</mgrwt>
</event>
<event>
12    6  0.1403409E-007  0.3934135E+04  0.7818608E-02  0.8017967E-01
          2   -1    0    0  501    0  0.00000000000E+00  0.00000000000E+00  0.32616652129E+04  0.32616652129E+04  0.00000000000E+00 0. -1.
         -1   -1    0    0    0  501 -0.00000000000E+00 -0.00000000000E+00 -0.11863123562E+04  0.11863123562E+04  0.00000000000E+00 0.  1.
         24    2    1    2    0    0 -0.16080735150E+04 -0.51577211488E+03  0.18741943118E+04  0.25239916427E+04  0.77512515093E+02 0.  0.
        254    2    1    2    0    0  0.16080735150E+04  0.51577211488E+03  0.20115854491E+03  0.19239859264E+04  0.89963091347E+03 0.  0.
         23    2    4    4    0    0  0.80653465029E+03 -0.19427020574E+03  0.15118765108E+03  0.84814898763E+03  0.90884236402E+02 0.  0.
         23    2    4    4    0    0  0.80153886475E+03  0.71004232062E+03  0.49970893832E+02  0.10758369388E+04  0.91122882832E+02 0.  0.
          4    1    3    3  502    0 -0.72614346975E+03 -0.19454018232E+03  0.85176884516E+03  0.11360635487E+04  0.00000000000E+00 0. -1.
         -3    1    3    3    0  502 -0.88193004530E+03 -0.32123193256E+03  0.10224254666E+04  0.13879280940E+04  0.00000000000E+00 0.  1.
         11    1    5    5    0    0  0.30273100412E+03 -0.28362882498E+02  0.49088131289E+02  0.30799376389E+03  0.00000000000E+00 0. -1.
        -11    1    5    5    0    0  0.50380364617E+03 -0.16590732324E+03  0.10209951979E+03  0.54015522375E+03  0.00000000000E+00 0.  1.
          3    1    6    6  503    0  0.14945116283E+03  0.18200982011E+03  0.17041568402E+02  0.23612208652E+03  0.00000000000E+00 0. -1.
         -3    1    6    6    0  503  0.65208770192E+03  0.52803250051E+03  0.32929325431E+02  0.83971485223E+03  0.00000000000E+00 0.  1.
<mgrwt>
<rscale>  0 0.39341346E+04</rscale>
<asrwt>0</asrwt>
<pdfrwt beam="1">  1        2 0.50179464E+00 0.39341346E+04</pdfrwt>
<pdfrwt beam="2">  1       -1 0.18250960E+00 0.39341346E+04</pdfrwt>
<totfact> 0.21208095E-01</totfact>
</mgrwt>
</event>
<event>
12    6  0.1403409E-007  0.3852673E+04  0.7818608E-02  0.8034945E-01
          2   -1    0    0  501    0  0.00000000000E+00  0.00000000000E+00  0.30162080980E+04  0.30162080980E+04  0.00000000000E+00 0. -1.
         -1   -1    0    0    0  501 -0.00000000000E+00 -0.00000000000E+00 -0.12302774411E+04  0.12302774411E+04  0.00000000000E+00 0.  1.
         24    2    1    2    0    0 -0.95950791034E+03  0.61469812680E+03 -0.71924486110E+03  0.13487484705E+04  0.57446055591E+02 0.  0.
        254    2    1    2    0    0  0.95950791034E+03 -0.61469812680E+03  0.25051755180E+04  0.28977370686E+04  0.90689940208E+03 0.  0.
         23    2    4    4    0    0  0.10334968185E+04 -0.74889690519E+03  0.22088457198E+04  0.25527138255E+04  0.91576266855E+02 0.  0.
         23    2    4    4    0    0 -0.73988908133E+02  0.13419877839E+03  0.29632979821E+03  0.34502324307E+03  0.88011466900E+02 0.  0.
          4    1    3    3  502    0 -0.56848867976E+03  0.33572380593E+03 -0.43421531500E+03  0.79021060020E+03  0.00000000000E+00 0. -1.
         -3    1    3    3    0  502 -0.39101923058E+03  0.27897432087E+03 -0.28502954610E+03  0.55853787028E+03  0.00000000000E+00 0.  1.
         11    1    5    5    0    0  0.19870841169E+03 -0.17879545977E+03  0.51188021731E+03  0.57747225577E+03  0.00000000000E+00 0. -1.
        -11    1    5    5    0    0  0.83478840678E+03 -0.57010144542E+03  0.16969655025E+04  0.19752415697E+04  0.00000000000E+00 0.  1.
          1    1    6    6  503    0 -0.25032249830E+02  0.11474287488E+03  0.15698913197E+03  0.19605644194E+03  0.00000000000E+00 0. -1.
         -1    1    6    6    0  503 -0.48956658303E+02  0.19455903511E+02  0.13934066623E+03  0.14896680113E+03  0.00000000000E+00 0.  1.
<mgrwt>
<rscale>  0 0.38526732E+04</rscale>
<asrwt>0</asrwt>
<pdfrwt beam="1">  1        2 0.46403201E+00 0.38526732E+04</pdfrwt>
<pdfrwt beam="2">  1       -1 0.18927345E+00 0.38526732E+04</pdfrwt>
<totfact> 0.27549931E-01</totfact>
</mgrwt>
</event>
<event>
12    6  0.1403409E-007  0.2612850E+04  0.7818608E-02  0.8363850E-01
          2   -1    0    0  501    0  0.00000000000E+00  0.00000000000E+00  0.15193494618E+04  0.15193494618E+04  0.00000000000E+00 0. -1.
         -1   -1    0    0    0  501 -0.00000000000E+00 -0.00000000000E+00 -0.11233398808E+04  0.11233398808E+04  0.00000000000E+00 0.  1.
         24    2    1    2    0    0  0.35853900283E+03  0.90830505336E+03  0.78858433270E+03  0.12579458878E+04  0.83632053938E+02 0.  0.
        254    2    1    2    0    0 -0.35853900283E+03 -0.90830505336E+03 -0.39257475162E+03  0.13847434548E+04  0.89990622481E+03 0.  0.
         23    2    4    4    0    0  0.65684800377E+02 -0.51024765435E+02 -0.40586930746E+03  0.42378197032E+03  0.89124878382E+02 0.  0.
         23    2    4    4    0    0 -0.42422380321E+03 -0.85728028792E+03  0.13294555834E+02  0.96096148447E+03  0.91514491403E+02 0.  0.
          2    1    3    3  502    0  0.10856290998E+03  0.26699259339E+03  0.28276682957E+03  0.40376729716E+03  0.00000000000E+00 0. -1.
         -1    1    3    3    0  502  0.24997609285E+03  0.64131245997E+03  0.50581750312E+03  0.85417859068E+03  0.00000000000E+00 0.  1.
         11    1    5    5    0    0  0.77173988962E+02 -0.20020466630E+02 -0.20054282900E+03  0.21581026371E+03  0.00000000000E+00 0. -1.
        -11    1    5    5    0    0 -0.11489188584E+02 -0.31004298805E+02 -0.20532647845E+03  0.20797170662E+03  0.00000000000E+00 0.  1.
          2    1    6    6  503    0 -0.35473603559E+03 -0.73308194131E+03 -0.20619446940E+02  0.81466063439E+03  0.00000000000E+00 0. -1.
         -2    1    6    6    0  503 -0.69487767622E+02 -0.12419834661E+03  0.33914002774E+02  0.14630085008E+03  0.00000000000E+00 0.  1.
<mgrwt>
<rscale>  0 0.26128497E+04</rscale>
<asrwt>0</asrwt>
<pdfrwt beam="1">  1        2 0.23374607E+00 0.26128497E+04</pdfrwt>
<pdfrwt beam="2">  1       -1 0.17282152E+00 0.26128497E+04</pdfrwt>
<totfact> 0.29227153E+00</totfact>
</mgrwt>
</event>
<event>
12    6  0.1403409E-007  0.1932227E+04  0.7818608E-02  0.8638979E-01
          2   -1    0    0  501    0  0.00000000000E+00  0.00000000000E+00  0.28796456457E+04  0.28796456457E+04  0.00000000000E+00 0. -1.
         -1   -1    0    0    0  501 -0.00000000000E+00 -0.00000000000E+00 -0.32412841835E+03  0.32412841835E+03  0.00000000000E+00 0.  1.
         24    2    1    2    0    0  0.40808834290E+03 -0.51112617914E+03  0.38009942732E+03  0.76064633684E+03  0.79506027966E+02 0.  0.
        254    2    1    2    0    0 -0.40808834290E+03  0.51112617914E+03  0.21754178000E+04  0.24431277272E+04  0.89924658474E+03 0.  0.
         23    2    4    4    0    0 -0.13116545755E+02  0.58219601795E+03  0.17683815811E+04  0.18640140258E+04  0.90832950292E+02 0.  0.
         23    2    4    4    0    0 -0.39497179715E+03 -0.71069838809E+02  0.40703621890E+03  0.57911370141E+03  0.92954575602E+02 0.  0.
          4    1    3    3  502    0  0.33883015251E+03 -0.42017944020E+03  0.34679303538E+03  0.64157777674E+03  0.00000000000E+00 0. -1.
         -3    1    3    3    0  502  0.69258190390E+02 -0.90946738944E+02  0.33306391939E+02  0.11906856010E+03  0.00000000000E+00 0.  1.
         11    1    5    5    0    0 -0.52093731883E+02  0.36037473575E+03  0.10813562869E+04  0.11410149545E+04  0.00000000000E+00 0. -1.
        -11    1    5    5    0    0  0.38977186128E+02  0.22182128220E+03  0.68702529414E+03  0.72299907127E+03  0.00000000000E+00 0.  1.
          2    1    6    6  503    0 -0.33030214952E+02 -0.25786296800E+01  0.44436221436E+01  0.33427387103E+02  0.00000000000E+00 0. -1.
         -2    1    6    6    0  503 -0.36194158220E+03 -0.68491209129E+02  0.40259259676E+03  0.54568631430E+03  0.00000000000E+00 0.  1.
<mgrwt>
<rscale>  0 0.19322267E+04</rscale>
<asrwt>0</asrwt>
<pdfrwt beam="1">  1        2 0.44302239E+00 0.19322267E+04</pdfrwt>
<pdfrwt beam="2">  1       -1 0.49865912E-01 0.19322267E+04</pdfrwt>
<totfact> 0.88908347E+00</totfact>
</mgrwt>
</event>
<event>
12    6  0.1403409E-007  0.1805340E+04  0.7818608E-02  0.8703465E-01
          2   -1    0    0  501    0  0.00000000000E+00  0.00000000000E+00  0.58721315997E+03  0.58721315997E+03  0.00000000000E+00 0. -1.
         -1   -1    0    0    0  501 -0.00000000000E+00 -0.00000000000E+00 -0.13875927280E+04  0.13875927280E+04  0.00000000000E+00 0.  1.
         24    2    1    2    0    0 -0.40564337863E+03  0.48764169520E+03 -0.48077939733E+02  0.64115479547E+03  0.80168634356E+02 0.  0.
        254    2    1    2    0    0  0.40564337863E+03 -0.48764169520E+03 -0.75230162828E+03  0.13336510925E+04  0.90018138340E+03 0.  0.
         23    2    4    4    0    0  0.64818389541E+03 -0.28635055046E+03 -0.70324015895E+03  0.10024332673E+04  0.90480573345E+02 0.  0.
         23    2    4    4    0    0 -0.24254051678E+03 -0.20129114474E+03 -0.49061469331E+02  0.33121782521E+03  0.89186281080E+02 0.  0.
          4    1    3    3  502    0 -0.19774040772E+03  0.24600108439E+03  0.15922396534E+02  0.31602424761E+03  0.00000000000E+00 0. -1.
         -3    1    3    3    0  502 -0.20790297092E+03  0.24164061082E+03 -0.64000336267E+02  0.32513054786E+03  0.00000000000E+00 0.  1.
         11    1    5    5    0    0  0.56906907779E+03 -0.22930549989E+03 -0.57112671703E+03  0.83821617407E+03  0.00000000000E+00 0. -1.
        -11    1    5    5    0    0  0.79114817622E+02 -0.57045050569E+02 -0.13211344192E+03  0.16421709320E+03  0.00000000000E+00 0.  1.
          4    1    6    6  503    0 -0.15875495092E+03 -0.17438680311E+03 -0.57740031744E+02  0.24279168603E+03  0.00000000000E+00 0. -1.
         -4    1    6    6    0  503 -0.83785565856E+02 -0.26904341640E+02  0.86785624128E+01  0.88426139181E+02  0.00000000000E+00 0.  1.
<mgrwt>
<rscale>  0 0.18053395E+04</rscale>
<asrwt>0</asrwt>
<pdfrwt beam="1">  1        2 0.90340487E-01 0.18053395E+04</pdfrwt>
<pdfrwt beam="2">  1       -1 0.21347580E+00 0.18053395E+04</pdfrwt>
<totfact> 0.66806980E+00</totfact>
</mgrwt>
</event>
<event>
12    6  0.1403409E-007  0.2212540E+04  0.7818608E-02  0.8513227E-01
          2   -1    0    0  501    0  0.00000000000E+00  0.00000000000E+00  0.12664078530E+04  0.12664078530E+04  0.00000000000E+00 0. -1.
         -1   -1    0    0    0  501 -0.00000000000E+00 -0.00000000000E+00 -0.96638172017E+03  0.96638172017E+03  0.00000000000E+00 0.  1.
         24    2    1    2    0    0  0.51848840833E+03 -0.76283743753E+03  0.16286764878E+03  0.93989915154E+03  0.78315760693E+02 0.  0.
        254    2    1    2    0    0 -0.51848840833E+03  0.76283743753E+03  0.13715848403E+03  0.12928904216E+04  0.89554564755E+03 0.  0.
         23    2    4    4    0    0 -0.64059360464E+03  0.18815579414E+03 -0.31360742458E+02  0.67465783050E+03  0.91743789516E+02 0.  0.
         23    2    4    4    0    0  0.12210519631E+03  0.57468164339E+03  0.16851922649E+03  0.61823259110E+03  0.92973849982E+02 0.  0.
          4    1    3    3  502    0  0.75552011268E+02 -0.16617616234E+03  0.28828068742E+02  0.18480714511E+03  0.00000000000E+00 0. -1.
         -3    1    3    3    0  502  0.44293639707E+03 -0.59666127520E+03  0.13403958004E+03  0.75509200644E+03  0.00000000000E+00 0.  1.
         11    1    5    5    0    0 -0.37399139504E+02  0.35841315432E+02 -0.24282665218E+01  0.51857419969E+02  0.00000000000E+00 0. -1.
        -11    1    5    5    0    0 -0.60319446514E+03  0.15231447871E+03 -0.28932475936E+02  0.62280041054E+03  0.00000000000E+00 0.  1.
          4    1    6    6  503    0  0.17174334813E+02  0.94768210943E+02 -0.70041183659E+01  0.96566191059E+02  0.00000000000E+00 0. -1.
         -4    1    6    6    0  503  0.10493086150E+03  0.47991343245E+03  0.17552334485E+03  0.52166640004E+03  0.00000000000E+00 0.  1.
<mgrwt>
<rscale>  0 0.22125401E+04</rscale>
<asrwt>0</asrwt>
<pdfrwt beam="1">  1        2 0.19483198E+00 0.22125401E+04</pdfrwt>
<pdfrwt beam="2">  1       -1 0.14867411E+00 0.22125401E+04</pdfrwt>
<totfact> 0.64337820E+00</totfact>
</mgrwt>
</event>
<event>
12    6  0.1403409E-007  0.1519669E+04  0.7818608E-02  0.8871477E-01
         -1   -1    0    0    0  501 -0.00000000000E+00  0.00000000000E+00  0.31544847224E+03  0.31544847224E+03  0.00000000000E+00 0.  1.
          2   -1    0    0  501    0  0.00000000000E+00 -0.00000000000E+00 -0.18302471769E+04  0.18302471769E+04  0.00000000000E+00 0. -1.
         24    2    1    2    0    0  0.27415226453E+03 -0.33916528535E+03 -0.80679338842E+03  0.91981524551E+03  0.70370159357E+02 0.  0.
        254    2    1    2    0    0 -0.27415226453E+03  0.33916528535E+03 -0.70800531622E+03  0.12258804036E+04  0.90073230276E+03 0.  0.
         23    2    4    4    0    0  0.33934756477E+02  0.15218302868E+02 -0.75973402159E+03  0.76612669590E+03  0.91494077183E+02 0.  0.
         23    2    4    4    0    0 -0.30808702101E+03  0.32394698248E+03  0.51728705370E+02  0.45975370772E+03  0.94012514239E+02 0.  0.
          4    1    3    3  502    0  0.86569269247E+02 -0.89646366620E+02 -0.29631232566E+03  0.32145249068E+03  0.00000000000E+00 0. -1.
         -3    1    3    3    0  502  0.18758299528E+03 -0.24951891872E+03 -0.51048106276E+03  0.59836275482E+03  0.00000000000E+00 0.  1.
         11    1    5    5    0    0 -0.18772908963E+01  0.34569890923E+01  0.13127045367E+01  0.41470697962E+01  0.00000000000E+00 0. -1.
        -11    1    5    5    0    0  0.35812047373E+02  0.11761313775E+02 -0.76104672613E+03  0.76197962610E+03  0.00000000000E+00 0.  1.
          4    1    6    6  503    0 -0.25002873903E+03  0.26274601422E+03  0.37737510188E+01  0.36271763057E+03  0.00000000000E+00 0. -1.
         -4    1    6    6    0  503 -0.58058281979E+02  0.61200968253E+02  0.47954954351E+02  0.97036077148E+02  0.00000000000E+00 0.  1.
<mgrwt>
<rscale>  0 0.15196693E+04</rscale>
<asrwt>0</asrwt>
<pdfrwt beam="1">  1        2 0.28157648E+00 0.15196693E+04</pdfrwt>
<pdfrwt beam="2">  1       -1 0.48530535E-01 0.15196693E+04</pdfrwt>
<totfact> 0.38759906E+01</totfact>
</mgrwt>
</event>
<event>
12    6  0.1403409E-007  0.2144224E+04  0.7818608E-02  0.8542009E-01
         -1   -1    0    0    0  501 -0.00000000000E+00  0.00000000000E+00  0.81911042664E+03  0.81911042664E+03  0.00000000000E+00 0.  1.
          2   -1    0    0  501    0  0.00000000000E+00 -0.00000000000E+00 -0.14032585034E+04  0.14032585034E+04  0.00000000000E+00 0. -1.
         24    2    1    2    0    0 -0.56869692833E+03  0.29706471174E+03  0.38592962584E+03  0.75295841603E+03  0.79630778695E+02 0.  0.
        254    2    1    2    0    0  0.56869692833E+03 -0.29706471174E+03 -0.97007770260E+03  0.14694105140E+04  0.89802721022E+03 0.  0.
         23    2    4    4    0    0  0.23612362169E+03 -0.49513630975E+03 -0.91158052934E+03  0.10675885053E+04  0.88610525037E+02 0.  0.
         23    2    4    4    0    0  0.33257330664E+03  0.19807159801E+03 -0.58497173255E+02  0.40182200873E+03  0.90562934975E+02 0.  0.
          4    1    3    3  502    0 -0.33132198738E+03  0.20960867029E+03  0.20934208872E+03  0.44444815681E+03  0.00000000000E+00 0. -1.
         -3    1    3    3    0  502 -0.23737494095E+03  0.87456041447E+02  0.17658753712E+03  0.30851025922E+03  0.00000000000E+00 0.  1.
         11    1    5    5    0    0  0.89230930408E+02 -0.23993868642E+03 -0.35172255884E+03  0.43501895428E+03  0.00000000000E+00 0.  1.
        -11    1    5    5    0    0  0.14689269128E+03 -0.25519762333E+03 -0.55985797050E+03  0.63256955099E+03  0.00000000000E+00 0. -1.
          2    1    6    6  503    0  0.31062312522E+03  0.15394091614E+03 -0.62904254152E+02  0.35233716349E+03  0.00000000000E+00 0. -1.
         -2    1    6    6    0  503  0.21950181422E+02  0.44130681866E+02  0.44070808973E+01  0.49484845240E+02  0.00000000000E+00 0.  1.
<mgrwt>
<rscale>  0 0.21442236E+04</rscale>
<asrwt>0</asrwt>
<pdfrwt beam="1">  1        2 0.21588592E+00 0.21442236E+04</pdfrwt>
<pdfrwt beam="2">  1       -1 0.12601699E+00 0.21442236E+04</pdfrwt>
<totfact> 0.82685343E+00</totfact>
</mgrwt>
</event>
<event>
12    6  0.1403409E-007  0.2072444E+04  0.7818608E-02  0.8573480E-01
          2   -1    0    0  501    0  0.00000000000E+00  0.00000000000E+00  0.96517344969E+03  0.96517344969E+03  0.00000000000E+00 0. -1.
         -1   -1    0    0    0  501 -0.00000000000E+00 -0.00000000000E+00 -0.11125006492E+04  0.11125006492E+04  0.00000000000E+00 0.  1.
         24    2    1    2    0    0  0.76059019163E+03 -0.67114563992E+02 -0.40743406170E+03  0.86915887563E+03  0.80204938462E+02 0.  0.
        254    2    1    2    0    0 -0.76059019163E+03  0.67114563992E+02  0.26010686224E+03  0.12085152232E+04  0.89991758548E+03 0.  0.
         23    2    4    4    0    0 -0.92829209543E+02  0.28483854637E+03  0.37737362349E+03  0.49039742258E+03  0.91260729361E+02 0.  0.
         23    2    4    4    0    0 -0.66776098208E+03 -0.21772398238E+03 -0.11726676126E+03  0.71811780063E+03  0.92915125722E+02 0.  0.
          2    1    3    3  502    0  0.23677246118E+03 -0.24272437274E+02 -0.85908662712E+02  0.25304277882E+03  0.00000000000E+00 0. -1.
         -3    1    3    3    0  502  0.52381773045E+03 -0.42842126718E+02 -0.32152539899E+03  0.61611609681E+03  0.00000000000E+00 0.  1.
         11    1    5    5    0    0 -0.69030409480E+02  0.98180469637E+02  0.19081984247E+03  0.22542585107E+03  0.00000000000E+00 0.  1.
        -11    1    5    5    0    0 -0.23798800063E+02  0.18665807673E+03  0.18655378102E+03  0.26497157151E+03  0.00000000000E+00 0. -1.
          3    1    6    6  503    0 -0.19016075603E+03 -0.42995633476E+02  0.51653902108E+01  0.19502927701E+03  0.00000000000E+00 0. -1.
         -3    1    6    6    0  503 -0.47760022605E+03 -0.17472834890E+03 -0.12243215147E+03  0.52308852362E+03  0.00000000000E+00 0.  1.
<mgrwt>
<rscale>  0 0.20724441E+04</rscale>
<asrwt>0</asrwt>
<pdfrwt beam="1">  1        2 0.14848822E+00 0.20724441E+04</pdfrwt>
<pdfrwt beam="2">  1       -1 0.17115395E+00 0.20724441E+04</pdfrwt>
<totfact> 0.67459001E+00</totfact>
</mgrwt>
</event>
<event>
12    6  0.1403409E-007  0.1927074E+04  0.7818608E-02  0.8641496E-01
         -1   -1    0    0    0  501 -0.00000000000E+00  0.00000000000E+00  0.11426543407E+04  0.11426543407E+04  0.00000000000E+00 0.  1.
          2   -1    0    0  501    0  0.00000000000E+00 -0.00000000000E+00 -0.81249745205E+03  0.81249745205E+03  0.00000000000E+00 0. -1.
         24    2    1    2    0    0 -0.41139138905E+03 -0.52765387925E+03  0.46996607629E+03  0.82156674926E+03  0.80264060215E+02 0.  0.
        254    2    1    2    0    0  0.41139138905E+03  0.52765387925E+03 -0.13980918768E+03  0.11335850434E+04  0.90432679408E+03 0.  0.
         23    2    4    4    0    0  0.35365337113E+03 -0.15560245941E+03  0.86099318134E+02  0.40582365482E+03  0.89425465846E+02 0.  0.
         23    2    4    4    0    0  0.57738017918E+02  0.68325633866E+03 -0.22590850581E+03  0.72776138863E+03  0.91810036223E+02 0.  0.
          2    1    3    3  502    0 -0.99189060155E+02 -0.86544722248E+02  0.68837387839E+02  0.14854980501E+03  0.00000000000E+00 0. -1.
         -1    1    3    3    0  502 -0.31220232889E+03 -0.44110915700E+03  0.40112868845E+03  0.67301694425E+03  0.00000000000E+00 0.  1.
         11    1    5    5    0    0  0.15918174704E+03 -0.70769504940E+02 -0.65043991886E+01  0.17432572567E+03  0.00000000000E+00 0.  1.
        -11    1    5    5    0    0  0.19447162409E+03 -0.84832954469E+02  0.92603717322E+02  0.23149792915E+03  0.00000000000E+00 0. -1.
          1    1    6    6  503    0  0.54285859387E+02  0.31654333250E+03 -0.14413952454E+03  0.35202675809E+03  0.00000000000E+00 0. -1.
         -1    1    6    6    0  503  0.34521585316E+01  0.36671300616E+03 -0.81768981266E+02  0.37573463054E+03  0.00000000000E+00 0.  1.
<mgrwt>
<rscale>  0 0.19270742E+04</rscale>
<asrwt>0</asrwt>
<pdfrwt beam="1">  1        2 0.12499961E+00 0.19270742E+04</pdfrwt>
<pdfrwt beam="2">  1       -1 0.17579298E+00 0.19270742E+04</pdfrwt>
<totfact> 0.80319184E+00</totfact>
</mgrwt>
</event>
<event>
12    6  0.1403409E-007  0.2071363E+04  0.7818608E-02  0.8573964E-01
          2   -1    0    0  501    0  0.00000000000E+00  0.00000000000E+00  0.10230392874E+04  0.10230392874E+04  0.00000000000E+00 0. -1.
         -1   -1    0    0    0  501 -0.00000000000E+00 -0.00000000000E+00 -0.10484798096E+04  0.10484798096E+04  0.00000000000E+00 0.  1.
         24    2    1    2    0    0  0.45579344778E+03  0.63955133566E+03 -0.29847006308E+03  0.84510314869E+03  0.91331130428E+02 0.  0.
        254    2    1    2    0    0 -0.45579344778E+03 -0.63955133566E+03  0.27302954094E+03  0.12264159483E+04  0.90154166298E+03 0.  0.
         23    2    4    4    0    0 -0.60188666003E+03 -0.93432184519E+02  0.75790297439E+02  0.62078686445E+03  0.92924901163E+02 0.  0.
         23    2    4    4    0    0  0.14609321225E+03 -0.54611915114E+03  0.19723924350E+03  0.60562908388E+03  0.91070929247E+02 0.  0.
          4    1    3    3  502    0  0.46722316782E+02  0.37858547866E+02 -0.42492801774E+01  0.60285163299E+02  0.00000000000E+00 0. -1.
         -3    1    3    3    0  502  0.40907113100E+03  0.60169278779E+03 -0.29422078291E+03  0.78481798539E+03  0.00000000000E+00 0.  1.
         11    1    5    5    0    0 -0.40646183600E+03 -0.29200586699E+02  0.78783958232E+02  0.41505518966E+03  0.00000000000E+00 0. -1.
        -11    1    5    5    0    0 -0.19542482404E+03 -0.64231597820E+02 -0.29936607925E+01  0.20573167479E+03  0.00000000000E+00 0.  1.
          2    1    6    6  503    0  0.15401171392E+03 -0.51216513490E+03  0.16938226099E+03  0.56100185719E+03  0.00000000000E+00 0. -1.
         -2    1    6    6    0  503 -0.79185016675E+01 -0.33954016241E+02  0.27856982505E+02  0.44627226688E+02  0.00000000000E+00 0.  1.
<mgrwt>
<rscale>  0 0.20713629E+04</rscale>
<asrwt>0</asrwt>
<pdfrwt beam="1">  1        2 0.15739066E+00 0.20713629E+04</pdfrwt>
<pdfrwt beam="2">  1       -1 0.16130459E+00 0.20713629E+04</pdfrwt>
<totfact> 0.73279263E+00</totfact>
</mgrwt>
</event>
<event>
12    6  0.1403409E-007  0.3294134E+04  0.7818608E-02  0.8164390E-01
         -1   -1    0    0    0  501 -0.00000000000E+00  0.00000000000E+00  0.13607344554E+04  0.13607344554E+04  0.00000000000E+00 0.  1.
          2   -1    0    0  501    0  0.00000000000E+00 -0.00000000000E+00 -0.19936511947E+04  0.19936511947E+04  0.00000000000E+00 0. -1.
         24    2    1    2    0    0 -0.10460445681E+04 -0.11030784534E+04 -0.38941850251E+03  0.15712426007E+04  0.78518961081E+02 0.  0.
        254    2    1    2    0    0  0.10460445681E+04  0.11030784534E+04 -0.24349823675E+03  0.17831430494E+04  0.89962015896E+03 0.  0.
         23    2    4    4    0    0  0.66743148076E+03  0.12504111452E+03 -0.25314679951E+03  0.73032282502E+03  0.90487926354E+02 0.  0.
         23    2    4    4    0    0  0.37861308738E+03  0.97803733886E+03  0.96485627575E+01  0.10528202244E+04  0.91828230514E+02 0.  0.
          4    1    3    3  502    0 -0.84142893332E+03 -0.84270627670E+03 -0.31532151014E+03  0.12319026639E+04  0.00000000000E+00 0. -1.
         -3    1    3    3    0  502 -0.20461563482E+03 -0.26037217668E+03 -0.74096992373E+02  0.33933993676E+03  0.00000000000E+00 0.  1.
         11    1    5    5    0    0  0.60280658395E+03  0.10653447434E+03 -0.19799727741E+03  0.64337259324E+03  0.00000000000E+00 0.  1.
        -11    1    5    5    0    0  0.64624896810E+02  0.18506640175E+02 -0.55149522098E+02  0.86950231777E+02  0.00000000000E+00 0. -1.
          1    1    6    6  503    0  0.13175422524E+03  0.33932571664E+03  0.47091600787E+02  0.36704051099E+03  0.00000000000E+00 0. -1.
         -1    1    6    6    0  503  0.24685886213E+03  0.63871162222E+03 -0.37443038029E+02  0.68577971337E+03  0.00000000000E+00 0.  1.
<mgrwt>
<rscale>  0 0.32941341E+04</rscale>
<asrwt>0</asrwt>
<pdfrwt beam="1">  1        2 0.30671557E+00 0.32941341E+04</pdfrwt>
<pdfrwt beam="2">  1       -1 0.20934376E+00 0.32941341E+04</pdfrwt>
<totfact> 0.83157556E-01</totfact>
</mgrwt>
</event>
<event>
12    6  0.1403409E-007  0.1087240E+04  0.7818608E-02  0.9217719E-01
         -1   -1    0    0    0  501 -0.00000000000E+00  0.00000000000E+00  0.51114312298E+03  0.51114312298E+03  0.00000000000E+00 0.  1.
          2   -1    0    0  501    0  0.00000000000E+00 -0.00000000000E+00 -0.57815992101E+03  0.57815992101E+03  0.00000000000E+00 0. -1.
         24    2    1    2    0    0 -0.79866536895E+02  0.12386793444E+03 -0.67121007710E+02  0.18040993024E+03  0.79502102834E+02 0.  0.
        254    2    1    2    0    0  0.79866536895E+02 -0.12386793444E+03  0.10420968565E+00  0.90889311374E+03  0.89686384276E+03 0.  0.
         23    2    4    4    0    0 -0.11927505960E+03 -0.39732997896E+03 -0.23640195446E+03  0.48618545890E+03  0.91612031673E+02 0.  0.
         23    2    4    4    0    0  0.19914159649E+03  0.27346204451E+03  0.23650616415E+03  0.42270765485E+03  0.91146752801E+02 0.  0.
          2    1    3    3  502    0 -0.44617602815E+02  0.16249120690E+02  0.23713159729E+01  0.47543533142E+02  0.00000000000E+00 0. -1.
         -1    1    3    3    0  502 -0.35248934080E+02  0.10761881376E+03 -0.69492323683E+02  0.13286639710E+03  0.00000000000E+00 0.  1.
         11    1    5    5    0    0 -0.78571176535E+02 -0.19879731033E+03 -0.16936404232E+03  0.27272326488E+03  0.00000000000E+00 0. -1.
        -11    1    5    5    0    0 -0.40703883064E+02 -0.19853266863E+03 -0.67037912139E+02  0.21346219401E+03  0.00000000000E+00 0.  1.
          2    1    6    6  503    0  0.20869537932E+03  0.26057574522E+03  0.22080130167E+03  0.40025828557E+03  0.00000000000E+00 0. -1.
         -2    1    6    6    0  503 -0.95537828274E+01  0.12886299294E+02  0.15704862471E+02  0.22449369279E+02  0.00000000000E+00 0.  1.
<mgrwt>
<rscale>  0 0.10872396E+04</rscale>
<asrwt>0</asrwt>
<pdfrwt beam="1">  1        2 0.88947680E-01 0.10872396E+04</pdfrwt>
<pdfrwt beam="2">  1       -1 0.78637404E-01 0.10872396E+04</pdfrwt>
<totfact> 0.95351744E+01</totfact>
</mgrwt>
</event>
<event>
12    6  0.1403409E-007  0.2771504E+04  0.7818608E-02  0.8312170E-01
          2   -1    0    0  501    0  0.00000000000E+00  0.00000000000E+00  0.25094803147E+04  0.25094803147E+04  0.00000000000E+00 0. -1.
         -1   -1    0    0    0  501 -0.00000000000E+00 -0.00000000000E+00 -0.76522165138E+03  0.76522165138E+03  0.00000000000E+00 0.  1.
         24    2    1    2    0    0 -0.92350033460E+03 -0.64785006914E+03  0.17780398248E+03  0.11446547603E+04  0.77831124365E+02 0.  0.
        254    2    1    2    0    0  0.92350033460E+03  0.64785006914E+03  0.15664546809E+04  0.21300472058E+04  0.90042115246E+03 0.  0.
         23    2    4    4    0    0  0.26015060515E+03 -0.80272296293E+02  0.13967211704E+02  0.28922157171E+03  0.96602565334E+02 0.  0.
         23    2    4    4    0    0  0.66334972945E+03  0.72812236543E+03  0.15524874692E+04  0.18408256341E+04  0.90700775890E+02 0.  0.
          2    1    3    3  502    0 -0.27605597846E+03 -0.16758466794E+03  0.79274921077E+02  0.33252975398E+03  0.00000000000E+00 0. -1.
         -1    1    3    3    0  502 -0.64744435614E+03 -0.48026540120E+03  0.98529061401E+02  0.81212500628E+03  0.00000000000E+00 0.  1.
         11    1    5    5    0    0  0.36933710893E+01 -0.19002946435E+02 -0.14255337595E+02  0.24040956993E+02  0.00000000000E+00 0.  1.
        -11    1    5    5    0    0  0.25645723406E+03 -0.61269349859E+02  0.28222549298E+02  0.26518061472E+03  0.00000000000E+00 0. -1.
          2    1    6    6  503    0  0.34243822428E+03  0.44241172938E+03  0.87137050578E+03  0.10355088769E+04  0.00000000000E+00 0. -1.
         -2    1    6    6    0  503  0.32091150517E+03  0.28571063604E+03  0.68111696338E+03  0.80531675725E+03  0.00000000000E+00 0.  1.
<mgrwt>
<rscale>  0 0.27715040E+04</rscale>
<asrwt>0</asrwt>
<pdfrwt beam="1">  1        2 0.38607389E+00 0.27715040E+04</pdfrwt>
<pdfrwt beam="2">  1       -1 0.11772641E+00 0.27715040E+04</pdfrwt>
<totfact> 0.22103752E+00</totfact>
</mgrwt>
</event>
<event>
12    6  0.1403409E-007  0.1648056E+04  0.7818608E-02  0.8791557E-01
          2   -1    0    0  501    0  0.00000000000E+00  0.00000000000E+00  0.16613034435E+04  0.16613034435E+04  0.00000000000E+00 0. -1.
         -1   -1    0    0    0  501 -0.00000000000E+00 -0.00000000000E+00 -0.40872842918E+03  0.40872842918E+03  0.00000000000E+00 0.  1.
         24    2    1    2    0    0  0.37317395259E+03  0.35895753270E+03  0.12844036724E+03  0.53941270466E+03  0.79748534974E+02 0.  0.
        254    2    1    2    0    0 -0.37317395259E+03 -0.35895753270E+03  0.11241346471E+04  0.15306191680E+04  0.90055928375E+03 0.  0.
         23    2    4    4    0    0 -0.20081553916E+03 -0.64733620191E+03  0.83495434208E+03  0.10790162355E+04  0.88069541052E+02 0.  0.
         23    2    4    4    0    0 -0.17235841343E+03  0.28837866920E+03  0.28918030497E+03  0.45160293249E+03  0.86315006321E+02 0.  0.
          4    1    3    3  502    0  0.23264414448E+03  0.23820043074E+03  0.12003331281E+03  0.35393606676E+03  0.00000000000E+00 0. -1.
         -3    1    3    3    0  502  0.14052980812E+03  0.12075710196E+03  0.84070544256E+01  0.18547663790E+03  0.00000000000E+00 0.  1.
         11    1    5    5    0    0 -0.40810372290E+02 -0.90320070661E+02  0.17154736449E+03  0.19812041771E+03  0.00000000000E+00 0. -1.
        -11    1    5    5    0    0 -0.16000516687E+03 -0.55701613125E+03  0.66340697758E+03  0.88089581779E+03  0.00000000000E+00 0.  1.
          2    1    6    6  503    0 -0.25767751835E+02  0.10969809712E+02  0.53456807670E+01  0.28511226957E+02  0.00000000000E+00 0. -1.
         -2    1    6    6    0  503 -0.14659066160E+03  0.27740885949E+03  0.28383462421E+03  0.42309170553E+03  0.00000000000E+00 0.  1.
<mgrwt>
<rscale>  0 0.16480558E+04</rscale>
<asrwt>0</asrwt>
<pdfrwt beam="1">  1        2 0.25558514E+00 0.16480558E+04</pdfrwt>
<pdfrwt beam="2">  1       -1 0.62881298E-01 0.16480558E+04</pdfrwt>
<totfact> 0.28773206E+01</totfact>
</mgrwt>
</event>
<event>
12    6  0.1403409E-007  0.1403022E+04  0.7818608E-02  0.8951634E-01
         -1   -1    0    0    0  501 -0.00000000000E+00  0.00000000000E+00  0.50408636364E+03  0.50408636364E+03  0.00000000000E+00 0.  1.
          2   -1    0    0  501    0  0.00000000000E+00 -0.00000000000E+00 -0.97625710726E+03  0.97625710726E+03  0.00000000000E+00 0. -1.
         24    2    1    2    0    0 -0.27896575583E+03 -0.25485102378E+03 -0.29989814640E+03  0.48899705944E+03  0.80051787529E+02 0.  0.
        254    2    1    2    0    0  0.27896575583E+03  0.25485102378E+03 -0.17227259722E+03  0.99134641145E+03  0.90017716173E+03 0.  0.
         23    2    4    4    0    0  0.23174714121E+03  0.85417902224E+02  0.34699995662E+03  0.43549034578E+03  0.90773982483E+02 0.  0.
         23    2    4    4    0    0  0.47218614618E+02  0.16943312156E+03 -0.51927255384E+03  0.55585606567E+03  0.91623142977E+02 0.  0.
          2    1    3    3  502    0 -0.12721581949E+02  0.36863121951E+01 -0.20740036720E+02  0.24608467405E+02  0.00000000000E+00 0. -1.
         -1    1    3    3    0  502 -0.26624417388E+03 -0.25853733598E+03 -0.27915810968E+03  0.46438859204E+03  0.00000000000E+00 0.  1.
         11    1    5    5    0    0  0.10910105014E+03  0.73519131566E+02  0.12440650386E+03  0.18106650726E+03  0.00000000000E+00 0.  1.
        -11    1    5    5    0    0  0.12264609107E+03  0.11898770658E+02  0.22259345276E+03  0.25442383852E+03  0.00000000000E+00 0. -1.
          4    1    6    6  503    0  0.20979249641E+02  0.15957645752E+03 -0.36288460772E+03  0.39697608647E+03  0.00000000000E+00 0. -1.
         -4    1    6    6    0  503  0.26239364977E+02  0.98566640394E+01 -0.15638794612E+03  0.15887997920E+03  0.00000000000E+00 0.  1.
<mgrwt>
<rscale>  0 0.14030223E+04</rscale>
<asrwt>0</asrwt>
<pdfrwt beam="1">  1        2 0.15019340E+00 0.14030223E+04</pdfrwt>
<pdfrwt beam="2">  1       -1 0.77551749E-01 0.14030223E+04</pdfrwt>
<totfact> 0.48291645E+01</totfact>
</mgrwt>
</event>
<event>
12    6  0.1403409E-007  0.2109174E+04  0.7818608E-02  0.8557213E-01
         -1   -1    0    0    0  501 -0.00000000000E+00  0.00000000000E+00  0.76917858471E+03  0.76917858471E+03  0.00000000000E+00 0.  1.
          2   -1    0    0  501    0  0.00000000000E+00 -0.00000000000E+00 -0.14458983735E+04  0.14458983735E+04  0.00000000000E+00 0. -1.
         24    2    1    2    0    0  0.58160581581E+03  0.47730907441E+03 -0.73509878363E+03  0.10549363105E+04  0.80194264611E+02 0.  0.
        254    2    1    2    0    0 -0.58160581581E+03 -0.47730907441E+03  0.58378994862E+02  0.11601406477E+04  0.88115205147E+03 0.  0.
         23    2    4    4    0    0 -0.36424816174E+03 -0.69351884579E+03 -0.11416415124E+03  0.79700083221E+03  0.92367528468E+02 0.  0.
         23    2    4    4    0    0 -0.21735765407E+03  0.21620977138E+03  0.17254314610E+03  0.36313981544E+03  0.90046506156E+02 0.  0.
          4    1    3    3  502    0  0.39116456560E+03  0.31770400281E+03 -0.54344162721E+03  0.74113045611E+03  0.00000000000E+00 0. -1.
         -3    1    3    3    0  502  0.19044125021E+03  0.15960507160E+03 -0.19165715641E+03  0.31380585441E+03  0.00000000000E+00 0.  1.
         11    1    5    5    0    0 -0.34881173717E+03 -0.62002681721E+03 -0.85116115165E+02  0.71648282262E+03  0.00000000000E+00 0. -1.
        -11    1    5    5    0    0 -0.15436424569E+02 -0.73492028579E+02 -0.29048036077E+02  0.80518009589E+02  0.00000000000E+00 0.  1.
          4    1    6    6  503    0 -0.14701008722E+03  0.14540766877E+03  0.65770172992E+02  0.21698173088E+03  0.00000000000E+00 0. -1.
         -4    1    6    6    0  503 -0.70347566844E+02  0.70802102617E+02  0.10677297311E+03  0.14615808456E+03  0.00000000000E+00 0.  1.
<mgrwt>
<rscale>  0 0.21091743E+04</rscale>
<asrwt>0</asrwt>
<pdfrwt beam="1">  1        2 0.22244590E+00 0.21091743E+04</pdfrwt>
<pdfrwt beam="2">  1       -1 0.11833517E+00 0.21091743E+04</pdfrwt>
<totfact> 0.91574552E+00</totfact>
</mgrwt>
</event>
<event>
12    6  0.1403409E-007  0.1747574E+04  0.7818608E-02  0.8734687E-01
         -1   -1    0    0    0  501 -0.00000000000E+00  0.00000000000E+00  0.21214812133E+03  0.21214812133E+03  0.00000000000E+00 0.  1.
          2   -1    0    0  501    0  0.00000000000E+00 -0.00000000000E+00 -0.35989185775E+04  0.35989185775E+04  0.00000000000E+00 0. -1.
         24    2    1    2    0    0 -0.28869269705E+03 -0.56990736166E+03 -0.12637354589E+04  0.14181972477E+04  0.78219236169E+02 0.  0.
        254    2    1    2    0    0  0.28869269705E+03  0.56990736166E+03 -0.21230349972E+04  0.23928694511E+04  0.90022704727E+03 0.  0.
         23    2    4    4    0    0 -0.14231583911E+03 -0.37860667211E+01 -0.12394187240E+04  0.12510190154E+04  0.92852955005E+02 0.  0.
         23    2    4    4    0    0  0.43100853615E+03  0.57369342838E+03 -0.88361627323E+03  0.11418504357E+04  0.90289485659E+02 0.  0.
          2    1    3    3  502    0 -0.55153864683E+02 -0.17634231274E+03 -0.32493828839E+03  0.37379600227E+03  0.00000000000E+00 0. -1.
         -1    1    3    3    0  502 -0.23353883236E+03 -0.39356504892E+03 -0.93879717053E+03  0.10444012454E+04  0.00000000000E+00 0.  1.
         11    1    5    5    0    0 -0.69175588670E+02 -0.11714621248E+02 -0.94302684028E+03  0.94563318254E+03  0.00000000000E+00 0. -1.
        -11    1    5    5    0    0 -0.73140250437E+02  0.79285545266E+01 -0.29639188369E+03  0.30538583289E+03  0.00000000000E+00 0.  1.
          4    1    6    6  503    0  0.13646066823E+03  0.24066223345E+03 -0.29862600644E+03  0.40708391802E+03  0.00000000000E+00 0. -1.
         -4    1    6    6    0  503  0.29454786792E+03  0.33303119493E+03 -0.58499026679E+03  0.73476651770E+03  0.00000000000E+00 0.  1.
<mgrwt>
<rscale>  0 0.17475741E+04</rscale>
<asrwt>0</asrwt>
<pdfrwt beam="1">  1        2 0.55367978E+00 0.17475741E+04</pdfrwt>
<pdfrwt beam="2">  1       -1 0.32638173E-01 0.17475741E+04</pdfrwt>
<totfact> 0.66304483E+00</totfact>
</mgrwt>
</event>
<event>
12    6  0.1403409E-007  0.2766621E+04  0.7818608E-02  0.8313707E-01
          2   -1    0    0  501    0  0.00000000000E+00  0.00000000000E+00  0.37247291589E+04  0.37247291589E+04  0.00000000000E+00 0. -1.
         -1   -1    0    0    0  501 -0.00000000000E+00 -0.00000000000E+00 -0.51374165112E+03  0.51374165112E+03  0.00000000000E+00 0.  1.
         24    2    1    2    0    0 -0.12853253513E+03 -0.88839620013E+03  0.13663252494E+03  0.91147730889E+03  0.79712086633E+02 0.  0.
        254    2    1    2    0    0  0.12853253513E+03  0.88839620013E+03  0.30743549828E+04  0.33269935011E+04  0.90081006603E+03 0.  0.
         23    2    4    4    0    0 -0.31097298142E+03  0.68680536371E+03  0.21394362261E+04  0.22702095966E+04  0.90875980945E+02 0.  0.
         23    2    4    4    0    0  0.43950551656E+03  0.20159083641E+03  0.93491875670E+03  0.10567839045E+04  0.94420203675E+02 0.  0.
          2    1    3    3  502    0 -0.31804609521E+02 -0.43921681678E+03  0.91664284779E+02  0.44980583193E+03  0.00000000000E+00 0. -1.
         -1    1    3    3    0  502 -0.96727925612E+02 -0.44917938334E+03  0.44968240165E+02  0.46167147696E+03  0.00000000000E+00 0.  1.
         11    1    5    5    0    0 -0.15844937697E+03  0.39601905786E+03  0.10850780432E+04  0.11659037949E+04  0.00000000000E+00 0.  1.
        -11    1    5    5    0    0 -0.15252360446E+03  0.29078630585E+03  0.10543581830E+04  0.11043058017E+04  0.00000000000E+00 0. -1.
          4    1    6    6  503    0  0.25053739480E+03  0.16550692544E+03  0.56596207719E+03  0.64068291798E+03  0.00000000000E+00 0. -1.
         -4    1    6    6    0  503  0.18896812176E+03  0.36083910972E+02  0.36895667951E+03  0.41610098657E+03  0.00000000000E+00 0.  1.
<mgrwt>
<rscale>  0 0.27666214E+04</rscale>
<asrwt>0</asrwt>
<pdfrwt beam="1">  1        2 0.57303524E+00 0.27666214E+04</pdfrwt>
<pdfrwt beam="2">  1       -1 0.79037180E-01 0.27666214E+04</pdfrwt>
<totfact> 0.88852383E-01</totfact>
</mgrwt>
</event>
<event>
12    6  0.1403409E-007  0.1092705E+04  0.7818608E-02  0.9212331E-01
          2   -1    0    0  501    0  0.00000000000E+00  0.00000000000E+00  0.54091115099E+03  0.54091115099E+03  0.00000000000E+00 0. -1.
         -1   -1    0    0    0  501 -0.00000000000E+00 -0.00000000000E+00 -0.55184890405E+03  0.55184890405E+03  0.00000000000E+00 0.  1.
         24    2    1    2    0    0 -0.14082139850E+03 -0.48706935039E+02  0.56944948280E+02  0.17755871043E+03  0.77982925831E+02 0.  0.
        254    2    1    2    0    0  0.14082139850E+03  0.48706935039E+02 -0.67882701337E+02  0.91520134461E+03  0.90043456633E+03 0.  0.
         23    2    4    4    0    0 -0.34404335800E+03  0.14849875268E+02 -0.19308067561E+03  0.40515791940E+03  0.91029892789E+02 0.  0.
         23    2    4    4    0    0  0.48486475650E+03  0.33857059771E+02  0.12519797427E+03  0.51004342520E+03  0.90717309487E+02 0.  0.
          4    1    3    3  502    0 -0.30204539301E+02  0.16086916386E+02  0.32214426860E+02  0.46998642226E+02  0.00000000000E+00 0. -1.
         -3    1    3    3    0  502 -0.11061685920E+03 -0.64793851425E+02  0.24730521420E+02  0.13056006821E+03  0.00000000000E+00 0.  1.
         11    1    5    5    0    0 -0.17774977405E+03  0.39471726532E+01 -0.15103397477E+03  0.23328485566E+03  0.00000000000E+00 0. -1.
        -11    1    5    5    0    0 -0.16629358396E+03  0.10902702615E+02 -0.42046700838E+02  0.17187306375E+03  0.00000000000E+00 0.  1.
          3    1    6    6  503    0  0.44997717908E+03  0.49192857326E+02  0.13159996285E+03  0.47139998846E+03  0.00000000000E+00 0. -1.
         -3    1    6    6    0  503  0.34887577426E+02 -0.15335797556E+02 -0.64019885855E+01  0.38643436741E+02  0.00000000000E+00 0.  1.
<mgrwt>
<rscale>  0 0.10927053E+04</rscale>
<asrwt>0</asrwt>
<pdfrwt beam="1">  1        2 0.83217101E-01 0.10927053E+04</pdfrwt>
<pdfrwt beam="2">  1       -1 0.84899831E-01 0.10927053E+04</pdfrwt>
<totfact> 0.87572520E+01</totfact>
</mgrwt>
</event>
<event>
12    6  0.1403409E-007  0.2185236E+04  0.7818608E-02  0.8524598E-01
          2   -1    0    0  501    0  0.00000000000E+00  0.00000000000E+00  0.18445621495E+04  0.18445621495E+04  0.00000000000E+00 0. -1.
         -1   -1    0    0    0  501 -0.00000000000E+00 -0.00000000000E+00 -0.64720732182E+03  0.64720732182E+03  0.00000000000E+00 0.  1.
         24    2    1    2    0    0 -0.77978735813E+03 -0.31377014062E+03  0.87543355648E+03  0.12162780627E+04  0.80177234240E+02 0.  0.
        254    2    1    2    0    0  0.77978735813E+03  0.31377014062E+03  0.32192127117E+03  0.12754914086E+04  0.90372839037E+03 0.  0.
         23    2    4    4    0    0  0.31734469261E+03 -0.30678173697E+03  0.63180408540E+02  0.45491524032E+03  0.90185496549E+02 0.  0.
         23    2    4    4    0    0  0.46244266552E+03  0.62055187759E+03  0.25874086263E+03  0.82057616829E+03  0.86374546556E+02 0.  0.
          4    1    3    3  502    0 -0.55721206390E+03 -0.19732561334E+03  0.65225054988E+03  0.88025761096E+03  0.00000000000E+00 0. -1.
         -3    1    3    3    0  502 -0.22257529423E+03 -0.11644452729E+03  0.22318300660E+03  0.33602045171E+03  0.00000000000E+00 0.  1.
         11    1    5    5    0    0  0.30274624164E+03 -0.25894480116E+03  0.41960560724E+02  0.40058505406E+03  0.00000000000E+00 0. -1.
        -11    1    5    5    0    0  0.14598450964E+02 -0.47836935805E+02  0.21219847816E+02  0.54330186260E+02  0.00000000000E+00 0.  1.
          3    1    6    6  503    0  0.18281689425E+03  0.31123693536E+03  0.13844879585E+03  0.38659864954E+03  0.00000000000E+00 0. -1.
         -3    1    6    6    0  503  0.27962577128E+03  0.30931494223E+03  0.12029206678E+03  0.43397751875E+03  0.00000000000E+00 0.  1.
<mgrwt>
<rscale>  0 0.21852360E+04</rscale>
<asrwt>0</asrwt>
<pdfrwt beam="1">  1        2 0.28377879E+00 0.21852360E+04</pdfrwt>
<pdfrwt beam="2">  1       -1 0.99570358E-01 0.21852360E+04</pdfrwt>
<totfact> 0.81741899E+00</totfact>
</mgrwt>
</event>
<event>
12    6  0.1403409E-007  0.1409067E+04  0.7818608E-02  0.8947281E-01
         -1   -1    0    0    0  501 -0.00000000000E+00  0.00000000000E+00  0.66643790452E+03  0.66643790452E+03  0.00000000000E+00 0.  1.
          2   -1    0    0  501    0  0.00000000000E+00 -0.00000000000E+00 -0.74480695578E+03  0.74480695578E+03  0.00000000000E+00 0. -1.
         24    2    1    2    0    0 -0.29866448356E+03 -0.75134774002E+02 -0.29510741929E+03  0.43608636634E+03  0.90759142697E+02 0.  0.
        254    2    1    2    0    0  0.29866448356E+03  0.75134774002E+02  0.21673836803E+03  0.97515849397E+03  0.89950700952E+03 0.  0.
         23    2    4    4    0    0 -0.31029533033E+03  0.86150410782E+02  0.76243061771E+02  0.34341311883E+03  0.91730477022E+02 0.  0.
         23    2    4    4    0    0  0.60895981389E+03 -0.11015636780E+02  0.14049530626E+03  0.63174537514E+03  0.91705445541E+02 0.  0.
          4    1    3    3  502    0 -0.13615136611E+03  0.47734810911E+01 -0.94343905420E+02  0.16571286343E+03  0.00000000000E+00 0. -1.
         -3    1    3    3    0  502 -0.16251311744E+03 -0.79908255093E+02 -0.20076351387E+03  0.27037350291E+03  0.00000000000E+00 0.  1.
         11    1    5    5    0    0 -0.20509700235E+03  0.17594014182E+02  0.70956692079E+02  0.21773649639E+03  0.00000000000E+00 0. -1.
        -11    1    5    5    0    0 -0.10519832798E+03  0.68556396600E+02  0.52863696923E+01  0.12567662244E+03  0.00000000000E+00 0.  1.
          3    1    6    6  503    0  0.42135988182E+03  0.34185973674E+02  0.88763021619E+02  0.43196261969E+03  0.00000000000E+00 0. -1.
         -3    1    6    6    0  503  0.18759993207E+03 -0.45201610454E+02  0.51732284640E+02  0.19978275545E+03  0.00000000000E+00 0.  1.
<mgrwt>
<rscale>  0 0.14090672E+04</rscale>
<asrwt>0</asrwt>
<pdfrwt beam="1">  1        2 0.11458569E+00 0.14090672E+04</pdfrwt>
<pdfrwt beam="2">  1       -1 0.10252891E+00 0.14090672E+04</pdfrwt>
<totfact> 0.37836183E+01</totfact>
</mgrwt>
</event>
<event>
12    6  0.1403409E-007  0.1904788E+04  0.7818608E-02  0.8652477E-01
         -1   -1    0    0    0  501 -0.00000000000E+00  0.00000000000E+00  0.68457142266E+03  0.68457142266E+03  0.00000000000E+00 0.  1.
          2   -1    0    0  501    0  0.00000000000E+00 -0.00000000000E+00 -0.13249956478E+04  0.13249956478E+04  0.00000000000E+00 0. -1.
         24    2    1    2    0    0  0.19214047458E+03 -0.27103112021E+03  0.44454123574E+03  0.56102765681E+03  0.82214909456E+02 0.  0.
        254    2    1    2    0    0 -0.19214047458E+03  0.27103112021E+03 -0.10849654609E+04  0.14485394137E+04  0.90041132353E+03 0.  0.
         23    2    4    4    0    0 -0.91539944871E+01  0.56937331078E+03 -0.81419396233E+03  0.99669551266E+03  0.78869347798E+02 0.  0.
         23    2    4    4    0    0 -0.18298648010E+03 -0.29834219058E+03 -0.27077149860E+03  0.45184390104E+03  0.91397986156E+02 0.  0.
          2    1    3    3  502    0  0.50902850666E+02 -0.90785026454E+02  0.83250537396E+02  0.13328043071E+03  0.00000000000E+00 0. -1.
         -1    1    3    3    0  502  0.14123762392E+03 -0.18024609375E+03  0.36129069834E+03  0.42774722609E+03  0.00000000000E+00 0.  1.
         11    1    5    5    0    0  0.32034147596E+01  0.31947601658E+03 -0.52203363825E+03  0.61204109870E+03  0.00000000000E+00 0. -1.
        -11    1    5    5    0    0 -0.12357409247E+02  0.24989729421E+03 -0.29216032408E+03  0.38465441397E+03  0.00000000000E+00 0.  1.
          3    1    6    6  503    0 -0.53606026575E+02 -0.17402915127E+03 -0.12880637033E+03  0.22304894668E+03  0.00000000000E+00 0. -1.
         -3    1    6    6    0  503 -0.12938045352E+03 -0.12431303931E+03 -0.14196512827E+03  0.22879495436E+03  0.00000000000E+00 0.  1.
<mgrwt>
<rscale>  0 0.19047878E+04</rscale>
<asrwt>0</asrwt>
<pdfrwt beam="1">  1        2 0.20384548E+00 0.19047878E+04</pdfrwt>
<pdfrwt beam="2">  1       -1 0.10531868E+00 0.19047878E+04</pdfrwt>
<totfact> 0.14422735E+01</totfact>
</mgrwt>
</event>
<event>
12    6  0.1403409E-007  0.2258160E+04  0.7818608E-02  0.8494603E-01
          2   -1    0    0  501    0  0.00000000000E+00  0.00000000000E+00  0.96038708821E+03  0.96038708821E+03  0.00000000000E+00 0. -1.
         -1   -1    0    0    0  501 -0.00000000000E+00 -0.00000000000E+00 -0.13274041428E+04  0.13274041428E+04  0.00000000000E+00 0.  1.
         24    2    1    2    0    0  0.46047972863E+03  0.26060786812E+01 -0.99411745530E+03  0.10986968434E+04  0.82564318072E+02 0.  0.
        254    2    1    2    0    0 -0.46047972863E+03 -0.26060786812E+01  0.62710040068E+03  0.11890943877E+04  0.89924533811E+03 0.  0.
         23    2    4    4    0    0 -0.95212638759E+01 -0.28423692390E+03 -0.70543320412E+02  0.30741216968E+03  0.92976333759E+02 0.  0.
         23    2    4    4    0    0 -0.45095846475E+03  0.28163084522E+03  0.69764372109E+03  0.88168221798E+03  0.89315743362E+02 0.  0.
          2    1    3    3  502    0  0.70668411220E+02 -0.26627318732E+02 -0.19440680176E+03  0.20855944721E+03  0.00000000000E+00 0. -1.
         -1    1    3    3    0  502  0.38981131741E+03  0.29233397413E+02 -0.79971065354E+03  0.89013739618E+03  0.00000000000E+00 0.  1.
         11    1    5    5    0    0 -0.49953540102E+02 -0.17733526623E+03 -0.33430032836E+02  0.18724507981E+03  0.00000000000E+00 0. -1.
        -11    1    5    5    0    0  0.40432276226E+02 -0.10690165766E+03 -0.37113287576E+02  0.12016708987E+03  0.00000000000E+00 0.  1.
          1    1    6    6  503    0  0.39706207521E+01  0.20572183942E+01  0.10849579263E+02  0.11735047800E+02  0.00000000000E+00 0. -1.
         -1    1    6    6    0  503 -0.45492908550E+03  0.27957362682E+03  0.68679414183E+03  0.86994717018E+03  0.00000000000E+00 0.  1.
<mgrwt>
<rscale>  0 0.22581601E+04</rscale>
<asrwt>0</asrwt>
<pdfrwt beam="1">  1        2 0.14775186E+00 0.22581601E+04</pdfrwt>
<pdfrwt beam="2">  1       -1 0.20421602E+00 0.22581601E+04</pdfrwt>
<totfact> 0.39035233E+00</totfact>
</mgrwt>
</event>
<event>
12    6  0.1403409E-007  0.1641610E+04  0.7818608E-02  0.8795385E-01
         -1   -1    0    0    0  501 -0.00000000000E+00  0.00000000000E+00  0.84640039565E+03  0.84640039565E+03  0.00000000000E+00 0.  1.
          2   -1    0    0  501    0  0.00000000000E+00 -0.00000000000E+00 -0.79598401343E+03  0.79598401343E+03  0.00000000000E+00 0. -1.
         24    2    1    2    0    0  0.10215528996E+03 -0.51393505048E+03  0.24239976147E+03  0.58319647534E+03  0.82435096398E+02 0.  0.
        254    2    1    2    0    0 -0.10215528996E+03  0.51393505048E+03 -0.19198337925E+03  0.10591879337E+04  0.90025358744E+03 0.  0.
         23    2    4    4    0    0 -0.13338127120E+03  0.34040573371E+03  0.33125594879E+03  0.50145615347E+03  0.89783869350E+02 0.  0.
         23    2    4    4    0    0  0.31225981240E+02  0.17352931677E+03 -0.52323932803E+03  0.55773178027E+03  0.78726479890E+02 0.  0.
          2    1    3    3  502    0  0.71776841896E+02 -0.39715570909E+03  0.14755463456E+03  0.42971728203E+03  0.00000000000E+00 0. -1.
         -1    1    3    3    0  502  0.30378448064E+02 -0.11677934138E+03  0.94845126912E+02  0.15347919331E+03  0.00000000000E+00 0.  1.
         11    1    5    5    0    0  0.87737669667E+01  0.18417127581E+02  0.38803784759E+02  0.43839517410E+02  0.00000000000E+00 0. -1.
        -11    1    5    5    0    0 -0.14215503817E+03  0.32198860613E+03  0.29245216403E+03  0.45761663606E+03  0.00000000000E+00 0.  1.
          4    1    6    6  503    0  0.41867208184E+01  0.47676568983E+02 -0.58970507635E+02  0.75948039026E+02  0.00000000000E+00 0. -1.
         -4    1    6    6    0  503  0.27039260422E+02  0.12585274778E+03 -0.46426882040E+03  0.48178374124E+03  0.00000000000E+00 0.  1.
<mgrwt>
<rscale>  0 0.16416104E+04</rscale>
<asrwt>0</asrwt>
<pdfrwt beam="1">  1        2 0.12245908E+00 0.16416104E+04</pdfrwt>
<pdfrwt beam="2">  1       -1 0.13021545E+00 0.16416104E+04</pdfrwt>
<totfact> 0.19115299E+01</totfact>
</mgrwt>
</event>
<event>
12    6  0.1403409E-007  0.2503593E+04  0.7818608E-02  0.8401707E-01
          2   -1    0    0  501    0  0.00000000000E+00  0.00000000000E+00  0.32060890698E+04  0.32060890698E+04  0.00000000000E+00 0. -1.
         -1   -1    0    0    0  501 -0.00000000000E+00 -0.00000000000E+00 -0.48875574392E+03  0.48875574392E+03  0.00000000000E+00 0.  1.
         24    2    1    2    0    0  0.32635205391E+03  0.10325905046E+04  0.10225455382E+04  0.14917566608E+04  0.83604690343E+02 0.  0.
        254    2    1    2    0    0 -0.32635205391E+03 -0.10325905046E+04  0.16947877877E+04  0.22030881529E+04  0.89919016394E+03 0.  0.
         23    2    4    4    0    0 -0.44791495719E+03 -0.81006711169E+03  0.16949876890E+04  0.19333296885E+04  0.89128470951E+02 0.  0.
         23    2    4    4    0    0  0.12156290328E+03 -0.22252339286E+03 -0.19990133692E+00  0.26975846435E+03  0.92061877582E+02 0.  0.
          2    1    3    3  502    0  0.15563299218E+03  0.37564103840E+03  0.35583485573E+03  0.54032051833E+03  0.00000000000E+00 0. -1.
         -1    1    3    3    0  502  0.17071906173E+03  0.65694946615E+03  0.66671068243E+03  0.95143614246E+03  0.00000000000E+00 0.  1.
         11    1    5    5    0    0 -0.98143245561E+02 -0.12152951678E+03  0.32719697470E+03  0.36257327584E+03  0.00000000000E+00 0. -1.
        -11    1    5    5    0    0 -0.34977171163E+03 -0.68853759491E+03  0.13677907143E+04  0.15707564127E+04  0.00000000000E+00 0.  1.
          1    1    6    6  503    0 -0.72479999601E+01  0.41703042325E+01 -0.33425151512E+01  0.90054066177E+01  0.00000000000E+00 0. -1.
         -1    1    6    6    0  503  0.12881090324E+03 -0.22669369709E+03  0.31426138143E+01  0.26075305773E+03  0.00000000000E+00 0.  1.
<mgrwt>
<rscale>  0 0.25035930E+04</rscale>
<asrwt>0</asrwt>
<pdfrwt beam="1">  1        2 0.49324446E+00 0.25035930E+04</pdfrwt>
<pdfrwt beam="2">  1       -1 0.75193193E-01 0.25035930E+04</pdfrwt>
<totfact> 0.23180705E+00</totfact>
</mgrwt>
</event>
<event>
12    6  0.1403409E-007  0.1351951E+04  0.7818608E-02  0.8989353E-01
         -1   -1    0    0    0  501 -0.00000000000E+00  0.00000000000E+00  0.37172426957E+03  0.37172426957E+03  0.00000000000E+00 0.  1.
          2   -1    0    0  501    0  0.00000000000E+00 -0.00000000000E+00 -0.12292514520E+04  0.12292514520E+04  0.00000000000E+00 0. -1.
         24    2    1    2    0    0  0.25584968382E+03  0.26811839143E+03 -0.23058742649E+03  0.44372268228E+03  0.79829349103E+02 0.  0.
        254    2    1    2    0    0 -0.25584968382E+03 -0.26811839143E+03 -0.62693975597E+03  0.11572530393E+04  0.89935232632E+03 0.  0.
         23    2    4    4    0    0 -0.14890844506E+03  0.49925927475E+02  0.19394904507E+03  0.26529257521E+03  0.89986638646E+02 0.  0.
         23    2    4    4    0    0 -0.10694123876E+03 -0.31804431891E+03 -0.82088880104E+03  0.89196046410E+03  0.95636962026E+02 0.  0.
          2    1    3    3  502    0  0.10306055913E+03  0.66932506141E+02 -0.10482609141E+03  0.16152383312E+03  0.00000000000E+00 0. -1.
         -1    1    3    3    0  502  0.15278912469E+03  0.20118588529E+03 -0.12576133508E+03  0.28219884916E+03  0.00000000000E+00 0.  1.
         11    1    5    5    0    0 -0.31660134254E+02 -0.26300511571E+02  0.43926051386E+02  0.60196170977E+02  0.00000000000E+00 0. -1.
        -11    1    5    5    0    0 -0.11724831080E+03  0.76226439046E+02  0.15002299369E+03  0.20509640424E+03  0.00000000000E+00 0.  1.
          4    1    6    6  503    0 -0.53607195200E+02 -0.15324166333E+03 -0.52022807194E+03  0.54497154567E+03  0.00000000000E+00 0. -1.
         -4    1    6    6    0  503 -0.53334043563E+02 -0.16480265558E+03 -0.30066072910E+03  0.34698891843E+03  0.00000000000E+00 0.  1.
<mgrwt>
<rscale>  0 0.13519506E+04</rscale>
<asrwt>0</asrwt>
<pdfrwt beam="1">  1        2 0.18911560E+00 0.13519506E+04</pdfrwt>
<pdfrwt beam="2">  1       -1 0.57188350E-01 0.13519506E+04</pdfrwt>
<totfact> 0.62721196E+01</totfact>
</mgrwt>
</event>
<event>
12    6  0.1403409E-007  0.2458986E+04  0.7818608E-02  0.8417744E-01
          2   -1    0    0  501    0  0.00000000000E+00  0.00000000000E+00  0.22328731597E+04  0.22328731597E+04  0.00000000000E+00 0. -1.
         -1   -1    0    0    0  501 -0.00000000000E+00 -0.00000000000E+00 -0.67699906842E+03  0.67699906842E+03  0.00000000000E+00 0.  1.
         24    2    1    2    0    0 -0.70819879626E+03 -0.68866175171E+03  0.11407171664E+04  0.15111103736E+04  0.80114694586E+02 0.  0.
        254    2    1    2    0    0  0.70819879626E+03  0.68866175171E+03  0.41515692491E+03  0.13987618545E+04  0.89909894341E+03 0.  0.
         23    2    4    4    0    0  0.68057178230E+03  0.88122712414E+03  0.37581906632E+03  0.11788378138E+04  0.93163434503E+02 0.  0.
         23    2    4    4    0    0  0.27627013967E+02 -0.19256537242E+03  0.39337858582E+02  0.21992404068E+03  0.94733531527E+02 0.  0.
          2    1    3    3  502    0 -0.91986870881E+02 -0.10954007984E+03  0.20400711521E+03  0.24915761389E+03  0.00000000000E+00 0. -1.
         -1    1    3    3    0  502 -0.61621192538E+03 -0.57912167187E+03  0.93671005119E+03  0.12619527597E+04  0.00000000000E+00 0.  1.
         11    1    5    5    0    0  0.18054306895E+03  0.20250018212E+03  0.54931494417E+02  0.27680244324E+03  0.00000000000E+00 0.  1.
        -11    1    5    5    0    0  0.50002871334E+03  0.67872694201E+03  0.32088757191E+03  0.90203537058E+03  0.00000000000E+00 0. -1.
          3    1    6    6  503    0 -0.30382537286E+02 -0.38057688153E+02  0.23663389958E+02  0.54142794754E+02  0.00000000000E+00 0.  1.
         -3    1    6    6    0  503  0.58009551254E+02 -0.15450768427E+03  0.15674468624E+02  0.16578124593E+03  0.00000000000E+00 0. -1.
<mgrwt>
<rscale>  0 0.24589860E+04</rscale>
<asrwt>0</asrwt>
<pdfrwt beam="1">  1        2 0.34351895E+00 0.24589860E+04</pdfrwt>
<pdfrwt beam="2">  1       -1 0.10415370E+00 0.24589860E+04</pdfrwt>
<totfact> 0.43696905E+00</totfact>
</mgrwt>
</event>
<event>
12    6  0.1403409E-007  0.4527594E+04  0.7818608E-02  0.7905824E-01
         -1   -1    0    0    0  501 -0.00000000000E+00  0.00000000000E+00  0.22412071140E+04  0.22412071140E+04  0.00000000000E+00 0.  1.
          2   -1    0    0  501    0  0.00000000000E+00 -0.00000000000E+00 -0.22866150389E+04  0.22866150389E+04  0.00000000000E+00 0. -1.
         24    2    1    2    0    0 -0.12287189107E+04 -0.17422008844E+04  0.40033702184E+03  0.21705707374E+04  0.78060950559E+02 0.  0.
        254    2    1    2    0    0  0.12287189107E+04  0.17422008844E+04 -0.44574494678E+03  0.23572514154E+04  0.90162719278E+03 0.  0.
         23    2    4    4    0    0  0.22229316016E+03  0.77806476494E+03 -0.50580285342E+03  0.95922587612E+03  0.97358756067E+02 0.  0.
         23    2    4    4    0    0  0.10064257506E+04  0.96413611945E+03  0.60057906643E+02  0.13980255393E+04  0.91745343970E+02 0.  0.
          2    1    3    3  502    0 -0.25723468875E+03 -0.31653606922E+03  0.63305219466E+02  0.41276181876E+03  0.00000000000E+00 0. -1.
         -1    1    3    3    0  502 -0.97148422199E+03 -0.14256648152E+04  0.33703180238E+03  0.17578089187E+04  0.00000000000E+00 0.  1.
         11    1    5    5    0    0  0.16646481566E+03  0.61849488192E+03 -0.44347229407E+03  0.77904693660E+03  0.00000000000E+00 0.  1.
        -11    1    5    5    0    0  0.55828344499E+02  0.15956988302E+03 -0.62330559354E+02  0.18017893952E+03  0.00000000000E+00 0. -1.
          4    1    6    6  503    0  0.56666647630E+03  0.52043122388E+03  0.75828658755E+02  0.77311676974E+03  0.00000000000E+00 0. -1.
         -4    1    6    6    0  503  0.43975927428E+03  0.44370489557E+03 -0.15770752112E+02  0.62490876957E+03  0.00000000000E+00 0.  1.
<mgrwt>
<rscale>  0 0.45275945E+04</rscale>
<asrwt>0</asrwt>
<pdfrwt beam="1">  1        2 0.35178693E+00 0.45275945E+04</pdfrwt>
<pdfrwt beam="2">  1       -1 0.34480109E+00 0.45275945E+04</pdfrwt>
<totfact> 0.66737463E-02</totfact>
</mgrwt>
</event>
<event>
12    6  0.1403409E-007  0.1738357E+04  0.7818608E-02  0.8739786E-01
          2   -1    0    0  501    0  0.00000000000E+00  0.00000000000E+00  0.22837677830E+04  0.22837677830E+04  0.00000000000E+00 0. -1.
         -1   -1    0    0    0  501 -0.00000000000E+00 -0.00000000000E+00 -0.33080025974E+03  0.33080025974E+03  0.00000000000E+00 0.  1.
         24    2    1    2    0    0 -0.39116023195E+03  0.46738089268E+03  0.46265872676E+03  0.76977145042E+03  0.83927126323E+02 0.  0.
        254    2    1    2    0    0  0.39116023195E+03 -0.46738089268E+03  0.14903087965E+04  0.18447965923E+04  0.90044596297E+03 0.  0.
         23    2    4    4    0    0  0.54900423339E+03 -0.43986433037E+03  0.15010096511E+04  0.16602291166E+04  0.91893794342E+02 0.  0.
         23    2    4    4    0    0 -0.15784400144E+03 -0.27516562316E+02 -0.10700854643E+02  0.18456747571E+03  0.90987662939E+02 0.  0.
          2    1    3    3  502    0 -0.39398565021E+03  0.46732175546E+03  0.46316510526E+03  0.76690040450E+03  0.00000000000E+00 0. -1.
         -1    1    3    3    0  502  0.28254182533E+01  0.59137223440E-01 -0.50637849592E+00  0.28710459241E+01  0.00000000000E+00 0.  1.
         11    1    5    5    0    0  0.52089429216E+02 -0.80577614564E+02  0.22042544857E+03  0.24040266010E+03  0.00000000000E+00 0. -1.
        -11    1    5    5    0    0  0.49691480417E+03 -0.35928671580E+03  0.12805842026E+04  0.14198264565E+04  0.00000000000E+00 0.  1.
          1    1    6    6  503    0 -0.51247209364E+01  0.19109456516E+02  0.12217263428E+02  0.23252862591E+02  0.00000000000E+00 0. -1.
         -1    1    6    6    0  503 -0.15271928050E+03 -0.46626018832E+02 -0.22918118071E+02  0.16131461312E+03  0.00000000000E+00 0.  1.
<mgrwt>
<rscale>  0 0.17383567E+04</rscale>
<asrwt>0</asrwt>
<pdfrwt beam="1">  1        2 0.35134888E+00 0.17383567E+04</pdfrwt>
<pdfrwt beam="2">  1       -1 0.50892349E-01 0.17383567E+04</pdfrwt>
<totfact> 0.19425942E+01</totfact>
</mgrwt>
</event>
<event>
12    6  0.1403409E-007  0.1485610E+04  0.7818608E-02  0.8894079E-01
          4   -1    0    0  501    0  0.00000000000E+00  0.00000000000E+00  0.11650874330E+04  0.11650874330E+04  0.00000000000E+00 0. -1.
         -3   -1    0    0    0  501 -0.00000000000E+00 -0.00000000000E+00 -0.47357786298E+03  0.47357786298E+03  0.00000000000E+00 0.  1.
         24    2    1    2    0    0  0.15778127164E+03 -0.38584277682E+03  0.44580073441E+03  0.61561183927E+03  0.80436706419E+02 0.  0.
        254    2    1    2    0    0 -0.15778127164E+03  0.38584277682E+03  0.24570883558E+03  0.10230534567E+04  0.90138558077E+03 0.  0.
         23    2    4    4    0    0 -0.24124135821E+03  0.58995032771E+03 -0.46774087080E+02  0.64535736010E+03  0.89774856948E+02 0.  0.
         23    2    4    4    0    0  0.83460086566E+02 -0.20410755089E+03  0.29248292266E+03  0.37769609657E+03  0.92101047434E+02 0.  0.
          4    1    3    3  502    0  0.40260373001E+02 -0.13317110874E+03  0.20246446756E+03  0.24565687953E+03  0.00000000000E+00 0. -1.
         -3    1    3    3    0  502  0.11752089864E+03 -0.25267166808E+03  0.24333626686E+03  0.36995495974E+03  0.00000000000E+00 0.  1.
         11    1    5    5    0    0 -0.21420726675E+02  0.11112769825E+03 -0.34608239348E+02  0.11834670710E+03  0.00000000000E+00 0.  1.
        -11    1    5    5    0    0 -0.21982063153E+03  0.47882262946E+03 -0.12165847733E+02  0.52701065300E+03  0.00000000000E+00 0. -1.
          1    1    6    6  503    0  0.99780309310E+02 -0.13558456318E+03  0.19922848577E+03  0.26082805340E+03  0.00000000000E+00 0. -1.
         -1    1    6    6    0  503 -0.16320222744E+02 -0.68522987706E+02  0.93254436892E+02  0.11686804317E+03  0.00000000000E+00 0.  1.
<mgrwt>
<rscale>  0 0.14856105E+04</rscale>
<asrwt>0</asrwt>
<pdfrwt beam="1">  1        4 0.17924422E+00 0.14856105E+04</pdfrwt>
<pdfrwt beam="2">  1       -3 0.72858133E-01 0.14856105E+04</pdfrwt>
<totfact> 0.71929744E-01</totfact>
</mgrwt>
</event>
<event>
12    6  0.1403409E-007  0.3398018E+04  0.7818608E-02  0.8138393E-01
         -1   -1    0    0    0  501 -0.00000000000E+00  0.00000000000E+00  0.27595092966E+04  0.27595092966E+04  0.00000000000E+00 0.  1.
          2   -1    0    0  501    0  0.00000000000E+00 -0.00000000000E+00 -0.10460667905E+04  0.10460667905E+04  0.00000000000E+00 0. -1.
         24    2    1    2    0    0 -0.11384041089E+04 -0.10282897074E+04  0.37810808363E+03  0.15819816575E+04  0.79728315283E+02 0.  0.
        254    2    1    2    0    0  0.11384041089E+04  0.10282897074E+04  0.13353344225E+04  0.22235944296E+04  0.89883843367E+03 0.  0.
         23    2    4    4    0    0  0.25292074581E+03  0.75431781777E+03  0.36981826887E+03  0.88195139922E+03  0.90046902927E+02 0.  0.
         23    2    4    4    0    0  0.88548336305E+03  0.27397188964E+03  0.96551615365E+03  0.13416430304E+04  0.92968787268E+02 0.  0.
          2    1    3    3  502    0 -0.10021202922E+04 -0.93822516536E+03  0.33725885392E+03  0.14135965038E+04  0.00000000000E+00 0. -1.
         -1    1    3    3    0  502 -0.13628381666E+03 -0.90064542054E+02  0.40849229709E+02  0.16838515370E+03  0.00000000000E+00 0.  1.
         11    1    5    5    0    0  0.35146242373E+02  0.15361454734E+03  0.38583998046E+02  0.16223875127E+03  0.00000000000E+00 0. -1.
        -11    1    5    5    0    0  0.21777450343E+03  0.60070327043E+03  0.33123427083E+03  0.71971264795E+03  0.00000000000E+00 0.  1.
          1    1    6    6  503    0  0.52714887073E+03  0.19422572959E+03  0.53385076794E+03  0.77498787628E+03  0.00000000000E+00 0. -1.
         -1    1    6    6    0  503  0.35833449232E+03  0.79746160050E+02  0.43166538572E+03  0.56665515409E+03  0.00000000000E+00 0.  1.
<mgrwt>
<rscale>  0 0.33980177E+04</rscale>
<asrwt>0</asrwt>
<pdfrwt beam="1">  1        2 0.16093335E+00 0.33980177E+04</pdfrwt>
<pdfrwt beam="2">  1       -1 0.42453989E+00 0.33980177E+04</pdfrwt>
<totfact> 0.10771755E-01</totfact>
</mgrwt>
</event>
<event>
12    6  0.1403409E-007  0.1741829E+04  0.7818608E-02  0.8737861E-01
         -1   -1    0    0    0  501 -0.00000000000E+00  0.00000000000E+00  0.48481891583E+03  0.48481891583E+03  0.00000000000E+00 0.  1.
          2   -1    0    0  501    0  0.00000000000E+00 -0.00000000000E+00 -0.15644844069E+04  0.15644844069E+04  0.00000000000E+00 0. -1.
         24    2    1    2    0    0 -0.14886361890E+02 -0.61979781157E+03 -0.23561333036E+03  0.66824531961E+03  0.81653136676E+02 0.  0.
        254    2    1    2    0    0  0.14886361890E+02  0.61979781157E+03 -0.84405216074E+03  0.13810580032E+04  0.90029230088E+03 0.  0.
         23    2    4    4    0    0  0.11901134886E+02  0.84542129761E+03 -0.66784399984E+03  0.10812070679E+04  0.90079454656E+02 0.  0.
         23    2    4    4    0    0  0.29852270043E+01 -0.22562348603E+03 -0.17620816090E+03  0.29985093523E+03  0.89142573220E+02 0.  0.
          2    1    3    3  502    0  0.25741969126E+01 -0.44481411844E+03 -0.20484156610E+03  0.48972062817E+03  0.00000000000E+00 0. -1.
         -1    1    3    3    0  502 -0.17460558802E+02 -0.17498369313E+03 -0.30771764263E+02  0.17852469144E+03  0.00000000000E+00 0.  1.
         11    1    5    5    0    0  0.19043171943E+02  0.62204155610E+03 -0.44087587158E+03  0.76267284864E+03  0.00000000000E+00 0.  1.
        -11    1    5    5    0    0 -0.71420370577E+01  0.22337974150E+03 -0.22696812826E+03  0.31853421928E+03  0.00000000000E+00 0. -1.
          4    1    6    6  503    0  0.59437970027E+00 -0.14434906731E+03 -0.56228017053E+02  0.15491480375E+03  0.00000000000E+00 0. -1.
         -4    1    6    6    0  503  0.23908473040E+01 -0.81274418725E+02 -0.11998014385E+03  0.14493613148E+03  0.00000000000E+00 0.  1.
<mgrwt>
<rscale>  0 0.17418285E+04</rscale>
<asrwt>0</asrwt>
<pdfrwt beam="1">  1        2 0.24068991E+00 0.17418285E+04</pdfrwt>
<pdfrwt beam="2">  1       -1 0.74587525E-01 0.17418285E+04</pdfrwt>
<totfact> 0.22818121E+01</totfact>
</mgrwt>
</event>
<event>
12    6  0.1403409E-007  0.2065372E+04  0.7818608E-02  0.8576653E-01
          2   -1    0    0  501    0  0.00000000000E+00  0.00000000000E+00  0.15344117866E+04  0.15344117866E+04  0.00000000000E+00 0. -1.
         -1   -1    0    0    0  501 -0.00000000000E+00 -0.00000000000E+00 -0.69501559801E+03  0.69501559801E+03  0.00000000000E+00 0.  1.
         24    2    1    2    0    0 -0.37656795519E+03 -0.55822859411E+02 -0.45979687695E+03  0.60222937028E+03  0.79670759200E+02 0.  0.
        254    2    1    2    0    0  0.37656795519E+03  0.55822859411E+02  0.12991930656E+04  0.16271980144E+04  0.90274644270E+03 0.  0.
         23    2    4    4    0    0  0.64362369774E+03  0.15099470861E+03  0.76076782512E+03  0.10118187199E+04  0.89210828336E+02 0.  0.
         23    2    4    4    0    0 -0.26705574256E+03 -0.95171849197E+02  0.53842524045E+03  0.61537929446E+03  0.91725056441E+02 0.  0.
          4    1    3    3  502    0 -0.28436402202E+02 -0.19477701672E+02 -0.18981234318E+02  0.39348406434E+02  0.00000000000E+00 0. -1.
         -3    1    3    3    0  502 -0.34813155299E+03 -0.36345157740E+02 -0.44081564263E+03  0.56288096385E+03  0.00000000000E+00 0.  1.
         11    1    5    5    0    0  0.36700210670E+03  0.45402952603E+02  0.39218518944E+03  0.53903728743E+03  0.00000000000E+00 0.  1.
        -11    1    5    5    0    0  0.27662159105E+03  0.10559175601E+03  0.36858263568E+03  0.47278143247E+03  0.00000000000E+00 0. -1.
          1    1    6    6  503    0 -0.18665446392E+03 -0.90287081199E+02  0.45171111137E+03  0.49702572777E+03  0.00000000000E+00 0. -1.
         -1    1    6    6    0  503 -0.80401278636E+02 -0.48847679980E+01  0.86714129086E+02  0.11835356669E+03  0.00000000000E+00 0.  1.
<mgrwt>
<rscale>  0 0.20653718E+04</rscale>
<asrwt>0</asrwt>
<pdfrwt beam="1">  1        2 0.23606335E+00 0.20653718E+04</pdfrwt>
<pdfrwt beam="2">  1       -1 0.10692548E+00 0.20653718E+04</pdfrwt>
<totfact> 0.10427778E+01</totfact>
</mgrwt>
</event>
<event>
12    6  0.1403409E-007  0.1969484E+04  0.7818608E-02  0.8621022E-01
          2   -1    0    0  501    0  0.00000000000E+00  0.00000000000E+00  0.22176651379E+04  0.22176651379E+04  0.00000000000E+00 0. -1.
         -1   -1    0    0    0  501 -0.00000000000E+00 -0.00000000000E+00 -0.43726920344E+03  0.43726920344E+03  0.00000000000E+00 0.  1.
         24    2    1    2    0    0 -0.31882829839E+03 -0.70101078291E+03  0.57621599592E+03  0.96543154936E+03  0.83460175675E+02 0.  0.
        254    2    1    2    0    0  0.31882829839E+03  0.70101078291E+03  0.12041799386E+04  0.16895027920E+04  0.90072346376E+03 0.  0.
         23    2    4    4    0    0  0.14898356443E+03 -0.19719834670E+03  0.28523791365E+03  0.39000126529E+03  0.98270184365E+02 0.  0.
         23    2    4    4    0    0  0.16984473397E+03  0.89820912961E+03  0.91894202492E+03  0.12995015267E+04  0.92859564068E+02 0.  0.
          2    1    3    3  502    0 -0.15996345571E+03 -0.44123532489E+03  0.37051064704E+03  0.59795907775E+03  0.00000000000E+00 0. -1.
         -1    1    3    3    0  502 -0.15886484268E+03 -0.25977545802E+03  0.20570534888E+03  0.36747247160E+03  0.00000000000E+00 0.  1.
         11    1    5    5    0    0  0.14278566283E+03 -0.11512265402E+03  0.20454530825E+03  0.27473578963E+03  0.00000000000E+00 0. -1.
        -11    1    5    5    0    0  0.61979015979E+01 -0.82075692672E+02  0.80692605399E+02  0.11526547565E+03  0.00000000000E+00 0.  1.
          4    1    6    6  503    0  0.68323021374E+02  0.59848455613E+03  0.59995907813E+03  0.85017803701E+03  0.00000000000E+00 0. -1.
         -4    1    6    6    0  503  0.10152171259E+03  0.29972457348E+03  0.31898294678E+03  0.44932348972E+03  0.00000000000E+00 0.  1.
<mgrwt>
<rscale>  0 0.19694839E+04</rscale>
<asrwt>0</asrwt>
<pdfrwt beam="1">  1        2 0.34117924E+00 0.19694839E+04</pdfrwt>
<pdfrwt beam="2">  1       -1 0.67272187E-01 0.19694839E+04</pdfrwt>
<totfact> 0.11978045E+01</totfact>
</mgrwt>
</event>
<event>
12    6  0.1403409E-007  0.4432273E+04  0.7818608E-02  0.7922602E-01
         -1   -1    0    0    0  501 -0.00000000000E+00  0.00000000000E+00  0.15158563044E+04  0.15158563044E+04  0.00000000000E+00 0.  1.
          2   -1    0    0  501    0  0.00000000000E+00 -0.00000000000E+00 -0.32399245695E+04  0.32399245695E+04  0.00000000000E+00 0. -1.
         24    2    1    2    0    0 -0.21057780941E+04 -0.22974925687E+03 -0.65844775684E+03  0.22197345686E+04  0.81129549530E+02 0.  0.
        254    2    1    2    0    0  0.21057780941E+04  0.22974925687E+03 -0.10656205083E+04  0.25360463054E+04  0.89938739861E+03 0.  0.
         23    2    4    4    0    0  0.16847468723E+04 -0.15906983925E+03 -0.95572935207E+03  0.19456706378E+04  0.92414278437E+02 0.  0.
         23    2    4    4    0    0  0.42103122177E+03  0.38881909611E+03 -0.10989115622E+03  0.59037566758E+03  0.89553243628E+02 0.  0.
          4    1    3    3  502    0 -0.10384257388E+04 -0.13007446839E+03 -0.36398945746E+03  0.11080323585E+04  0.00000000000E+00 0. -1.
         -3    1    3    3    0  502 -0.10673523552E+04 -0.99674788473E+02 -0.29445829939E+03  0.11117022100E+04  0.00000000000E+00 0.  1.
         11    1    5    5    0    0  0.34862402935E+03 -0.57247811960E+02 -0.23283829187E+03  0.42311900923E+03  0.00000000000E+00 0. -1.
        -11    1    5    5    0    0  0.13361228430E+04 -0.10182202729E+03 -0.72289106020E+03  0.15225516286E+04  0.00000000000E+00 0.  1.
          4    1    6    6  503    0  0.40497188969E+03  0.38792651581E+03 -0.11687146303E+03  0.57284217022E+03  0.00000000000E+00 0. -1.
         -4    1    6    6    0  503  0.16059332078E+02  0.89258030236E+00  0.69803068133E+01  0.17533497358E+02  0.00000000000E+00 0.  1.
<mgrwt>
<rscale>  0 0.44322726E+04</rscale>
<asrwt>0</asrwt>
<pdfrwt beam="1">  1        2 0.49844992E+00 0.44322726E+04</pdfrwt>
<pdfrwt beam="2">  1       -1 0.23320867E+00 0.44322726E+04</pdfrwt>
<totfact> 0.94831516E-02</totfact>
</mgrwt>
</event>
<event>
12    6  0.1403409E-007  0.1905999E+04  0.7818608E-02  0.8651876E-01
         -1   -1    0    0    0  501 -0.00000000000E+00  0.00000000000E+00  0.15420165769E+04  0.15420165769E+04  0.00000000000E+00 0.  1.
          2   -1    0    0  501    0  0.00000000000E+00 -0.00000000000E+00 -0.58897451290E+03  0.58897451290E+03  0.00000000000E+00 0. -1.
         24    2    1    2    0    0  0.59624344341E+03 -0.32990667290E+03  0.54125080973E+02  0.68812579348E+03  0.79012192910E+02 0.  0.
        254    2    1    2    0    0 -0.59624344341E+03  0.32990667290E+03  0.89891698301E+03  0.14428652963E+04  0.89970209751E+03 0.  0.
         23    2    4    4    0    0 -0.20955025680E+03  0.50655701485E+03  0.14722907405E+03  0.57418201127E+03  0.86586733380E+02 0.  0.
         23    2    4    4    0    0 -0.38669318661E+03 -0.17665034195E+03  0.75168790896E+03  0.86868328503E+03  0.94015814225E+02 0.  0.
          4    1    3    3  502    0  0.42958424748E+03 -0.27658338753E+03  0.35447321666E+02  0.51214988875E+03  0.00000000000E+00 0. -1.
         -3    1    3    3    0  502  0.16665919593E+03 -0.53323285378E+02  0.18677759307E+02  0.17597590473E+03  0.00000000000E+00 0.  1.
         11    1    5    5    0    0 -0.50414851790E+02  0.90121175497E+02 -0.42280814975E+01  0.10335066631E+03  0.00000000000E+00 0. -1.
        -11    1    5    5    0    0 -0.15913540502E+03  0.41643583936E+03  0.15145715554E+03  0.47083134496E+03  0.00000000000E+00 0.  1.
          3    1    6    6  503    0 -0.13788543786E+03 -0.31642256676E+02  0.31850985775E+03  0.34851421185E+03  0.00000000000E+00 0. -1.
         -3    1    6    6    0  503 -0.24880774875E+03 -0.14500808527E+03  0.43317805121E+03  0.52016907317E+03  0.00000000000E+00 0.  1.
<mgrwt>
<rscale>  0 0.19059994E+04</rscale>
<asrwt>0</asrwt>
<pdfrwt beam="1">  1        2 0.90611465E-01 0.19059994E+04</pdfrwt>
<pdfrwt beam="2">  1       -1 0.23723332E+00 0.19059994E+04</pdfrwt>
<totfact> 0.45846531E+00</totfact>
</mgrwt>
</event>
<event>
12    6  0.1403409E-007  0.2139041E+04  0.7818608E-02  0.8544238E-01
         -1   -1    0    0    0  501 -0.00000000000E+00  0.00000000000E+00  0.96646613304E+03  0.96646613304E+03  0.00000000000E+00 0.  1.
          2   -1    0    0  501    0  0.00000000000E+00 -0.00000000000E+00 -0.11835637547E+04  0.11835637547E+04  0.00000000000E+00 0. -1.
         24    2    1    2    0    0 -0.74075469625E+03 -0.40009833204E+03 -0.34947755638E+03  0.91510494265E+03  0.80537558552E+02 0.  0.
        254    2    1    2    0    0  0.74075469625E+03  0.40009833204E+03  0.13237993475E+03  0.12349249451E+04  0.89371079074E+03 0.  0.
         23    2    4    4    0    0 -0.12996310316E+03  0.14595225942E+03  0.23289101978E+03  0.31775023057E+03  0.92382421047E+02 0.  0.
         23    2    4    4    0    0  0.87071779941E+03  0.25414607262E+03 -0.10051108503E+03  0.91717471449E+03  0.91472762299E+02 0.  0.
          2    1    3    3  502    0 -0.16793031524E+03 -0.12573889476E+03 -0.10432769158E+03  0.23429709273E+03  0.00000000000E+00 0. -1.
         -1    1    3    3    0  502 -0.57282438101E+03 -0.27435943728E+03 -0.24514986480E+03  0.68080784992E+03  0.00000000000E+00 0.  1.
         11    1    5    5    0    0 -0.62080511446E+02  0.13215379113E+03  0.14419201194E+03  0.20520709228E+03  0.00000000000E+00 0.  1.
        -11    1    5    5    0    0 -0.67882591714E+02  0.13798468284E+02  0.88699007838E+02  0.11254313829E+03  0.00000000000E+00 0. -1.
          4    1    6    6  503    0  0.65888509540E+03  0.22384817113E+03 -0.52381915298E+02  0.69784055322E+03  0.00000000000E+00 0. -1.
         -4    1    6    6    0  503  0.21183270400E+03  0.30297901493E+02 -0.48129169732E+02  0.21933416127E+03  0.00000000000E+00 0.  1.
<mgrwt>
<rscale>  0 0.21390412E+04</rscale>
<asrwt>0</asrwt>
<pdfrwt beam="1">  1        2 0.18208673E+00 0.21390412E+04</pdfrwt>
<pdfrwt beam="2">  1       -1 0.14868710E+00 0.21390412E+04</pdfrwt>
<totfact> 0.72502044E+00</totfact>
</mgrwt>
</event>
<event>
12    6  0.1403409E-007  0.2257186E+04  0.7818608E-02  0.8494996E-01
         -1   -1    0    0    0  501 -0.00000000000E+00  0.00000000000E+00  0.98662652213E+03  0.98662652213E+03  0.00000000000E+00 0.  1.
          2   -1    0    0  501    0  0.00000000000E+00 -0.00000000000E+00 -0.12909871027E+04  0.12909871027E+04  0.00000000000E+00 0. -1.
         24    2    1    2    0    0 -0.57028634332E+03  0.13973019785E+01 -0.89155853383E+03  0.10612656515E+04  0.78611054959E+02 0.  0.
        254    2    1    2    0    0  0.57028634332E+03 -0.13973019785E+01  0.58719795325E+03  0.12163479734E+04  0.89970689125E+03 0.  0.
         23    2    4    4    0    0  0.40154678905E+03  0.20922489844E+02 -0.16169633003E+03  0.44302945305E+03  0.91933773689E+02 0.  0.
         23    2    4    4    0    0  0.16873955427E+03 -0.22319791823E+02  0.74889428327E+03  0.77331852031E+03  0.90596225402E+02 0.  0.
          4    1    3    3  502    0 -0.30393697746E+03 -0.28549815809E+02 -0.52258310359E+03  0.60521556358E+03  0.00000000000E+00 0. -1.
         -3    1    3    3    0  502 -0.26634936586E+03  0.29947117788E+02 -0.36897543024E+03  0.45605008791E+03  0.00000000000E+00 0.  1.
         11    1    5    5    0    0  0.52085953578E+02  0.10199514823E+02 -0.57403957174E+02  0.78180502441E+02  0.00000000000E+00 0.  1.
        -11    1    5    5    0    0  0.34946083547E+03  0.10722975021E+02 -0.10429237285E+03  0.36484895061E+03  0.00000000000E+00 0. -1.
          3    1    6    6  503    0  0.54407564802E+02 -0.21487971639E+02  0.44133224246E+03  0.44519216555E+03  0.00000000000E+00 0. -1.
         -3    1    6    6    0  503  0.11433198946E+03 -0.83182018367E+00  0.30756204081E+03  0.32812635476E+03  0.00000000000E+00 0.  1.
<mgrwt>
<rscale>  0 0.22571860E+04</rscale>
<asrwt>0</asrwt>
<pdfrwt beam="1">  1        2 0.19861340E+00 0.22571860E+04</pdfrwt>
<pdfrwt beam="2">  1       -1 0.15178870E+00 0.22571860E+04</pdfrwt>
<totfact> 0.58627049E+00</totfact>
</mgrwt>
</event>
<event>
12    6  0.1403409E-007  0.1166770E+04  0.7818608E-02  0.9142450E-01
         -1   -1    0    0    0  501 -0.00000000000E+00  0.00000000000E+00  0.49324923174E+03  0.49324923174E+03  0.00000000000E+00 0.  1.
          2   -1    0    0  501    0  0.00000000000E+00 -0.00000000000E+00 -0.68999221942E+03  0.68999221942E+03  0.00000000000E+00 0. -1.
         24    2    1    2    0    0  0.42252172681E+02  0.68799859860E+02  0.17295818018E+03  0.20685702553E+03  0.79728477401E+02 0.  0.
        254    2    1    2    0    0 -0.42252172681E+02 -0.68799859860E+02 -0.36970116787E+03  0.97638442563E+03  0.90007162286E+03 0.  0.
         23    2    4    4    0    0 -0.30902718428E+03  0.29246248712E+03 -0.10674611790E+03  0.44805463848E+03  0.91247566475E+02 0.  0.
         23    2    4    4    0    0  0.26677501159E+03 -0.36126234698E+03 -0.26295504996E+03  0.52832978714E+03  0.91146121853E+02 0.  0.
          4    1    3    3  502    0  0.28203134063E+00  0.14266026995E+02 -0.57299076373E+01  0.15376310007E+02  0.00000000000E+00 0. -1.
         -3    1    3    3    0  502  0.41970141340E+02  0.54533832865E+02  0.17868808782E+03  0.19148071553E+03  0.00000000000E+00 0.  1.
         11    1    5    5    0    0  0.28190287762E+01  0.21763505698E+02 -0.88412439214E+01  0.23659346939E+02  0.00000000000E+00 0.  1.
        -11    1    5    5    0    0 -0.31184621305E+03  0.27069898142E+03 -0.97904873980E+02  0.42439529154E+03  0.00000000000E+00 0. -1.
          2    1    6    6  503    0  0.24980731432E+03 -0.28258930923E+03 -0.22668246888E+03  0.44005153525E+03  0.00000000000E+00 0. -1.
         -2    1    6    6    0  503  0.16967697275E+02 -0.78673037746E+02 -0.36272581086E+02  0.88278251895E+02  0.00000000000E+00 0.  1.
<mgrwt>
<rscale>  0 0.11667701E+04</rscale>
<asrwt>0</asrwt>
<pdfrwt beam="1">  1        2 0.10615265E+00 0.11667701E+04</pdfrwt>
<pdfrwt beam="2">  1       -1 0.75884498E-01 0.11667701E+04</pdfrwt>
<totfact> 0.82252329E+01</totfact>
</mgrwt>
</event>
<event>
12    6  0.1403409E-007  0.1708068E+04  0.7818608E-02  0.8756776E-01
          2   -1    0    0  501    0  0.00000000000E+00  0.00000000000E+00  0.11136296358E+04  0.11136296358E+04  0.00000000000E+00 0. -1.
         -1   -1    0    0    0  501 -0.00000000000E+00 -0.00000000000E+00 -0.65495239609E+03  0.65495239609E+03  0.00000000000E+00 0.  1.
         24    2    1    2    0    0  0.17400195655E+03  0.47910045017E+03  0.52488751809E+03  0.73606273762E+03  0.80420922868E+02 0.  0.
        254    2    1    2    0    0 -0.17400195655E+03 -0.47910045017E+03 -0.66210278355E+02  0.10325192943E+04  0.89548778322E+03 0.  0.
         23    2    4    4    0    0 -0.35923209212E+03 -0.37128164930E+03 -0.37581761519E+03  0.64501288762E+03  0.88909989295E+02 0.  0.
         23    2    4    4    0    0  0.18523013557E+03 -0.10781880087E+03  0.30960733683E+03  0.38750640668E+03  0.91484508259E+02 0.  0.
          2    1    3    3  502    0  0.99276701275E+02  0.24531160481E+03  0.32776219996E+03  0.42126204030E+03  0.00000000000E+00 0. -1.
         -1    1    3    3    0  502  0.74725255272E+02  0.23378884536E+03  0.19712531813E+03  0.31480069733E+03  0.00000000000E+00 0.  1.
         11    1    5    5    0    0 -0.26406728155E+03 -0.29363434293E+03 -0.32745959379E+03  0.51301310129E+03  0.00000000000E+00 0. -1.
        -11    1    5    5    0    0 -0.95164810568E+02 -0.77647306372E+02 -0.48358021397E+02  0.13199978633E+03  0.00000000000E+00 0.  1.
          2    1    6    6  503    0  0.70124580905E+02 -0.66604300772E+02  0.20473326564E+03  0.22642725054E+03  0.00000000000E+00 0. -1.
         -2    1    6    6    0  503  0.11510555467E+03 -0.41214500096E+02  0.10487407119E+03  0.16107915614E+03  0.00000000000E+00 0.  1.
<mgrwt>
<rscale>  0 0.17080684E+04</rscale>
<asrwt>0</asrwt>
<pdfrwt beam="1">  1        2 0.17132764E+00 0.17080684E+04</pdfrwt>
<pdfrwt beam="2">  1       -1 0.10076191E+00 0.17080684E+04</pdfrwt>
<totfact> 0.21711372E+01</totfact>
</mgrwt>
</event>
<event>
12    6  0.1403409E-007  0.2268180E+04  0.7818608E-02  0.8490574E-01
         -1   -1    0    0    0  501 -0.00000000000E+00  0.00000000000E+00  0.13872447771E+04  0.13872447771E+04  0.00000000000E+00 0.  1.
          2   -1    0    0  501    0  0.00000000000E+00 -0.00000000000E+00 -0.92713283162E+03  0.92713283162E+03  0.00000000000E+00 0. -1.
         24    2    1    2    0    0  0.71435178067E+03 -0.34349775305E+03 -0.35508397160E+03  0.87196478895E+03  0.77128421348E+02 0.  0.
        254    2    1    2    0    0 -0.71435178067E+03  0.34349775305E+03  0.81519591711E+03  0.14424128198E+04  0.88753658321E+03 0.  0.
         23    2    4    4    0    0 -0.86557142901E+03  0.84682756291E+02  0.63042886123E+03  0.10786383561E+04  0.98158474636E+02 0.  0.
         23    2    4    4    0    0  0.15121964834E+03  0.25881499676E+03  0.18476705587E+03  0.36377446374E+03  0.91325850352E+02 0.  0.
          4    1    3    3  502    0  0.14537796220E+03 -0.96989380303E+02 -0.10100004735E+03  0.20184821364E+03  0.00000000000E+00 0. -1.
         -3    1    3    3    0  502  0.56897381847E+03 -0.24650837275E+03 -0.25408392425E+03  0.67011657531E+03  0.00000000000E+00 0.  1.
         11    1    5    5    0    0 -0.73111705482E+03  0.10677450172E+03  0.53801145964E+03  0.91399631989E+03  0.00000000000E+00 0. -1.
        -11    1    5    5    0    0 -0.13445437419E+03 -0.22091745433E+02  0.92417401587E+02  0.16464203616E+03  0.00000000000E+00 0.  1.
          3    1    6    6  503    0  0.15444741784E+03  0.26474254244E+03  0.18211463831E+03  0.35652259415E+03  0.00000000000E+00 0. -1.
         -3    1    6    6    0  503 -0.32277694976E+01 -0.59275456752E+01  0.26524175620E+01  0.72518695923E+01  0.00000000000E+00 0.  1.
<mgrwt>
<rscale>  0 0.22681800E+04</rscale>
<asrwt>0</asrwt>
<pdfrwt beam="1">  1        2 0.14263582E+00 0.22681800E+04</pdfrwt>
<pdfrwt beam="2">  1       -1 0.21342227E+00 0.22681800E+04</pdfrwt>
<totfact> 0.35519637E+00</totfact>
</mgrwt>
</event>
<event>
12    6  0.1403409E-007  0.2680545E+04  0.7818608E-02  0.8341345E-01
         -1   -1    0    0    0  501 -0.00000000000E+00  0.00000000000E+00  0.66976986518E+03  0.66976986518E+03  0.00000000000E+00 0.  1.
          2   -1    0    0  501    0  0.00000000000E+00 -0.00000000000E+00 -0.26820116551E+04  0.26820116551E+04  0.00000000000E+00 0. -1.
         24    2    1    2    0    0 -0.11159783850E+04  0.32684826354E+03 -0.58424007694E+03  0.13038167960E+04  0.79776105650E+02 0.  0.
        254    2    1    2    0    0  0.11159783850E+04 -0.32684826354E+03 -0.14280017130E+04  0.20479647243E+04  0.89595372451E+03 0.  0.
         23    2    4    4    0    0 -0.12621458645E+03  0.40177373865E+02 -0.97404675339E+02  0.18869220542E+03  0.92589062021E+02 0.  0.
         23    2    4    4    0    0  0.12421929714E+04 -0.36702563740E+03 -0.13305970377E+04  0.18592725189E+04  0.93030242276E+02 0.  0.
          4    1    3    3  502    0 -0.41073522208E+03  0.80481169555E+02 -0.20753302346E+03  0.46717298417E+03  0.00000000000E+00 0. -1.
         -3    1    3    3    0  502 -0.70524316289E+03  0.24636709398E+03 -0.37670705348E+03  0.83664381187E+03  0.00000000000E+00 0.  1.
         11    1    5    5    0    0 -0.69039905803E+02 -0.16318615497E+02 -0.12973494374E+02  0.72118772599E+02  0.00000000000E+00 0. -1.
        -11    1    5    5    0    0 -0.57174680649E+02  0.56495989362E+02 -0.84431180965E+02  0.11657343282E+03  0.00000000000E+00 0.  1.
          1    1    6    6  503    0  0.31188655060E+03 -0.11136152990E+03 -0.39313831294E+03  0.51403535277E+03  0.00000000000E+00 0.  1.
         -1    1    6    6    0  503  0.93030642082E+03 -0.25566410750E+03 -0.93745872474E+03  0.13452371661E+04  0.00000000000E+00 0. -1.
<mgrwt>
<rscale>  0 0.26805452E+04</rscale>
<asrwt>0</asrwt>
<pdfrwt beam="1">  1        2 0.41261717E+00 0.26805452E+04</pdfrwt>
<pdfrwt beam="2">  1       -1 0.10304152E+00 0.26805452E+04</pdfrwt>
<totfact> 0.24178341E+00</totfact>
</mgrwt>
</event>
<event>
12    6  0.1403409E-007  0.1436653E+04  0.7818608E-02  0.8927706E-01
         -1   -1    0    0    0  501 -0.00000000000E+00  0.00000000000E+00  0.13800885270E+03  0.13800885270E+03  0.00000000000E+00 0.  1.
          2   -1    0    0  501    0  0.00000000000E+00 -0.00000000000E+00 -0.37388417442E+04  0.37388417442E+04  0.00000000000E+00 0. -1.
         24    2    1    2    0    0  0.11648627024E+03 -0.40276656798E+03 -0.13775532253E+04  0.14420756230E+04  0.78353394029E+02 0.  0.
        254    2    1    2    0    0 -0.11648627024E+03  0.40276656798E+03 -0.22232796662E+04  0.24347749739E+04  0.89964812019E+03 0.  0.
         23    2    4    4    0    0  0.27889443314E+02  0.64946079910E+03 -0.11919994685E+04  0.13608448656E+04  0.91972087011E+02 0.  0.
         23    2    4    4    0    0 -0.14437571355E+03 -0.24669423112E+03 -0.10312801977E+04  0.10739301083E+04  0.89914631994E+02 0.  0.
          4    1    3    3  502    0  0.38669079802E+02 -0.26908142577E+03 -0.87609621157E+03  0.91730293979E+03  0.00000000000E+00 0. -1.
         -3    1    3    3    0  502  0.77817190434E+02 -0.13368514220E+03 -0.50145701376E+03  0.52477268319E+03  0.00000000000E+00 0.  1.
         11    1    5    5    0    0 -0.58652099803E+01  0.56906649374E+03 -0.10458957288E+04  0.11907010332E+04  0.00000000000E+00 0. -1.
        -11    1    5    5    0    0  0.33754653294E+02  0.80394305355E+02 -0.14610373975E+03  0.17014383245E+03  0.00000000000E+00 0.  1.
          2    1    6    6  503    0 -0.77876103882E+02 -0.17119301279E+03 -0.52301332673E+03  0.55580093120E+03  0.00000000000E+00 0. -1.
         -2    1    6    6    0  503 -0.66499609668E+02 -0.75501218333E+02 -0.50826687093E+03  0.51812917708E+03  0.00000000000E+00 0.  1.
<mgrwt>
<rscale>  0 0.14366534E+04</rscale>
<asrwt>0</asrwt>
<pdfrwt beam="1">  1        2 0.57520643E+00 0.14366534E+04</pdfrwt>
<pdfrwt beam="2">  1       -1 0.21232131E-01 0.14366534E+04</pdfrwt>
<totfact> 0.11401335E+01</totfact>
</mgrwt>
</event>
<event>
12    6  0.1403409E-007  0.2233120E+04  0.7818608E-02  0.8504768E-01
          2   -1    0    0  501    0  0.00000000000E+00  0.00000000000E+00  0.72969391006E+03  0.72969391006E+03  0.00000000000E+00 0. -1.
         -1   -1    0    0    0  501 -0.00000000000E+00 -0.00000000000E+00 -0.17085329025E+04  0.17085329025E+04  0.00000000000E+00 0.  1.
         24    2    1    2    0    0 -0.12291084979E+03 -0.94390281740E+02 -0.14186577311E+04  0.14293742512E+04  0.80649795726E+02 0.  0.
        254    2    1    2    0    0  0.12291084979E+03  0.94390281740E+02  0.43981873874E+03  0.10088525613E+04  0.89460961613E+03 0.  0.
         23    2    4    4    0    0 -0.25787770177E+03 -0.49310536061E+02  0.51455399843E+03  0.58481622434E+03  0.91168859389E+02 0.  0.
         23    2    4    4    0    0  0.38078855156E+03  0.14370081780E+03 -0.74735259689E+02  0.42403633699E+03  0.92582989847E+02 0.  0.
          2    1    3    3  502    0 -0.71563036199E+02 -0.56959379614E+02 -0.48448725458E+03  0.49304516926E+03  0.00000000000E+00 0. -1.
         -1    1    3    3    0  502 -0.51347813595E+02 -0.37430902126E+02 -0.93417047655E+03  0.93632908192E+03  0.00000000000E+00 0.  1.
         11    1    5    5    0    0 -0.12113708735E+03  0.17028813114E+02  0.27693570060E+03  0.30274999038E+03  0.00000000000E+00 0.  1.
        -11    1    5    5    0    0 -0.13674061442E+03 -0.66339349175E+02  0.23761829783E+03  0.28206623396E+03  0.00000000000E+00 0. -1.
          3    1    6    6  503    0  0.13433692623E+03  0.76281836863E+02  0.10099930666E+02  0.15481387853E+03  0.00000000000E+00 0. -1.
         -3    1    6    6    0  503  0.24645162533E+03  0.67418980938E+02 -0.84835190356E+02  0.26922245846E+03  0.00000000000E+00 0.  1.
<mgrwt>
<rscale>  0 0.22331198E+04</rscale>
<asrwt>0</asrwt>
<pdfrwt beam="1">  1        2 0.11226060E+00 0.22331198E+04</pdfrwt>
<pdfrwt beam="2">  1       -1 0.26285121E+00 0.22331198E+04</pdfrwt>
<totfact> 0.23238270E+00</totfact>
</mgrwt>
</event>
<event>
12    6  0.1403409E-007  0.1802131E+04  0.7818608E-02  0.8705167E-01
         -1   -1    0    0    0  501 -0.00000000000E+00  0.00000000000E+00  0.30623302168E+03  0.30623302168E+03  0.00000000000E+00 0.  1.
          2   -1    0    0  501    0  0.00000000000E+00 -0.00000000000E+00 -0.26513104396E+04  0.26513104396E+04  0.00000000000E+00 0. -1.
         24    2    1    2    0    0  0.16833111627E+03 -0.39847158028E+03 -0.34956165924E+02  0.44063921948E+03  0.76328390601E+02 0.  0.
        254    2    1    2    0    0 -0.16833111627E+03  0.39847158028E+03 -0.23101212520E+04  0.25169042418E+04  0.90057303893E+03 0.  0.
         23    2    4    4    0    0  0.14120588920E+02  0.59318341593E+03 -0.20418173315E+04  0.21283095496E+04  0.92830854485E+02 0.  0.
         23    2    4    4    0    0 -0.18245170519E+03 -0.19471183565E+03 -0.26830392051E+03  0.38859469226E+03  0.88416725926E+02 0.  0.
          2    1    3    3  502    0  0.11953518144E+02 -0.84627867325E+02  0.13954358804E+02  0.86599576521E+02  0.00000000000E+00 0. -1.
         -1    1    3    3    0  502  0.15637759812E+03 -0.31384371296E+03 -0.48910524728E+02  0.35403964296E+03  0.00000000000E+00 0.  1.
         11    1    5    5    0    0 -0.20852216800E+02  0.15440709713E+03 -0.65691912562E+03  0.67514376557E+03  0.00000000000E+00 0. -1.
        -11    1    5    5    0    0  0.34972805720E+02  0.43877631879E+03 -0.13848982059E+04  0.14531657840E+04  0.00000000000E+00 0.  1.
          4    1    6    6  503    0 -0.81795436261E+02 -0.10923551996E+03 -0.78686064062E+02  0.15752583564E+03  0.00000000000E+00 0. -1.
         -4    1    6    6    0  503 -0.10065626892E+03 -0.85476315681E+02 -0.18961785645E+03  0.23106885662E+03  0.00000000000E+00 0.  1.
<mgrwt>
<rscale>  0 0.18021307E+04</rscale>
<asrwt>0</asrwt>
<pdfrwt beam="1">  1        2 0.40789393E+00 0.18021307E+04</pdfrwt>
<pdfrwt beam="2">  1       -1 0.47112771E-01 0.18021307E+04</pdfrwt>
<totfact> 0.13730638E+01</totfact>
</mgrwt>
</event>
<event>
12    6  0.1403409E-007  0.1637172E+04  0.7818608E-02  0.8798032E-01
          2   -1    0    0  501    0  0.00000000000E+00  0.00000000000E+00  0.55978874494E+03  0.55978874494E+03  0.00000000000E+00 0. -1.
         -1   -1    0    0    0  501 -0.00000000000E+00 -0.00000000000E+00 -0.11970282273E+04  0.11970282273E+04  0.00000000000E+00 0.  1.
         24    2    1    2    0    0 -0.25826952219E+03 -0.21722471987E+03  0.26802930716E+03  0.43776536664E+03  0.76870551717E+02 0.  0.
        254    2    1    2    0    0  0.25826952219E+03  0.21722471987E+03 -0.90526878953E+03  0.13190516056E+04  0.89805112992E+03 0.  0.
         23    2    4    4    0    0 -0.34021199679E+02 -0.16394850955E+03 -0.79566062497E+03  0.81827553320E+03  0.91991642546E+02 0.  0.
         23    2    4    4    0    0  0.29229072187E+03  0.38117322942E+03 -0.10960816456E+03  0.50077607241E+03  0.89642780205E+02 0.  0.
          2    1    3    3  502    0 -0.17743381893E+03 -0.10531568907E+03  0.13887077295E+03  0.24871519062E+03  0.00000000000E+00 0. -1.
         -1    1    3    3    0  502 -0.80835703258E+02 -0.11190903080E+03  0.12915853420E+03  0.18905017602E+03  0.00000000000E+00 0.  1.
         11    1    5    5    0    0 -0.11039567567E+02 -0.28094773119E+02 -0.39761844565E+02  0.49921865069E+02  0.00000000000E+00 0.  1.
        -11    1    5    5    0    0 -0.22981632112E+02 -0.13585373643E+03 -0.75589878041E+03  0.76835366814E+03  0.00000000000E+00 0. -1.
          4    1    6    6  503    0  0.16873976618E+03  0.18883250952E+03 -0.15988604265E+02  0.25374487346E+03  0.00000000000E+00 0. -1.
         -4    1    6    6    0  503  0.12355095568E+03  0.19234071990E+03 -0.93619560292E+02  0.24703119894E+03  0.00000000000E+00 0.  1.
<mgrwt>
<rscale>  0 0.16371719E+04</rscale>
<asrwt>0</asrwt>
<pdfrwt beam="1">  1        2 0.86121347E-01 0.16371719E+04</pdfrwt>
<pdfrwt beam="2">  1       -1 0.18415819E+00 0.16371719E+04</pdfrwt>
<totfact> 0.11445255E+01</totfact>
</mgrwt>
</event>
<event>
12    6  0.1403409E-007  0.1667385E+04  0.7818608E-02  0.8780188E-01
         -1   -1    0    0    0  501 -0.00000000000E+00  0.00000000000E+00  0.18243825639E+03  0.18243825639E+03  0.00000000000E+00 0.  1.
          2   -1    0    0  501    0  0.00000000000E+00 -0.00000000000E+00 -0.38097442925E+04  0.38097442925E+04  0.00000000000E+00 0. -1.
         24    2    1    2    0    0 -0.21207304659E+01 -0.21581102355E+03  0.18071325772E+02  0.23090029537E+03  0.80059216863E+02 0.  0.
        254    2    1    2    0    0  0.21207304659E+01  0.21581102355E+03 -0.36453773619E+04  0.37612822535E+04  0.90104893583E+03 0.  0.
         23    2    4    4    0    0  0.28964929417E+03  0.44588868222E+03 -0.23568091206E+04  0.24177861732E+04  0.91800424837E+02 0.  0.
         23    2    4    4    0    0 -0.28752856371E+03 -0.23007765866E+03 -0.12885682413E+04  0.13434960803E+04  0.94684747179E+02 0.  0.
          4    1    3    3  502    0 -0.34051029052E+02 -0.84793825308E+02 -0.13592391265E+02  0.92380833998E+02  0.00000000000E+00 0. -1.
         -3    1    3    3    0  502  0.31930298586E+02 -0.13101719824E+03  0.31663717037E+02  0.13851946138E+03  0.00000000000E+00 0.  1.
         11    1    5    5    0    0  0.26304524394E+03  0.33714531970E+03 -0.18644682885E+04  0.19128778753E+04  0.00000000000E+00 0.  1.
        -11    1    5    5    0    0  0.26604050233E+02  0.10874336252E+03 -0.49234083214E+03  0.50490829798E+03  0.00000000000E+00 0. -1.
          1    1    6    6  503    0 -0.20495154760E+03 -0.21211928462E+03 -0.10356165504E+04  0.10768014521E+04  0.00000000000E+00 0. -1.
         -1    1    6    6    0  503 -0.82577016109E+02 -0.17958374040E+02 -0.25295169091E+03  0.26669462822E+03  0.00000000000E+00 0.  1.
<mgrwt>
<rscale>  0 0.16673849E+04</rscale>
<asrwt>0</asrwt>
<pdfrwt beam="1">  1        2 0.58611448E+00 0.16673849E+04</pdfrwt>
<pdfrwt beam="2">  1       -1 0.28067425E-01 0.16673849E+04</pdfrwt>
<totfact> 0.61031774E+00</totfact>
</mgrwt>
</event>
<event>
12    6  0.1403409E-007  0.1529198E+04  0.7818608E-02  0.8865265E-01
          2   -1    0    0  501    0  0.00000000000E+00  0.00000000000E+00  0.13187244303E+04  0.13187244303E+04  0.00000000000E+00 0. -1.
         -1   -1    0    0    0  501 -0.00000000000E+00 -0.00000000000E+00 -0.44331619707E+03  0.44331619707E+03  0.00000000000E+00 0.  1.
         24    2    1    2    0    0  0.62982493069E+02 -0.47037132872E+03  0.12348848922E+03  0.49710803618E+03  0.81553732846E+02 0.  0.
        254    2    1    2    0    0 -0.62982493069E+02  0.47037132872E+03  0.75191974402E+03  0.12649325912E+04  0.89969726993E+03 0.  0.
         23    2    4    4    0    0 -0.40458495122E+02 -0.24626682076E+03  0.34258032498E+03  0.43433732944E+03  0.94886246872E+02 0.  0.
         23    2    4    4    0    0 -0.22523997947E+02  0.71663814949E+03  0.40933941904E+03  0.83059526176E+03  0.90841406310E+02 0.  0.
          2    1    3    3  502    0  0.20131362825E+02 -0.14065344610E+03  0.76324422966E+02  0.16128881304E+03  0.00000000000E+00 0. -1.
         -1    1    3    3    0  502  0.42851130244E+02 -0.32971788262E+03  0.47164066253E+02  0.33581922314E+03  0.00000000000E+00 0.  1.
         11    1    5    5    0    0  0.12802078786E+02 -0.16639928694E+02  0.33679399992E+01  0.21263195151E+02  0.00000000000E+00 0. -1.
        -11    1    5    5    0    0 -0.53260573908E+02 -0.22962689207E+03  0.33921238498E+03  0.41307413429E+03  0.00000000000E+00 0.  1.
          3    1    6    6  503    0  0.35130166780E+02  0.29501206557E+03  0.17429133202E+03  0.34444697105E+03  0.00000000000E+00 0. -1.
         -3    1    6    6    0  503 -0.57654164726E+02  0.42162608392E+03  0.23504808701E+03  0.48614829071E+03  0.00000000000E+00 0.  1.
<mgrwt>
<rscale>  0 0.15291984E+04</rscale>
<asrwt>0</asrwt>
<pdfrwt beam="1">  1        2 0.20288068E+00 0.15291984E+04</pdfrwt>
<pdfrwt beam="2">  1       -1 0.68202492E-01 0.15291984E+04</pdfrwt>
<totfact> 0.38557443E+01</totfact>
</mgrwt>
</event>
<event>
12    6  0.1403409E-007  0.1975451E+04  0.7818608E-02  0.8618185E-01
         -1   -1    0    0    0  501 -0.00000000000E+00  0.00000000000E+00  0.59804767835E+03  0.59804767835E+03  0.00000000000E+00 0.  1.
          2   -1    0    0  501    0  0.00000000000E+00 -0.00000000000E+00 -0.16313111638E+04  0.16313111638E+04  0.00000000000E+00 0. -1.
         24    2    1    2    0    0  0.18969984875E+02  0.60652220185E+03 -0.96332973837E+03  0.11415175293E+04  0.82638025205E+02 0.  0.
        254    2    1    2    0    0 -0.18969984875E+02 -0.60652220185E+03 -0.69933747089E+02  0.10878413129E+04  0.90015495962E+03 0.  0.
         23    2    4    4    0    0 -0.57095435440E+02 -0.64251131490E+03  0.29039535277E+03  0.71311164981E+03  0.90100419877E+02 0.  0.
         23    2    4    4    0    0  0.38125450565E+02  0.35989113045E+02 -0.36032909986E+03  0.37472966306E+03  0.88523973764E+02 0.  0.
          2    1    3    3  502    0  0.39524115709E+02  0.50127537028E+03 -0.82976525142E+03  0.97023168627E+03  0.00000000000E+00 0. -1.
         -1    1    3    3    0  502 -0.20554130834E+02  0.10524683157E+03 -0.13356448696E+03  0.17128584304E+03  0.00000000000E+00 0.  1.
         11    1    5    5    0    0 -0.31864488891E+02 -0.57966112291E+02  0.26383519458E+02  0.71214506425E+02  0.00000000000E+00 0.  1.
        -11    1    5    5    0    0 -0.25230946549E+02 -0.58454520261E+03  0.26401183331E+03  0.64189714338E+03  0.00000000000E+00 0. -1.
          3    1    6    6  503    0  0.52877213052E+02  0.56253467432E+02 -0.28856389682E+03  0.29871319824E+03  0.00000000000E+00 0. -1.
         -3    1    6    6    0  503 -0.14751762487E+02 -0.20264354386E+02 -0.71765203044E+02  0.76016464816E+02  0.00000000000E+00 0.  1.
<mgrwt>
<rscale>  0 0.19754512E+04</rscale>
<asrwt>0</asrwt>
<pdfrwt beam="1">  1        2 0.25097094E+00 0.19754512E+04</pdfrwt>
<pdfrwt beam="2">  1       -1 0.92007338E-01 0.19754512E+04</pdfrwt>
<totfact> 0.13064460E+01</totfact>
</mgrwt>
</event>
<event>
12    6  0.1403409E-007  0.3316392E+04  0.7818608E-02  0.8158737E-01
          2   -1    0    0  501    0  0.00000000000E+00  0.00000000000E+00  0.23679087504E+04  0.23679087504E+04  0.00000000000E+00 0. -1.
         -1   -1    0    0    0  501 -0.00000000000E+00 -0.00000000000E+00 -0.11611995760E+04  0.11611995760E+04  0.00000000000E+00 0.  1.
         24    2    1    2    0    0 -0.10188536571E+04  0.67311056332E+03  0.15498210193E+04  0.19747040578E+04  0.79814277276E+02 0.  0.
        254    2    1    2    0    0  0.10188536571E+04 -0.67311056332E+03 -0.34311184495E+03  0.15544042686E+04  0.89850224647E+03 0.  0.
         23    2    4    4    0    0  0.96377411244E+03 -0.31192063340E+03  0.37859665380E+02  0.10177691287E+04  0.90915475768E+02 0.  0.
         23    2    4    4    0    0  0.55079544689E+02 -0.36118992992E+03 -0.38097151033E+03  0.53663513986E+03  0.96675022298E+02 0.  0.
          4    1    3    3  502    0 -0.52775169731E+03  0.37120112620E+03  0.87505136151E+03  0.10872106582E+04  0.00000000000E+00 0. -1.
         -3    1    3    3    0  502 -0.49110195982E+03  0.30190943712E+03  0.67476965781E+03  0.88749339956E+03  0.00000000000E+00 0.  1.
         11    1    5    5    0    0  0.16979004354E+03 -0.92065817505E+02  0.11504129248E+02  0.19348674019E+03  0.00000000000E+00 0.  1.
        -11    1    5    5    0    0  0.79398406889E+03 -0.21985481589E+03  0.26355536131E+02  0.82428238851E+03  0.00000000000E+00 0. -1.
          3    1    6    6  503    0  0.25585742685E+02 -0.73090522993E+02 -0.33703681042E+02  0.84455863597E+02  0.00000000000E+00 0.  1.
         -3    1    6    6    0  503  0.29493802004E+02 -0.28809940693E+03 -0.34726782928E+03  0.45217927627E+03  0.00000000000E+00 0. -1.
<mgrwt>
<rscale>  0 0.33163924E+04</rscale>
<asrwt>0</asrwt>
<pdfrwt beam="1">  1        2 0.36429365E+00 0.33163924E+04</pdfrwt>
<pdfrwt beam="2">  1       -1 0.17864609E+00 0.33163924E+04</pdfrwt>
<totfact> 0.83678973E-01</totfact>
</mgrwt>
</event>
<event>
12    6  0.1403409E-007  0.1940863E+04  0.7818608E-02  0.8634780E-01
         -1   -1    0    0    0  501 -0.00000000000E+00  0.00000000000E+00  0.37937113144E+03  0.37937113144E+03  0.00000000000E+00 0.  1.
          2   -1    0    0  501    0  0.00000000000E+00 -0.00000000000E+00 -0.24823632709E+04  0.24823632709E+04  0.00000000000E+00 0. -1.
         24    2    1    2    0    0  0.27038309876E+03  0.14615689877E+03  0.19624975173E+03  0.37355702461E+03  0.81006335747E+02 0.  0.
        254    2    1    2    0    0 -0.27038309876E+03 -0.14615689877E+03 -0.22992418912E+04  0.24881773778E+04  0.90002473839E+03 0.  0.
         23    2    4    4    0    0  0.13248370983E+03  0.25786704883E+03 -0.12898270506E+04  0.13250448307E+04  0.89680738484E+02 0.  0.
         23    2    4    4    0    0 -0.40286680859E+03 -0.40402394760E+03 -0.10094148406E+04  0.11631325470E+04  0.91771377395E+02 0.  0.
          2    1    3    3  502    0  0.18799474819E+02  0.11296616482E+02 -0.71325621642E+01  0.23063114283E+02  0.00000000000E+00 0. -1.
         -1    1    3    3    0  502  0.25158362394E+03  0.13486028229E+03  0.20338231389E+03  0.35049391033E+03  0.00000000000E+00 0.  1.
         11    1    5    5    0    0  0.12641721972E+03  0.17737585054E+03 -0.82544316300E+03  0.85369779263E+03  0.00000000000E+00 0.  1.
        -11    1    5    5    0    0  0.60664901121E+01  0.80491198288E+02 -0.46438388758E+03  0.47134703812E+03  0.00000000000E+00 0. -1.
          4    1    6    6  503    0 -0.43186827629E+02 -0.34464840446E+02 -0.53098293803E+02  0.76631299822E+02  0.00000000000E+00 0. -1.
         -4    1    6    6    0  503 -0.35967998097E+03 -0.36955910715E+03 -0.95631654683E+03  0.10865012472E+04  0.00000000000E+00 0.  1.
<mgrwt>
<rscale>  0 0.19408627E+04</rscale>
<asrwt>0</asrwt>
<pdfrwt beam="1">  1        2 0.38190205E+00 0.19408627E+04</pdfrwt>
<pdfrwt beam="2">  1       -1 0.58364789E-01 0.19408627E+04</pdfrwt>
<totfact> 0.11273967E+01</totfact>
</mgrwt>
</event>
<event>
12    6  0.1403409E-007  0.1906875E+04  0.7818608E-02  0.8651442E-01
          2   -1    0    0  501    0  0.00000000000E+00  0.00000000000E+00  0.36875404390E+04  0.36875404390E+04  0.00000000000E+00 0. -1.
         -1   -1    0    0    0  501 -0.00000000000E+00 -0.00000000000E+00 -0.24651749150E+03  0.24651749150E+03  0.00000000000E+00 0.  1.
         24    2    1    2    0    0 -0.53435804648E+03  0.51091075965E+03  0.13268468047E+04  0.15210096571E+04  0.79872447374E+02 0.  0.
        254    2    1    2    0    0  0.53435804648E+03 -0.51091075965E+03  0.21141761428E+04  0.24130482734E+04  0.89804948669E+03 0.  0.
         23    2    4    4    0    0  0.40073058248E+03 -0.57574009590E+03  0.21234219287E+04  0.22381874984E+04  0.92200505230E+02 0.  0.
         23    2    4    4    0    0  0.13362746400E+03  0.64829336253E+02 -0.92457858108E+01  0.17486077498E+03  0.91824093227E+02 0.  0.
          4    1    3    3  502    0 -0.21117484507E+03  0.17113525710E+03  0.55252096295E+03  0.61576091619E+03  0.00000000000E+00 0. -1.
         -3    1    3    3    0  502 -0.32318320141E+03  0.33977550255E+03  0.77432584173E+03  0.90524874094E+03  0.00000000000E+00 0.  1.
         11    1    5    5    0    0  0.32317919711E+03 -0.50851825256E+03  0.18738707052E+04  0.19683564277E+04  0.00000000000E+00 0. -1.
        -11    1    5    5    0    0  0.77551385370E+02 -0.67221843344E+02  0.24955122348E+03  0.26983107074E+03  0.00000000000E+00 0.  1.
          2    1    6    6  503    0  0.78034162066E+02  0.21080504507E+02 -0.48190368514E+02  0.94106480845E+02  0.00000000000E+00 0. -1.
         -2    1    6    6    0  503  0.55593301935E+02  0.43748831746E+02  0.38944582703E+02  0.80754294134E+02  0.00000000000E+00 0.  1.
<mgrwt>
<rscale>  0 0.19068752E+04</rscale>
<asrwt>0</asrwt>
<pdfrwt beam="1">  1        2 0.56731387E+00 0.19068752E+04</pdfrwt>
<pdfrwt beam="2">  1       -1 0.37925771E-01 0.19068752E+04</pdfrwt>
<totfact> 0.43009808E+00</totfact>
</mgrwt>
</event>
<event>
12    6  0.1403409E-007  0.2393176E+04  0.7818608E-02  0.8442063E-01
         -1   -1    0    0    0  501 -0.00000000000E+00  0.00000000000E+00  0.10440470342E+04  0.10440470342E+04  0.00000000000E+00 0.  1.
          2   -1    0    0  501    0  0.00000000000E+00 -0.00000000000E+00 -0.13714163245E+04  0.13714163245E+04  0.00000000000E+00 0. -1.
         24    2    1    2    0    0 -0.83716242760E+03 -0.51810092177E+03 -0.43044404312E+03  0.10774379344E+04  0.79504294332E+02 0.  0.
        254    2    1    2    0    0  0.83716242760E+03  0.51810092177E+03  0.10307475282E+03  0.13380254243E+04  0.90023226780E+03 0.  0.
         23    2    4    4    0    0  0.86611603469E+03  0.56852122258E+03  0.32606736744E+03  0.10901297389E+04  0.93217774763E+02 0.  0.
         23    2    4    4    0    0 -0.28953607086E+02 -0.50420300810E+02 -0.22299261462E+03  0.24789568533E+03  0.91356699454E+02 0.  0.
          2    1    3    3  502    0 -0.19388105812E+03 -0.13774870211E+03 -0.13778329334E+03  0.27486142974E+03  0.00000000000E+00 0. -1.
         -1    1    3    3    0  502 -0.64328136948E+03 -0.38035221965E+03 -0.29266074978E+03  0.80257650462E+03  0.00000000000E+00 0.  1.
         11    1    5    5    0    0  0.50474503157E+03  0.28427051321E+03  0.20734506445E+03  0.61527981222E+03  0.00000000000E+00 0. -1.
        -11    1    5    5    0    0  0.36137100312E+03  0.28425070937E+03  0.11872230299E+03  0.47484992671E+03  0.00000000000E+00 0.  1.
          1    1    6    6  503    0 -0.34349861968E+02  0.12664303118E+02 -0.39833253725E+02  0.54101623755E+02  0.00000000000E+00 0. -1.
         -1    1    6    6    0  503  0.53962548819E+01 -0.63084603928E+02 -0.18315936090E+03  0.19379406158E+03  0.00000000000E+00 0.  1.
<mgrwt>
<rscale>  0 0.23931763E+04</rscale>
<asrwt>0</asrwt>
<pdfrwt beam="1">  1        2 0.21098713E+00 0.23931763E+04</pdfrwt>
<pdfrwt beam="2">  1       -1 0.16062262E+00 0.23931763E+04</pdfrwt>
<totfact> 0.44538738E+00</totfact>
</mgrwt>
</event>
<event>
12    6  0.1403409E-007  0.2685490E+04  0.7818608E-02  0.8339728E-01
          2   -1    0    0  501    0  0.00000000000E+00  0.00000000000E+00  0.17041718996E+04  0.17041718996E+04  0.00000000000E+00 0. -1.
         -1   -1    0    0    0  501 -0.00000000000E+00 -0.00000000000E+00 -0.10579709709E+04  0.10579709709E+04  0.00000000000E+00 0.  1.
         24    2    1    2    0    0 -0.69217355988E+03 -0.95236322631E+03  0.52311374067E+03  0.12908018314E+04  0.80133828502E+02 0.  0.
        254    2    1    2    0    0  0.69217355988E+03  0.95236322631E+03  0.12308718806E+03  0.14713410391E+04  0.87383868401E+03 0.  0.
         23    2    4    4    0    0  0.10035137100E+03 -0.15160258278E+03 -0.35206838070E+02  0.20556917839E+03  0.89249229061E+02 0.  0.
         23    2    4    4    0    0  0.59182218888E+03  0.11039658091E+04  0.15829402613E+03  0.12657718607E+04  0.90152059174E+02 0.  0.
          2    1    3    3  502    0 -0.18050030389E+03 -0.31053570797E+03  0.15411495860E+03  0.39085061865E+03  0.00000000000E+00 0. -1.
         -1    1    3    3    0  502 -0.51167325599E+03 -0.64182751834E+03  0.36899878207E+03  0.89995121276E+03  0.00000000000E+00 0.  1.
         11    1    5    5    0    0 -0.10257562658E+02 -0.38356914507E+02 -0.25043810621E+02  0.46943188351E+02  0.00000000000E+00 0. -1.
        -11    1    5    5    0    0  0.11060893366E+03 -0.11324566828E+03 -0.10163027449E+02  0.15862599004E+03  0.00000000000E+00 0.  1.
          1    1    6    6  503    0  0.33139543254E+03  0.53118282598E+03  0.97603486554E+02  0.63364388099E+03  0.00000000000E+00 0. -1.
         -1    1    6    6    0  503  0.26042675634E+03  0.57278298312E+03  0.60690539580E+02  0.63212797973E+03  0.00000000000E+00 0.  1.
<mgrwt>
<rscale>  0 0.26854902E+04</rscale>
<asrwt>0</asrwt>
<pdfrwt beam="1">  1        2 0.26218029E+00 0.26854902E+04</pdfrwt>
<pdfrwt beam="2">  1       -1 0.16276476E+00 0.26854902E+04</pdfrwt>
<totfact> 0.27166358E+00</totfact>
</mgrwt>
</event>
<event>
12    6  0.1403409E-007  0.1220476E+04  0.7818608E-02  0.9095120E-01
         -1   -1    0    0    0  501 -0.00000000000E+00  0.00000000000E+00  0.49833874924E+03  0.49833874924E+03  0.00000000000E+00 0.  1.
          2   -1    0    0  501    0  0.00000000000E+00 -0.00000000000E+00 -0.74726346938E+03  0.74726346938E+03  0.00000000000E+00 0. -1.
         24    2    1    2    0    0  0.22892493509E+03  0.31121959972E+02 -0.20487981277E+03  0.31486828676E+03  0.61571893144E+02 0.  0.
        254    2    1    2    0    0 -0.22892493509E+03 -0.31121959972E+02 -0.44044907369E+02  0.93073393186E+03  0.90052789838E+03 0.  0.
         23    2    4    4    0    0 -0.30648230937E+03  0.73468757591E+02 -0.41385448326E+03  0.52846347563E+03  0.93107719646E+02 0.  0.
         23    2    4    4    0    0  0.77557374280E+02 -0.10459071756E+03  0.36980957589E+03  0.40227045623E+03  0.90044616909E+02 0.  0.
          2    1    3    3  502    0  0.20279654832E+03  0.26384976708E+02 -0.20314990878E+03  0.28825768410E+03  0.00000000000E+00 0. -1.
         -1    1    3    3    0  502  0.26128386776E+02  0.47369832637E+01 -0.17299039879E+01  0.26610602657E+02  0.00000000000E+00 0.  1.
         11    1    5    5    0    0 -0.24315855694E+03  0.78833854075E+02 -0.27330659693E+03  0.37421565479E+03  0.00000000000E+00 0. -1.
        -11    1    5    5    0    0 -0.63323752432E+02 -0.53650964842E+01 -0.14054788633E+03  0.15424782084E+03  0.00000000000E+00 0.  1.
          2    1    6    6  503    0  0.51211283115E+02 -0.11784405909E+03  0.29018421155E+03  0.31735893624E+03  0.00000000000E+00 0. -1.
         -2    1    6    6    0  503  0.26346091164E+02  0.13253341523E+02  0.79625364341E+02  0.84911519993E+02  0.00000000000E+00 0.  1.
<mgrwt>
<rscale>  0 0.12204759E+04</rscale>
<asrwt>0</asrwt>
<pdfrwt beam="1">  1        2 0.11496361E+00 0.12204759E+04</pdfrwt>
<pdfrwt beam="2">  1       -1 0.76667500E-01 0.12204759E+04</pdfrwt>
<totfact> 0.72413180E+01</totfact>
</mgrwt>
</event>
<event>
12    6  0.1403409E-007  0.1293367E+04  0.7818608E-02  0.9034842E-01
          2   -1    0    0  501    0  0.00000000000E+00  0.00000000000E+00  0.29251054987E+03  0.29251054987E+03  0.00000000000E+00 0. -1.
         -1   -1    0    0    0  501 -0.00000000000E+00 -0.00000000000E+00 -0.14296903745E+04  0.14296903745E+04  0.00000000000E+00 0.  1.
         24    2    1    2    0    0 -0.16390563646E+03  0.31580455948E+02 -0.66770291543E+03  0.69286409394E+03  0.79819086239E+02 0.  0.
        254    2    1    2    0    0  0.16390563646E+03 -0.31580455948E+02 -0.46947690916E+03  0.10293368304E+04  0.90070159282E+03 0.  0.
         23    2    4    4    0    0 -0.10530417027E+03  0.23407268181E+03  0.14013523254E+03  0.30643796985E+03  0.91582516451E+02 0.  0.
         23    2    4    4    0    0  0.26920980673E+03 -0.26565313776E+03 -0.60961214170E+03  0.72289886055E+03  0.88939809043E+02 0.  0.
          4    1    3    3  502    0 -0.22299888568E+02 -0.23930802801E+02 -0.10592975521E+03  0.11086514958E+03  0.00000000000E+00 0. -1.
         -3    1    3    3    0  502 -0.14160574789E+03  0.55511258749E+02 -0.56177316022E+03  0.58199894435E+03  0.00000000000E+00 0.  1.
         11    1    5    5    0    0 -0.79710072675E+02  0.15032418335E+03  0.42687835981E+02  0.17542322288E+03  0.00000000000E+00 0.  1.
        -11    1    5    5    0    0 -0.25594097592E+02  0.83748498462E+02  0.97447396564E+02  0.13101474697E+03  0.00000000000E+00 0. -1.
          3    1    6    6  503    0  0.22463895623E+03 -0.25691219969E+03 -0.55857247764E+03  0.65457600917E+03  0.00000000000E+00 0. -1.
         -3    1    6    6    0  503  0.44570850503E+02 -0.87409380631E+01 -0.51039664065E+02  0.68322851380E+02  0.00000000000E+00 0.  1.
<mgrwt>
<rscale>  0 0.12933670E+04</rscale>
<asrwt>0</asrwt>
<pdfrwt beam="1">  1        2 0.45001622E-01 0.12933670E+04</pdfrwt>
<pdfrwt beam="2">  1       -1 0.21995237E+00 0.12933670E+04</pdfrwt>
<totfact> 0.13979985E+01</totfact>
</mgrwt>
</event>
<event>
12    6  0.1403409E-007  0.1410608E+04  0.7818608E-02  0.8946176E-01
         -1   -1    0    0    0  501 -0.00000000000E+00  0.00000000000E+00  0.18476221540E+03  0.18476221540E+03  0.00000000000E+00 0.  1.
          2   -1    0    0  501    0  0.00000000000E+00 -0.00000000000E+00 -0.26923990593E+04  0.26923990593E+04  0.00000000000E+00 0. -1.
         24    2    1    2    0    0 -0.23063291593E+03 -0.12457870295E+03 -0.13961013296E+04  0.14227528792E+04  0.80096428072E+02 0.  0.
        254    2    1    2    0    0  0.23063291593E+03  0.12457870295E+03 -0.11115355143E+04  0.14544083955E+04  0.90060045861E+03 0.  0.
         23    2    4    4    0    0  0.41050892357E+03  0.36938223718E+03 -0.94033369886E+03  0.10941817059E+04  0.89695745624E+02 0.  0.
         23    2    4    4    0    0 -0.17987600764E+03 -0.24480353423E+03 -0.17120181547E+03  0.36022668959E+03  0.90382840068E+02 0.  0.
          2    1    3    3  502    0 -0.10389976388E+03 -0.12397398375E+02 -0.56033942392E+03  0.57002554892E+03  0.00000000000E+00 0. -1.
         -1    1    3    3    0  502 -0.12673315206E+03 -0.11218130457E+03 -0.83576190566E+03  0.85272733033E+03  0.00000000000E+00 0.  1.
         11    1    5    5    0    0  0.20134459518E+03  0.20379487931E+03 -0.40529161410E+03  0.49631974704E+03  0.00000000000E+00 0.  1.
        -11    1    5    5    0    0  0.20916432839E+03  0.16558735787E+03 -0.53504208475E+03  0.59786195883E+03  0.00000000000E+00 0. -1.
          1    1    6    6  503    0 -0.17396896997E+03 -0.19393104385E+03 -0.11680144324E+03  0.28551187265E+03  0.00000000000E+00 0. -1.
         -1    1    6    6    0  503 -0.59070376655E+01 -0.50872490386E+02 -0.54400372235E+02  0.74714816947E+02  0.00000000000E+00 0.  1.
<mgrwt>
<rscale>  0 0.14106078E+04</rscale>
<asrwt>0</asrwt>
<pdfrwt beam="1">  1        2 0.41421518E+00 0.14106078E+04</pdfrwt>
<pdfrwt beam="2">  1       -1 0.28424960E-01 0.14106078E+04</pdfrwt>
<totfact> 0.33511116E+01</totfact>
</mgrwt>
</event>
<event>
12    6  0.1403409E-007  0.2532512E+04  0.7818608E-02  0.8391494E-01
          2   -1    0    0  501    0  0.00000000000E+00  0.00000000000E+00  0.92137924863E+03  0.92137924863E+03  0.00000000000E+00 0. -1.
         -1   -1    0    0    0  501 -0.00000000000E+00 -0.00000000000E+00 -0.17402222936E+04  0.17402222936E+04  0.00000000000E+00 0.  1.
         24    2    1    2    0    0  0.41026402808E+03  0.10258196228E+04 -0.36155820348E+03  0.11650386857E+04  0.77254990454E+02 0.  0.
        254    2    1    2    0    0 -0.41026402808E+03 -0.10258196228E+04 -0.45728484150E+03  0.14965628565E+04  0.89998249207E+03 0.  0.
         23    2    4    4    0    0 -0.53053021720E+03 -0.10384457961E+04 -0.57738988359E+03  0.13044974069E+04  0.92208590091E+02 0.  0.
         23    2    4    4    0    0  0.12026618912E+03  0.12626173325E+02  0.12010504209E+03  0.19206544963E+03  0.88546819868E+02 0.  0.
          4    1    3    3  502    0  0.33337165320E+03  0.74308217433E+03 -0.26003254175E+03  0.85494134286E+03  0.00000000000E+00 0. -1.
         -3    1    3    3    0  502  0.76892374877E+02  0.28273744844E+03 -0.10152566173E+03  0.31009734287E+03  0.00000000000E+00 0.  1.
         11    1    5    5    0    0 -0.58853201156E+02 -0.10231642027E+03 -0.29329061431E+02  0.12162459861E+03  0.00000000000E+00 0.  1.
        -11    1    5    5    0    0 -0.47167701604E+03 -0.93612937583E+03 -0.54806082216E+03  0.11828728083E+04  0.00000000000E+00 0. -1.
          1    1    6    6  503    0  0.59135349928E+02  0.50672455988E+02  0.62293508845E+02  0.99725466412E+02  0.00000000000E+00 0. -1.
         -1    1    6    6    0  503  0.61130839192E+02 -0.38046282664E+02  0.57811533248E+02  0.92339983222E+02  0.00000000000E+00 0.  1.
<mgrwt>
<rscale>  0 0.25325124E+04</rscale>
<asrwt>0</asrwt>
<pdfrwt beam="1">  1        2 0.14175065E+00 0.25325124E+04</pdfrwt>
<pdfrwt beam="2">  1       -1 0.26772651E+00 0.25325124E+04</pdfrwt>
<totfact> 0.15377924E+00</totfact>
</mgrwt>
</event>
<event>
12    6  0.1403409E-007  0.1348558E+04  0.7818608E-02  0.8991920E-01
         -1   -1    0    0    0  501 -0.00000000000E+00  0.00000000000E+00  0.18519347626E+03  0.18519347626E+03  0.00000000000E+00 0.  1.
          2   -1    0    0  501    0  0.00000000000E+00 -0.00000000000E+00 -0.24550124446E+04  0.24550124446E+04  0.00000000000E+00 0. -1.
         24    2    1    2    0    0  0.14478459547E+03  0.33829012323E+03 -0.61662294072E+03  0.72277520963E+03  0.82324759783E+02 0.  0.
        254    2    1    2    0    0 -0.14478459547E+03 -0.33829012323E+03 -0.16531960276E+04  0.19174307112E+04  0.89893305651E+03 0.  0.
         23    2    4    4    0    0 -0.32462325625E+03  0.74702104028E+02 -0.12790077006E+04  0.13247859950E+04  0.90755559748E+02 0.  0.
         23    2    4    4    0    0  0.17983866078E+03 -0.41299222725E+03 -0.37418832703E+03  0.59264471620E+03  0.91139079824E+02 0.  0.
          2    1    3    3  502    0 -0.66919283922E+01  0.38028954547E+01 -0.27791475942E+02  0.28837649947E+02  0.00000000000E+00 0. -1.
         -1    1    3    3    0  502  0.15147652386E+03  0.33448722777E+03 -0.58883146478E+03  0.69393755968E+03  0.00000000000E+00 0.  1.
         11    1    5    5    0    0 -0.56335176296E+02  0.27486753429E+02 -0.38913135271E+03  0.39414766695E+03  0.00000000000E+00 0. -1.
        -11    1    5    5    0    0 -0.26828807995E+03  0.47215350599E+02 -0.88987634787E+03  0.93063832807E+03  0.00000000000E+00 0.  1.
          2    1    6    6  503    0  0.22009621830E+02 -0.15721893097E+03 -0.13915750605E+03  0.21110904102E+03  0.00000000000E+00 0. -1.
         -2    1    6    6    0  503  0.15782903895E+03 -0.25577329628E+03 -0.23503082097E+03  0.38153567518E+03  0.00000000000E+00 0.  1.
<mgrwt>
<rscale>  0 0.13485582E+04</rscale>
<asrwt>0</asrwt>
<pdfrwt beam="1">  1        2 0.37769425E+00 0.13485582E+04</pdfrwt>
<pdfrwt beam="2">  1       -1 0.28491302E-01 0.13485582E+04</pdfrwt>
<totfact> 0.46106739E+01</totfact>
</mgrwt>
</event>
<event>
12    6  0.1403409E-007  0.1229695E+04  0.7818608E-02  0.9087254E-01
          2   -1    0    0  501    0  0.00000000000E+00  0.00000000000E+00  0.23470045555E+04  0.23470045555E+04  0.00000000000E+00 0. -1.
         -1   -1    0    0    0  501 -0.00000000000E+00 -0.00000000000E+00 -0.16107239860E+03  0.16107239860E+03  0.00000000000E+00 0.  1.
         24    2    1    2    0    0  0.23229948227E+03 -0.13619832497E+03  0.39520800458E+03  0.48492201833E+03  0.80292987195E+02 0.  0.
        254    2    1    2    0    0 -0.23229948227E+03  0.13619832497E+03  0.17907241523E+04  0.20231549358E+04  0.90219170428E+03 0.  0.
         23    2    4    4    0    0  0.17165923514E+03  0.11355564447E+03  0.46706069149E+02  0.23054314853E+03  0.92773428497E+02 0.  0.
         23    2    4    4    0    0 -0.40395871741E+03  0.22642680497E+02  0.17440180832E+04  0.17926117873E+04  0.90347158262E+02 0.  0.
          4    1    3    3  502    0  0.39479033666E+02 -0.82535491864E+01  0.11291998645E+03  0.11990679094E+03  0.00000000000E+00 0. -1.
         -3    1    3    3    0  502  0.19282044860E+03 -0.12794477578E+03  0.28228801813E+03  0.36501522739E+03  0.00000000000E+00 0.  1.
         11    1    5    5    0    0  0.11552523716E+03  0.41723902153E+02  0.62827870333E+02  0.13796487134E+03  0.00000000000E+00 0.  1.
        -11    1    5    5    0    0  0.56133997981E+02  0.71831742317E+02 -0.16121801184E+02  0.92578277188E+02  0.00000000000E+00 0. -1.
          3    1    6    6  503    0 -0.80754700906E+02  0.33515861351E+01  0.53142412266E+03  0.53753525744E+03  0.00000000000E+00 0. -1.
         -3    1    6    6    0  503 -0.32320401651E+03  0.19291094362E+02  0.12125939605E+04  0.12550765298E+04  0.00000000000E+00 0.  1.
<mgrwt>
<rscale>  0 0.12296953E+04</rscale>
<asrwt>0</asrwt>
<pdfrwt beam="1">  1        2 0.36107760E+00 0.12296953E+04</pdfrwt>
<pdfrwt beam="2">  1       -1 0.24780371E-01 0.12296953E+04</pdfrwt>
<totfact> 0.68281755E+01</totfact>
</mgrwt>
</event>
<event>
12    6  0.1403409E-007  0.4783900E+04  0.7818608E-02  0.7862736E-01
         -1   -1    0    0    0  501 -0.00000000000E+00  0.00000000000E+00  0.13593895548E+04  0.13593895548E+04  0.00000000000E+00 0.  1.
          2   -1    0    0  501    0  0.00000000000E+00 -0.00000000000E+00 -0.42088197363E+04  0.42088197363E+04  0.00000000000E+00 0. -1.
         24    2    1    2    0    0  0.19187424408E+04  0.10989173043E+04 -0.21384334145E+04  0.30770982837E+04  0.80278162009E+02 0.  0.
        254    2    1    2    0    0 -0.19187424408E+04 -0.10989173043E+04 -0.71099676697E+03  0.24911110074E+04  0.90051421558E+03 0.  0.
         23    2    4    4    0    0 -0.18439049088E+04 -0.86149058785E+03 -0.83066132464E+03  0.22001301246E+04  0.91776811278E+02 0.  0.
         23    2    4    4    0    0 -0.74837532012E+02 -0.23742671646E+03  0.11966455767E+03  0.29098088280E+03  0.91532321648E+02 0.  0.
          2    1    3    3  502    0  0.76130692584E+03  0.48143331626E+03 -0.87280786515E+03  0.12542566894E+04  0.00000000000E+00 0. -1.
         -1    1    3    3    0  502  0.11574355150E+04  0.61748398805E+03 -0.12656255493E+04  0.18228415943E+04  0.00000000000E+00 0.  1.
         11    1    5    5    0    0 -0.15259771072E+04 -0.75054642301E+03 -0.69351511571E+03  0.18365427521E+04  0.00000000000E+00 0. -1.
        -11    1    5    5    0    0 -0.31792780167E+03 -0.11094416484E+03 -0.13714620893E+03  0.36358737245E+03  0.00000000000E+00 0.  1.
          2    1    6    6  503    0  0.13798999021E+02 -0.62241511608E+02  0.57914549625E+01  0.64015303576E+02  0.00000000000E+00 0. -1.
         -2    1    6    6    0  503 -0.88636531033E+02 -0.17518520485E+03  0.11387310271E+03  0.22696557922E+03  0.00000000000E+00 0.  1.
<mgrwt>
<rscale>  0 0.47839003E+04</rscale>
<asrwt>0</asrwt>
<pdfrwt beam="1">  1        2 0.64751073E+00 0.47839003E+04</pdfrwt>
<pdfrwt beam="2">  1       -1 0.20913685E+00 0.47839003E+04</pdfrwt>
<totfact> 0.24854977E-02</totfact>
</mgrwt>
</event>
<event>
12    6  0.1403409E-007  0.1896741E+04  0.7818608E-02  0.8656480E-01
         -1   -1    0    0    0  501 -0.00000000000E+00  0.00000000000E+00  0.92468505372E+03  0.92468505372E+03  0.00000000000E+00 0.  1.
          2   -1    0    0  501    0  0.00000000000E+00 -0.00000000000E+00 -0.97266258046E+03  0.97266258046E+03  0.00000000000E+00 0. -1.
         24    2    1    2    0    0  0.37450465688E+03  0.60629560096E+02  0.60777710262E+03  0.72107910792E+03  0.81439497962E+02 0.  0.
        254    2    1    2    0    0 -0.37450465688E+03 -0.60629560096E+02 -0.65575462936E+03  0.11762685263E+04  0.89981321971E+03 0.  0.
         23    2    4    4    0    0 -0.44271744443E+03  0.27681375292E+03 -0.13760616571E+03  0.54761035255E+03  0.91197872605E+02 0.  0.
         23    2    4    4    0    0  0.68212787548E+02 -0.33744331302E+03 -0.51814846366E+03  0.62865817371E+03  0.90621714306E+02 0.  0.
          4    1    3    3  502    0 -0.64385207524E+00 -0.17469385212E+01 -0.18070353268E+01  0.25945551380E+01  0.00000000000E+00 0. -1.
         -3    1    3    3    0  502  0.37514850895E+03  0.62376498617E+02  0.60958413794E+03  0.71848455278E+03  0.00000000000E+00 0.  1.
         11    1    5    5    0    0 -0.28176595814E+03  0.19803689725E+03 -0.49540724175E+02  0.34794389087E+03  0.00000000000E+00 0. -1.
        -11    1    5    5    0    0 -0.16095148628E+03  0.78776855674E+02 -0.88065441533E+02  0.19966646168E+03  0.00000000000E+00 0.  1.
          2    1    6    6  503    0  0.84088058485E+02 -0.31607435970E+03 -0.49547075282E+03  0.59368768670E+03  0.00000000000E+00 0. -1.
         -2    1    6    6    0  503 -0.15875270937E+02 -0.21368953319E+02 -0.22677710835E+02  0.34970487014E+02  0.00000000000E+00 0.  1.
<mgrwt>
<rscale>  0 0.18967409E+04</rscale>
<asrwt>0</asrwt>
<pdfrwt beam="1">  1        2 0.14964040E+00 0.18967409E+04</pdfrwt>
<pdfrwt beam="2">  1       -1 0.14225924E+00 0.18967409E+04</pdfrwt>
<totfact> 0.11270351E+01</totfact>
</mgrwt>
</event>
<event>
12    6  0.1403409E-007  0.2434102E+04  0.7818608E-02  0.8426846E-01
          2   -1    0    0  501    0  0.00000000000E+00  0.00000000000E+00  0.25673192239E+04  0.25673192239E+04  0.00000000000E+00 0. -1.
         -1   -1    0    0    0  501 -0.00000000000E+00 -0.00000000000E+00 -0.57694914738E+03  0.57694914738E+03  0.00000000000E+00 0.  1.
         24    2    1    2    0    0  0.75382622686E+03 -0.67220441899E+03  0.12287627529E+04  0.15925929548E+04  0.79885264864E+02 0.  0.
        254    2    1    2    0    0 -0.75382622686E+03  0.67220441899E+03  0.76160732366E+03  0.15516754165E+04  0.89863124896E+03 0.  0.
         23    2    4    4    0    0 -0.39923954477E+03  0.29755660262E+03  0.87929651631E+03  0.10145350262E+04  0.90480992541E+02 0.  0.
         23    2    4    4    0    0 -0.35458668209E+03  0.37464781637E+03 -0.11768919264E+03  0.53714039029E+03  0.92608592455E+02 0.  0.
          2    1    3    3  502    0  0.16482928944E+03 -0.12987829852E+03  0.30394346944E+03  0.36934902152E+03  0.00000000000E+00 0. -1.
         -1    1    3    3    0  502  0.58899693742E+03 -0.54232612047E+03  0.92481928345E+03  0.12232439333E+04  0.00000000000E+00 0.  1.
         11    1    5    5    0    0 -0.44723058179E+02  0.74169730743E+01  0.11286928712E+03  0.12163321667E+03  0.00000000000E+00 0. -1.
        -11    1    5    5    0    0 -0.35451648659E+03  0.29013962955E+03  0.76642722919E+03  0.89290180957E+03  0.00000000000E+00 0.  1.
          1    1    6    6  503    0 -0.25136286959E+03  0.26746211028E+03 -0.39835637946E+02  0.36919662877E+03  0.00000000000E+00 0. -1.
         -1    1    6    6    0  503 -0.10322381250E+03  0.10718570608E+03 -0.77853554695E+02  0.16794376152E+03  0.00000000000E+00 0.  1.
<mgrwt>
<rscale>  0 0.24341016E+04</rscale>
<asrwt>0</asrwt>
<pdfrwt beam="1">  1        2 0.39497218E+00 0.24341016E+04</pdfrwt>
<pdfrwt beam="2">  1       -1 0.88761409E-01 0.24341016E+04</pdfrwt>
<totfact> 0.40398924E+00</totfact>
</mgrwt>
</event>
<event>
12    6  0.1403409E-007  0.3296129E+04  0.7818608E-02  0.8163881E-01
          2   -1    0    0  501    0  0.00000000000E+00  0.00000000000E+00  0.90163894080E+03  0.90163894080E+03  0.00000000000E+00 0. -1.
         -1   -1    0    0    0  501 -0.00000000000E+00 -0.00000000000E+00 -0.30124211599E+04  0.30124211599E+04  0.00000000000E+00 0.  1.
         24    2    1    2    0    0 -0.18187991552E+02 -0.83170721253E+03  0.53952210256E+03  0.99407988532E+03  0.71014286176E+02 0.  0.
        254    2    1    2    0    0  0.18187991552E+02  0.83170721253E+03 -0.26503043216E+04  0.29199802154E+04  0.90005764837E+03 0.  0.
         23    2    4    4    0    0 -0.13010078924E+03  0.34811487180E+03 -0.22108187162E+04  0.22436790080E+04  0.90917083275E+02 0.  0.
         23    2    4    4    0    0  0.14828878079E+03  0.48359234074E+03 -0.43948560548E+03  0.67630120733E+03  0.91567521986E+02 0.  0.
          2    1    3    3  502    0 -0.22635033647E+02 -0.28308969509E+03  0.21948097305E+03  0.35892062875E+03  0.00000000000E+00 0. -1.
         -1    1    3    3    0  502  0.44470420949E+01 -0.54861751745E+03  0.32004112950E+03  0.63515925657E+03  0.00000000000E+00 0.  1.
         11    1    5    5    0    0 -0.85435668974E+02  0.25061161705E+03 -0.13093236350E+04  0.13358270163E+04  0.00000000000E+00 0.  1.
        -11    1    5    5    0    0 -0.44665120266E+02  0.97503254747E+02 -0.90149508111E+03  0.90785199175E+03  0.00000000000E+00 0. -1.
          3    1    6    6  503    0  0.26561855559E+02  0.20213898389E+03 -0.13743925103E+03  0.24587649075E+03  0.00000000000E+00 0. -1.
         -3    1    6    6    0  503  0.12172692523E+03  0.28145335684E+03 -0.30204635445E+03  0.43042471658E+03  0.00000000000E+00 0.  1.
<mgrwt>
<rscale>  0 0.32961288E+04</rscale>
<asrwt>0</asrwt>
<pdfrwt beam="1">  1        2 0.13871368E+00 0.32961288E+04</pdfrwt>
<pdfrwt beam="2">  1       -1 0.46344941E+00 0.32961288E+04</pdfrwt>
<totfact> 0.72753799E-02</totfact>
</mgrwt>
</event>
<event>
12    6  0.1403409E-007  0.1293900E+04  0.7818608E-02  0.9034417E-01
          2   -1    0    0  501    0  0.00000000000E+00  0.00000000000E+00  0.15216142754E+04  0.15216142754E+04  0.00000000000E+00 0. -1.
         -1   -1    0    0    0  501 -0.00000000000E+00 -0.00000000000E+00 -0.27506589413E+03  0.27506589413E+03  0.00000000000E+00 0.  1.
         24    2    1    2    0    0  0.12117307045E+03  0.55959650471E+01 -0.97418519163E+02  0.17469334699E+03  0.79455457825E+02 0.  0.
        254    2    1    2    0    0 -0.12117307045E+03 -0.55959650471E+01  0.13439669005E+04  0.16219868226E+04  0.89993332821E+03 0.  0.
         23    2    4    4    0    0  0.71438240526E+02  0.39062317582E+03  0.37511001676E+03  0.55383920108E+03  0.91326054804E+02 0.  0.
         23    2    4    4    0    0 -0.19261131098E+03 -0.39621914087E+03  0.96885688370E+03  0.10681476215E+04  0.90371209375E+02 0.  0.
          2    1    3    3  502    0  0.78270885636E+02  0.69453917033E+01 -0.12531790336E+02  0.79571450742E+02  0.00000000000E+00 0. -1.
         -1    1    3    3    0  502  0.42902184815E+02 -0.13494266562E+01 -0.84886728827E+02  0.95121896245E+02  0.00000000000E+00 0.  1.
         11    1    5    5    0    0  0.32906708827E+02  0.31091834944E+03  0.32958483577E+03  0.45428981441E+03  0.00000000000E+00 0. -1.
        -11    1    5    5    0    0  0.38531531699E+02  0.79704826378E+02  0.45525180985E+02  0.99549386672E+02  0.00000000000E+00 0.  1.
          1    1    6    6  503    0 -0.36851436353E+02 -0.14501501281E+03  0.25728583275E+03  0.29762960544E+03  0.00000000000E+00 0. -1.
         -1    1    6    6    0  503 -0.15575987462E+03 -0.25120412806E+03  0.71157105095E+03  0.77051801604E+03  0.00000000000E+00 0.  1.
<mgrwt>
<rscale>  0 0.12938998E+04</rscale>
<asrwt>0</asrwt>
<pdfrwt beam="1">  1        2 0.23409450E+00 0.12938998E+04</pdfrwt>
<pdfrwt beam="2">  1       -1 0.42317831E-01 0.12938998E+04</pdfrwt>
<totfact> 0.75693321E+01</totfact>
</mgrwt>
</event>
<event>
12    6  0.1403409E-007  0.2025151E+04  0.7818608E-02  0.8594951E-01
          2   -1    0    0  501    0  0.00000000000E+00  0.00000000000E+00  0.77102143935E+03  0.77102143935E+03  0.00000000000E+00 0. -1.
         -1   -1    0    0    0  501 -0.00000000000E+00 -0.00000000000E+00 -0.13298067490E+04  0.13298067490E+04  0.00000000000E+00 0.  1.
         24    2    1    2    0    0  0.55227556708E+03 -0.45950556914E+03  0.16264071897E+03  0.74145094531E+03  0.84521185361E+02 0.  0.
        254    2    1    2    0    0 -0.55227556708E+03  0.45950556914E+03 -0.72142602864E+03  0.13593772431E+04  0.90072043614E+03 0.  0.
         23    2    4    4    0    0  0.23576968419E+03  0.79131885543E+02 -0.23829903153E+03  0.35600325514E+03  0.90014942887E+02 0.  0.
         23    2    4    4    0    0 -0.78804525128E+03  0.38037368359E+03 -0.48312699711E+03  0.10033739879E+04  0.87454028349E+02 0.  0.
          4    1    3    3  502    0  0.32261909321E+03 -0.27751792611E+03  0.13809546862E+03  0.44740321531E+03  0.00000000000E+00 0. -1.
         -3    1    3    3    0  502  0.22965647387E+03 -0.18198764302E+03  0.24545250352E+02  0.29404773000E+03  0.00000000000E+00 0.  1.
         11    1    5    5    0    0  0.90111352624E+01  0.31462926521E+02 -0.27444831066E+02  0.42712235439E+02  0.00000000000E+00 0. -1.
        -11    1    5    5    0    0  0.22675854893E+03  0.47668959023E+02 -0.21085420047E+03  0.31329101970E+03  0.00000000000E+00 0.  1.
          2    1    6    6  503    0 -0.25206670906E+03  0.80811852291E+02 -0.16387284625E+03  0.31132377202E+03  0.00000000000E+00 0. -1.
         -2    1    6    6    0  503 -0.53597854222E+03  0.29956183130E+03 -0.31925415086E+03  0.69205021590E+03  0.00000000000E+00 0.  1.
<mgrwt>
<rscale>  0 0.20251514E+04</rscale>
<asrwt>0</asrwt>
<pdfrwt beam="1">  1        2 0.11861868E+00 0.20251514E+04</pdfrwt>
<pdfrwt beam="2">  1       -1 0.20458565E+00 0.20251514E+04</pdfrwt>
<totfact> 0.53564671E+00</totfact>
</mgrwt>
</event>
<event>
12    6  0.1403409E-007  0.1319477E+04  0.7818608E-02  0.9014261E-01
          2   -1    0    0  501    0  0.00000000000E+00  0.00000000000E+00  0.65222491908E+03  0.65222491908E+03  0.00000000000E+00 0. -1.
         -1   -1    0    0    0  501 -0.00000000000E+00 -0.00000000000E+00 -0.66733824384E+03  0.66733824384E+03  0.00000000000E+00 0.  1.
         24    2    1    2    0    0 -0.24674354781E+02  0.31325915464E+03  0.14160650088E+03  0.35372559694E+03  0.79556741336E+02 0.  0.
        254    2    1    2    0    0  0.24674354781E+02 -0.31325915464E+03 -0.15671982563E+03  0.96583756598E+03  0.89974495184E+03 0.  0.
         23    2    4    4    0    0  0.14109282517E+03  0.18322637887E+03  0.21351663743E+03  0.32812877696E+03  0.92736446892E+02 0.  0.
         23    2    4    4    0    0 -0.11641847039E+03 -0.49648553351E+03 -0.37023646307E+03  0.63770878901E+03  0.97705249461E+02 0.  0.
          4    1    3    3  502    0 -0.11316573904E+02  0.25519185614E+03  0.14557095532E+03  0.29400995105E+03  0.00000000000E+00 0. -1.
         -3    1    3    3    0  502 -0.13357780877E+02  0.58067298496E+02 -0.39644544428E+01  0.59715645887E+02  0.00000000000E+00 0.  1.
         11    1    5    5    0    0  0.14836499545E+03  0.17635123431E+03  0.17790971996E+03  0.29114223015E+03  0.00000000000E+00 0.  1.
        -11    1    5    5    0    0 -0.72721702848E+01  0.68751445574E+01  0.35606917472E+02  0.36986546813E+02  0.00000000000E+00 0. -1.
          2    1    6    6  503    0 -0.12353037701E+03 -0.49581773063E+03 -0.35932629921E+03  0.62466820422E+03  0.00000000000E+00 0.  1.
         -2    1    6    6    0  503  0.71119066257E+01 -0.66780287528E+00 -0.10910163852E+02  0.13040584796E+02  0.00000000000E+00 0. -1.
<mgrwt>
<rscale>  0 0.13194766E+04</rscale>
<asrwt>0</asrwt>
<pdfrwt beam="1">  1        2 0.10034229E+00 0.13194766E+04</pdfrwt>
<pdfrwt beam="2">  1       -1 0.10266742E+00 0.13194766E+04</pdfrwt>
<totfact> 0.44935620E+01</totfact>
</mgrwt>
</event>
<event>
12    6  0.1403409E-007  0.1107187E+04  0.7818608E-02  0.9198215E-01
          2   -1    0    0  501    0  0.00000000000E+00  0.00000000000E+00  0.83429009933E+03  0.83429009933E+03  0.00000000000E+00 0. -1.
         -1   -1    0    0    0  501 -0.00000000000E+00 -0.00000000000E+00 -0.36733707747E+03  0.36733707747E+03  0.00000000000E+00 0.  1.
         24    2    1    2    0    0  0.46247661215E+02  0.10703329851E+02 -0.10149211237E+03  0.13661224818E+03  0.78159132814E+02 0.  0.
        254    2    1    2    0    0 -0.46247661215E+02 -0.10703329851E+02  0.56844513424E+03  0.10650149286E+04  0.89937396010E+03 0.  0.
         23    2    4    4    0    0  0.16112004382E+03 -0.21606297945E+03  0.68197696916E+03  0.73882861112E+03  0.90178991599E+02 0.  0.
         23    2    4    4    0    0 -0.20736770504E+03  0.20535964960E+03 -0.11353183493E+03  0.32618631751E+03  0.91291212124E+02 0.  0.
          4    1    3    3  502    0  0.62813739090E+02 -0.10464170167E+02 -0.62282923589E+02  0.89074279377E+02  0.00000000000E+00 0. -1.
         -3    1    3    3    0  502 -0.16566077875E+02  0.21167500018E+02 -0.39209188785E+02  0.47537968807E+02  0.00000000000E+00 0.  1.
         11    1    5    5    0    0  0.59735892836E+02 -0.29258065381E+02  0.10890519973E+03  0.12761173070E+03  0.00000000000E+00 0. -1.
        -11    1    5    5    0    0  0.10138415099E+03 -0.18680491407E+03  0.57307176943E+03  0.61121688042E+03  0.00000000000E+00 0.  1.
          1    1    6    6  503    0 -0.10353420279E+03  0.65279227126E+02 -0.86380662841E+01  0.12270014194E+03  0.00000000000E+00 0. -1.
         -1    1    6    6    0  503 -0.10383350225E+03  0.14008042247E+03 -0.10489376864E+03  0.20348617557E+03  0.00000000000E+00 0.  1.
<mgrwt>
<rscale>  0 0.11071869E+04</rscale>
<asrwt>0</asrwt>
<pdfrwt beam="1">  1        2 0.12835232E+00 0.11071869E+04</pdfrwt>
<pdfrwt beam="2">  1       -1 0.56513397E-01 0.11071869E+04</pdfrwt>
<totfact> 0.11684878E+02</totfact>
</mgrwt>
</event>
<event>
12    6  0.1403409E-007  0.3388102E+04  0.7818608E-02  0.8140833E-01
          2   -1    0    0  501    0  0.00000000000E+00  0.00000000000E+00  0.17621136941E+04  0.17621136941E+04  0.00000000000E+00 0. -1.
         -1   -1    0    0    0  501 -0.00000000000E+00 -0.00000000000E+00 -0.16286173688E+04  0.16286173688E+04  0.00000000000E+00 0.  1.
         24    2    1    2    0    0 -0.11855259000E+04 -0.83085124749E+03 -0.55734879719E+03  0.15533362928E+04  0.80190410067E+02 0.  0.
        254    2    1    2    0    0  0.11855259000E+04  0.83085124749E+03  0.69084512250E+03  0.18373947701E+04  0.89608431692E+03 0.  0.
         23    2    4    4    0    0  0.65962214095E+03  0.27350909033E+03  0.77894373735E+03  0.10606390465E+04  0.91067280914E+02 0.  0.
         23    2    4    4    0    0  0.52590375904E+03  0.55734215716E+03 -0.88098614856E+02  0.77675572364E+03  0.91558966521E+02 0.  0.
          4    1    3    3  502    0 -0.67762826035E+03 -0.46741838003E+03 -0.35884229447E+03  0.89801324796E+03  0.00000000000E+00 0. -1.
         -3    1    3    3    0  502 -0.50789763963E+03 -0.36343286746E+03 -0.19850650271E+03  0.65532304486E+03  0.00000000000E+00 0.  1.
         11    1    5    5    0    0  0.32184084807E+02  0.27648827199E+01  0.14876540001E+02  0.35563623743E+02  0.00000000000E+00 0. -1.
        -11    1    5    5    0    0  0.62743805615E+03  0.27074420761E+03  0.76406719735E+03  0.10250754227E+04  0.00000000000E+00 0.  1.
          4    1    6    6  503    0  0.22834942248E+03  0.30858869796E+03 -0.46536439493E+02  0.38669895714E+03  0.00000000000E+00 0. -1.
         -4    1    6    6    0  503  0.29755433656E+03  0.24875345920E+03 -0.41562175363E+02  0.39005676650E+03  0.00000000000E+00 0.  1.
<mgrwt>
<rscale>  0 0.33881021E+04</rscale>
<asrwt>0</asrwt>
<pdfrwt beam="1">  1        2 0.27109441E+00 0.33881021E+04</pdfrwt>
<pdfrwt beam="2">  1       -1 0.25055652E+00 0.33881021E+04</pdfrwt>
<totfact> 0.59090867E-01</totfact>
</mgrwt>
</event>
<event>
12    6  0.1403409E-007  0.4740047E+04  0.7818608E-02  0.7869908E-01
         -1   -1    0    0    0  501 -0.00000000000E+00  0.00000000000E+00  0.22667638423E+04  0.22667638423E+04  0.00000000000E+00 0.  1.
          2   -1    0    0  501    0  0.00000000000E+00 -0.00000000000E+00 -0.24779871275E+04  0.24779871275E+04  0.00000000000E+00 0. -1.
         24    2    1    2    0    0  0.56442562722E+03 -0.21341602309E+04  0.48425191835E+03  0.22614839606E+04  0.81201009788E+02 0.  0.
        254    2    1    2    0    0 -0.56442562722E+03  0.21341602309E+04 -0.69547520355E+03  0.24832670091E+04  0.89984059700E+03 0.  0.
         23    2    4    4    0    0 -0.18460127950E+03  0.95674224172E+02 -0.29049957518E+03  0.36858508833E+03  0.90740148783E+02 0.  0.
         23    2    4    4    0    0 -0.37982434772E+03  0.20384860067E+04 -0.40497562838E+03  0.21146819208E+04  0.90457900591E+02 0.  0.
          4    1    3    3  502    0  0.17302764034E+03 -0.54402911049E+03  0.10304918326E+03  0.58010806886E+03  0.00000000000E+00 0. -1.
         -3    1    3    3    0  502  0.39139798688E+03 -0.15901311204E+04  0.38120273510E+03  0.16813758918E+04  0.00000000000E+00 0.  1.
         11    1    5    5    0    0 -0.13244685983E+03  0.34497394548E+02 -0.12849809412E+03  0.18773385710E+03  0.00000000000E+00 0.  1.
        -11    1    5    5    0    0 -0.52154419667E+02  0.61176829624E+02 -0.16200148106E+03  0.18085123123E+03  0.00000000000E+00 0. -1.
          3    1    6    6  503    0 -0.94210252058E+02  0.73438713946E+03 -0.13325256773E+03  0.75230066397E+03  0.00000000000E+00 0. -1.
         -3    1    6    6    0  503 -0.28561409566E+03  0.13040988672E+04 -0.27172306065E+03  0.13623812568E+04  0.00000000000E+00 0.  1.
<mgrwt>
<rscale>  0 0.47400471E+04</rscale>
<asrwt>0</asrwt>
<pdfrwt beam="1">  1        2 0.38122879E+00 0.47400471E+04</pdfrwt>
<pdfrwt beam="2">  1       -1 0.34873290E+00 0.47400471E+04</pdfrwt>
<totfact> 0.48006011E-02</totfact>
</mgrwt>
</event>
<event>
12    6  0.1403409E-007  0.1563936E+04  0.7818608E-02  0.8843015E-01
          2   -1    0    0  501    0  0.00000000000E+00  0.00000000000E+00  0.72896963010E+03  0.72896963010E+03  0.00000000000E+00 0. -1.
         -1   -1    0    0    0  501 -0.00000000000E+00 -0.00000000000E+00 -0.83881939906E+03  0.83881939906E+03  0.00000000000E+00 0.  1.
         24    2    1    2    0    0 -0.18471304941E+03 -0.46485076873E+03 -0.17593664485E+03  0.53629127621E+03  0.80308667834E+02 0.  0.
        254    2    1    2    0    0  0.18471304941E+03  0.46485076873E+03  0.66086875885E+02  0.10314977529E+04  0.89967493649E+03 0.  0.
         23    2    4    4    0    0  0.16000751955E+03  0.58994145333E-01  0.40711700568E+03  0.44647710673E+03  0.89415550820E+02 0.  0.
         23    2    4    4    0    0  0.24705529867E+02  0.46479177459E+03 -0.34103012979E+03  0.58502064621E+03  0.96466834406E+02 0.  0.
          2    1    3    3  502    0 -0.30669905763E+02 -0.48285501241E+02  0.34282163989E+01  0.57305195378E+02  0.00000000000E+00 0. -1.
         -1    1    3    3    0  502 -0.15404314365E+03 -0.41656526749E+03 -0.17936486124E+03  0.47898608083E+03  0.00000000000E+00 0.  1.
         11    1    5    5    0    0 -0.98706266744E+01 -0.32637762128E+01  0.95201583067E+01  0.14096627976E+02  0.00000000000E+00 0.  1.
        -11    1    5    5    0    0  0.16987814622E+03  0.33227703581E+01  0.39759684737E+03  0.43238047875E+03  0.00000000000E+00 0. -1.
          1    1    6    6  503    0 -0.13982796437E+02  0.34431902446E+03 -0.28254177723E+03  0.44562424203E+03  0.00000000000E+00 0. -1.
         -1    1    6    6    0  503  0.38688326304E+02  0.12047275012E+03 -0.58488352569E+02  0.13939640419E+03  0.00000000000E+00 0.  1.
<mgrwt>
<rscale>  0 0.15639359E+04</rscale>
<asrwt>0</asrwt>
<pdfrwt beam="1">  1        2 0.11214917E+00 0.15639359E+04</pdfrwt>
<pdfrwt beam="2">  1       -1 0.12904914E+00 0.15639359E+04</pdfrwt>
<totfact> 0.22076095E+01</totfact>
</mgrwt>
</event>
<event>
12    6  0.1403409E-007  0.2585119E+04  0.7818608E-02  0.8373274E-01
          2   -1    0    0  501    0  0.00000000000E+00  0.00000000000E+00  0.19554350288E+04  0.19554350288E+04  0.00000000000E+00 0. -1.
         -1   -1    0    0    0  501 -0.00000000000E+00 -0.00000000000E+00 -0.85439307782E+03  0.85439307782E+03  0.00000000000E+00 0.  1.
         24    2    1    2    0    0  0.93737174871E+03 -0.41426849728E+03 -0.44120032243E+02  0.10289455054E+04  0.80610748174E+02 0.  0.
        254    2    1    2    0    0 -0.93737174871E+03  0.41426849728E+03  0.11451619833E+04  0.17808826012E+04  0.89992371254E+03 0.  0.
         23    2    4    4    0    0 -0.37309674501E+03 -0.19273687428E+03  0.73654519010E+03  0.85247732035E+03  0.88713475951E+02 0.  0.
         23    2    4    4    0    0 -0.56427500370E+03  0.60700537156E+03  0.40861679316E+03  0.92840528089E+03  0.90038219831E+02 0.  0.
          4    1    3    3  502    0  0.22176270142E+03 -0.12788750064E+03  0.10642287950E+02  0.25621703077E+03  0.00000000000E+00 0. -1.
         -3    1    3    3    0  502  0.71560904729E+03 -0.28638099664E+03 -0.54762320192E+02  0.77272847464E+03  0.00000000000E+00 0.  1.
         11    1    5    5    0    0 -0.41953812058E+02 -0.19283561871E+01  0.40142985741E+02  0.58097333914E+02  0.00000000000E+00 0. -1.
        -11    1    5    5    0    0 -0.33114293296E+03 -0.19080851809E+03  0.69640220435E+03  0.79437998644E+03  0.00000000000E+00 0.  1.
          3    1    6    6  503    0 -0.60021990649E+02  0.68679167403E+02  0.78312256349E+02  0.12021762305E+03  0.00000000000E+00 0. -1.
         -3    1    6    6    0  503 -0.50425301305E+03  0.53832620416E+03  0.33030453681E+03  0.80818765784E+03  0.00000000000E+00 0.  1.
<mgrwt>
<rscale>  0 0.25851191E+04</rscale>
<asrwt>0</asrwt>
<pdfrwt beam="1">  1        2 0.30083616E+00 0.25851191E+04</pdfrwt>
<pdfrwt beam="2">  1       -1 0.13144509E+00 0.25851191E+04</pdfrwt>
<totfact> 0.35152016E+00</totfact>
</mgrwt>
</event>
<event>
12    6  0.1403409E-007  0.3819366E+04  0.7818608E-02  0.8042012E-01
         -1   -1    0    0    0  501 -0.00000000000E+00  0.00000000000E+00  0.15632545922E+04  0.15632545922E+04  0.00000000000E+00 0.  1.
          2   -1    0    0  501    0  0.00000000000E+00 -0.00000000000E+00 -0.23328829466E+04  0.23328829466E+04  0.00000000000E+00 0. -1.
         24    2    1    2    0    0  0.77399562382E+03 -0.15815668692E+04  0.29333368878E+02  0.17628016252E+04  0.78651992929E+02 0.  0.
        254    2    1    2    0    0 -0.77399562382E+03  0.15815668692E+04 -0.79896172323E+03  0.21333359135E+04  0.90130976772E+03 0.  0.
         23    2    4    4    0    0 -0.82693044874E+03  0.16181929018E+04 -0.85313891221E+03  0.20096634338E+04  0.92406055484E+02 0.  0.
         23    2    4    4    0    0  0.52934824919E+02 -0.36626032610E+02  0.54177188985E+02  0.12367247975E+03  0.90642994692E+02 0.  0.
          2    1    3    3  502    0  0.30134947592E+03 -0.53084914236E+03  0.12744882755E+02  0.61055282377E+03  0.00000000000E+00 0. -1.
         -1    1    3    3    0  502  0.47264614791E+03 -0.10507177268E+04  0.16588486123E+02  0.11522488015E+04  0.00000000000E+00 0.  1.
         11    1    5    5    0    0 -0.70085917391E+03  0.14247329434E+04 -0.72359061860E+03  0.17448928119E+04  0.00000000000E+00 0. -1.
        -11    1    5    5    0    0 -0.12607127483E+03  0.19345995838E+03 -0.12954829361E+03  0.26477062188E+03  0.00000000000E+00 0.  1.
          2    1    6    6  503    0  0.58481672050E+02 -0.47604068679E+02  0.79363223557E+01  0.75823733310E+02  0.00000000000E+00 0. -1.
         -2    1    6    6    0  503 -0.55468471309E+01  0.10978036070E+02  0.46240866629E+02  0.47848746438E+02  0.00000000000E+00 0.  1.
<mgrwt>
<rscale>  0 0.38193664E+04</rscale>
<asrwt>0</asrwt>
<pdfrwt beam="1">  1        2 0.35890507E+00 0.38193664E+04</pdfrwt>
<pdfrwt beam="2">  1       -1 0.24050071E+00 0.38193664E+04</pdfrwt>
<totfact> 0.31800820E-01</totfact>
</mgrwt>
</event>
<event>
12    6  0.1403409E-007  0.1558354E+04  0.7818608E-02  0.8846549E-01
          2   -1    0    0  501    0  0.00000000000E+00  0.00000000000E+00  0.26909845625E+04  0.26909845625E+04  0.00000000000E+00 0. -1.
         -1   -1    0    0    0  501 -0.00000000000E+00 -0.00000000000E+00 -0.22561138267E+03  0.22561138267E+03  0.00000000000E+00 0.  1.
         24    2    1    2    0    0  0.13182423881E+03  0.48956046264E+03  0.64536186514E+03  0.82454071661E+03  0.79551114785E+02 0.  0.
        254    2    1    2    0    0 -0.13182423881E+03 -0.48956046264E+03  0.18200113147E+04  0.20920552285E+04  0.89844689168E+03 0.  0.
         23    2    4    4    0    0 -0.49079382675E+03 -0.42529913814E+03  0.11580620742E+04  0.13306203608E+04  0.87663215861E+02 0.  0.
         23    2    4    4    0    0  0.35896958794E+03 -0.64261324506E+02  0.66194924045E+03  0.76143486778E+03  0.92830911038E+02 0.  0.
          2    1    3    3  502    0  0.62828153344E+02  0.16145663018E+03  0.27438933193E+03  0.32450751264E+03  0.00000000000E+00 0. -1.
         -3    1    3    3    0  502  0.68996085464E+02  0.32810383246E+03  0.37097253321E+03  0.50003320398E+03  0.00000000000E+00 0.  1.
         11    1    5    5    0    0 -0.41394909918E+03 -0.31238180473E+03  0.90518828683E+03  0.10432171793E+04  0.00000000000E+00 0.  1.
        -11    1    5    5    0    0 -0.76844727568E+02 -0.11291733341E+03  0.25287378739E+03  0.28740318142E+03  0.00000000000E+00 0. -1.
          3    1    6    6  503    0  0.25180013695E+03 -0.81711270845E+01  0.49308617443E+03  0.55371838664E+03  0.00000000000E+00 0. -1.
         -3    1    6    6    0  503  0.10716945099E+03 -0.56090197421E+02  0.16886306602E+03  0.20771648115E+03  0.00000000000E+00 0.  1.
<mgrwt>
<rscale>  0 0.15583539E+04</rscale>
<asrwt>0</asrwt>
<pdfrwt beam="1">  1        2 0.41399760E+00 0.15583539E+04</pdfrwt>
<pdfrwt beam="2">  1       -1 0.34709445E-01 0.15583539E+04</pdfrwt>
<totfact> 0.23285061E+01</totfact>
</mgrwt>
</event>
<event>
12    6  0.1403409E-007  0.1673955E+04  0.7818608E-02  0.8776360E-01
         -1   -1    0    0    0  501 -0.00000000000E+00  0.00000000000E+00  0.14338627003E+04  0.14338627003E+04  0.00000000000E+00 0.  1.
          2   -1    0    0  501    0  0.00000000000E+00 -0.00000000000E+00 -0.48856257734E+03  0.48856257734E+03  0.00000000000E+00 0. -1.
         24    2    1    2    0    0  0.60070485375E+02  0.54507608310E+03  0.59329271703E+03  0.81179430253E+03  0.79355793486E+02 0.  0.
        254    2    1    2    0    0 -0.60070485375E+02 -0.54507608310E+03  0.35200740597E+03  0.11106309752E+04  0.89937508835E+03 0.  0.
         23    2    4    4    0    0  0.21030630993E+03 -0.59709752275E+03 -0.18126049377E+02  0.63976875011E+03  0.90671408302E+02 0.  0.
         23    2    4    4    0    0 -0.27037679531E+03  0.52021439648E+02  0.37013345535E+03  0.47086222505E+03  0.94353688784E+02 0.  0.
          4    1    3    3  502    0  0.23982107238E+02  0.43345741439E+03  0.43285482993E+03  0.61304467647E+03  0.00000000000E+00 0. -1.
         -3    1    3    3    0  502  0.36088378138E+02  0.11161866871E+03  0.16043788710E+03  0.19874962605E+03  0.00000000000E+00 0.  1.
         11    1    5    5    0    0  0.61502235129E+02 -0.12920571004E+03  0.30732661048E+02  0.14635961495E+03  0.00000000000E+00 0. -1.
        -11    1    5    5    0    0  0.14880407480E+03 -0.46789181271E+03 -0.48858710425E+02  0.49340913516E+03  0.00000000000E+00 0.  1.
          3    1    6    6  503    0 -0.12721966080E+03  0.12692649112E+02  0.98834722892E+02  0.16159903429E+03  0.00000000000E+00 0. -1.
         -3    1    6    6    0  503 -0.14315713451E+03  0.39328790537E+02  0.27129873245E+03  0.30926319076E+03  0.00000000000E+00 0.  1.
<mgrwt>
<rscale>  0 0.16739554E+04</rscale>
<asrwt>0</asrwt>
<pdfrwt beam="1">  1        2 0.75163474E-01 0.16739554E+04</pdfrwt>
<pdfrwt beam="2">  1       -1 0.22059426E+00 0.16739554E+04</pdfrwt>
<totfact> 0.75174387E+00</totfact>
</mgrwt>
</event>
<event>
12    6  0.1403409E-007  0.3221794E+04  0.7818608E-02  0.8183085E-01
          2   -1    0    0  501    0  0.00000000000E+00  0.00000000000E+00  0.16143025389E+04  0.16143025389E+04  0.00000000000E+00 0. -1.
         -1   -1    0    0    0  501 -0.00000000000E+00 -0.00000000000E+00 -0.16074987504E+04  0.16074987504E+04  0.00000000000E+00 0.  1.
         24    2    1    2    0    0 -0.86885992692E+03 -0.92488941781E+03  0.77171089103E+03  0.14873494644E+04  0.79578402542E+02 0.  0.
        254    2    1    2    0    0  0.86885992692E+03  0.92488941781E+03 -0.76490710246E+03  0.17344518249E+04  0.90161091927E+03 0.  0.
         23    2    4    4    0    0 -0.60702131586E+02  0.10020396938E+03 -0.41478894193E+03  0.44023467712E+03  0.89616518177E+02 0.  0.
         23    2    4    4    0    0  0.92956205851E+03  0.82468544843E+03 -0.35011816053E+03  0.12942171478E+04  0.90684010853E+02 0.  0.
          4    1    3    3  502    0 -0.12693938878E+03 -0.13463286161E+03  0.14651389758E+03  0.23602105422E+03  0.00000000000E+00 0. -1.
         -3    1    3    3    0  502 -0.74192053815E+03 -0.79025655620E+03  0.62519699345E+03  0.12513284102E+04  0.00000000000E+00 0.  1.
         11    1    5    5    0    0  0.23767348327E+02  0.22342890201E+02 -0.92410127980E+02  0.97998588471E+02  0.00000000000E+00 0. -1.
        -11    1    5    5    0    0 -0.84469479914E+02  0.77861079183E+02 -0.32237881395E+03  0.34223608865E+03  0.00000000000E+00 0.  1.
          3    1    6    6  503    0  0.37505290791E+03  0.37695265492E+03 -0.11818539087E+03  0.54472541192E+03  0.00000000000E+00 0. -1.
         -3    1    6    6    0  503  0.55450915060E+03  0.44773279350E+03 -0.23193276966E+03  0.74949173586E+03  0.00000000000E+00 0.  1.
<mgrwt>
<rscale>  0 0.32217941E+04</rscale>
<asrwt>0</asrwt>
<pdfrwt beam="1">  1        2 0.24835424E+00 0.32217941E+04</pdfrwt>
<pdfrwt beam="2">  1       -1 0.24730750E+00 0.32217941E+04</pdfrwt>
<totfact> 0.76055911E-01</totfact>
</mgrwt>
</event>
<event>
12    6  0.1403409E-007  0.1962788E+04  0.7818608E-02  0.8624219E-01
          2   -1    0    0  501    0  0.00000000000E+00  0.00000000000E+00  0.12036186623E+04  0.12036186623E+04  0.00000000000E+00 0. -1.
         -1   -1    0    0    0  501 -0.00000000000E+00 -0.00000000000E+00 -0.80019911599E+03  0.80019911599E+03  0.00000000000E+00 0.  1.
         24    2    1    2    0    0 -0.27446309580E+03  0.65014773266E+03 -0.16014160024E+03  0.72841866438E+03  0.83224715376E+02 0.  0.
        254    2    1    2    0    0  0.27446309580E+03 -0.65014773266E+03  0.56356114656E+03  0.12753991139E+04  0.90056630438E+03 0.  0.
         23    2    4    4    0    0 -0.21873490511E+03 -0.58089073609E+03  0.39601910277E+03  0.74181913165E+03  0.90473688690E+02 0.  0.
         23    2    4    4    0    0  0.49319800091E+03 -0.69256996576E+02  0.16754204379E+03  0.53357998225E+03  0.92717103851E+02 0.  0.
          4    1    3    3  502    0 -0.14381281669E+03  0.26400009933E+03 -0.39002236399E+02  0.30314906092E+03  0.00000000000E+00 0. -1.
         -3    1    3    3    0  502 -0.13065027912E+03  0.38614763333E+03 -0.12113936384E+03  0.42526960347E+03  0.00000000000E+00 0.  1.
         11    1    5    5    0    0 -0.18528245952E+03 -0.55165236072E+03  0.35719078527E+03  0.68281415771E+03  0.00000000000E+00 0. -1.
        -11    1    5    5    0    0 -0.33452445589E+02 -0.29238375372E+02  0.38828317496E+02  0.59004973942E+02  0.00000000000E+00 0.  1.
          3    1    6    6  503    0  0.36412060079E+03 -0.16182520516E+02  0.96818081151E+02  0.37711991028E+03  0.00000000000E+00 0. -1.
         -3    1    6    6    0  503  0.12907740012E+03 -0.53074476060E+02  0.70723962641E+02  0.15646007197E+03  0.00000000000E+00 0.  1.
<mgrwt>
<rscale>  0 0.19627884E+04</rscale>
<asrwt>0</asrwt>
<pdfrwt beam="1">  1        2 0.18517210E+00 0.19627884E+04</pdfrwt>
<pdfrwt beam="2">  1       -1 0.12310756E+00 0.19627884E+04</pdfrwt>
<totfact> 0.11640127E+01</totfact>
</mgrwt>
</event>
<event>
12    6  0.1403409E-007  0.1538292E+04  0.7818608E-02  0.8859381E-01
          2   -1    0    0  501    0  0.00000000000E+00  0.00000000000E+00  0.44646494456E+03  0.44646494456E+03  0.00000000000E+00 0. -1.
         -1   -1    0    0    0  501 -0.00000000000E+00 -0.00000000000E+00 -0.13250436882E+04  0.13250436882E+04  0.00000000000E+00 0.  1.
         24    2    1    2    0    0  0.58533055357E+02  0.45660215229E+03 -0.51664372226E+03  0.69652967558E+03  0.79506032331E+02 0.  0.
        254    2    1    2    0    0 -0.58533055357E+02 -0.45660215229E+03 -0.36193502134E+03  0.10749789571E+04  0.90148275333E+03 0.  0.
         23    2    4    4    0    0  0.28541048194E+03  0.11073774135E+03 -0.22699791511E+03  0.39182765110E+03  0.90988263771E+02 0.  0.
         23    2    4    4    0    0 -0.34394353729E+03 -0.56733989364E+03 -0.13493710623E+03  0.68315130603E+03  0.91191954280E+02 0.  0.
          2    1    3    3  502    0  0.73563270226E+02  0.29263276813E+03 -0.31502008402E+03  0.43621456309E+03  0.00000000000E+00 0. -1.
         -1    1    3    3    0  502 -0.15030214869E+02  0.16396938415E+03 -0.20162363823E+03  0.26031511249E+03  0.00000000000E+00 0.  1.
         11    1    5    5    0    0  0.27046788044E+03  0.12381753306E+03 -0.22248982396E+03  0.37146383083E+03  0.00000000000E+00 0.  1.
        -11    1    5    5    0    0  0.14942601494E+02 -0.13079791707E+02 -0.45080911507E+01  0.20363820278E+02  0.00000000000E+00 0. -1.
          4    1    6    6  503    0  0.16917277666E+01 -0.15959991984E+01  0.50526039476E+01  0.55621904794E+01  0.00000000000E+00 0. -1.
         -4    1    6    6    0  503 -0.34563526506E+03 -0.56574389444E+03 -0.13998971018E+03  0.67758911555E+03  0.00000000000E+00 0.  1.
<mgrwt>
<rscale>  0 0.15382920E+04</rscale>
<asrwt>0</asrwt>
<pdfrwt beam="1">  1        2 0.68686916E-01 0.15382920E+04</pdfrwt>
<pdfrwt beam="2">  1       -1 0.20385287E+00 0.15382920E+04</pdfrwt>
<totfact> 0.10946297E+01</totfact>
</mgrwt>
</event>
<event>
12    6  0.1403409E-007  0.2183408E+04  0.7818608E-02  0.8525366E-01
         -1   -1    0    0    0  501 -0.00000000000E+00  0.00000000000E+00  0.45836873149E+03  0.45836873149E+03  0.00000000000E+00 0.  1.
          2   -1    0    0  501    0  0.00000000000E+00 -0.00000000000E+00 -0.26001274929E+04  0.26001274929E+04  0.00000000000E+00 0. -1.
         24    2    1    2    0    0  0.13596953044E+02  0.90042953443E+03 -0.76770520516E+03  0.11858950691E+04  0.77573250856E+02 0.  0.
        254    2    1    2    0    0 -0.13596953044E+02 -0.90042953443E+03 -0.13740535562E+04  0.18726011553E+04  0.89869554785E+03 0.  0.
         23    2    4    4    0    0 -0.28597936326E+03 -0.92614241967E+03 -0.94714793762E+03  0.13582745697E+04  0.91085745853E+02 0.  0.
         23    2    4    4    0    0  0.27238241022E+03  0.25712885241E+02 -0.42690561860E+03  0.51432658561E+03  0.86198025556E+02 0.  0.
          2    1    3    3  502    0  0.45428840718E+02  0.44976702495E+03 -0.38849620095E+03  0.59605658662E+03  0.00000000000E+00 0. -1.
         -1    1    3    3    0  502 -0.31831887675E+02  0.45066250948E+03 -0.37920900421E+03  0.58983848247E+03  0.00000000000E+00 0.  1.
         11    1    5    5    0    0 -0.74458004841E+02 -0.31156170062E+03 -0.36604787418E+03  0.48642135435E+03  0.00000000000E+00 0. -1.
        -11    1    5    5    0    0 -0.21152135842E+03 -0.61458071906E+03 -0.58110006344E+03  0.87185321530E+03  0.00000000000E+00 0.  1.
          4    1    6    6  503    0  0.22060293111E+03  0.53627494348E+02 -0.35554753861E+03  0.42184785596E+03  0.00000000000E+00 0. -1.
         -4    1    6    6    0  503  0.51779479111E+02 -0.27914609106E+02 -0.71358079985E+02  0.92478729650E+02  0.00000000000E+00 0.  1.
<mgrwt>
<rscale>  0 0.21834076E+04</rscale>
<asrwt>0</asrwt>
<pdfrwt beam="1">  1        2 0.40001962E+00 0.21834076E+04</pdfrwt>
<pdfrwt beam="2">  1       -1 0.70518265E-01 0.21834076E+04</pdfrwt>
<totfact> 0.64420488E+00</totfact>
</mgrwt>
</event>
<event>
12    6  0.1403409E-007  0.1939135E+04  0.7818608E-02  0.8635618E-01
         -1   -1    0    0    0  501 -0.00000000000E+00  0.00000000000E+00  0.55705605251E+03  0.55705605251E+03  0.00000000000E+00 0.  1.
          2   -1    0    0  501    0  0.00000000000E+00 -0.00000000000E+00 -0.16875516104E+04  0.16875516104E+04  0.00000000000E+00 0. -1.
         24    2    1    2    0    0  0.20591007655E+03 -0.73623190759E+03 -0.46330092851E+03  0.89751685783E+03  0.80326697604E+02 0.  0.
        254    2    1    2    0    0 -0.20591007655E+03  0.73623190759E+03 -0.66719462941E+03  0.13470908051E+04  0.88604095975E+03 0.  0.
         23    2    4    4    0    0 -0.63997679718E+01  0.28559701376E+03 -0.77794675549E+03  0.83362798226E+03  0.90154573578E+02 0.  0.
         23    2    4    4    0    0 -0.19951030858E+03  0.45063489382E+03  0.11075212608E+03  0.51346282286E+03  0.92205565259E+02 0.  0.
          4    1    3    3  502    0  0.89020869396E+02 -0.18682328478E+03 -0.12073301470E+03  0.23959156029E+03  0.00000000000E+00 0. -1.
         -3    1    3    3    0  502  0.11688920715E+03 -0.54940862280E+03 -0.34256791381E+03  0.65792529753E+03  0.00000000000E+00 0.  1.
         11    1    5    5    0    0 -0.49024512725E+01  0.15905186065E+03 -0.30466590673E+03  0.34371913407E+03  0.00000000000E+00 0.  1.
        -11    1    5    5    0    0 -0.14973166993E+01  0.12654515312E+03 -0.47328084876E+03  0.48990884819E+03  0.00000000000E+00 0. -1.
          4    1    6    6  503    0 -0.14353624737E+03  0.21852650547E+03  0.75335940504E+02  0.27208820598E+03  0.00000000000E+00 0.  1.
         -4    1    6    6    0  503 -0.55974061211E+02  0.23210838835E+03  0.35416185574E+02  0.24137461687E+03  0.00000000000E+00 0. -1.
<mgrwt>
<rscale>  0 0.19391347E+04</rscale>
<asrwt>0</asrwt>
<pdfrwt beam="1">  1        2 0.25962333E+00 0.19391347E+04</pdfrwt>
<pdfrwt beam="2">  1       -1 0.85700930E-01 0.19391347E+04</pdfrwt>
<totfact> 0.14250559E+01</totfact>
</mgrwt>
</event>
<event>
12    6  0.1403409E-007  0.1458520E+04  0.7818608E-02  0.8912515E-01
          2   -1    0    0  501    0  0.00000000000E+00  0.00000000000E+00  0.75661856522E+03  0.75661856522E+03  0.00000000000E+00 0. -1.
         -1   -1    0    0    0  501 -0.00000000000E+00 -0.00000000000E+00 -0.70289023854E+03  0.70289023854E+03  0.00000000000E+00 0.  1.
         24    2    1    2    0    0 -0.21735297081E+03 -0.38014423818E+03  0.10405120453E+03  0.45704953599E+03  0.79471186242E+02 0.  0.
        254    2    1    2    0    0  0.21735297081E+03  0.38014423818E+03 -0.50322877852E+02  0.10024592678E+04  0.90035561629E+03 0.  0.
         23    2    4    4    0    0 -0.16833394805E+03 -0.20378387195E+03  0.66166464315E+02  0.28741508071E+03  0.91461702817E+02 0.  0.
         23    2    4    4    0    0  0.38568691886E+03  0.58392811014E+03 -0.11648934217E+03  0.71504418707E+03  0.89397905129E+02 0.  0.
          2    1    3    3  502    0 -0.13432796869E+03 -0.28736959527E+03  0.99547232770E+02  0.33246795185E+03  0.00000000000E+00 0. -1.
         -1    1    3    3    0  502 -0.83025002118E+02 -0.92774642910E+02  0.45039717604E+01  0.12458158413E+03  0.00000000000E+00 0.  1.
         11    1    5    5    0    0 -0.14230791914E+03 -0.10327375789E+03  0.43884237195E+02  0.18122593411E+03  0.00000000000E+00 0. -1.
        -11    1    5    5    0    0 -0.26026028909E+02 -0.10051011406E+03  0.22282227120E+02  0.10618914659E+03  0.00000000000E+00 0.  1.
          1    1    6    6  503    0  0.21176153084E+02  0.63599249004E+01 -0.79677117994E+01  0.23502394250E+02  0.00000000000E+00 0. -1.
         -1    1    6    6    0  503  0.36451076578E+03  0.57756818523E+03 -0.10852163037E+03  0.69154179282E+03  0.00000000000E+00 0.  1.
<mgrwt>
<rscale>  0 0.14585195E+04</rscale>
<asrwt>0</asrwt>
<pdfrwt beam="1">  1        2 0.11640286E+00 0.14585195E+04</pdfrwt>
<pdfrwt beam="2">  1       -1 0.10813696E+00 0.14585195E+04</pdfrwt>
<totfact> 0.32614398E+01</totfact>
</mgrwt>
</event>
<event>
12    6  0.1403409E-007  0.1664163E+04  0.7818608E-02  0.8782072E-01
         -1   -1    0    0    0  501 -0.00000000000E+00  0.00000000000E+00  0.35846432328E+03  0.35846432328E+03  0.00000000000E+00 0.  1.
          2   -1    0    0  501    0  0.00000000000E+00 -0.00000000000E+00 -0.19314598691E+04  0.19314598691E+04  0.00000000000E+00 0. -1.
         24    2    1    2    0    0 -0.34648945995E+03  0.46851768881E+03 -0.61982973084E+03  0.85448649995E+03  0.79965697502E+02 0.  0.
        254    2    1    2    0    0  0.34648945995E+03 -0.46851768881E+03 -0.95316581499E+03  0.14354376924E+04  0.90132820183E+03 0.  0.
         23    2    4    4    0    0 -0.14956058708E+03 -0.10520368780E+03 -0.75594893183E+03  0.78295066758E+03  0.90093147341E+02 0.  0.
         23    2    4    4    0    0  0.49605004703E+03 -0.36331400101E+03 -0.19721688316E+03  0.65248702486E+03  0.93712891910E+02 0.  0.
          2    1    3    3  502    0 -0.19430437915E+03  0.19583719703E+03 -0.28612056032E+03  0.39745612906E+03  0.00000000000E+00 0. -1.
         -1    1    3    3    0  502 -0.15218508080E+03  0.27268049179E+03 -0.33370917053E+03  0.45703037089E+03  0.00000000000E+00 0.  1.
         11    1    5    5    0    0 -0.11378957774E+03 -0.11113432769E+03 -0.50669471160E+03  0.53107291171E+03  0.00000000000E+00 0.  1.
        -11    1    5    5    0    0 -0.35771009343E+02  0.59306398893E+01 -0.24925422023E+03  0.25187775587E+03  0.00000000000E+00 0. -1.
          1    1    6    6  503    0  0.31866203455E+03 -0.27988189903E+03 -0.15785122351E+03  0.45254433863E+03  0.00000000000E+00 0. -1.
         -1    1    6    6    0  503  0.17738801248E+03 -0.83432101988E+02 -0.39365659655E+02  0.19994268623E+03  0.00000000000E+00 0.  1.
<mgrwt>
<rscale>  0 0.16641628E+04</rscale>
<asrwt>0</asrwt>
<pdfrwt beam="1">  1        2 0.29714767E+00 0.16641628E+04</pdfrwt>
<pdfrwt beam="2">  1       -1 0.55148359E-01 0.16641628E+04</pdfrwt>
<totfact> 0.26350076E+01</totfact>
</mgrwt>
</event>
<event>
12    6  0.1403409E-007  0.2476159E+04  0.7818608E-02  0.8411529E-01
          2   -1    0    0  501    0  0.00000000000E+00  0.00000000000E+00  0.71958256565E+03  0.71958256565E+03  0.00000000000E+00 0. -1.
         -1   -1    0    0    0  501 -0.00000000000E+00 -0.00000000000E+00 -0.21301802939E+04  0.21301802939E+04  0.00000000000E+00 0.  1.
         24    2    1    2    0    0 -0.34825822334E+03  0.96070964018E+03 -0.98827278195E+03  0.14238373658E+04  0.79893365214E+02 0.  0.
        254    2    1    2    0    0  0.34825822334E+03 -0.96070964018E+03 -0.42232494626E+03  0.14259254937E+04  0.90036567602E+03 0.  0.
         23    2    4    4    0    0  0.18860356604E+03 -0.10986604807E+04 -0.42108321794E+03  0.11950586569E+04  0.90708102976E+02 0.  0.
         23    2    4    4    0    0  0.15965465730E+03  0.13795084055E+03 -0.12417283234E+01  0.23086683683E+03  0.93690503525E+02 0.  0.
          4    1    3    3  502    0 -0.31698324788E+03  0.88759128471E+03 -0.87967138688E+03  0.12892317158E+04  0.00000000000E+00 0. -1.
         -3    1    3    3    0  502 -0.31274975466E+02  0.73118355464E+02 -0.10860139507E+03  0.13460564998E+03  0.00000000000E+00 0.  1.
         11    1    5    5    0    0  0.11639338093E+03 -0.41713350103E+03 -0.16110289612E+03  0.46206267967E+03  0.00000000000E+00 0.  1.
        -11    1    5    5    0    0  0.72210185113E+02 -0.68152697970E+03 -0.25998032182E+03  0.73299597723E+03  0.00000000000E+00 0. -1.
          3    1    6    6  503    0  0.53784056056E+01  0.32219061172E+02  0.26148003476E+02  0.41841525253E+02  0.00000000000E+00 0.  1.
         -3    1    6    6    0  503  0.15427625170E+03  0.10573177938E+03 -0.27389731800E+02  0.18902531158E+03  0.00000000000E+00 0. -1.
<mgrwt>
<rscale>  0 0.24761588E+04</rscale>
<asrwt>0</asrwt>
<pdfrwt beam="1">  1        2 0.11070501E+00 0.24761588E+04</pdfrwt>
<pdfrwt beam="2">  1       -1 0.32772004E+00 0.24761588E+04</pdfrwt>
<totfact> 0.87886015E-01</totfact>
</mgrwt>
</event>
<event>
12    6  0.1403409E-007  0.2614493E+04  0.7818608E-02  0.8363295E-01
         -1   -1    0    0    0  501 -0.00000000000E+00  0.00000000000E+00  0.90343339598E+03  0.90343339598E+03  0.00000000000E+00 0.  1.
          2   -1    0    0  501    0  0.00000000000E+00 -0.00000000000E+00 -0.18915550366E+04  0.18915550366E+04  0.00000000000E+00 0. -1.
         24    2    1    2    0    0  0.49439843179E+03 -0.65174442111E+03 -0.13018549954E+04  0.15395762743E+04  0.79171179179E+02 0.  0.
        254    2    1    2    0    0 -0.49439843179E+03  0.65174442111E+03  0.31373335478E+03  0.12554121583E+04  0.89912761574E+03 0.  0.
         23    2    4    4    0    0 -0.55331291885E+03  0.84804217196E+01  0.17141281437E+03  0.58766443903E+03  0.98691621994E+02 0.  0.
         23    2    4    4    0    0  0.58914487063E+02  0.64326399939E+03  0.14232054041E+03  0.66774771922E+03  0.91500768335E+02 0.  0.
          2    1    3    3  502    0  0.18868635224E+03 -0.20149077118E+03 -0.48419916045E+03  0.55735975579E+03  0.00000000000E+00 0. -1.
         -1    1    3    3    0  502  0.30571207954E+03 -0.45025364993E+03 -0.81765583496E+03  0.98221651854E+03  0.00000000000E+00 0.  1.
         11    1    5    5    0    0 -0.63008158263E+02  0.18492470588E+02  0.49771413314E+02  0.82396559755E+02  0.00000000000E+00 0. -1.
        -11    1    5    5    0    0 -0.49030476059E+03 -0.10012048868E+02  0.12164140105E+03  0.50526787928E+03  0.00000000000E+00 0.  1.
          3    1    6    6  503    0  0.65055546397E+02  0.26297219721E+03  0.39594160591E+02  0.27377782631E+03  0.00000000000E+00 0. -1.
         -3    1    6    6    0  503 -0.61410593342E+01  0.38029180218E+03  0.10272637982E+03  0.39396989292E+03  0.00000000000E+00 0.  1.
<mgrwt>
<rscale>  0 0.26144934E+04</rscale>
<asrwt>0</asrwt>
<pdfrwt beam="1">  1        2 0.29100847E+00 0.26144934E+04</pdfrwt>
<pdfrwt beam="2">  1       -1 0.13898975E+00 0.26144934E+04</pdfrwt>
<totfact> 0.32966955E+00</totfact>
</mgrwt>
</event>
<event>
12    6  0.1403409E-007  0.1710840E+04  0.7818608E-02  0.8755206E-01
          2   -1    0    0  501    0  0.00000000000E+00  0.00000000000E+00  0.27132681545E+04  0.27132681545E+04  0.00000000000E+00 0. -1.
         -1   -1    0    0    0  501 -0.00000000000E+00 -0.00000000000E+00 -0.26969089326E+03  0.26969089326E+03  0.00000000000E+00 0.  1.
         24    2    1    2    0    0 -0.11795992632E+03  0.36903648599E+03  0.52737488387E+02  0.39903963702E+03  0.79680091732E+02 0.  0.
        254    2    1    2    0    0  0.11795992632E+03 -0.36903648599E+03  0.23908397728E+04  0.25839194107E+04  0.90023454142E+03 0.  0.
         23    2    4    4    0    0 -0.98568600873E+01  0.73102916529E+02 -0.26879668794E+02  0.12112009765E+03  0.92229969995E+02 0.  0.
         23    2    4    4    0    0  0.12781678641E+03 -0.44213940252E+03  0.24177194416E+04  0.24627993131E+04  0.90491855553E+02 0.  0.
          2    1    3    3  502    0 -0.30008059983E+01  0.59940322396E+02  0.33418671339E+02  0.68692464504E+02  0.00000000000E+00 0. -1.
         -1    1    3    3    0  502 -0.11495912032E+03  0.30909616359E+03  0.19318817048E+02  0.33034717251E+03  0.00000000000E+00 0.  1.
         11    1    5    5    0    0  0.35588569762E+02  0.39414935570E+02 -0.35527676872E+02  0.63892873371E+02  0.00000000000E+00 0.  1.
        -11    1    5    5    0    0 -0.45445429849E+02  0.33687980959E+02  0.86480080785E+01  0.57227224282E+02  0.00000000000E+00 0. -1.
          3    1    6    6  503    0  0.11664498335E+03 -0.32126037676E+03  0.15981416586E+04  0.16342799769E+04  0.00000000000E+00 0. -1.
         -3    1    6    6    0  503  0.11171803059E+02 -0.12087902576E+03  0.81957778298E+03  0.82851933617E+03  0.00000000000E+00 0.  1.
<mgrwt>
<rscale>  0 0.17108404E+04</rscale>
<asrwt>0</asrwt>
<pdfrwt beam="1">  1        2 0.41742585E+00 0.17108404E+04</pdfrwt>
<pdfrwt beam="2">  1       -1 0.41490909E-01 0.17108404E+04</pdfrwt>
<totfact> 0.16118112E+01</totfact>
</mgrwt>
</event>
<event>
12    6  0.1403409E-007  0.2536497E+04  0.7818608E-02  0.8390097E-01
         -1   -1    0    0    0  501 -0.00000000000E+00  0.00000000000E+00  0.12669828814E+04  0.12669828814E+04  0.00000000000E+00 0.  1.
          2   -1    0    0  501    0  0.00000000000E+00 -0.00000000000E+00 -0.12695155195E+04  0.12695155195E+04  0.00000000000E+00 0. -1.
         24    2    1    2    0    0 -0.91932543609E+03  0.59330315866E+03 -0.16453724639E+03  0.11089965559E+04  0.75053047407E+02 0.  0.
        254    2    1    2    0    0  0.91932543609E+03 -0.59330315866E+03  0.16200460828E+03  0.14275018450E+04  0.90241239406E+03 0.  0.
         23    2    4    4    0    0  0.98789120825E+03 -0.36346884646E+03  0.34882198130E+03  0.11119509970E+04  0.81973186611E+02 0.  0.
         23    2    4    4    0    0 -0.68565772160E+02 -0.22983431219E+03 -0.18681737302E+03  0.31555084807E+03  0.84537155618E+02 0.  0.
          2    1    3    3  502    0 -0.30010382972E+03  0.21999321245E+03 -0.84129187191E+02  0.38149317461E+03  0.00000000000E+00 0. -1.
         -1    1    3    3    0  502 -0.61922160637E+03  0.37330994621E+03 -0.80408059195E+02  0.72750338124E+03  0.00000000000E+00 0.  1.
         11    1    5    5    0    0  0.81504175941E+03 -0.32208641019E+03  0.31336232621E+03  0.93071406602E+03  0.00000000000E+00 0.  1.
        -11    1    5    5    0    0  0.17284944884E+03 -0.41382436277E+02  0.35459655083E+02  0.18123693094E+03  0.00000000000E+00 0. -1.
          1    1    6    6  503    0 -0.27968500688E+02 -0.11281922849E+03 -0.38778800810E+02  0.12253248850E+03  0.00000000000E+00 0. -1.
         -1    1    6    6    0  503 -0.40597271471E+02 -0.11701508371E+03 -0.14803857221E+03  0.19301835956E+03  0.00000000000E+00 0.  1.
<mgrwt>
<rscale>  0 0.25364971E+04</rscale>
<asrwt>0</asrwt>
<pdfrwt beam="1">  1        2 0.19531008E+00 0.25364971E+04</pdfrwt>
<pdfrwt beam="2">  1       -1 0.19492044E+00 0.25364971E+04</pdfrwt>
<totfact> 0.28489539E+00</totfact>
</mgrwt>
</event>
<event>
12    6  0.1403409E-007  0.1565262E+04  0.7818608E-02  0.8842178E-01
         -1   -1    0    0    0  501 -0.00000000000E+00  0.00000000000E+00  0.10053859841E+04  0.10053859841E+04  0.00000000000E+00 0.  1.
          2   -1    0    0  501    0  0.00000000000E+00 -0.00000000000E+00 -0.60922967399E+03  0.60922967399E+03  0.00000000000E+00 0. -1.
         24    2    1    2    0    0  0.32596791652E+03  0.39472406937E+03  0.22704746494E+03  0.56554872708E+03  0.78947057077E+02 0.  0.
        254    2    1    2    0    0 -0.32596791652E+03 -0.39472406937E+03  0.16910884516E+03  0.10490669310E+04  0.89993413685E+03 0.  0.
         23    2    4    4    0    0  0.27810703868E+03 -0.27070674990E+03 -0.19443874261E+02  0.39878936867E+03  0.89605953541E+02 0.  0.
         23    2    4    4    0    0 -0.60407495520E+03 -0.12401731947E+03  0.18855271942E+03  0.65027756233E+03  0.83796975106E+02 0.  0.
          2    1    3    3  502    0  0.52563384641E+02  0.81565535466E+02  0.12807776634E+02  0.97876887584E+02  0.00000000000E+00 0. -1.
         -1    1    3    3    0  502  0.27340453188E+03  0.31315853391E+03  0.21423968830E+03  0.46767183949E+03  0.00000000000E+00 0.  1.
         11    1    5    5    0    0  0.28604911672E+02 -0.47404480203E+02  0.25489225178E+02  0.60951836029E+02  0.00000000000E+00 0.  1.
        -11    1    5    5    0    0  0.24950212701E+03 -0.22330226970E+03 -0.44933099439E+02  0.33783753264E+03  0.00000000000E+00 0. -1.
          3    1    6    6  503    0 -0.50480987537E+03 -0.12383677352E+03  0.18228631908E+03  0.55081472282E+03  0.00000000000E+00 0. -1.
         -3    1    6    6    0  503 -0.99265079829E+02 -0.18054594863E+00  0.62664003428E+01  0.99462839511E+02  0.00000000000E+00 0.  1.
<mgrwt>
<rscale>  0 0.15652616E+04</rscale>
<asrwt>0</asrwt>
<pdfrwt beam="1">  1        2 0.93727642E-01 0.15652616E+04</pdfrwt>
<pdfrwt beam="2">  1       -1 0.15467477E+00 0.15652616E+04</pdfrwt>
<totfact> 0.17166458E+01</totfact>
</mgrwt>
</event>
<event>
12    6  0.1403409E-007  0.2130899E+04  0.7818608E-02  0.8547753E-01
          2   -1    0    0  501    0  0.00000000000E+00  0.00000000000E+00  0.30396937903E+04  0.30396937903E+04  0.00000000000E+00 0. -1.
         -1   -1    0    0    0  501 -0.00000000000E+00 -0.00000000000E+00 -0.37345281692E+03  0.37345281692E+03  0.00000000000E+00 0.  1.
         24    2    1    2    0    0  0.52200217477E+03  0.67363313426E+03  0.13873544339E+04  0.16301006062E+04  0.78789534840E+02 0.  0.
        254    2    1    2    0    0 -0.52200217477E+03 -0.67363313426E+03  0.12788865395E+04  0.17830460011E+04  0.90412078345E+03 0.  0.
         23    2    4    4    0    0 -0.67525500831E+03 -0.46475200141E+03  0.51705929821E+03  0.97339591972E+03  0.90474027202E+02 0.  0.
         23    2    4    4    0    0  0.15325283354E+03 -0.20888113286E+03  0.76182724125E+03  0.80965008135E+03  0.89636767384E+02 0.  0.
          4    1    3    3  502    0  0.29876105496E+03  0.37581284446E+03  0.85432999542E+03  0.97998632802E+03  0.00000000000E+00 0. -1.
         -3    1    3    3    0  502  0.22324111981E+03  0.29782028981E+03  0.53302443851E+03  0.65011427814E+03  0.00000000000E+00 0.  1.
         11    1    5    5    0    0 -0.48908366712E+03 -0.35754193941E+03  0.33813738255E+03  0.69381262698E+03  0.00000000000E+00 0.  1.
        -11    1    5    5    0    0 -0.18617134119E+03 -0.10721006200E+03  0.17892191567E+03  0.27958329274E+03  0.00000000000E+00 0. -1.
          3    1    6    6  503    0  0.54993363544E+02 -0.98187983173E+02  0.20925893784E+03  0.23760145862E+03  0.00000000000E+00 0. -1.
         -3    1    6    6    0  503  0.98259469995E+02 -0.11069314968E+03  0.55256830341E+03  0.57204862273E+03  0.00000000000E+00 0.  1.
<mgrwt>
<rscale>  0 0.21308986E+04</rscale>
<asrwt>0</asrwt>
<pdfrwt beam="1">  1        2 0.46764518E+00 0.21308986E+04</pdfrwt>
<pdfrwt beam="2">  1       -1 0.57454282E-01 0.21308986E+04</pdfrwt>
<totfact> 0.52848879E+00</totfact>
</mgrwt>
</event>
<event>
12    6  0.1403409E-007  0.2985053E+04  0.7818608E-02  0.8248012E-01
         -1   -1    0    0    0  501 -0.00000000000E+00  0.00000000000E+00  0.11352858233E+04  0.11352858233E+04  0.00000000000E+00 0.  1.
          2   -1    0    0  501    0  0.00000000000E+00 -0.00000000000E+00 -0.19621796540E+04  0.19621796540E+04  0.00000000000E+00 0. -1.
         24    2    1    2    0    0  0.63587548229E+03 -0.10578230290E+04  0.20600538230E+03  0.12538619898E+04  0.80028010401E+02 0.  0.
        254    2    1    2    0    0 -0.63587548229E+03  0.10578230290E+04 -0.10328992130E+04  0.18436034875E+04  0.89925849757E+03 0.  0.
         23    2    4    4    0    0  0.16336816189E+03 -0.12845087317E+02 -0.10661737157E+03  0.21538456064E+03  0.90383031876E+02 0.  0.
         23    2    4    4    0    0 -0.79924364418E+03  0.10706681163E+04 -0.92628184144E+03  0.16282189269E+04  0.89320804751E+02 0.  0.
          2    1    3    3  502    0  0.40557932051E+03 -0.60135750444E+03  0.10950165693E+03  0.73356393466E+03  0.00000000000E+00 0. -1.
         -1    1    3    3    0  502  0.23029616178E+03 -0.45646552452E+03  0.96503725367E+02  0.52029805517E+03  0.00000000000E+00 0.  1.
         11    1    5    5    0    0  0.16215267016E+03 -0.30435276458E+02 -0.10878337982E+03  0.19761988316E+03  0.00000000000E+00 0.  1.
        -11    1    5    5    0    0  0.12154917308E+01  0.17590189141E+02  0.21660082504E+01  0.17764677478E+02  0.00000000000E+00 0. -1.
          1    1    6    6  503    0 -0.18473556095E+03  0.30784021608E+03 -0.22896915309E+03  0.42581650882E+03  0.00000000000E+00 0. -1.
         -1    1    6    6    0  503 -0.61450808324E+03  0.76282790019E+03 -0.69731268835E+03  0.12024024181E+04  0.00000000000E+00 0.  1.
<mgrwt>
<rscale>  0 0.29850526E+04</rscale>
<asrwt>0</asrwt>
<pdfrwt beam="1">  1        2 0.30187379E+00 0.29850526E+04</pdfrwt>
<pdfrwt beam="2">  1       -1 0.17465936E+00 0.29850526E+04</pdfrwt>
<totfact> 0.15554728E+00</totfact>
</mgrwt>
</event>
<event>
12    6  0.1403409E-007  0.1355431E+04  0.7818608E-02  0.8986727E-01
          2   -1    0    0  501    0  0.00000000000E+00  0.00000000000E+00  0.40733458954E+04  0.40733458954E+04  0.00000000000E+00 0. -1.
         -1   -1    0    0    0  501 -0.00000000000E+00 -0.00000000000E+00 -0.11275700392E+03  0.11275700392E+03  0.00000000000E+00 0.  1.
         24    2    1    2    0    0 -0.32794512645E+03  0.17339841922E+03  0.12317705553E+04  0.12885285065E+04  0.73702059399E+02 0.  0.
        254    2    1    2    0    0  0.32794512645E+03 -0.17339841922E+03  0.27288183363E+04  0.28975743928E+04  0.90103986146E+03 0.  0.
         23    2    4    4    0    0 -0.62758638055E+02  0.10905339973E+03  0.36404950525E+02  0.16080681716E+03  0.93285697619E+02 0.  0.
         23    2    4    4    0    0  0.39070376451E+03 -0.28245181895E+03  0.26924133857E+04  0.27367675757E+04  0.91533938664E+02 0.  0.
          2    1    3    3  502    0 -0.19635047471E+03  0.69275293335E+02  0.75024597025E+03  0.77860233178E+03  0.00000000000E+00 0. -1.
         -1    1    3    3    0  502 -0.13159465175E+03  0.10412312588E+03  0.48152458501E+03  0.50992617474E+03  0.00000000000E+00 0.  1.
         11    1    5    5    0    0 -0.28890902716E+02  0.90244260262E+01 -0.24460479958E+02  0.38915801477E+02  0.00000000000E+00 0. -1.
        -11    1    5    5    0    0 -0.33867735339E+02  0.10002897370E+03  0.60865430483E+02  0.12189101569E+03  0.00000000000E+00 0.  1.
          2    1    6    6  503    0  0.18440460436E+03 -0.92065165628E+02  0.13130180869E+04  0.13290965162E+04  0.00000000000E+00 0. -1.
         -2    1    6    6    0  503  0.20629916015E+03 -0.19038665332E+03  0.13793952988E+04  0.14076710595E+04  0.00000000000E+00 0.  1.
<mgrwt>
<rscale>  0 0.13554310E+04</rscale>
<asrwt>0</asrwt>
<pdfrwt beam="1">  1        2 0.62666849E+00 0.13554310E+04</pdfrwt>
<pdfrwt beam="2">  1       -1 0.17347234E-01 0.13554310E+04</pdfrwt>
<totfact> 0.88680119E+00</totfact>
</mgrwt>
</event>
<event>
12    6  0.1403409E-007  0.1088658E+04  0.7818608E-02  0.9216318E-01
         -1   -1    0    0    0  501 -0.00000000000E+00  0.00000000000E+00  0.30471298227E+03  0.30471298227E+03  0.00000000000E+00 0.  1.
          2   -1    0    0  501    0  0.00000000000E+00 -0.00000000000E+00 -0.97237013651E+03  0.97237013651E+03  0.00000000000E+00 0. -1.
         24    2    1    2    0    0 -0.14846662431E+03 -0.41082894709E+02 -0.86364651925E+02  0.19352802568E+03  0.79146072869E+02 0.  0.
        254    2    1    2    0    0  0.14846662431E+03  0.41082894709E+02 -0.58129250232E+03  0.10835550931E+04  0.90136592112E+03 0.  0.
         23    2    4    4    0    0 -0.34812520234E+03 -0.55813055186E+02 -0.39628514435E+03  0.53794074703E+03  0.89621861441E+02 0.  0.
         23    2    4    4    0    0  0.49659182664E+03  0.96895949895E+02 -0.18500735797E+03  0.54561434607E+03  0.86458225387E+02 0.  0.
          2    1    3    3  502    0 -0.46221468712E+02  0.27110219343E+01 -0.65730811626E+02  0.80400954017E+02  0.00000000000E+00 0. -1.
         -1    1    3    3    0  502 -0.10224515559E+03 -0.43793916643E+02 -0.20633840299E+02  0.11312707166E+03  0.00000000000E+00 0.  1.
         11    1    5    5    0    0 -0.28004282749E+03 -0.40166310189E+02 -0.36392020819E+03  0.46095036135E+03  0.00000000000E+00 0. -1.
        -11    1    5    5    0    0 -0.68082374845E+02 -0.15646744997E+02 -0.32364936163E+02  0.76990385675E+02  0.00000000000E+00 0.  1.
          2    1    6    6  503    0  0.38859070765E+03  0.91437703963E+02 -0.11024150797E+03  0.41414584612E+03  0.00000000000E+00 0. -1.
         -2    1    6    6    0  503  0.10800111899E+03  0.54582459314E+01 -0.74765850002E+02  0.13146849995E+03  0.00000000000E+00 0.  1.
<mgrwt>
<rscale>  0 0.10886575E+04</rscale>
<asrwt>0</asrwt>
<pdfrwt beam="1">  1        2 0.14959540E+00 0.10886575E+04</pdfrwt>
<pdfrwt beam="2">  1       -1 0.46878921E-01 0.10886575E+04</pdfrwt>
<totfact> 0.13483799E+02</totfact>
</mgrwt>
</event>
<event>
12    6  0.1403409E-007  0.1509255E+04  0.7818608E-02  0.8878322E-01
         -1   -1    0    0    0  501 -0.00000000000E+00  0.00000000000E+00  0.46428743857E+03  0.46428743857E+03  0.00000000000E+00 0.  1.
          2   -1    0    0  501    0  0.00000000000E+00 -0.00000000000E+00 -0.12265300810E+04  0.12265300810E+04  0.00000000000E+00 0. -1.
         24    2    1    2    0    0  0.35558697681E+03 -0.32552530765E+03 -0.23256801693E+03  0.54116272418E+03  0.79752037831E+02 0.  0.
        254    2    1    2    0    0 -0.35558697681E+03  0.32552530765E+03 -0.52967462553E+03  0.11496547954E+04  0.89930090388E+03 0.  0.
         23    2    4    4    0    0 -0.24028051215E+03  0.62726226119E+03 -0.39638540813E+03  0.78532565175E+03  0.91773191562E+02 0.  0.
         23    2    4    4    0    0 -0.11530646467E+03 -0.30173695354E+03 -0.13328921740E+03  0.36432914367E+03  0.10309674838E+03 0.  0.
          2    1    3    3  502    0  0.42039041198E+02 -0.30522659395E+02 -0.54458256459E+02  0.75263639415E+02  0.00000000000E+00 0. -1.
         -1    1    3    3    0  502  0.31354793562E+03 -0.29500264825E+03 -0.17810976047E+03  0.46589908476E+03  0.00000000000E+00 0.  1.
         11    1    5    5    0    0 -0.17113490637E+02  0.63944798846E+02 -0.10644347647E+02  0.67045588953E+02  0.00000000000E+00 0.  1.
        -11    1    5    5    0    0 -0.22316702151E+03  0.56331746234E+03 -0.38574106048E+03  0.71828006280E+03  0.00000000000E+00 0. -1.
          3    1    6    6  503    0 -0.12023005740E+02 -0.17067902426E+03 -0.82172966675E+02  0.18981116522E+03  0.00000000000E+00 0. -1.
         -3    1    6    6    0  503 -0.10328345893E+03 -0.13105792928E+03 -0.51116250728E+02  0.17451797846E+03  0.00000000000E+00 0.  1.
<mgrwt>
<rscale>  0 0.15092548E+04</rscale>
<asrwt>0</asrwt>
<pdfrwt beam="1">  1        2 0.18869693E+00 0.15092548E+04</pdfrwt>
<pdfrwt beam="2">  1       -1 0.71428837E-01 0.15092548E+04</pdfrwt>
<totfact> 0.39791232E+01</totfact>
</mgrwt>
</event>
<event>
12    6  0.1403409E-007  0.1663901E+04  0.7818608E-02  0.8782225E-01
          2   -1    0    0  501    0  0.00000000000E+00  0.00000000000E+00  0.33569963808E+03  0.33569963808E+03  0.00000000000E+00 0. -1.
         -1   -1    0    0    0  501 -0.00000000000E+00 -0.00000000000E+00 -0.20617884822E+04  0.20617884822E+04  0.00000000000E+00 0.  1.
         24    2    1    2    0    0 -0.38694628364E+03 -0.38881865368E+03 -0.90491901747E+03  0.10612660925E+04  0.80622075080E+02 0.  0.
        254    2    1    2    0    0  0.38694628364E+03  0.38881865368E+03 -0.82116982669E+03  0.13362220278E+04  0.90014557243E+03 0.  0.
         23    2    4    4    0    0  0.59553509604E+03  0.46836130447E+03 -0.78104597281E+03  0.10917798264E+04  0.89028173348E+02 0.  0.
         23    2    4    4    0    0 -0.20858881241E+03 -0.79542650789E+02 -0.40123853876E+02  0.24444220140E+03  0.91135833888E+02 0.  0.
          2    1    3    3  502    0 -0.26929215762E+03 -0.29666773461E+03 -0.59682864043E+03  0.71884242846E+03  0.00000000000E+00 0. -1.
         -1    1    3    3    0  502 -0.11765412602E+03 -0.92150919068E+02 -0.30809037705E+03  0.34242366402E+03  0.00000000000E+00 0.  1.
         11    1    5    5    0    0  0.16028063645E+03  0.78929867660E+02 -0.19236682525E+03  0.26253533455E+03  0.00000000000E+00 0.  1.
        -11    1    5    5    0    0  0.43525445959E+03  0.38943143681E+03 -0.58867914756E+03  0.82924449189E+03  0.00000000000E+00 0. -1.
          1    1    6    6  503    0 -0.20665337554E+03 -0.89004095518E+02 -0.24852638362E+02  0.22637358564E+03  0.00000000000E+00 0. -1.
         -1    1    6    6    0  503 -0.19354368675E+01  0.94614447292E+01 -0.15271215514E+02  0.18068615760E+02  0.00000000000E+00 0.  1.
<mgrwt>
<rscale>  0 0.16639010E+04</rscale>
<asrwt>0</asrwt>
<pdfrwt beam="1">  1        2 0.51646097E-01 0.16639010E+04</pdfrwt>
<pdfrwt beam="2">  1       -1 0.31719823E+00 0.16639010E+04</pdfrwt>
<totfact> 0.27050922E+00</totfact>
</mgrwt>
</event>
<event>
12    6  0.1403409E-007  0.1134982E+04  0.7818608E-02  0.9171751E-01
         -1   -1    0    0    0  501 -0.00000000000E+00  0.00000000000E+00  0.37840497943E+03  0.37840497943E+03  0.00000000000E+00 0.  1.
          2   -1    0    0  501    0  0.00000000000E+00 -0.00000000000E+00 -0.85106136313E+03  0.85106136313E+03  0.00000000000E+00 0. -1.
         24    2    1    2    0    0 -0.18501923336E+03 -0.51311322734E+02 -0.11702889674E+02  0.20780866762E+03  0.78628977841E+02 0.  0.
        254    2    1    2    0    0  0.18501923336E+03  0.51311322734E+02 -0.46095349402E+03  0.10216576749E+04  0.89131437358E+03 0.  0.
         23    2    4    4    0    0  0.29562029090E+03 -0.25083219060E+03 -0.54714394045E+03  0.67670345955E+03  0.90845673326E+02 0.  0.
         23    2    4    4    0    0 -0.11060105754E+03  0.30214351333E+03  0.86190446426E+02  0.34495421539E+03  0.89673413468E+02 0.  0.
          2    1    3    3  502    0 -0.27548159915E+02  0.20566225069E+02 -0.21521655153E+01  0.34445646237E+02  0.00000000000E+00 0. -1.
         -1    1    3    3    0  502 -0.15747107345E+03 -0.71877547804E+02 -0.95507241586E+01  0.17336302138E+03  0.00000000000E+00 0.  1.
         11    1    5    5    0    0  0.23388987642E+03 -0.14368636115E+03 -0.37269984196E+03  0.46287732378E+03  0.00000000000E+00 0. -1.
        -11    1    5    5    0    0  0.61730414481E+02 -0.10714582945E+03 -0.17444409849E+03  0.21382613577E+03  0.00000000000E+00 0.  1.
          3    1    6    6  503    0 -0.11600085543E+03  0.19618041245E+03  0.58210410831E+02  0.23522628386E+03  0.00000000000E+00 0. -1.
         -3    1    6    6    0  503  0.53997978935E+01  0.10596310088E+03  0.27980035595E+02  0.10972793153E+03  0.00000000000E+00 0.  1.
<mgrwt>
<rscale>  0 0.11349817E+04</rscale>
<asrwt>0</asrwt>
<pdfrwt beam="1">  1        2 0.13093252E+00 0.11349817E+04</pdfrwt>
<pdfrwt beam="2">  1       -1 0.58216150E-01 0.11349817E+04</pdfrwt>
<totfact> 0.10711048E+02</totfact>
</mgrwt>
</event>
<event>
12    6  0.1403409E-007  0.1482325E+04  0.7818608E-02  0.8896292E-01
         -1   -1    0    0    0  501 -0.00000000000E+00  0.00000000000E+00  0.32179150566E+03  0.32179150566E+03  0.00000000000E+00 0.  1.
          2   -1    0    0  501    0  0.00000000000E+00 -0.00000000000E+00 -0.17070738625E+04  0.17070738625E+04  0.00000000000E+00 0. -1.
         24    2    1    2    0    0 -0.25352011291E+03  0.31620393779E+03 -0.74493802184E+03  0.85169797848E+03  0.78736346407E+02 0.  0.
        254    2    1    2    0    0  0.25352011291E+03 -0.31620393779E+03 -0.64034433503E+03  0.11771673897E+04  0.90079121780E+03 0.  0.
         23    2    4    4    0    0  0.37182282177E+03 -0.11244675784E+03 -0.78842908377E+03  0.88375135300E+03  0.92193002178E+02 0.  0.
         23    2    4    4    0    0 -0.11830270886E+03 -0.20375717995E+03  0.14808474875E+03  0.29341603671E+03  0.93012679145E+02 0.  0.
          2    1    3    3  502    0 -0.14426458694E+03  0.15135423307E+03 -0.45485946606E+03  0.50061712793E+03  0.00000000000E+00 0. -1.
         -1    1    3    3    0  502 -0.10925552597E+03  0.16484970472E+03 -0.29007855578E+03  0.35108085055E+03  0.00000000000E+00 0.  1.
         11    1    5    5    0    0  0.26814390588E+03 -0.12156253117E+03 -0.60564294344E+03  0.67341070543E+03  0.00000000000E+00 0. -1.
        -11    1    5    5    0    0  0.10367891589E+03  0.91157733280E+01 -0.18278614033E+03  0.21034064757E+03  0.00000000000E+00 0.  1.
          3    1    6    6  503    0 -0.59773384940E+02 -0.74191923084E+02  0.11140432603E+03  0.14658861776E+03  0.00000000000E+00 0. -1.
         -3    1    6    6    0  503 -0.58529323919E+02 -0.12956525687E+03  0.36680422718E+02  0.14682741895E+03  0.00000000000E+00 0.  1.
<mgrwt>
<rscale>  0 0.14823250E+04</rscale>
<asrwt>0</asrwt>
<pdfrwt beam="1">  1        2 0.26262675E+00 0.14823250E+04</pdfrwt>
<pdfrwt beam="2">  1       -1 0.49506385E-01 0.14823250E+04</pdfrwt>
<totfact> 0.43813165E+01</totfact>
</mgrwt>
</event>
<event>
12    6  0.1403409E-007  0.2547040E+04  0.7818608E-02  0.8386416E-01
          2   -1    0    0  501    0  0.00000000000E+00  0.00000000000E+00  0.14978586663E+04  0.14978586663E+04  0.00000000000E+00 0. -1.
         -1   -1    0    0    0  501 -0.00000000000E+00 -0.00000000000E+00 -0.10827815030E+04  0.10827815030E+04  0.00000000000E+00 0.  1.
         24    2    1    2    0    0  0.92613095968E+03 -0.61481402197E+03  0.23591677819E+03  0.11389860697E+04  0.76926618573E+02 0.  0.
        254    2    1    2    0    0 -0.92613095968E+03  0.61481402197E+03  0.17916038512E+03  0.14416540995E+04  0.90030731588E+03 0.  0.
         23    2    4    4    0    0 -0.90444559691E+03  0.76490739221E+03 -0.20241823491E+01  0.11882885269E+04  0.94447707137E+02 0.  0.
         23    2    4    4    0    0 -0.21685362771E+02 -0.15009337024E+03  0.18118456747E+03  0.25336557266E+03  0.91476724749E+02 0.  0.
          4    1    3    3  502    0  0.59542131381E+03 -0.43764203325E+03  0.16531167257E+03  0.75722192209E+03  0.00000000000E+00 0. -1.
         -3    1    3    3    0  502  0.33070964587E+03 -0.17717198872E+03  0.70605105619E+02  0.38176414760E+03  0.00000000000E+00 0.  1.
         11    1    5    5    0    0 -0.80738513602E+03  0.64417443463E+03 -0.13387350830E+02  0.10329620909E+04  0.00000000000E+00 0.  1.
        -11    1    5    5    0    0 -0.97060460890E+02  0.12073295758E+03  0.11363168481E+02  0.15532643597E+03  0.00000000000E+00 0. -1.
          4    1    6    6  503    0  0.32877961807E+02 -0.28863380045E+02  0.52537615938E+02  0.68368532006E+02  0.00000000000E+00 0. -1.
         -4    1    6    6    0  503 -0.54563324578E+02 -0.12122999019E+03  0.12864695153E+03  0.18499704065E+03  0.00000000000E+00 0.  1.
<mgrwt>
<rscale>  0 0.25470404E+04</rscale>
<asrwt>0</asrwt>
<pdfrwt beam="1">  1        2 0.23043980E+00 0.25470404E+04</pdfrwt>
<pdfrwt beam="2">  1       -1 0.16658177E+00 0.25470404E+04</pdfrwt>
<totfact> 0.33595678E+00</totfact>
</mgrwt>
</event>
<event>
12    6  0.1403409E-007  0.1969768E+04  0.7818608E-02  0.8620887E-01
          2   -1    0    0  501    0  0.00000000000E+00  0.00000000000E+00  0.16719233951E+04  0.16719233951E+04  0.00000000000E+00 0. -1.
         -3   -1    0    0    0  501 -0.00000000000E+00 -0.00000000000E+00 -0.58016795016E+03  0.58016795016E+03  0.00000000000E+00 0.  1.
         24    2    1    2    0    0 -0.28990438251E+03  0.35564513536E+03  0.11495703021E+04  0.12404042072E+04  0.81010521301E+02 0.  0.
        254    2    1    2    0    0  0.28990438251E+03 -0.35564513536E+03 -0.57814857107E+02  0.10116871381E+04  0.89980014132E+03 0.  0.
         23    2    4    4    0    0 -0.12784536787E+02  0.27972444158E+03  0.33116298395E+02  0.29636354553E+03  0.91243927489E+02 0.  0.
         23    2    4    4    0    0  0.30268891930E+03 -0.63536957694E+03 -0.90931155502E+02  0.71532359254E+03  0.90023807030E+02 0.  0.
          4    1    3    3  502    0 -0.20523378993E+03  0.22862316157E+03  0.85694384540E+03  0.91035279573E+03  0.00000000000E+00 0. -1.
         -3    1    3    3    0  502 -0.84670592577E+02  0.12702197379E+03  0.29262645667E+03  0.33005141147E+03  0.00000000000E+00 0.  1.
         11    1    5    5    0    0  0.12726269636E+02  0.23864584825E+03  0.51782037580E+02  0.24453052619E+03  0.00000000000E+00 0. -1.
        -11    1    5    5    0    0 -0.25510806423E+02  0.41078593330E+02 -0.18665739184E+02  0.51833019337E+02  0.00000000000E+00 0.  1.
          4    1    6    6  503    0  0.25752080339E+03 -0.59720272249E+03 -0.81648319358E+02  0.65546510508E+03  0.00000000000E+00 0. -1.
         -4    1    6    6    0  503  0.45168115910E+02 -0.38166854451E+02 -0.92828361446E+01  0.59858487455E+02  0.00000000000E+00 0.  1.
<mgrwt>
<rscale>  0 0.19697679E+04</rscale>
<asrwt>0</asrwt>
<pdfrwt beam="1">  1        2 0.25721898E+00 0.19697679E+04</pdfrwt>
<pdfrwt beam="2">  1       -3 0.89256609E-01 0.19697679E+04</pdfrwt>
<totfact> 0.68577727E+00</totfact>
</mgrwt>
</event>
<event>
12    6  0.1403409E-007  0.2614498E+04  0.7818608E-02  0.8363293E-01
          2   -1    0    0  501    0  0.00000000000E+00  0.00000000000E+00  0.12716804439E+04  0.12716804439E+04  0.00000000000E+00 0. -1.
         -1   -1    0    0    0  501 -0.00000000000E+00 -0.00000000000E+00 -0.13438123069E+04  0.13438123069E+04  0.00000000000E+00 0.  1.
         24    2    1    2    0    0  0.81487293983E+03 -0.81228455044E+03  0.12320201225E+02  0.11533944765E+04  0.79642527390E+02 0.  0.
        254    2    1    2    0    0 -0.81487293983E+03  0.81228455044E+03 -0.84452064217E+02  0.14620982743E+04  0.89820660960E+03 0.  0.
         23    2    4    4    0    0  0.23885914019E+01  0.52614104788E+03 -0.22549716478E+03  0.57962459224E+03  0.91025210669E+02 0.  0.
         23    2    4    4    0    0 -0.81726153123E+03  0.28614350256E+03  0.14104510056E+03  0.88247368203E+03  0.95244761511E+02 0.  0.
          2    1    3    3  502    0  0.52322733768E+03 -0.55658344538E+03  0.36482213968E+02  0.76477639249E+03  0.00000000000E+00 0. -1.
         -1    1    3    3    0  502  0.29164560215E+03 -0.25570110505E+03 -0.24162012743E+02  0.38861808404E+03  0.00000000000E+00 0.  1.
         11    1    5    5    0    0 -0.39322519805E+02  0.35329645039E+03 -0.13644971035E+03  0.38076655037E+03  0.00000000000E+00 0. -1.
        -11    1    5    5    0    0  0.41711111207E+02  0.17284459749E+03 -0.89047454430E+02  0.19885804188E+03  0.00000000000E+00 0.  1.
          1    1    6    6  503    0 -0.51742359711E+03  0.16332745739E+03  0.13159712032E+03  0.55831965689E+03  0.00000000000E+00 0. -1.
         -1    1    6    6    0  503 -0.29983793412E+03  0.12281604517E+03  0.94479802399E+01  0.32415402515E+03  0.00000000000E+00 0.  1.
<mgrwt>
<rscale>  0 0.26144979E+04</rscale>
<asrwt>0</asrwt>
<pdfrwt beam="1">  1        2 0.19564315E+00 0.26144979E+04</pdfrwt>
<pdfrwt beam="2">  1       -1 0.20674035E+00 0.26144979E+04</pdfrwt>
<totfact> 0.23392900E+00</totfact>
</mgrwt>
</event>
<event>
12    6  0.1403409E-007  0.1714182E+04  0.7818608E-02  0.8753317E-01
         -1   -1    0    0    0  501 -0.00000000000E+00  0.00000000000E+00  0.41159386171E+03  0.41159386171E+03  0.00000000000E+00 0.  1.
          2   -1    0    0  501    0  0.00000000000E+00 -0.00000000000E+00 -0.17847811551E+04  0.17847811551E+04  0.00000000000E+00 0. -1.
         24    2    1    2    0    0 -0.80364235760E+02 -0.61028223849E+03 -0.43314989137E+03  0.75676697777E+03  0.78578681834E+02 0.  0.
        254    2    1    2    0    0  0.80364235760E+02  0.61028223849E+03 -0.94003740203E+03  0.14396080391E+04  0.89994342483E+03 0.  0.
         23    2    4    4    0    0 -0.73363815189E+02 -0.17309544330E+03 -0.45647690598E+03  0.50199619147E+03  0.91020484992E+02 0.  0.
         23    2    4    4    0    0  0.15372805095E+03  0.78337768180E+03 -0.48356049606E+03  0.93761184759E+03  0.89287834622E+02 0.  0.
          2    1    3    3  502    0  0.43098013543E+00 -0.28384510769E+03 -0.18452366707E+03  0.33855164246E+03  0.00000000000E+00 0. -1.
         -1    1    3    3    0  502 -0.80795215895E+02 -0.32643713080E+03 -0.24862622429E+03  0.41821533531E+03  0.00000000000E+00 0.  1.
         11    1    5    5    0    0 -0.19388084015E+02 -0.72001722195E+01 -0.13185054929E+03  0.13346275747E+03  0.00000000000E+00 0. -1.
        -11    1    5    5    0    0 -0.53975731174E+02 -0.16589527109E+03 -0.32462635668E+03  0.36853343400E+03  0.00000000000E+00 0.  1.
          3    1    6    6  503    0  0.15402344458E+02  0.79362441068E+02 -0.83127950044E+02  0.11595639416E+03  0.00000000000E+00 0. -1.
         -3    1    6    6    0  503  0.13832570649E+03  0.70401524073E+03 -0.40043254601E+03  0.82165545344E+03  0.00000000000E+00 0.  1.
<mgrwt>
<rscale>  0 0.17141820E+04</rscale>
<asrwt>0</asrwt>
<pdfrwt beam="1">  1        2 0.27458171E+00 0.17141820E+04</pdfrwt>
<pdfrwt beam="2">  1       -1 0.63322133E-01 0.17141820E+04</pdfrwt>
<totfact> 0.24094096E+01</totfact>
</mgrwt>
</event>
<event>
12    6  0.1403409E-007  0.1432948E+04  0.7818608E-02  0.8930308E-01
         -1   -1    0    0    0  501 -0.00000000000E+00  0.00000000000E+00  0.44241249280E+03  0.44241249280E+03  0.00000000000E+00 0.  1.
          2   -1    0    0  501    0  0.00000000000E+00 -0.00000000000E+00 -0.11603090040E+04  0.11603090040E+04  0.00000000000E+00 0. -1.
         24    2    1    2    0    0 -0.33673066894E+03 -0.19114544966E+03 -0.43421598312E+03  0.58944106005E+03  0.94726537670E+02 0.  0.
        254    2    1    2    0    0  0.33673066894E+03  0.19114544966E+03 -0.28368052805E+03  0.10132804367E+04  0.89237798893E+03 0.  0.
         23    2    4    4    0    0 -0.14128058784E+01  0.93350469223E+02  0.29920200110E+03  0.32631662967E+03  0.90798674046E+02 0.  0.
         23    2    4    4    0    0  0.33814347482E+03  0.97794980439E+02 -0.58288252915E+03  0.68696380706E+03  0.90897533831E+02 0.  0.
          4    1    3    3  502    0 -0.16993099855E+03 -0.95635253623E+02 -0.28860798346E+03  0.34830620741E+03  0.00000000000E+00 0. -1.
         -3    1    3    3    0  502 -0.16679967039E+03 -0.95510196039E+02 -0.14560799966E+03  0.24113485264E+03  0.00000000000E+00 0.  1.
         11    1    5    5    0    0  0.21835969067E+02  0.61957338318E+02  0.26909236928E+03  0.27699499007E+03  0.00000000000E+00 0. -1.
        -11    1    5    5    0    0 -0.23248774946E+02  0.31393130905E+02  0.30109631823E+02  0.49321639602E+02  0.00000000000E+00 0.  1.
          4    1    6    6  503    0  0.30211269327E+03  0.10932289762E+03 -0.54939137176E+03  0.63643888532E+03  0.00000000000E+00 0. -1.
         -4    1    6    6    0  503  0.36030781555E+02 -0.11527917176E+02 -0.33491157388E+02  0.50524921742E+02  0.00000000000E+00 0.  1.
<mgrwt>
<rscale>  0 0.14329483E+04</rscale>
<asrwt>0</asrwt>
<pdfrwt beam="1">  1        2 0.17850908E+00 0.14329483E+04</pdfrwt>
<pdfrwt beam="2">  1       -1 0.68063461E-01 0.14329483E+04</pdfrwt>
<totfact> 0.48428977E+01</totfact>
</mgrwt>
</event>
<event>
12    6  0.1403409E-007  0.2203755E+04  0.7818608E-02  0.8516867E-01
         -1   -1    0    0    0  501 -0.00000000000E+00  0.00000000000E+00  0.79792698777E+03  0.79792698777E+03  0.00000000000E+00 0.  1.
          2   -1    0    0  501    0  0.00000000000E+00 -0.00000000000E+00 -0.15216110395E+04  0.15216110395E+04  0.00000000000E+00 0. -1.
         24    2    1    2    0    0  0.58190906925E+03 -0.38220832694E+02  0.44329535813E+03  0.73625140936E+03  0.74002475157E+02 0.  0.
        254    2    1    2    0    0 -0.58190906925E+03  0.38220832694E+02 -0.11669794099E+04  0.15832866179E+04  0.89714913727E+03 0.  0.
         23    2    4    4    0    0 -0.14930737736E+03 -0.32537867881E+03 -0.85625674356E+03  0.93206588051E+03  0.86065191285E+02 0.  0.
         23    2    4    4    0    0 -0.43260169189E+03  0.36359951151E+03 -0.31072266632E+03  0.65122073742E+03  0.90504391555E+02 0.  0.
          2    1    3    3  502    0  0.38544563469E+03 -0.53096599458E+02  0.26719275809E+03  0.47199529251E+03  0.00000000000E+00 0. -1.
         -3    1    3    3    0  502  0.19646343455E+03  0.14875766764E+02  0.17610260004E+03  0.26425611685E+03  0.00000000000E+00 0.  1.
         11    1    5    5    0    0 -0.52693165633E+02 -0.71017912689E+02 -0.30108082309E+03  0.31379894146E+03  0.00000000000E+00 0. -1.
        -11    1    5    5    0    0 -0.96614211727E+02 -0.25436076613E+03 -0.55517592047E+03  0.61826693905E+03  0.00000000000E+00 0.  1.
          4    1    6    6  503    0 -0.57189357351E+02  0.37254943082E+02 -0.72895849233E+02  0.99861695427E+02  0.00000000000E+00 0. -1.
         -4    1    6    6    0  503 -0.37541233453E+03  0.32634456843E+03 -0.23782681708E+03  0.55135904199E+03  0.00000000000E+00 0.  1.
<mgrwt>
<rscale>  0 0.22037554E+04</rscale>
<asrwt>0</asrwt>
<pdfrwt beam="1">  1        2 0.23409400E+00 0.22037554E+04</pdfrwt>
<pdfrwt beam="2">  1       -1 0.12275800E+00 0.22037554E+04</pdfrwt>
<totfact> 0.75205024E+00</totfact>
</mgrwt>
</event>
<event>
12    6  0.1403409E-007  0.2852223E+04  0.7818608E-02  0.8287236E-01
          2   -1    0    0  501    0  0.00000000000E+00  0.00000000000E+00  0.41738247361E+04  0.41738247361E+04  0.00000000000E+00 0. -1.
         -1   -1    0    0    0  501 -0.00000000000E+00 -0.00000000000E+00 -0.48727345511E+03  0.48727345511E+03  0.00000000000E+00 0.  1.
         24    2    1    2    0    0  0.11989225596E+04  0.30986056898E+03  0.11146447883E+04  0.16679770660E+04  0.79281855127E+02 0.  0.
        254    2    1    2    0    0 -0.11989225596E+04 -0.30986056898E+03  0.25719064927E+04  0.29931211252E+04  0.90035669984E+03 0.  0.
         23    2    4    4    0    0 -0.12350598108E+04 -0.37830979668E+03  0.25647750910E+04  0.28730800542E+04  0.89591805876E+02 0.  0.
         23    2    4    4    0    0  0.36137251275E+02  0.68449227701E+02  0.71314017442E+01  0.12004107107E+03  0.91475702515E+02 0.  0.
          2    1    3    3  502    0  0.84022406046E+03  0.22123372567E+03  0.82965246739E+03  0.12013509270E+04  0.00000000000E+00 0. -1.
         -1    1    3    3    0  502  0.35869849911E+03  0.88626843305E+02  0.28499232088E+03  0.46662613898E+03  0.00000000000E+00 0.  1.
         11    1    5    5    0    0 -0.73296911755E+03 -0.26734587065E+03  0.15804500074E+04  0.17625378770E+04  0.00000000000E+00 0.  1.
        -11    1    5    5    0    0 -0.50209069330E+03 -0.11096392602E+03  0.98432508361E+03  0.11105421772E+04  0.00000000000E+00 0. -1.
          3    1    6    6  503    0 -0.62590485783E+00 -0.20278309729E+02 -0.97785398007E+01  0.22521577275E+02  0.00000000000E+00 0. -1.
         -3    1    6    6    0  503  0.36763156132E+02  0.88727537429E+02  0.16909941545E+02  0.97519493796E+02  0.00000000000E+00 0.  1.
<mgrwt>
<rscale>  0 0.28522230E+04</rscale>
<asrwt>0</asrwt>
<pdfrwt beam="1">  1        2 0.64212686E+00 0.28522230E+04</pdfrwt>
<pdfrwt beam="2">  1       -1 0.74965149E-01 0.28522230E+04</pdfrwt>
<totfact> 0.43193341E-01</totfact>
</mgrwt>
</event>
<event>
12    6  0.1403409E-007  0.4097116E+04  0.7818608E-02  0.7985237E-01
          2   -1    0    0  501    0  0.00000000000E+00  0.00000000000E+00  0.15057213638E+04  0.15057213638E+04  0.00000000000E+00 0. -1.
         -1   -1    0    0    0  501 -0.00000000000E+00 -0.00000000000E+00 -0.27870958521E+04  0.27870958521E+04  0.00000000000E+00 0.  1.
         24    2    1    2    0    0  0.36151970860E+03  0.14185011120E+04  0.73820866682E+03  0.16413597104E+04  0.79169177451E+02 0.  0.
        254    2    1    2    0    0 -0.36151970860E+03 -0.14185011120E+04 -0.20195831551E+04  0.26514575054E+04  0.89926018370E+03 0.  0.
         23    2    4    4    0    0 -0.65269043602E+03 -0.89286964157E+03 -0.13286270305E+04  0.17311453253E+04  0.91615222713E+02 0.  0.
         23    2    4    4    0    0  0.29117072742E+03 -0.52563147045E+03 -0.69095612459E+03  0.92031218007E+03  0.92115728569E+02 0.  0.
          4    1    3    3  502    0  0.41008479476E+02  0.21792705783E+03  0.13996593281E+03  0.26222959458E+03  0.00000000000E+00 0. -1.
         -3    1    3    3    0  502  0.32051122913E+03  0.12005740542E+04  0.59824273401E+03  0.13791301158E+04  0.00000000000E+00 0.  1.
         11    1    5    5    0    0 -0.39998719832E+03 -0.61914105319E+03 -0.86977228364E+03  0.11401005341E+04  0.00000000000E+00 0.  1.
        -11    1    5    5    0    0 -0.25270323771E+03 -0.27372858839E+03 -0.45885474689E+03  0.59104479119E+03  0.00000000000E+00 0. -1.
          3    1    6    6  503    0  0.15543864136E+03 -0.36491496263E+03 -0.47507033137E+03  0.61888280064E+03  0.00000000000E+00 0. -1.
         -3    1    6    6    0  503  0.13573208606E+03 -0.16071650782E+03 -0.21588579321E+03  0.30142937943E+03  0.00000000000E+00 0.  1.
<mgrwt>
<rscale>  0 0.40971159E+04</rscale>
<asrwt>0</asrwt>
<pdfrwt beam="1">  1        2 0.23164944E+00 0.40971159E+04</pdfrwt>
<pdfrwt beam="2">  1       -1 0.42878397E+00 0.40971159E+04</pdfrwt>
<totfact> 0.50921173E-02</totfact>
</mgrwt>
</event>
<event>
12    6  0.1403409E-007  0.1727180E+04  0.7818608E-02  0.8746013E-01
          2   -1    0    0  501    0  0.00000000000E+00  0.00000000000E+00  0.84077839923E+03  0.84077839923E+03  0.00000000000E+00 0. -1.
         -1   -1    0    0    0  501 -0.00000000000E+00 -0.00000000000E+00 -0.88702004090E+03  0.88702004090E+03  0.00000000000E+00 0.  1.
         24    2    1    2    0    0  0.38523623026E+03 -0.46216817442E+03 -0.18959312984E+03  0.63573527804E+03  0.78787145587E+02 0.  0.
        254    2    1    2    0    0 -0.38523623026E+03  0.46216817442E+03  0.14335148817E+03  0.10920631621E+04  0.90002551425E+03 0.  0.
         23    2    4    4    0    0 -0.27322941075E+03  0.64906631362E+03 -0.13782851124E+03  0.72425851723E+03  0.98042393333E+02 0.  0.
         23    2    4    4    0    0 -0.11200681951E+03 -0.18689813921E+03  0.28117999941E+03  0.36780464487E+03  0.93496645200E+02 0.  0.
          4    1    3    3  502    0  0.32084097667E+03 -0.33407077698E+03 -0.13703719795E+03  0.48303354952E+03  0.00000000000E+00 0. -1.
         -3    1    3    3    0  502  0.64395253593E+02 -0.12809739743E+03 -0.52555931884E+02  0.15270172851E+03  0.00000000000E+00 0.  1.
         11    1    5    5    0    0 -0.10054211294E+03  0.16779466897E+03 -0.73271923273E+02  0.20888403996E+03  0.00000000000E+00 0. -1.
        -11    1    5    5    0    0 -0.17268729781E+03  0.48127164466E+03 -0.64556587964E+02  0.51537447728E+03  0.00000000000E+00 0.  1.
          1    1    6    6  503    0 -0.94418756868E+02 -0.11507452868E+03  0.24201552769E+03  0.28412772557E+03  0.00000000000E+00 0. -1.
         -1    1    6    6    0  503 -0.17588062643E+02 -0.71823610534E+02  0.39164471722E+02  0.83676919296E+02  0.00000000000E+00 0.  1.
<mgrwt>
<rscale>  0 0.17271795E+04</rscale>
<asrwt>0</asrwt>
<pdfrwt beam="1">  1        2 0.12935052E+00 0.17271795E+04</pdfrwt>
<pdfrwt beam="2">  1       -1 0.13646462E+00 0.17271795E+04</pdfrwt>
<totfact> 0.15644799E+01</totfact>
</mgrwt>
</event>
<event>
12    6  0.1403409E-007  0.2380349E+04  0.7818608E-02  0.8446898E-01
          2   -1    0    0  501    0  0.00000000000E+00  0.00000000000E+00  0.10574928610E+04  0.10574928610E+04  0.00000000000E+00 0. -1.
         -1   -1    0    0    0  501 -0.00000000000E+00 -0.00000000000E+00 -0.13395032046E+04  0.13395032046E+04  0.00000000000E+00 0.  1.
         24    2    1    2    0    0  0.60046166409E+03 -0.80771022075E+03 -0.27553127127E+03  0.10466699998E+04  0.81551187800E+02 0.  0.
        254    2    1    2    0    0 -0.60046166409E+03  0.80771022075E+03 -0.64790723632E+01  0.13503260658E+04  0.90021580464E+03 0.  0.
         23    2    4    4    0    0 -0.79996950198E+03  0.63097457183E+03 -0.14970429261E+03  0.10338889560E+04  0.91841622874E+02 0.  0.
         23    2    4    4    0    0  0.19950783790E+03  0.17673564892E+03  0.14322522025E+03  0.31643710983E+03  0.92628903619E+02 0.  0.
          4    1    3    3  502    0  0.14983422918E+03 -0.23633568100E+03 -0.45628401437E+02  0.28352566262E+03  0.00000000000E+00 0. -1.
         -3    1    3    3    0  502  0.45062743491E+03 -0.57137453975E+03 -0.22990286983E+03  0.76314433715E+03  0.00000000000E+00 0.  1.
         11    1    5    5    0    0 -0.77589254155E+03  0.62571963959E+03 -0.13690591820E+03  0.10061200395E+04  0.00000000000E+00 0. -1.
        -11    1    5    5    0    0 -0.24076960429E+02  0.52549322380E+01 -0.12798374416E+02  0.27768916508E+02  0.00000000000E+00 0.  1.
          2    1    6    6  503    0 -0.49055905981E+01 -0.14065369078E+01 -0.52338172273E+01  0.73099937044E+01  0.00000000000E+00 0.  1.
         -2    1    6    6    0  503  0.20441342849E+03  0.17814218582E+03  0.14845903748E+03  0.30912711613E+03  0.00000000000E+00 0. -1.
<mgrwt>
<rscale>  0 0.23803488E+04</rscale>
<asrwt>0</asrwt>
<pdfrwt beam="1">  1        2 0.16269121E+00 0.23803488E+04</pdfrwt>
<pdfrwt beam="2">  1       -1 0.20607742E+00 0.23803488E+04</pdfrwt>
<totfact> 0.32507449E+00</totfact>
</mgrwt>
</event>
<event>
12    6  0.1403409E-007  0.2506798E+04  0.7818608E-02  0.8400568E-01
         -1   -1    0    0    0  501 -0.00000000000E+00  0.00000000000E+00  0.99484967599E+03  0.99484967599E+03  0.00000000000E+00 0.  1.
          2   -1    0    0  501    0  0.00000000000E+00 -0.00000000000E+00 -0.15791427183E+04  0.15791427183E+04  0.00000000000E+00 0. -1.
         24    2    1    2    0    0  0.76157710951E+03 -0.77920230633E+03 -0.26194823802E+03  0.11232420321E+04  0.76810516024E+02 0.  0.
        254    2    1    2    0    0 -0.76157710951E+03  0.77920230633E+03 -0.32234480431E+03  0.14507503622E+04  0.90200582738E+03 0.  0.
         23    2    4    4    0    0 -0.32006320251E+03 -0.14849959291E+03  0.17401119521E+02  0.36485650495E+03  0.91240821735E+02 0.  0.
         23    2    4    4    0    0 -0.44151390700E+03  0.92770189924E+03 -0.33974592383E+03  0.10858938572E+04  0.90403719570E+02 0.  0.
          4    1    3    3  502    0  0.34405269352E+03 -0.37244990829E+03 -0.15845556410E+03  0.53122439317E+03  0.00000000000E+00 0. -1.
         -3    1    3    3    0  502  0.41752441598E+03 -0.40675239804E+03 -0.10349267392E+03  0.59201763894E+03  0.00000000000E+00 0.  1.
         11    1    5    5    0    0 -0.42441151229E+02 -0.10031170233E+02  0.32287176446E+02  0.54261749481E+02  0.00000000000E+00 0.  1.
        -11    1    5    5    0    0 -0.27762205128E+03 -0.13846842268E+03 -0.14886056925E+02  0.31059475547E+03  0.00000000000E+00 0. -1.
          1    1    6    6  503    0 -0.17561854505E+03  0.29430799022E+03 -0.14275568307E+03  0.37126574246E+03  0.00000000000E+00 0.  1.
         -1    1    6    6    0  503 -0.26589536195E+03  0.63339390902E+03 -0.19699024076E+03  0.71462811479E+03  0.00000000000E+00 0. -1.
<mgrwt>
<rscale>  0 0.25067985E+04</rscale>
<asrwt>0</asrwt>
<pdfrwt beam="1">  1        2 0.24294503E+00 0.25067985E+04</pdfrwt>
<pdfrwt beam="2">  1       -1 0.15305380E+00 0.25067985E+04</pdfrwt>
<totfact> 0.38417190E+00</totfact>
</mgrwt>
</event>
<event>
12    6  0.1403409E-007  0.2194253E+04  0.7818608E-02  0.8520824E-01
         -1   -1    0    0    0  501 -0.00000000000E+00  0.00000000000E+00  0.99224921802E+03  0.99224921802E+03  0.00000000000E+00 0.  1.
          2   -1    0    0  501    0  0.00000000000E+00 -0.00000000000E+00 -0.12130887581E+04  0.12130887581E+04  0.00000000000E+00 0. -1.
         24    2    1    2    0    0 -0.86252411022E+03 -0.59388029081E+02 -0.37984295089E+03  0.94715932126E+03  0.73180146191E+02 0.  0.
        254    2    1    2    0    0  0.86252411022E+03  0.59388029081E+02  0.15900341079E+03  0.12581786549E+04  0.90014257996E+03 0.  0.
         23    2    4    4    0    0  0.89229889295E+01  0.23326713423E+03  0.27871111886E+03  0.37429019835E+03  0.88994882784E+02 0.  0.
         23    2    4    4    0    0  0.85360112129E+03 -0.17387910515E+03 -0.11970770807E+03  0.88388845654E+03  0.89777785418E+02 0.  0.
          4    1    3    3  502    0 -0.55929954303E+03 -0.60306751986E+01 -0.25940601370E+03  0.61655804902E+03  0.00000000000E+00 0. -1.
         -3    1    3    3    0  502 -0.30322456719E+03 -0.53357353882E+02 -0.12043693719E+03  0.33060127223E+03  0.00000000000E+00 0.  1.
         11    1    5    5    0    0 -0.16464414215E+02  0.31305214171E+02  0.90076875915E+02  0.96772604307E+02  0.00000000000E+00 0. -1.
        -11    1    5    5    0    0  0.25387403144E+02  0.20196192006E+03  0.18863424294E+03  0.27751759404E+03  0.00000000000E+00 0.  1.
          3    1    6    6  503    0  0.72253975278E+03 -0.11360788766E+03 -0.10419490271E+03  0.73880107217E+03  0.00000000000E+00 0. -1.
         -3    1    6    6    0  503  0.13106136851E+03 -0.60271217486E+02 -0.15512805366E+02  0.14508738437E+03  0.00000000000E+00 0.  1.
<mgrwt>
<rscale>  0 0.21942528E+04</rscale>
<asrwt>0</asrwt>
<pdfrwt beam="1">  1        2 0.18662904E+00 0.21942528E+04</pdfrwt>
<pdfrwt beam="2">  1       -1 0.15265373E+00 0.21942528E+04</pdfrwt>
<totfact> 0.64523907E+00</totfact>
</mgrwt>
</event>
<event>
12    6  0.1403409E-007  0.1734000E+04  0.7818608E-02  0.8742207E-01
          2   -1    0    0  501    0  0.00000000000E+00  0.00000000000E+00  0.26849494649E+04  0.26849494649E+04  0.00000000000E+00 0. -1.
         -1   -1    0    0    0  501 -0.00000000000E+00 -0.00000000000E+00 -0.27996403777E+03  0.27996403777E+03  0.00000000000E+00 0.  1.
         24    2    1    2    0    0 -0.56112428876E+03 -0.13633513512E+03  0.45530307732E+03  0.74130492824E+03  0.93724958860E+02 0.  0.
        254    2    1    2    0    0  0.56112428876E+03  0.13633513512E+03  0.19496823498E+04  0.22236085744E+04  0.89984781527E+03 0.  0.
         23    2    4    4    0    0  0.57916897310E+03 -0.55724942572E+02  0.54419178948E+03  0.80190520882E+03  0.91461967880E+02 0.  0.
         23    2    4    4    0    0 -0.18044684340E+02  0.19206007769E+03  0.14054905603E+04  0.14217033656E+04  0.92865820171E+02 0.  0.
          4    1    3    3  502    0 -0.57240771832E+02 -0.35504803522E+02  0.27852437445E+02  0.72889336015E+02  0.00000000000E+00 0. -1.
         -3    1    3    3    0  502 -0.50388351693E+03 -0.10083033160E+03  0.42745063987E+03  0.66841559222E+03  0.00000000000E+00 0.  1.
         11    1    5    5    0    0  0.49031215007E+02 -0.91522357232E+01  0.16706369665E+02  0.52601580311E+02  0.00000000000E+00 0.  1.
        -11    1    5    5    0    0  0.53013775809E+03 -0.46572706848E+02  0.52748541982E+03  0.74930362851E+03  0.00000000000E+00 0. -1.
          4    1    6    6  503    0 -0.10414626381E+02  0.17790722368E+03  0.99069240504E+03  0.10065937046E+04  0.00000000000E+00 0. -1.
         -4    1    6    6    0  503 -0.76300579594E+01  0.14152854009E+02  0.41479815529E+03  0.41510966105E+03  0.00000000000E+00 0.  1.
<mgrwt>
<rscale>  0 0.17340003E+04</rscale>
<asrwt>0</asrwt>
<pdfrwt beam="1">  1        2 0.41306913E+00 0.17340003E+04</pdfrwt>
<pdfrwt beam="2">  1       -1 0.43071392E-01 0.17340003E+04</pdfrwt>
<totfact> 0.15603355E+01</totfact>
</mgrwt>
</event>
<event>
12    6  0.1403409E-007  0.3075587E+04  0.7818608E-02  0.8222470E-01
         -1   -1    0    0    0  501 -0.00000000000E+00  0.00000000000E+00  0.84878519379E+03  0.84878519379E+03  0.00000000000E+00 0.  1.
          2   -1    0    0  501    0  0.00000000000E+00 -0.00000000000E+00 -0.27861100693E+04  0.27861100693E+04  0.00000000000E+00 0. -1.
         24    2    1    2    0    0 -0.53337042743E+03  0.62259198911E+03 -0.22347478211E+04  0.23817466162E+04  0.80711350334E+02 0.  0.
        254    2    1    2    0    0  0.53337042743E+03 -0.62259198911E+03  0.29742294556E+03  0.12531486469E+04  0.89989795252E+03 0.  0.
         23    2    4    4    0    0 -0.71498964962E+02 -0.48396858937E+03 -0.10481564139E+03  0.50796109929E+03  0.87752277602E+02 0.  0.
         23    2    4    4    0    0  0.60486939240E+03 -0.13862339974E+03  0.40223858695E+03  0.74518754762E+03  0.91788732891E+02 0.  0.
          4    1    3    3  502    0 -0.42380537453E+03  0.52901774723E+03 -0.19005696650E+04  0.20178294833E+04  0.00000000000E+00 0. -1.
         -3    1    3    3    0  502 -0.10956505291E+03  0.93574241880E+02 -0.33417815610E+03  0.36391713284E+03  0.00000000000E+00 0.  1.
         11    1    5    5    0    0 -0.18299617559E+01  0.17263100419E+01 -0.72696568281E+01  0.76926469299E+01  0.00000000000E+00 0. -1.
        -11    1    5    5    0    0 -0.69669003206E+02 -0.48569489941E+03 -0.97545984561E+02  0.50026845236E+03  0.00000000000E+00 0.  1.
          3    1    6    6  503    0  0.15528545374E+03 -0.63985473359E+02  0.73898433892E+02  0.18349030349E+03  0.00000000000E+00 0. -1.
         -3    1    6    6    0  503  0.44958393866E+03 -0.74637926384E+02  0.32834015306E+03  0.56169724413E+03  0.00000000000E+00 0.  1.
<mgrwt>
<rscale>  0 0.30755871E+04</rscale>
<asrwt>0</asrwt>
<pdfrwt beam="1">  1        2 0.42863231E+00 0.30755871E+04</pdfrwt>
<pdfrwt beam="2">  1       -1 0.13058234E+00 0.30755871E+04</pdfrwt>
<totfact> 0.11421808E+00</totfact>
</mgrwt>
</event>
<event>
12    6  0.1403409E-007  0.1477487E+04  0.7818608E-02  0.8899563E-01
          2   -1    0    0  501    0  0.00000000000E+00  0.00000000000E+00  0.61252010549E+03  0.61252010549E+03  0.00000000000E+00 0. -1.
         -1   -1    0    0    0  501 -0.00000000000E+00 -0.00000000000E+00 -0.89097833384E+03  0.89097833384E+03  0.00000000000E+00 0.  1.
         24    2    1    2    0    0  0.17076905863E+03  0.28299762138E+03  0.23705683845E+03  0.41523896811E+03  0.83532813217E+02 0.  0.
        254    2    1    2    0    0 -0.17076905863E+03 -0.28299762138E+03 -0.51551506681E+03  0.10882594712E+04  0.89961278755E+03 0.  0.
         23    2    4    4    0    0 -0.16624074187E+03 -0.11939589871E+03  0.22939673426E+03  0.32039698482E+03  0.90221955774E+02 0.  0.
         23    2    4    4    0    0 -0.45283167564E+01 -0.16360172267E+03 -0.74491180106E+03  0.76786248641E+03  0.89068385869E+02 0.  0.
          2    1    3    3  502    0  0.17999000745E+03  0.26097704547E+03  0.22165565334E+03  0.38682896699E+03  0.00000000000E+00 0. -1.
         -1    1    3    3    0  502 -0.92209488207E+01  0.22020575910E+02  0.15401185113E+02  0.28410001117E+02  0.00000000000E+00 0.  1.
         11    1    5    5    0    0 -0.55478567142E+02 -0.89812187309E+01  0.11038525495E+03  0.12386863288E+03  0.00000000000E+00 0. -1.
        -11    1    5    5    0    0 -0.11076217473E+03 -0.11041467998E+03  0.11901147931E+03  0.19652835193E+03  0.00000000000E+00 0.  1.
          1    1    6    6  503    0 -0.39956618467E+02 -0.97295132156E+02 -0.52567480676E+03  0.53609409302E+03  0.00000000000E+00 0.  1.
         -1    1    6    6    0  503  0.35428301711E+02 -0.66306590510E+02 -0.21923699430E+03  0.23176839339E+03  0.00000000000E+00 0. -1.
<mgrwt>
<rscale>  0 0.14774872E+04</rscale>
<asrwt>0</asrwt>
<pdfrwt beam="1">  1        2 0.94233862E-01 0.14774872E+04</pdfrwt>
<pdfrwt beam="2">  1       -1 0.13707359E+00 0.14774872E+04</pdfrwt>
<totfact> 0.23693292E+01</totfact>
</mgrwt>
</event>
<event>
12    6  0.1403409E-007  0.1314631E+04  0.7818608E-02  0.9018043E-01
          2   -1    0    0  501    0  0.00000000000E+00  0.00000000000E+00  0.48486078735E+03  0.48486078735E+03  0.00000000000E+00 0. -1.
         -1   -1    0    0    0  501 -0.00000000000E+00 -0.00000000000E+00 -0.89110853679E+03  0.89110853679E+03  0.00000000000E+00 0.  1.
         24    2    1    2    0    0 -0.33168048718E+02  0.22105751659E+03  0.16250432528E+03  0.28764618183E+03  0.79788000895E+02 0.  0.
        254    2    1    2    0    0  0.33168048718E+02 -0.22105751659E+03 -0.56875207473E+03  0.10883231423E+04  0.90055638052E+03 0.  0.
         23    2    4    4    0    0 -0.13419239691E+03 -0.15741890965E+03 -0.76984852866E+03  0.80214638126E+03  0.89351818021E+02 0.  0.
         23    2    4    4    0    0  0.16736044562E+03 -0.63638606946E+02  0.20109645393E+03  0.28617676106E+03  0.96943095334E+02 0.  0.
          4    1    3    3  502    0 -0.34397206597E+02  0.11334048700E+03  0.12831863225E+03  0.17462790498E+03  0.00000000000E+00 0. -1.
         -3    1    3    3    0  502  0.12291578795E+01  0.10771702960E+03  0.34185693031E+02  0.11301827685E+03  0.00000000000E+00 0.  1.
         11    1    5    5    0    0 -0.81110789726E+02 -0.14210711600E+03 -0.64832719160E+03  0.66865651870E+03  0.00000000000E+00 0. -1.
        -11    1    5    5    0    0 -0.53081607181E+02 -0.15311793643E+02 -0.12152133705E+03  0.13348986255E+03  0.00000000000E+00 0.  1.
          2    1    6    6  503    0  0.13852081910E+03 -0.23109239663E+02  0.18814081694E+03  0.23477440508E+03  0.00000000000E+00 0. -1.
         -2    1    6    6    0  503  0.28839626524E+02 -0.40529367282E+02  0.12955636992E+02  0.51402355979E+02  0.00000000000E+00 0.  1.
<mgrwt>
<rscale>  0 0.13146309E+04</rscale>
<asrwt>0</asrwt>
<pdfrwt beam="1">  1        2 0.74593968E-01 0.13146309E+04</pdfrwt>
<pdfrwt beam="2">  1       -1 0.13709362E+00 0.13146309E+04</pdfrwt>
<totfact> 0.31646907E+01</totfact>
</mgrwt>
</event>
<event>
12    6  0.1403409E-007  0.1626641E+04  0.7818608E-02  0.8804347E-01
          2   -1    0    0  501    0  0.00000000000E+00  0.00000000000E+00  0.17993181948E+04  0.17993181948E+04  0.00000000000E+00 0. -1.
         -1   -1    0    0    0  501 -0.00000000000E+00 -0.00000000000E+00 -0.36763379412E+03  0.36763379412E+03  0.00000000000E+00 0.  1.
         24    2    1    2    0    0 -0.12672803851E+03  0.10704714730E+03 -0.21594038587E+03  0.28336787166E+03  0.78409265683E+02 0.  0.
        254    2    1    2    0    0  0.12672803851E+03 -0.10704714730E+03  0.16476247866E+04  0.18835841173E+04  0.89760938166E+03 0.  0.
         23    2    4    4    0    0 -0.32202445185E+03 -0.23742186107E+03  0.99154988531E+03  0.10729592874E+04  0.89451493160E+02 0.  0.
         23    2    4    4    0    0  0.44875249036E+03  0.13037471376E+03  0.65607490127E+03  0.81062482990E+03  0.91115175340E+02 0.  0.
          2    1    3    3  502    0 -0.51562321654E+02  0.48718639695E+02 -0.35372745025E+02  0.79267963003E+02  0.00000000000E+00 0. -1.
         -1    1    3    3    0  502 -0.75165716854E+02  0.58328507610E+02 -0.18056764085E+03  0.20409990865E+03  0.00000000000E+00 0.  1.
         11    1    5    5    0    0 -0.27996198338E+03 -0.19150144042E+03  0.90384561234E+03  0.96539546548E+03  0.00000000000E+00 0.  1.
        -11    1    5    5    0    0 -0.42062468465E+02 -0.45920420648E+02  0.87704272969E+02  0.10756382191E+03  0.00000000000E+00 0. -1.
          3    1    6    6  503    0  0.11049224306E+02  0.20485027424E+02  0.48387779380E+02  0.53694495991E+02  0.00000000000E+00 0. -1.
         -3    1    6    6    0  503  0.43770326605E+03  0.10988968634E+03  0.60768712189E+03  0.75693033391E+03  0.00000000000E+00 0.  1.
<mgrwt>
<rscale>  0 0.16266409E+04</rscale>
<asrwt>0</asrwt>
<pdfrwt beam="1">  1        2 0.27681818E+00 0.16266409E+04</pdfrwt>
<pdfrwt beam="2">  1       -1 0.56559046E-01 0.16266409E+04</pdfrwt>
<totfact> 0.29786489E+01</totfact>
</mgrwt>
</event>
<event>
12    6  0.1403409E-007  0.1566862E+04  0.7818608E-02  0.8841168E-01
          2   -1    0    0  501    0  0.00000000000E+00  0.00000000000E+00  0.22668303443E+04  0.22668303443E+04  0.00000000000E+00 0. -1.
         -1   -1    0    0    0  501 -0.00000000000E+00 -0.00000000000E+00 -0.27075879486E+03  0.27075879486E+03  0.00000000000E+00 0.  1.
         24    2    1    2    0    0  0.16701032554E+02 -0.31801804938E+03  0.62634197621E+01  0.32849271686E+03  0.80335735390E+02 0.  0.
        254    2    1    2    0    0 -0.16701032554E+02  0.31801804938E+03  0.19898081297E+04  0.22090964223E+04  0.90518296815E+03 0.  0.
         23    2    4    4    0    0  0.86378133503E+02  0.60964354842E+03  0.11241729031E+04  0.12851023614E+04  0.92719605204E+02 0.  0.
         23    2    4    4    0    0 -0.10307916606E+03 -0.29162549904E+03  0.86563522658E+03  0.92399406088E+03  0.93647919734E+02 0.  0.
          2    1    3    3  502    0  0.29569432311E+02 -0.69432789565E+02 -0.20331936353E+02  0.78157860960E+02  0.00000000000E+00 0. -1.
         -1    1    3    3    0  502 -0.12868399757E+02 -0.24858525982E+03  0.26595356115E+02  0.25033485590E+03  0.00000000000E+00 0.  1.
         11    1    5    5    0    0  0.64930360195E+01  0.26013105219E+02  0.19405275140E+02  0.33096916217E+02  0.00000000000E+00 0. -1.
        -11    1    5    5    0    0  0.79885097484E+02  0.58363044320E+03  0.11047676279E+04  0.12520054452E+04  0.00000000000E+00 0.  1.
          4    1    6    6  503    0 -0.65183902592E+02 -0.65226613520E+02  0.21066588144E+03  0.22996427086E+03  0.00000000000E+00 0. -1.
         -4    1    6    6    0  503 -0.37895263465E+02 -0.22639888552E+03  0.65496934514E+03  0.69402979002E+03  0.00000000000E+00 0.  1.
<mgrwt>
<rscale>  0 0.15668622E+04</rscale>
<asrwt>0</asrwt>
<pdfrwt beam="1">  1        2 0.34874312E+00 0.15668622E+04</pdfrwt>
<pdfrwt beam="2">  1       -1 0.41655201E-01 0.15668622E+04</pdfrwt>
<totfact> 0.29335685E+01</totfact>
</mgrwt>
</event>
<event>
12    6  0.1403409E-007  0.1509044E+04  0.7818608E-02  0.8878461E-01
          2   -1    0    0  501    0  0.00000000000E+00  0.00000000000E+00  0.40102124901E+03  0.40102124901E+03  0.00000000000E+00 0. -1.
         -1   -1    0    0    0  501 -0.00000000000E+00 -0.00000000000E+00 -0.14196350369E+04  0.14196350369E+04  0.00000000000E+00 0.  1.
         24    2    1    2    0    0  0.17791019295E+02 -0.12187725942E+03  0.23079844525E+03  0.27355240738E+03  0.79952551698E+02 0.  0.
        254    2    1    2    0    0 -0.17791019295E+02  0.12187725942E+03 -0.12494122331E+04  0.15471038785E+04  0.90406244029E+03 0.  0.
         23    2    4    4    0    0  0.27110127159E+03  0.33233010666E+03 -0.10255717213E+04  0.11154318063E+04  0.91932364323E+02 0.  0.
         23    2    4    4    0    0 -0.28889229088E+03 -0.21045284724E+03 -0.22384051182E+03  0.43167207227E+03  0.92125168162E+02 0.  0.
          2    1    3    3  502    0  0.29508825591E+02 -0.55025903754E+02  0.17462095209E+03  0.18544836958E+03  0.00000000000E+00 0. -1.
         -1    1    3    3    0  502 -0.11717806297E+02 -0.66851355664E+02  0.56177493156E+02  0.88104037795E+02  0.00000000000E+00 0.  1.
         11    1    5    5    0    0  0.23117115065E+02  0.42396819219E+02 -0.20337881844E+03  0.20903309566E+03  0.00000000000E+00 0.  1.
        -11    1    5    5    0    0  0.24798415652E+03  0.28993328744E+03 -0.82219290289E+03  0.90639871062E+03  0.00000000000E+00 0. -1.
          2    1    6    6  503    0 -0.20945071509E+03 -0.16954319267E+03 -0.20915653171E+03  0.34111721004E+03  0.00000000000E+00 0. -1.
         -2    1    6    6    0  503 -0.79441575797E+02 -0.40909654571E+02 -0.14683980108E+02  0.90554862233E+02  0.00000000000E+00 0.  1.
<mgrwt>
<rscale>  0 0.15090445E+04</rscale>
<asrwt>0</asrwt>
<pdfrwt beam="1">  1        2 0.61695576E-01 0.15090445E+04</pdfrwt>
<pdfrwt beam="2">  1       -1 0.21840539E+00 0.15090445E+04</pdfrwt>
<totfact> 0.98789390E+00</totfact>
</mgrwt>
</event>
<event>
12    6  0.1403409E-007  0.1125368E+04  0.7818608E-02  0.9180813E-01
         -1   -1    0    0    0  501 -0.00000000000E+00  0.00000000000E+00  0.10712000597E+03  0.10712000597E+03  0.00000000000E+00 0.  1.
          2   -1    0    0  501    0  0.00000000000E+00 -0.00000000000E+00 -0.29556896453E+04  0.29556896453E+04  0.00000000000E+00 0. -1.
         24    2    1    2    0    0  0.13486014922E+03  0.11385708348E+03 -0.33683854103E+03  0.38866324329E+03  0.80300801077E+02 0.  0.
        254    2    1    2    0    0 -0.13486014922E+03 -0.11385708348E+03 -0.25117310983E+04  0.26741464080E+04  0.90061934572E+03 0.  0.
         23    2    4    4    0    0 -0.12443306898E+03 -0.45976816461E+03 -0.89536976928E+03  0.10187663003E+04  0.96578450590E+02 0.  0.
         23    2    4    4    0    0 -0.10427080240E+02  0.34591108113E+03 -0.16163613290E+04  0.16553801076E+04  0.88860310624E+02 0.  0.
          4    1    3    3  502    0 -0.24829439339E+01  0.35629663336E+02 -0.67731833780E+02  0.76571791328E+02  0.00000000000E+00 0. -1.
         -3    1    3    3    0  502  0.13734309315E+03  0.78227420143E+02 -0.26910670725E+03  0.31209145196E+03  0.00000000000E+00 0.  1.
         11    1    5    5    0    0 -0.92015299029E+02 -0.30021545688E+03 -0.67801255490E+03  0.74719285356E+03  0.00000000000E+00 0. -1.
        -11    1    5    5    0    0 -0.32417769948E+02 -0.15955270773E+03 -0.21735721438E+03  0.27157344678E+03  0.00000000000E+00 0.  1.
          2    1    6    6  503    0 -0.75998731180E+01  0.12606797576E+03 -0.40525830065E+03  0.42448225267E+03  0.00000000000E+00 0. -1.
         -2    1    6    6    0  503 -0.28272071224E+01  0.21984310538E+03 -0.12111030284E+04  0.12308978550E+04  0.00000000000E+00 0.  1.
<mgrwt>
<rscale>  0 0.11253684E+04</rscale>
<asrwt>0</asrwt>
<pdfrwt beam="1">  1        2 0.45472154E+00 0.11253684E+04</pdfrwt>
<pdfrwt beam="2">  1       -1 0.16479999E-01 0.11253684E+04</pdfrwt>
<totfact> 0.60095303E+01</totfact>
</mgrwt>
</event>
<event>
12    6  0.1403409E-007  0.2346045E+04  0.7818608E-02  0.8459984E-01
         -1   -1    0    0    0  501 -0.00000000000E+00  0.00000000000E+00  0.12823526933E+04  0.12823526933E+04  0.00000000000E+00 0.  1.
          2   -1    0    0  501    0  0.00000000000E+00 -0.00000000000E+00 -0.10730133806E+04  0.10730133806E+04  0.00000000000E+00 0. -1.
         24    2    1    2    0    0 -0.90793744511E+03 -0.26552944584E+03 -0.23239277707E+03  0.97696479917E+03  0.74816610074E+02 0.  0.
        254    2    1    2    0    0  0.90793744511E+03  0.26552944584E+03  0.44173208972E+03  0.13784012748E+04  0.90000363573E+03 0.  0.
         23    2    4    4    0    0  0.35273336211E+03 -0.26672087323E+03  0.39938173553E+03  0.60292516623E+03  0.91935501540E+02 0.  0.
         23    2    4    4    0    0  0.55520408301E+03  0.53225031906E+03  0.42350354190E+02  0.77547610853E+03  0.89597245856E+02 0.  0.
          4    1    3    3  502    0 -0.33233130398E+03 -0.87327579856E+02 -0.48833683388E+02  0.34706617588E+03  0.00000000000E+00 0. -1.
         -3    1    3    3    0  502 -0.57560614113E+03 -0.17820186598E+03 -0.18355909368E+03  0.62989862329E+03  0.00000000000E+00 0.  1.
         11    1    5    5    0    0  0.16851010016E+03 -0.95543887520E+02  0.12401452477E+03  0.23000845779E+03  0.00000000000E+00 0.  1.
        -11    1    5    5    0    0  0.18422326194E+03 -0.17117698571E+03  0.27536721075E+03  0.37291670844E+03  0.00000000000E+00 0. -1.
          2    1    6    6  503    0  0.76539529750E+02  0.37103022271E+02  0.14019491687E+02  0.86206032406E+02  0.00000000000E+00 0.  1.
         -2    1    6    6    0  503  0.47866455326E+03  0.49514729679E+03  0.28330862503E+02  0.68927007612E+03  0.00000000000E+00 0. -1.
<mgrwt>
<rscale>  0 0.23460448E+04</rscale>
<asrwt>0</asrwt>
<pdfrwt beam="1">  1        2 0.16507898E+00 0.23460448E+04</pdfrwt>
<pdfrwt beam="2">  1       -1 0.19728503E+00 0.23460448E+04</pdfrwt>
<totfact> 0.36645392E+00</totfact>
</mgrwt>
</event>
<event>
12    6  0.1403409E-007  0.3127135E+04  0.7818608E-02  0.8208330E-01
          2   -1    0    0  501    0  0.00000000000E+00  0.00000000000E+00  0.19581894013E+04  0.19581894013E+04  0.00000000000E+00 0. -1.
         -1   -1    0    0    0  501 -0.00000000000E+00 -0.00000000000E+00 -0.12484715802E+04  0.12484715802E+04  0.00000000000E+00 0.  1.
         24    2    1    2    0    0 -0.84567076390E+03 -0.10962161799E+04  0.69963470942E+03  0.15532356519E+04  0.78761093336E+02 0.  0.
        254    2    1    2    0    0  0.84567076390E+03  0.10962161799E+04  0.10083111615E+02  0.16534253296E+04  0.90380567468E+03 0.  0.
         23    2    4    4    0    0  0.79111096912E+03  0.11367842962E+04  0.22908511312E+03  0.14067254580E+04  0.90892373991E+02 0.  0.
         23    2    4    4    0    0  0.54559794779E+02 -0.40568116296E+02 -0.21900200151E+03  0.24669987163E+03  0.90974758769E+02 0.  0.
          2    1    3    3  502    0 -0.67347717098E+03 -0.91026409158E+03  0.54871783213E+03  0.12582700328E+04  0.00000000000E+00 0. -1.
         -1    1    3    3    0  502 -0.17219359292E+03 -0.18595208827E+03  0.15091687729E+03  0.29496561906E+03  0.00000000000E+00 0.  1.
         11    1    5    5    0    0  0.49795235885E+03  0.65734342523E+03  0.16637716013E+03  0.84127182872E+03  0.00000000000E+00 0.  1.
        -11    1    5    5    0    0  0.29315861027E+03  0.47944087092E+03  0.62707952992E+02  0.56545362926E+03  0.00000000000E+00 0. -1.
          1    1    6    6  503    0 -0.14994549518E+02 -0.16248536679E+01 -0.16273022794E+01  0.15169864119E+02  0.00000000000E+00 0. -1.
         -1    1    6    6    0  503  0.69554344297E+02 -0.38943262628E+02 -0.21737469923E+03  0.23153000751E+03  0.00000000000E+00 0.  1.
<mgrwt>
<rscale>  0 0.31271353E+04</rscale>
<asrwt>0</asrwt>
<pdfrwt beam="1">  1        2 0.30125991E+00 0.31271353E+04</pdfrwt>
<pdfrwt beam="2">  1       -1 0.19207255E+00 0.31271353E+04</pdfrwt>
<totfact> 0.11607785E+00</totfact>
</mgrwt>
</event>
<event>
12    6  0.1403409E-007  0.2753463E+04  0.7818608E-02  0.8317864E-01
         -1   -1    0    0    0  501 -0.00000000000E+00  0.00000000000E+00  0.10522388761E+04  0.10522388761E+04  0.00000000000E+00 0.  1.
          2   -1    0    0  501    0  0.00000000000E+00 -0.00000000000E+00 -0.18012916934E+04  0.18012916934E+04  0.00000000000E+00 0. -1.
         24    2    1    2    0    0 -0.81114482291E+03  0.89975725105E+03 -0.12809244067E+03  0.12214607923E+04  0.89664704998E+02 0.  0.
        254    2    1    2    0    0  0.81114482291E+03 -0.89975725105E+03 -0.62096037664E+03  0.16320697771E+04  0.90030046841E+03 0.  0.
         23    2    4    4    0    0  0.76561343807E+03 -0.46734283266E+03 -0.44337977224E+02  0.90262020896E+03  0.90466157241E+02 0.  0.
         23    2    4    4    0    0  0.45531384847E+02 -0.43241441839E+03 -0.57662239942E+03  0.72944956815E+03  0.10270318750E+03 0.  0.
          4    1    3    3  502    0 -0.19529748989E+03  0.16225955470E+03 -0.26899507358E+02  0.25532891757E+03  0.00000000000E+00 0. -1.
         -3    1    3    3    0  502 -0.61584733302E+03  0.73749769635E+03 -0.10119293331E+03  0.96613187478E+03  0.00000000000E+00 0.  1.
         11    1    5    5    0    0  0.53739727017E+03 -0.29225447242E+03 -0.59265514144E+02  0.61459002904E+03  0.00000000000E+00 0.  1.
        -11    1    5    5    0    0  0.22821616790E+03 -0.17508836024E+03  0.14927536920E+02  0.28803017992E+03  0.00000000000E+00 0. -1.
          2    1    6    6  503    0  0.66831242034E+02 -0.35159002880E+03 -0.50743905291E+03  0.62094794925E+03  0.00000000000E+00 0. -1.
         -2    1    6    6    0  503 -0.21299857187E+02 -0.80824389590E+02 -0.69183346509E+02  0.10850161890E+03  0.00000000000E+00 0.  1.
<mgrwt>
<rscale>  0 0.27534627E+04</rscale>
<asrwt>0</asrwt>
<pdfrwt beam="1">  1        2 0.27712180E+00 0.27534627E+04</pdfrwt>
<pdfrwt beam="2">  1       -1 0.16188290E+00 0.27534627E+04</pdfrwt>
<totfact> 0.24220183E+00</totfact>
</mgrwt>
</event>
<event>
12    6  0.1403409E-007  0.2820537E+04  0.7818608E-02  0.8296921E-01
          2   -1    0    0  501    0  0.00000000000E+00  0.00000000000E+00  0.16948798281E+04  0.16948798281E+04  0.00000000000E+00 0. -1.
         -1   -1    0    0    0  501 -0.00000000000E+00 -0.00000000000E+00 -0.11734505344E+04  0.11734505344E+04  0.00000000000E+00 0.  1.
         24    2    1    2    0    0 -0.19723883551E+03  0.20739838532E+03  0.14879556066E+04  0.15173792294E+04  0.80688229222E+02 0.  0.
        254    2    1    2    0    0  0.19723883551E+03 -0.20739838532E+03 -0.96652631284E+03  0.13509511331E+04  0.89943237770E+03 0.  0.
         23    2    4    4    0    0 -0.18077134562E+03 -0.36125132506E+03 -0.16537795318E+03  0.44725233780E+03  0.97488394287E+02 0.  0.
         23    2    4    4    0    0  0.37801018113E+03  0.15385293974E+03 -0.80114835966E+03  0.90369879527E+03  0.90941708080E+02 0.  0.
          4    1    3    3  502    0 -0.99837547288E+02  0.11819400166E+03  0.99854060237E+03  0.10104556855E+04  0.00000000000E+00 0. -1.
         -3    1    3    3    0  502 -0.97401288225E+02  0.89204383652E+02  0.48941500421E+03  0.50692354389E+03  0.00000000000E+00 0.  1.
         11    1    5    5    0    0 -0.11614290953E+03 -0.22550462080E+03 -0.15339032028E+03  0.29642891187E+03  0.00000000000E+00 0.  1.
        -11    1    5    5    0    0 -0.64628436090E+02 -0.13574670425E+03 -0.11987632896E+02  0.15082342593E+03  0.00000000000E+00 0. -1.
          1    1    6    6  503    0  0.32401396503E+03  0.95777800439E+02 -0.67174591258E+03  0.75193151793E+03  0.00000000000E+00 0. -1.
         -1    1    6    6    0  503  0.53996216101E+02  0.58075139304E+02 -0.12940244708E+03  0.15176727733E+03  0.00000000000E+00 0.  1.
<mgrwt>
<rscale>  0 0.28205373E+04</rscale>
<asrwt>0</asrwt>
<pdfrwt beam="1">  1        2 0.26075074E+00 0.28205373E+04</pdfrwt>
<pdfrwt beam="2">  1       -1 0.18053085E+00 0.28205373E+04</pdfrwt>
<totfact> 0.20137668E+00</totfact>
</mgrwt>
</event>
<event>
12    6  0.1403409E-007  0.2184743E+04  0.7818608E-02  0.8524805E-01
         -1   -1    0    0    0  501 -0.00000000000E+00  0.00000000000E+00  0.77447294825E+03  0.77447294825E+03  0.00000000000E+00 0.  1.
          2   -1    0    0  501    0  0.00000000000E+00 -0.00000000000E+00 -0.15407579484E+04  0.15407579484E+04  0.00000000000E+00 0. -1.
         24    2    1    2    0    0  0.25124987630E+03  0.56301792256E+03  0.38006485514E+03  0.72875512779E+03  0.80740700457E+02 0.  0.
        254    2    1    2    0    0 -0.25124987630E+03 -0.56301792256E+03 -0.11463498553E+04  0.15864757688E+04  0.90701250982E+03 0.  0.
         23    2    4    4    0    0 -0.47442168543E+03 -0.39568437951E+03 -0.11311439115E+04  0.12921689920E+04  0.92585591586E+02 0.  0.
         23    2    4    4    0    0  0.22317180913E+03 -0.16733354305E+03 -0.15205943813E+02  0.29430677680E+03  0.92623361645E+02 0.  0.
          2    1    3    3  502    0  0.14314083497E+03  0.35281460897E+03  0.27722026665E+03  0.47097613865E+03  0.00000000000E+00 0. -1.
         -1    1    3    3    0  502  0.10810904132E+03  0.21020331360E+03  0.10284458849E+03  0.25777898914E+03  0.00000000000E+00 0.  1.
         11    1    5    5    0    0 -0.43734489503E+03 -0.35524252402E+03 -0.96793458121E+03  0.11199844470E+04  0.00000000000E+00 0.  1.
        -11    1    5    5    0    0 -0.37076790401E+02 -0.40441855491E+02 -0.16320933024E+03  0.17218454501E+03  0.00000000000E+00 0. -1.
          1    1    6    6  503    0  0.12081313299E+03 -0.12974948219E+03  0.22986127203E+02  0.17877109183E+03  0.00000000000E+00 0. -1.
         -1    1    6    6    0  503  0.10235867614E+03 -0.37584060859E+02 -0.38192071016E+02  0.11553568497E+03  0.00000000000E+00 0.  1.
<mgrwt>
<rscale>  0 0.21847429E+04</rscale>
<asrwt>0</asrwt>
<pdfrwt beam="1">  1        2 0.23703968E+00 0.21847429E+04</pdfrwt>
<pdfrwt beam="2">  1       -1 0.11914968E+00 0.21847429E+04</pdfrwt>
<totfact> 0.79071106E+00</totfact>
</mgrwt>
</event>
<event>
12    6  0.1403409E-007  0.3539269E+04  0.7818608E-02  0.8104546E-01
         -1   -1    0    0    0  501 -0.00000000000E+00  0.00000000000E+00  0.22103096489E+04  0.22103096489E+04  0.00000000000E+00 0.  1.
          2   -1    0    0  501    0  0.00000000000E+00 -0.00000000000E+00 -0.14168178764E+04  0.14168178764E+04  0.00000000000E+00 0. -1.
         24    2    1    2    0    0 -0.11450332614E+04  0.95880131419E+03  0.11003063860E+04  0.18566567097E+04  0.78095229870E+02 0.  0.
        254    2    1    2    0    0  0.11450332614E+04 -0.95880131419E+03 -0.30681461348E+03  0.17704708156E+04  0.90001698425E+03 0.  0.
         23    2    4    4    0    0 -0.42196697210E+02 -0.67677431798E+02  0.16933927140E+03  0.20853505192E+03  0.91925420923E+02 0.  0.
         23    2    4    4    0    0  0.11872299587E+04 -0.89112388239E+03 -0.47615388488E+03  0.15619357637E+04  0.96457551717E+02 0.  0.
          2    1    3    3  502    0 -0.75606971675E+03  0.66230028568E+03  0.70380943282E+03  0.12270414837E+04  0.00000000000E+00 0. -1.
         -1    1    3    3    0  502 -0.38896354469E+03  0.29650102851E+03  0.39649695314E+03  0.62961522604E+03  0.00000000000E+00 0.  1.
         11    1    5    5    0    0 -0.27468757866E+02 -0.88567728981E+02  0.15053250340E+03  0.17680161157E+03  0.00000000000E+00 0. -1.
        -11    1    5    5    0    0 -0.14727939345E+02  0.20890297183E+02  0.18806768000E+02  0.31733440349E+02  0.00000000000E+00 0.  1.
          1    1    6    6  503    0  0.59645086285E+03 -0.38764585270E+03 -0.22356926254E+03  0.74565820190E+03  0.00000000000E+00 0. -1.
         -1    1    6    6    0  503  0.59077909581E+03 -0.50347802969E+03 -0.25258462234E+03  0.81627756178E+03  0.00000000000E+00 0.  1.
<mgrwt>
<rscale>  0 0.35392690E+04</rscale>
<asrwt>0</asrwt>
<pdfrwt beam="1">  1        2 0.21797198E+00 0.35392690E+04</pdfrwt>
<pdfrwt beam="2">  1       -1 0.34004764E+00 0.35392690E+04</pdfrwt>
<totfact> 0.23860530E-01</totfact>
</mgrwt>
</event>
<event>
12    6  0.1403409E-007  0.2961839E+04  0.7818608E-02  0.8254713E-01
         -1   -1    0    0    0  501 -0.00000000000E+00  0.00000000000E+00  0.87344165571E+03  0.87344165571E+03  0.00000000000E+00 0.  1.
          2   -1    0    0  501    0  0.00000000000E+00 -0.00000000000E+00 -0.25108968716E+04  0.25108968716E+04  0.00000000000E+00 0. -1.
         24    2    1    2    0    0 -0.63271090596E+03  0.11755091992E+04 -0.90763408478E+03  0.16163137577E+04  0.80780961083E+02 0.  0.
        254    2    1    2    0    0  0.63271090596E+03 -0.11755091992E+04 -0.72982113107E+03  0.17680247696E+04  0.90062630133E+03 0.  0.
         23    2    4    4    0    0  0.14126785635E+03 -0.10365389056E+04 -0.29364538059E+03  0.10902758172E+04  0.90023541749E+02 0.  0.
         23    2    4    4    0    0  0.49144304961E+03 -0.13897029358E+03 -0.43617575048E+03  0.67774895235E+03  0.90913935096E+02 0.  0.
          2    1    3    3  502    0 -0.27320913505E+03  0.47286459853E+03 -0.32774982484E+03  0.63691766163E+03  0.00000000000E+00 0. -1.
         -1    1    3    3    0  502 -0.35950177091E+03  0.70264460062E+03 -0.57988425994E+03  0.97939609607E+03  0.00000000000E+00 0.  1.
         11    1    5    5    0    0  0.27599342499E+02 -0.23381025016E+03 -0.10551967057E+03  0.25799875516E+03  0.00000000000E+00 0.  1.
        -11    1    5    5    0    0  0.11366851385E+03 -0.80272865542E+03 -0.18812571002E+03  0.83227706206E+03  0.00000000000E+00 0. -1.
          3    1    6    6  503    0  0.45288304129E+03 -0.10448372190E+03 -0.37199664469E+03  0.59531621924E+03  0.00000000000E+00 0. -1.
         -3    1    6    6    0  503  0.38560008321E+02 -0.34486571674E+02 -0.64179105789E+02  0.82432733107E+02  0.00000000000E+00 0.  1.
<mgrwt>
<rscale>  0 0.29618386E+04</rscale>
<asrwt>0</asrwt>
<pdfrwt beam="1">  1        2 0.38629183E+00 0.29618386E+04</pdfrwt>
<pdfrwt beam="2">  1       -1 0.13437564E+00 0.29618386E+04</pdfrwt>
<totfact> 0.15605750E+00</totfact>
</mgrwt>
</event>
<event>
12    6  0.1403409E-007  0.1522078E+04  0.7818608E-02  0.8869902E-01
         -1   -1    0    0    0  501 -0.00000000000E+00  0.00000000000E+00  0.18280573281E+04  0.18280573281E+04  0.00000000000E+00 0.  1.
          2   -1    0    0  501    0  0.00000000000E+00 -0.00000000000E+00 -0.31682849550E+03  0.31682849550E+03  0.00000000000E+00 0. -1.
         24    2    1    2    0    0 -0.15407550361E+02  0.35998328782E+03  0.96039777018E+03  0.10288449931E+04  0.79578783083E+02 0.  0.
        254    2    1    2    0    0  0.15407550361E+02 -0.35998328782E+03  0.55083106239E+03  0.11160408305E+04  0.90128070870E+03 0.  0.
         23    2    4    4    0    0  0.15281166528E+03  0.25984516163E+03  0.94973440949E+02  0.32880534707E+03  0.90675733850E+02 0.  0.
         23    2    4    4    0    0 -0.13740411492E+03 -0.61982844945E+03  0.45585762144E+03  0.78723548341E+03  0.94161232784E+02 0.  0.
          2    1    3    3  502    0 -0.26269260052E+02  0.22327087190E+03  0.49495268147E+03  0.54361577714E+03  0.00000000000E+00 0. -1.
         -1    1    3    3    0  502  0.10861709691E+02  0.13671241593E+03  0.46544508871E+03  0.48522921595E+03  0.00000000000E+00 0.  1.
         11    1    5    5    0    0  0.15303183763E+03  0.20617814812E+03  0.56871382036E+02  0.26298769208E+03  0.00000000000E+00 0. -1.
        -11    1    5    5    0    0 -0.22017235423E+00  0.53667013513E+02  0.38102058913E+02  0.65817654992E+02  0.00000000000E+00 0.  1.
          4    1    6    6  503    0 -0.14071403312E+03 -0.46335879981E+03  0.32466919685E+03  0.58301964277E+03  0.00000000000E+00 0. -1.
         -4    1    6    6    0  503  0.33099181989E+01 -0.15646964964E+03  0.13118842460E+03  0.20421584063E+03  0.00000000000E+00 0.  1.
<mgrwt>
<rscale>  0 0.15220784E+04</rscale>
<asrwt>0</asrwt>
<pdfrwt beam="1">  1        2 0.48742847E-01 0.15220784E+04</pdfrwt>
<pdfrwt beam="2">  1       -1 0.28123958E+00 0.15220784E+04</pdfrwt>
<totfact> 0.49921058E+00</totfact>
</mgrwt>
</event>
<event>
12    6  0.1403409E-007  0.1392199E+04  0.7818608E-02  0.8959485E-01
          2   -1    0    0  501    0  0.00000000000E+00  0.00000000000E+00  0.26855856717E+03  0.26855856717E+03  0.00000000000E+00 0. -1.
         -1   -1    0    0    0  501 -0.00000000000E+00 -0.00000000000E+00 -0.18042777380E+04  0.18042777380E+04  0.00000000000E+00 0.  1.
         24    2    1    2    0    0  0.27639121878E+03  0.84346340522E+02 -0.37195720572E+02  0.30219743197E+03  0.80208199573E+02 0.  0.
        254    2    1    2    0    0 -0.27639121878E+03 -0.84346340522E+02 -0.14985234502E+04  0.17706388732E+04  0.89782129477E+03 0.  0.
         23    2    4    4    0    0 -0.27170235926E+03  0.13664645820E+03 -0.74139813354E+02  0.32630619202E+03  0.92111847585E+02 0.  0.
         23    2    4    4    0    0 -0.46888595270E+01 -0.22099279872E+03 -0.14243836369E+04  0.14443326812E+04  0.91478666070E+02 0.  0.
          4    1    3    3  502    0  0.22973050805E+03  0.90644649842E+02 -0.86128718476E+01  0.24711685583E+03  0.00000000000E+00 0. -1.
         -3    1    3    3    0  502  0.46660710733E+02 -0.62983093199E+01 -0.28582848724E+02  0.55080576137E+02  0.00000000000E+00 0.  1.
         11    1    5    5    0    0 -0.13031991179E+03  0.10060644689E+03 -0.73756042614E+02  0.18040202435E+03  0.00000000000E+00 0. -1.
        -11    1    5    5    0    0 -0.14138244746E+03  0.36040011305E+02 -0.38377073989E+00  0.14590416768E+03  0.00000000000E+00 0.  1.
          3    1    6    6  503    0  0.54434124700E+01 -0.92735692689E+02 -0.34424417189E+03  0.35655797470E+03  0.00000000000E+00 0. -1.
         -3    1    6    6    0  503 -0.10132271997E+02 -0.12825710603E+03 -0.10801394650E+04  0.10877747065E+04  0.00000000000E+00 0.  1.
<mgrwt>
<rscale>  0 0.13921986E+04</rscale>
<asrwt>0</asrwt>
<pdfrwt beam="1">  1        2 0.41316701E-01 0.13921986E+04</pdfrwt>
<pdfrwt beam="2">  1       -1 0.27758120E+00 0.13921986E+04</pdfrwt>
<totfact> 0.64108521E+00</totfact>
</mgrwt>
</event>
<event>
12    6  0.1403409E-007  0.2329587E+04  0.7818608E-02  0.8466346E-01
         -1   -1    0    0    0  501 -0.00000000000E+00  0.00000000000E+00  0.61854005164E+03  0.61854005164E+03  0.00000000000E+00 0.  1.
          2   -1    0    0  501    0  0.00000000000E+00 -0.00000000000E+00 -0.21934622233E+04  0.21934622233E+04  0.00000000000E+00 0. -1.
         24    2    1    2    0    0 -0.67562243028E+03  0.37722699822E+03 -0.14150096141E+04  0.16147484521E+04  0.79965486569E+02 0.  0.
        254    2    1    2    0    0  0.67562243028E+03 -0.37722699822E+03 -0.15991255760E+03  0.11972538229E+04  0.89948808432E+03 0.  0.
         23    2    4    4    0    0  0.10293003671E+03 -0.46980112226E+03 -0.32452903012E+03  0.58730268128E+03  0.91091498614E+02 0.  0.
         23    2    4    4    0    0  0.57269239358E+03  0.92574124039E+02  0.16461647252E+03  0.60995114159E+03  0.91625684195E+02 0.  0.
          4    1    3    3  502    0 -0.44831042138E+03  0.29232483850E+03 -0.96328925490E+03  0.11019810496E+04  0.00000000000E+00 0. -1.
         -3    1    3    3    0  502 -0.22731200891E+03  0.84902159721E+02 -0.45172035918E+03  0.51276740245E+03  0.00000000000E+00 0.  1.
         11    1    5    5    0    0  0.10157402580E+03 -0.30394130926E+03 -0.24481451892E+03  0.40327627114E+03  0.00000000000E+00 0.  1.
        -11    1    5    5    0    0  0.13560109086E+01 -0.16585981300E+03 -0.79714511197E+02  0.18402641014E+03  0.00000000000E+00 0. -1.
          3    1    6    6  503    0  0.23992265465E+03  0.59602138356E+02  0.28280507950E+02  0.24882741456E+03  0.00000000000E+00 0. -1.
         -3    1    6    6    0  503  0.33276973893E+03  0.32971985683E+02  0.13633596457E+03  0.36112372703E+03  0.00000000000E+00 0.  1.
<mgrwt>
<rscale>  0 0.23295873E+04</rscale>
<asrwt>0</asrwt>
<pdfrwt beam="1">  1        2 0.33745573E+00 0.23295873E+04</pdfrwt>
<pdfrwt beam="2">  1       -1 0.95160006E-01 0.23295873E+04</pdfrwt>
<totfact> 0.57162516E+00</totfact>
</mgrwt>
</event>
<event>
12    6  0.1403409E-007  0.2141628E+04  0.7818608E-02  0.8543124E-01
          2   -1    0    0  501    0  0.00000000000E+00  0.00000000000E+00  0.16027673920E+04  0.16027673920E+04  0.00000000000E+00 0. -1.
         -1   -1    0    0    0  501 -0.00000000000E+00 -0.00000000000E+00 -0.71541442073E+03  0.71541442073E+03  0.00000000000E+00 0.  1.
         24    2    1    2    0    0  0.61314323061E+03  0.52876932520E+03 -0.50879868695E+01  0.81340045294E+03  0.77799670398E+02 0.  0.
        254    2    1    2    0    0 -0.61314323061E+03 -0.52876932520E+03  0.89244095811E+03  0.15047813598E+04  0.90131817715E+03 0.  0.
         23    2    4    4    0    0 -0.21090006433E+03 -0.39715992029E+03 -0.55420208485E+02  0.46250341599E+03  0.92861029920E+02 0.  0.
         23    2    4    4    0    0 -0.40224316628E+03 -0.13160940491E+03  0.94786116659E+03  0.10422779438E+04  0.93711902402E+02 0.  0.
          2    1    3    3  502    0  0.29816099135E+03  0.27617123375E+03  0.33577150650E+02  0.40779645923E+03  0.00000000000E+00 0. -1.
         -1    1    3    3    0  502  0.31498223926E+03  0.25259809145E+03 -0.38665137519E+02  0.40560399371E+03  0.00000000000E+00 0.  1.
         11    1    5    5    0    0 -0.21547834799E+03 -0.37848167583E+03 -0.39087124958E+02  0.43727234160E+03  0.00000000000E+00 0. -1.
        -11    1    5    5    0    0  0.45782836642E+01 -0.18678244462E+02 -0.16333083527E+02  0.25231074392E+02  0.00000000000E+00 0.  1.
          2    1    6    6  503    0 -0.33330434068E+03 -0.13222659013E+03  0.72215617264E+03  0.80627860714E+03  0.00000000000E+00 0.  1.
         -2    1    6    6    0  503 -0.68938825604E+02  0.61718522351E+00  0.22570499395E+03  0.23599933662E+03  0.00000000000E+00 0. -1.
<mgrwt>
<rscale>  0 0.21416283E+04</rscale>
<asrwt>0</asrwt>
<pdfrwt beam="1">  1        2 0.24657960E+00 0.21416283E+04</pdfrwt>
<pdfrwt beam="2">  1       -1 0.11006376E+00 0.21416283E+04</pdfrwt>
<totfact> 0.88594691E+00</totfact>
</mgrwt>
</event>
<event>
12    6  0.1403409E-007  0.2677263E+04  0.7818608E-02  0.8342420E-01
          2   -1    0    0  501    0  0.00000000000E+00  0.00000000000E+00  0.23857227713E+04  0.23857227713E+04  0.00000000000E+00 0. -1.
         -1   -1    0    0    0  501 -0.00000000000E+00 -0.00000000000E+00 -0.75110749240E+03  0.75110749240E+03  0.00000000000E+00 0.  1.
         24    2    1    2    0    0 -0.47132012924E+03 -0.31287764641E+03  0.19463847755E+04  0.20286181834E+04  0.82722150169E+02 0.  0.
        254    2    1    2    0    0  0.47132012924E+03  0.31287764641E+03 -0.31176949660E+03  0.11082120802E+04  0.90049914488E+03 0.  0.
         23    2    4    4    0    0  0.15474201173E+03  0.19887168616E+01  0.29861266963E+03  0.34816526331E+03  0.90002660629E+02 0.  0.
         23    2    4    4    0    0  0.31657811751E+03  0.31088892955E+03 -0.61038216623E+03  0.76004681693E+03  0.90725652805E+02 0.  0.
          4    1    3    3  502    0 -0.31494020233E+03 -0.22141415382E+03  0.14488915188E+04  0.14991658320E+04  0.00000000000E+00 0. -1.
         -3    1    3    3    0  502 -0.15637992691E+03 -0.91463492592E+02  0.49749325667E+03  0.52945235144E+03  0.00000000000E+00 0.  1.
         11    1    5    5    0    0 -0.82690025908E+01  0.65996685436E+01  0.48100115561E+02  0.49249905033E+02  0.00000000000E+00 0. -1.
        -11    1    5    5    0    0  0.16301101432E+03 -0.46109516820E+01  0.25051255407E+03  0.29891535827E+03  0.00000000000E+00 0.  1.
          3    1    6    6  503    0  0.26765213835E+03  0.22049892147E+03 -0.42970856654E+03  0.55218374993E+03  0.00000000000E+00 0. -1.
         -3    1    6    6    0  503  0.48925979157E+02  0.90390008076E+02 -0.18067359969E+03  0.20786306700E+03  0.00000000000E+00 0.  1.
<mgrwt>
<rscale>  0 0.26772630E+04</rscale>
<asrwt>0</asrwt>
<pdfrwt beam="1">  1        2 0.36703427E+00 0.26772630E+04</pdfrwt>
<pdfrwt beam="2">  1       -1 0.11555500E+00 0.26772630E+04</pdfrwt>
<totfact> 0.27466642E+00</totfact>
</mgrwt>
</event>
<event>
12    6  0.1403409E-007  0.2050535E+04  0.7818608E-02  0.8583352E-01
          2   -1    0    0  501    0  0.00000000000E+00  0.00000000000E+00  0.27990377558E+04  0.27990377558E+04  0.00000000000E+00 0. -1.
         -1   -1    0    0    0  501 -0.00000000000E+00 -0.00000000000E+00 -0.37554827590E+03  0.37554827590E+03  0.00000000000E+00 0.  1.
         24    2    1    2    0    0  0.62234592020E+03 -0.53426080436E+03  0.82281085424E+03  0.11645342989E+04  0.79833452262E+02 0.  0.
        254    2    1    2    0    0 -0.62234592020E+03  0.53426080436E+03  0.16006786256E+04  0.20100517327E+04  0.89743348178E+03 0.  0.
         23    2    4    4    0    0 -0.47320844944E+03 -0.15292850416E+03  0.66028863236E+03  0.83225175312E+03  0.96687840741E+02 0.  0.
         23    2    4    4    0    0 -0.14913747076E+03  0.68718930852E+03  0.94038999329E+03  0.11777999796E+04  0.91696900605E+02 0.  0.
          4    1    3    3  502    0  0.61245136381E+01 -0.18965701558E+02  0.29105954962E+02  0.35275545596E+02  0.00000000000E+00 0. -1.
         -3    1    3    3    0  502  0.61622140657E+03 -0.51529510280E+03  0.79370489928E+03  0.11292587534E+04  0.00000000000E+00 0.  1.
         11    1    5    5    0    0 -0.12461758115E+03 -0.90870046365E+01  0.11895062596E+03  0.17251483009E+03  0.00000000000E+00 0. -1.
        -11    1    5    5    0    0 -0.34859086830E+03 -0.14384149952E+03  0.54133800640E+03  0.65973692304E+03  0.00000000000E+00 0.  1.
          2    1    6    6  503    0 -0.92183917099E+01  0.21077074753E+03  0.24478299993E+03  0.32315322034E+03  0.00000000000E+00 0. -1.
         -2    1    6    6    0  503 -0.13991907905E+03  0.47641856099E+03  0.69560699336E+03  0.85464675928E+03  0.00000000000E+00 0.  1.
<mgrwt>
<rscale>  0 0.20505353E+04</rscale>
<asrwt>0</asrwt>
<pdfrwt beam="1">  1        2 0.43062118E+00 0.20505353E+04</pdfrwt>
<pdfrwt beam="2">  1       -1 0.57776659E-01 0.20505353E+04</pdfrwt>
<totfact> 0.74090095E+00</totfact>
</mgrwt>
</event>
<event>
12    6  0.1403409E-007  0.2981160E+04  0.7818608E-02  0.8249131E-01
          2   -1    0    0  501    0  0.00000000000E+00  0.00000000000E+00  0.17896497490E+04  0.17896497490E+04  0.00000000000E+00 0. -1.
         -1   -1    0    0    0  501 -0.00000000000E+00 -0.00000000000E+00 -0.12414877664E+04  0.12414877664E+04  0.00000000000E+00 0.  1.
         24    2    1    2    0    0  0.78428226699E+03 -0.11034523407E+04  0.24683675303E+03  0.13784712029E+04  0.80924235750E+02 0.  0.
        254    2    1    2    0    0 -0.78428226699E+03  0.11034523407E+04  0.30132522967E+03  0.16526663125E+04  0.89877878476E+03 0.  0.
         23    2    4    4    0    0  0.16958602593E+03  0.37490946075E+03  0.71066550844E+02  0.42705607276E+03  0.89498104363E+02 0.  0.
         23    2    4    4    0    0 -0.95386829292E+03  0.72854287999E+03  0.23025867882E+03  0.12256102398E+04  0.91988871229E+02 0.  0.
          4    1    3    3  502    0  0.56670917061E+03 -0.82529219053E+03  0.15014858643E+03  0.10123295322E+04  0.00000000000E+00 0. -1.
         -3    1    3    3    0  502  0.21757309637E+03 -0.27816015020E+03  0.96688166600E+02  0.36614167065E+03  0.00000000000E+00 0.  1.
         11    1    5    5    0    0  0.58362033553E+02  0.48323133151E+02  0.63927154858E+01  0.76040245721E+02  0.00000000000E+00 0.  1.
        -11    1    5    5    0    0  0.11122399238E+03  0.32658632759E+03  0.64673835359E+02  0.35101582704E+03  0.00000000000E+00 0. -1.
          4    1    6    6  503    0 -0.62651183465E+03  0.53116379626E+03  0.14791217477E+03  0.83458376982E+03  0.00000000000E+00 0.  1.
         -4    1    6    6    0  503 -0.32735645827E+03  0.19737908373E+03  0.82346504050E+02  0.39102646994E+03  0.00000000000E+00 0. -1.
<mgrwt>
<rscale>  0 0.29811597E+04</rscale>
<asrwt>0</asrwt>
<pdfrwt beam="1">  1        2 0.27533073E+00 0.29811597E+04</pdfrwt>
<pdfrwt beam="2">  1       -1 0.19099812E+00 0.29811597E+04</pdfrwt>
<totfact> 0.14833452E+00</totfact>
</mgrwt>
</event>
<event>
12    6  0.1403409E-007  0.1412930E+04  0.7818608E-02  0.8944512E-01
         -1   -1    0    0    0  501 -0.00000000000E+00  0.00000000000E+00  0.98446664172E+03  0.98446664172E+03  0.00000000000E+00 0.  1.
          2   -1    0    0  501    0  0.00000000000E+00 -0.00000000000E+00 -0.50696756909E+03  0.50696756909E+03  0.00000000000E+00 0. -1.
         24    2    1    2    0    0  0.25768718128E+03 -0.91699159168E+02 -0.18549156622E+03  0.33977254582E+03  0.78910345123E+02 0.  0.
        254    2    1    2    0    0 -0.25768718128E+03  0.91699159168E+02  0.66299063885E+03  0.11516616650E+04  0.90108633560E+03 0.  0.
         23    2    4    4    0    0 -0.87195575659E+02  0.36356264867E+03  0.71725987601E+03  0.81369844838E+03  0.88671118402E+02 0.  0.
         23    2    4    4    0    0 -0.17049160562E+03 -0.27186348951E+03 -0.54269237157E+02  0.33796321660E+03  0.91086997764E+02 0.  0.
          2    1    3    3  502    0  0.38152140897E+02  0.57188417341E+01 -0.52753038101E+02  0.65354219716E+02  0.00000000000E+00 0. -1.
         -1    1    3    3    0  502  0.21953504038E+03 -0.97418000902E+02 -0.13273852812E+03  0.27441832611E+03  0.00000000000E+00 0.  1.
         11    1    5    5    0    0 -0.46511721740E+02  0.11297784747E+03  0.31688561858E+03  0.33962306980E+03  0.00000000000E+00 0. -1.
        -11    1    5    5    0    0 -0.40683853918E+02  0.25058480120E+03  0.40037425744E+03  0.47407537858E+03  0.00000000000E+00 0.  1.
          1    1    6    6  503    0 -0.59157105337E+02 -0.12075698270E+03 -0.66221614530E+02  0.14989034063E+03  0.00000000000E+00 0. -1.
         -1    1    6    6    0  503 -0.11133450029E+03 -0.15110650681E+03  0.11952377373E+02  0.18807287598E+03  0.00000000000E+00 0.  1.
<mgrwt>
<rscale>  0 0.14129298E+04</rscale>
<asrwt>0</asrwt>
<pdfrwt beam="1">  1        2 0.77995011E-01 0.14129298E+04</pdfrwt>
<pdfrwt beam="2">  1       -1 0.15145641E+00 0.14129298E+04</pdfrwt>
<totfact> 0.22899704E+01</totfact>
</mgrwt>
</event>
<event>
12    6  0.1403409E-007  0.3135168E+04  0.7818608E-02  0.8206152E-01
          2   -1    0    0  501    0  0.00000000000E+00  0.00000000000E+00  0.17921917081E+04  0.17921917081E+04  0.00000000000E+00 0. -1.
         -1   -1    0    0    0  501 -0.00000000000E+00 -0.00000000000E+00 -0.13711258143E+04  0.13711258143E+04  0.00000000000E+00 0.  1.
         24    2    1    2    0    0 -0.10922773960E+04  0.56244939980E+03  0.94566587536E+03  0.15524450070E+04  0.79889392092E+02 0.  0.
        254    2    1    2    0    0  0.10922773960E+04 -0.56244939980E+03 -0.52459998149E+03  0.16108725154E+04  0.90015880995E+03 0.  0.
         23    2    4    4    0    0  0.13559510156E+02 -0.19979493518E+03 -0.40741265677E+03  0.46290322435E+03  0.90512130543E+02 0.  0.
         23    2    4    4    0    0  0.10787178858E+04 -0.36265446461E+03 -0.11718732472E+03  0.11479692910E+04  0.94604895083E+02 0.  0.
          2    1    3    3  502    0 -0.74410476919E+03  0.41578548437E+03  0.68361550281E+03  0.10926571430E+04  0.00000000000E+00 0. -1.
         -1    1    3    3    0  502 -0.34817262679E+03  0.14666391543E+03  0.26205037255E+03  0.45978786401E+03  0.00000000000E+00 0.  1.
         11    1    5    5    0    0 -0.16267432570E+02 -0.30346503058E+02 -0.14560812952E+03  0.14962375143E+03  0.00000000000E+00 0.  1.
        -11    1    5    5    0    0  0.29826942726E+02 -0.16944843213E+03 -0.26180452725E+03  0.31327947292E+03  0.00000000000E+00 0. -1.
          1    1    6    6  503    0  0.47752728653E+03 -0.12141991523E+03 -0.79453287981E+02  0.49908709677E+03  0.00000000000E+00 0. -1.
         -1    1    6    6    0  503  0.60119059930E+03 -0.24123454938E+03 -0.37734036737E+02  0.64888219426E+03  0.00000000000E+00 0.  1.
<mgrwt>
<rscale>  0 0.31351685E+04</rscale>
<asrwt>0</asrwt>
<pdfrwt beam="1">  1        2 0.27572180E+00 0.31351685E+04</pdfrwt>
<pdfrwt beam="2">  1       -1 0.21094243E+00 0.31351685E+04</pdfrwt>
<totfact> 0.10636182E+00</totfact>
</mgrwt>
</event>
<event>
12    6  0.1403409E-007  0.1930571E+04  0.7818608E-02  0.8639787E-01
         -1   -1    0    0    0  501 -0.00000000000E+00  0.00000000000E+00  0.70853918682E+03  0.70853918682E+03  0.00000000000E+00 0.  1.
          2   -1    0    0  501    0  0.00000000000E+00 -0.00000000000E+00 -0.13150661248E+04  0.13150661248E+04  0.00000000000E+00 0. -1.
         24    2    1    2    0    0 -0.18058466822E+03  0.40701632497E+03 -0.87113845422E+03  0.98159518025E+03  0.79835958586E+02 0.  0.
        254    2    1    2    0    0  0.18058466822E+03 -0.40701632497E+03  0.26461151620E+03  0.10420101314E+04  0.90415305579E+03 0.  0.
         23    2    4    4    0    0  0.82738917512E+02  0.97117569598E+02  0.45921451887E+03  0.48536360400E+03  0.91773105804E+02 0.  0.
         23    2    4    4    0    0  0.97845750707E+02 -0.50413389456E+03 -0.19460300268E+03  0.55664652742E+03  0.90885935418E+02 0.  0.
          4    1    3    3  502    0 -0.89447700351E+02  0.13933969832E+03 -0.38690703783E+03  0.42084854586E+03  0.00000000000E+00 0. -1.
         -3    1    3    3    0  502 -0.91136967868E+02  0.26767662665E+03 -0.48423141638E+03  0.56074663439E+03  0.00000000000E+00 0.  1.
         11    1    5    5    0    0 -0.38971721172E+01  0.44022358210E+02  0.23609602494E+03  0.24019677135E+03  0.00000000000E+00 0.  1.
        -11    1    5    5    0    0  0.86636089629E+02  0.53095211387E+02  0.22311849393E+03  0.24516683265E+03  0.00000000000E+00 0. -1.
          1    1    6    6  503    0  0.84043501113E+02 -0.25864208094E+03 -0.69131115863E+02  0.28060318475E+03  0.00000000000E+00 0. -1.
         -1    1    6    6    0  503  0.13802249595E+02 -0.24549181362E+03 -0.12547188681E+03  0.27604334266E+03  0.00000000000E+00 0.  1.
<mgrwt>
<rscale>  0 0.19305708E+04</rscale>
<asrwt>0</asrwt>
<pdfrwt beam="1">  1        2 0.20231786E+00 0.19305708E+04</pdfrwt>
<pdfrwt beam="2">  1       -1 0.10900603E+00 0.19305708E+04</pdfrwt>
<totfact> 0.13453593E+01</totfact>
</mgrwt>
</event>
<event>
12    6  0.1403409E-007  0.2150509E+04  0.7818608E-02  0.8539314E-01
          2   -1    0    0  501    0  0.00000000000E+00  0.00000000000E+00  0.77842468085E+03  0.77842468085E+03  0.00000000000E+00 0. -1.
         -1   -1    0    0    0  501 -0.00000000000E+00 -0.00000000000E+00 -0.14852721602E+04  0.14852721602E+04  0.00000000000E+00 0.  1.
         24    2    1    2    0    0 -0.29588214750E+03 -0.17417187820E+03 -0.11501766918E+04  0.12030151267E+04  0.80354741627E+02 0.  0.
        254    2    1    2    0    0  0.29588214750E+03  0.17417187820E+03  0.44332921245E+03  0.10606817143E+04  0.90034594465E+03 0.  0.
         23    2    4    4    0    0  0.46625843141E+03  0.42605024717E+03  0.35838107983E+03  0.73179960318E+03  0.90431868607E+02 0.  0.
         23    2    4    4    0    0 -0.17037628390E+03 -0.25187836897E+03  0.84948132612E+02  0.32888211110E+03  0.92067729949E+02 0.  0.
          2    1    3    3  502    0 -0.29864352560E+02 -0.18777097047E+02 -0.55082984774E+02  0.65410963447E+02  0.00000000000E+00 0. -1.
         -1    1    3    3    0  502 -0.26601779494E+03 -0.15539478115E+03 -0.10950937070E+04  0.11376041633E+04  0.00000000000E+00 0.  1.
         11    1    5    5    0    0  0.27878866610E+03  0.28164662865E+03  0.26840987503E+03  0.47863535681E+03  0.00000000000E+00 0.  1.
        -11    1    5    5    0    0  0.18746976531E+03  0.14440361853E+03  0.89971204805E+02  0.25316424637E+03  0.00000000000E+00 0. -1.
          2    1    6    6  503    0 -0.13346532390E+03 -0.16137737975E+03  0.17536075046E+02  0.21015033977E+03  0.00000000000E+00 0.  1.
         -2    1    6    6    0  503 -0.36910960005E+02 -0.90500989223E+02  0.67412057566E+02  0.11873177133E+03  0.00000000000E+00 0. -1.
<mgrwt>
<rscale>  0 0.21505092E+04</rscale>
<asrwt>0</asrwt>
<pdfrwt beam="1">  1        2 0.11975764E+00 0.21505092E+04</pdfrwt>
<pdfrwt beam="2">  1       -1 0.22850341E+00 0.21505092E+04</pdfrwt>
<totfact> 0.36122022E+00</totfact>
</mgrwt>
</event>
<event>
12    6  0.1403409E-007  0.1519241E+04  0.7818608E-02  0.8871758E-01
          2   -1    0    0  501    0  0.00000000000E+00  0.00000000000E+00  0.13310021421E+04  0.13310021421E+04  0.00000000000E+00 0. -1.
         -1   -1    0    0    0  501 -0.00000000000E+00 -0.00000000000E+00 -0.43352536112E+03  0.43352536112E+03  0.00000000000E+00 0.  1.
         24    2    1    2    0    0  0.47815397180E+03  0.97818757223E+02  0.26671068781E+03  0.56174844298E+03  0.78911293108E+02 0.  0.
        254    2    1    2    0    0 -0.47815397180E+03 -0.97818757223E+02  0.63076609320E+03  0.12027790603E+04  0.90033986555E+03 0.  0.
         23    2    4    4    0    0  0.22107613540E+02  0.34000019550E+03  0.20502398698E+03  0.40804136074E+03  0.91509766257E+02 0.  0.
         23    2    4    4    0    0 -0.50026158534E+03 -0.43781895272E+03  0.42574210623E+03  0.79473769954E+03  0.91676501529E+02 0.  0.
          4    1    3    3  502    0  0.34013880632E+03  0.35395975743E+02  0.20065392915E+03  0.39649625716E+03  0.00000000000E+00 0. -1.
         -3    1    3    3    0  502  0.13801516549E+03  0.62422781480E+02  0.66056758669E+02  0.16525218582E+03  0.00000000000E+00 0.  1.
         11    1    5    5    0    0 -0.74437702562E+01 -0.32094941035E+01  0.27202218341E+01  0.85504488101E+01  0.00000000000E+00 0. -1.
        -11    1    5    5    0    0  0.29551383796E+02  0.34320968960E+03  0.20230376514E+03  0.39949091193E+03  0.00000000000E+00 0.  1.
          2    1    6    6  503    0 -0.22267898557E+03 -0.22351153012E+03  0.15396196158E+03  0.35106640444E+03  0.00000000000E+00 0. -1.
         -2    1    6    6    0  503 -0.27758259977E+03 -0.21430742260E+03  0.27178014464E+03  0.44367129510E+03  0.00000000000E+00 0.  1.
<mgrwt>
<rscale>  0 0.15192408E+04</rscale>
<asrwt>0</asrwt>
<pdfrwt beam="1">  1        2 0.20476956E+00 0.15192408E+04</pdfrwt>
<pdfrwt beam="2">  1       -1 0.66696210E-01 0.15192408E+04</pdfrwt>
<totfact> 0.39723903E+01</totfact>
</mgrwt>
</event>
<event>
12    6  0.1403409E-007  0.1856380E+04  0.7818608E-02  0.8676879E-01
         -1   -1    0    0    0  501 -0.00000000000E+00  0.00000000000E+00  0.11153617134E+04  0.11153617134E+04  0.00000000000E+00 0.  1.
          2   -1    0    0  501    0  0.00000000000E+00 -0.00000000000E+00 -0.77242824064E+03  0.77242824064E+03  0.00000000000E+00 0. -1.
         24    2    1    2    0    0  0.39655647936E+03 -0.56539731980E+03  0.28449978013E+03  0.75132736246E+03  0.81372662007E+02 0.  0.
        254    2    1    2    0    0 -0.39655647936E+03  0.56539731980E+03  0.58433692624E+02  0.11364625916E+04  0.90066728321E+03 0.  0.
         23    2    4    4    0    0 -0.19942438284E+02  0.41192483634E+03  0.41241660144E+03  0.59014377141E+03  0.90013588701E+02 0.  0.
         23    2    4    4    0    0 -0.37661404107E+03  0.15347248347E+03 -0.35398290882E+03  0.54631882016E+03  0.88138609116E+02 0.  0.
          4    1    3    3  502    0  0.19265565573E+03 -0.25112391109E+03  0.17173014875E+03  0.36009813162E+03  0.00000000000E+00 0. -1.
         -3    1    3    3    0  502  0.20390082363E+03 -0.31427340871E+03  0.11276963138E+03  0.39122923084E+03  0.00000000000E+00 0.  1.
         11    1    5    5    0    0 -0.49162475603E+02  0.24048591728E+03  0.20781992197E+03  0.32162018808E+03  0.00000000000E+00 0. -1.
        -11    1    5    5    0    0  0.29220037319E+02  0.17143891905E+03  0.20459667947E+03  0.26852358332E+03  0.00000000000E+00 0.  1.
          4    1    6    6  503    0 -0.45212869946E+02 -0.89593012450E+01 -0.28209738512E+02  0.54039448872E+02  0.00000000000E+00 0. -1.
         -4    1    6    6    0  503 -0.33140117112E+03  0.16243178471E+03 -0.32577317031E+03  0.49227937129E+03  0.00000000000E+00 0.  1.
<mgrwt>
<rscale>  0 0.18563802E+04</rscale>
<asrwt>0</asrwt>
<pdfrwt beam="1">  1        2 0.11883511E+00 0.18563802E+04</pdfrwt>
<pdfrwt beam="2">  1       -1 0.17159411E+00 0.18563802E+04</pdfrwt>
<totfact> 0.92717559E+00</totfact>
</mgrwt>
</event>
<event>
12    6  0.1403409E-007  0.1995919E+04  0.7818608E-02  0.8608531E-01
         -1   -1    0    0    0  501 -0.00000000000E+00  0.00000000000E+00  0.90881345335E+03  0.90881345335E+03  0.00000000000E+00 0.  1.
          2   -1    0    0  501    0  0.00000000000E+00 -0.00000000000E+00 -0.10958504038E+04  0.10958504038E+04  0.00000000000E+00 0. -1.
         24    2    1    2    0    0 -0.61789456610E+03 -0.70572680080E+02 -0.57143195374E+03  0.84837875087E+03  0.80236084026E+02 0.  0.
        254    2    1    2    0    0  0.61789456610E+03  0.70572680080E+02  0.38439500332E+03  0.11562851062E+04  0.89580217143E+03 0.  0.
         23    2    4    4    0    0  0.35593708634E+03  0.44998951311E+03  0.57636876071E+02  0.58362751234E+03  0.90096017342E+02 0.  0.
         23    2    4    4    0    0  0.26195747976E+03 -0.37941683303E+03  0.32675812725E+03  0.57265759390E+03  0.92666022564E+02 0.  0.
          4    1    3    3  502    0 -0.41042924815E+03 -0.91522743991E+01 -0.38351801224E+03  0.56180245423E+03  0.00000000000E+00 0. -1.
         -3    1    3    3    0  502 -0.20746531795E+03 -0.61420405681E+02 -0.18791394150E+03  0.28657629664E+03  0.00000000000E+00 0.  1.
         11    1    5    5    0    0  0.11081420844E+03  0.11533804800E+03  0.53918545218E+02  0.16878940614E+03  0.00000000000E+00 0. -1.
        -11    1    5    5    0    0  0.24512287791E+03  0.33465146511E+03  0.37183308525E+01  0.41483810620E+03  0.00000000000E+00 0.  1.
          2    1    6    6  503    0  0.14109714675E+03 -0.16360881890E+03  0.20138695213E+03  0.29535225568E+03  0.00000000000E+00 0.  1.
         -2    1    6    6    0  503  0.12086033301E+03 -0.21580801412E+03  0.12537117512E+03  0.27730533822E+03  0.00000000000E+00 0. -1.
<mgrwt>
<rscale>  0 0.19959194E+04</rscale>
<asrwt>0</asrwt>
<pdfrwt beam="1">  1        2 0.16859237E+00 0.19959194E+04</pdfrwt>
<pdfrwt beam="2">  1       -1 0.13981746E+00 0.19959194E+04</pdfrwt>
<totfact> 0.97702909E+00</totfact>
</mgrwt>
</event>
<event>
12    6  0.1403409E-007  0.1707730E+04  0.7818608E-02  0.8756968E-01
         -1   -1    0    0    0  501 -0.00000000000E+00  0.00000000000E+00  0.44286266779E+03  0.44286266779E+03  0.00000000000E+00 0.  1.
          2   -1    0    0  501    0  0.00000000000E+00 -0.00000000000E+00 -0.16463019339E+04  0.16463019339E+04  0.00000000000E+00 0. -1.
         24    2    1    2    0    0  0.11205794429E+03  0.38301255223E+03  0.13328881569E+03  0.42835121357E+03  0.80394376240E+02 0.  0.
        254    2    1    2    0    0 -0.11205794429E+03 -0.38301255223E+03 -0.13367280818E+04  0.16608133881E+04  0.90122336155E+03 0.  0.
         23    2    4    4    0    0  0.33767873716E+03 -0.37875169744E+03 -0.58375719797E+03  0.77880996063E+03  0.91064322076E+02 0.  0.
         23    2    4    4    0    0 -0.44973668146E+03 -0.42608547940E+01 -0.75297088378E+03  0.88200342744E+03  0.93186139835E+02 0.  0.
          4    1    3    3  502    0  0.64507633546E+01  0.69165684277E+02 -0.46725170283E+01  0.69622816984E+02  0.00000000000E+00 0. -1.
         -3    1    3    3    0  502  0.10560718094E+03  0.31384686795E+03  0.13796133272E+03  0.35872839658E+03  0.00000000000E+00 0.  1.
         11    1    5    5    0    0  0.18481615399E+03 -0.14048893195E+03 -0.24990966187E+03  0.34109967733E+03  0.00000000000E+00 0.  1.
        -11    1    5    5    0    0  0.15286258317E+03 -0.23826276549E+03 -0.33384753610E+03  0.43771028330E+03  0.00000000000E+00 0. -1.
          1    1    6    6  503    0 -0.56342729830E+02  0.74860912014E+01 -0.16458606145E+03  0.17412385360E+03  0.00000000000E+00 0. -1.
         -1    1    6    6    0  503 -0.39339395163E+03 -0.11746945995E+02 -0.58838482233E+03  0.70787957384E+03  0.00000000000E+00 0.  1.
<mgrwt>
<rscale>  0 0.17077303E+04</rscale>
<asrwt>0</asrwt>
<pdfrwt beam="1">  1        2 0.25327722E+00 0.17077303E+04</pdfrwt>
<pdfrwt beam="2">  1       -1 0.68132718E-01 0.17077303E+04</pdfrwt>
<totfact> 0.24823041E+01</totfact>
</mgrwt>
</event>
<event>
12    6  0.1403409E-007  0.1564895E+04  0.7818608E-02  0.8842409E-01
          2   -1    0    0  501    0  0.00000000000E+00  0.00000000000E+00  0.11308641724E+04  0.11308641724E+04  0.00000000000E+00 0. -1.
         -1   -1    0    0    0  501 -0.00000000000E+00 -0.00000000000E+00 -0.54137731213E+03  0.54137731213E+03  0.00000000000E+00 0.  1.
         24    2    1    2    0    0 -0.35846482704E+03 -0.31843932870E+03 -0.14250832792E+02  0.48647275522E+03  0.80944530658E+02 0.  0.
        254    2    1    2    0    0  0.35846482704E+03  0.31843932870E+03  0.60373769310E+03  0.11857687293E+04  0.90091489005E+03 0.  0.
         23    2    4    4    0    0  0.99981195352E+02  0.33788966748E+02  0.75133694728E+03  0.76412934984E+03  0.90821369932E+02 0.  0.
         23    2    4    4    0    0  0.25848363169E+03  0.28465036196E+03 -0.14759925418E+03  0.42163937951E+03  0.90302879800E+02 0.  0.
          2    1    3    3  502    0 -0.17469235611E+03 -0.10507340073E+03  0.78542110456E+01  0.20400864554E+03  0.00000000000E+00 0. -1.
         -1    1    3    3    0  502 -0.18377247093E+03 -0.21336592798E+03 -0.22105043838E+02  0.28246410968E+03  0.00000000000E+00 0.  1.
         11    1    5    5    0    0  0.10754422002E+03  0.49946579962E+02  0.69476238736E+03  0.70480862296E+03  0.00000000000E+00 0. -1.
        -11    1    5    5    0    0 -0.75630246701E+01 -0.16157613215E+02  0.56574559921E+02  0.59320726877E+02  0.00000000000E+00 0.  1.
          4    1    6    6  503    0  0.24551866799E+03  0.22305651879E+03 -0.11791838296E+03  0.35204882040E+03  0.00000000000E+00 0. -1.
         -4    1    6    6    0  503  0.12964963700E+02  0.61593843165E+02 -0.29680871221E+02  0.69590559101E+02  0.00000000000E+00 0.  1.
<mgrwt>
<rscale>  0 0.15648951E+04</rscale>
<asrwt>0</asrwt>
<pdfrwt beam="1">  1        2 0.17397910E+00 0.15648951E+04</pdfrwt>
<pdfrwt beam="2">  1       -1 0.83288818E-01 0.15648951E+04</pdfrwt>
<totfact> 0.32724178E+01</totfact>
</mgrwt>
</event>
<event>
12    6  0.1403409E-007  0.1860813E+04  0.7818608E-02  0.8674612E-01
          2   -1    0    0  501    0  0.00000000000E+00  0.00000000000E+00  0.13662798609E+04  0.13662798609E+04  0.00000000000E+00 0. -1.
         -1   -1    0    0    0  501 -0.00000000000E+00 -0.00000000000E+00 -0.63358648025E+03  0.63358648025E+03  0.00000000000E+00 0.  1.
         24    2    1    2    0    0 -0.28911522675E+03 -0.10618949530E+03 -0.40590555061E+03  0.51575577818E+03  0.79880432275E+02 0.  0.
        254    2    1    2    0    0  0.28911522675E+03  0.10618949530E+03  0.11385989312E+04  0.14841105629E+04  0.90072904560E+03 0.  0.
         23    2    4    4    0    0  0.90648732745E+02  0.36589064910E+02 -0.13523242866E+03  0.18967809914E+03  0.90188797048E+02 0.  0.
         23    2    4    4    0    0  0.19846649400E+03  0.69600430392E+02  0.12738313599E+04  0.12944324638E+04  0.93144515309E+02 0.  0.
          2    1    3    3  502    0 -0.11735957168E+03 -0.49033038579E+02 -0.10653375386E+03  0.16591247286E+03  0.00000000000E+00 0. -1.
         -1    1    3    3    0  502 -0.17175565507E+03 -0.57156456722E+02 -0.29937179674E+03  0.34984330532E+03  0.00000000000E+00 0.  1.
         11    1    5    5    0    0  0.62571348282E+01  0.43690396026E+02 -0.25187202000E+02  0.50817296127E+02  0.00000000000E+00 0. -1.
        -11    1    5    5    0    0  0.84391597917E+02 -0.71013311157E+01 -0.11004522666E+03  0.13886080302E+03  0.00000000000E+00 0.  1.
          2    1    6    6  503    0 -0.59617262417E+01 -0.59275148136E+01  0.18453993364E+02  0.20278744604E+02  0.00000000000E+00 0. -1.
         -2    1    6    6    0  503  0.20442822025E+03  0.75527945206E+02  0.12553773665E+04  0.12741537192E+04  0.00000000000E+00 0.  1.
<mgrwt>
<rscale>  0 0.18608132E+04</rscale>
<asrwt>0</asrwt>
<pdfrwt beam="1">  1        2 0.21019690E+00 0.18608132E+04</pdfrwt>
<pdfrwt beam="2">  1       -1 0.97474843E-01 0.18608132E+04</pdfrwt>
<totfact> 0.16370520E+01</totfact>
</mgrwt>
</event>
<event>
12    6  0.1403409E-007  0.1427997E+04  0.7818608E-02  0.8933798E-01
          2   -1    0    0  501    0  0.00000000000E+00  0.00000000000E+00  0.79340543433E+03  0.79340543433E+03  0.00000000000E+00 0. -1.
         -1   -1    0    0    0  501 -0.00000000000E+00 -0.00000000000E+00 -0.64253933386E+03  0.64253933386E+03  0.00000000000E+00 0.  1.
         24    2    1    2    0    0 -0.17892055878E+03 -0.15728524213E+03  0.39939665955E+03  0.47125322653E+03  0.76227935203E+02 0.  0.
        254    2    1    2    0    0  0.17892055878E+03  0.15728524213E+03 -0.24853055908E+03  0.96469154166E+03  0.90117208013E+03 0.  0.
         23    2    4    4    0    0 -0.92624188675E+02 -0.28604972419E+03 -0.29940341803E+03  0.43413262737E+03  0.91788051434E+02 0.  0.
         23    2    4    4    0    0  0.27154474746E+03  0.44333496632E+03  0.50872858948E+02  0.53055891429E+03  0.92856187295E+02 0.  0.
          2    1    3    3  502    0 -0.13906263733E+03 -0.14500163322E+03  0.27879332923E+03  0.34364169008E+03  0.00000000000E+00 0. -1.
         -1    1    3    3    0  502 -0.39857921454E+02 -0.12283608914E+02  0.12060333032E+03  0.12761153645E+03  0.00000000000E+00 0.  1.
         11    1    5    5    0    0 -0.82636613793E+02 -0.27080336263E+03 -0.30390645319E+03  0.41535816284E+03  0.00000000000E+00 0. -1.
        -11    1    5    5    0    0 -0.99875748815E+01 -0.15246361559E+02  0.45030351576E+01  0.18774464531E+02  0.00000000000E+00 0.  1.
          3    1    6    6  503    0  0.24067599054E+03  0.31993356550E+03  0.28147183785E+02  0.40134110518E+03  0.00000000000E+00 0. -1.
         -3    1    6    6    0  503  0.30868756920E+02  0.12340140082E+03  0.22725675163E+02  0.12921780910E+03  0.00000000000E+00 0.  1.
<mgrwt>
<rscale>  0 0.14279975E+04</rscale>
<asrwt>0</asrwt>
<pdfrwt beam="1">  1        2 0.12206237E+00 0.14279975E+04</pdfrwt>
<pdfrwt beam="2">  1       -1 0.98852205E-01 0.14279975E+04</pdfrwt>
<totfact> 0.37813333E+01</totfact>
</mgrwt>
</event>
<event>
12    6  0.1403409E-007  0.1523435E+04  0.7818608E-02  0.8869017E-01
          2   -1    0    0  501    0  0.00000000000E+00  0.00000000000E+00  0.19553040072E+04  0.19553040072E+04  0.00000000000E+00 0. -1.
         -1   -1    0    0    0  501 -0.00000000000E+00 -0.00000000000E+00 -0.29673839490E+03  0.29673839490E+03  0.00000000000E+00 0.  1.
         24    2    1    2    0    0  0.44931680260E+02  0.82106231392E+02 -0.17310769562E+03  0.21169579598E+03  0.78029139616E+02 0.  0.
        254    2    1    2    0    0 -0.44931680260E+02 -0.82106231392E+02  0.18316733080E+04  0.20403466061E+04  0.89399489763E+03 0.  0.
         23    2    4    4    0    0  0.21021639958E+03 -0.30344307991E+03  0.15366759105E+04  0.15830373823E+04  0.91465089195E+02 0.  0.
         23    2    4    4    0    0 -0.25514807984E+03  0.22133684852E+03  0.29499739745E+03  0.45730922380E+03  0.89541713834E+02 0.  0.
          2    1    3    3  502    0  0.44187760387E+01  0.22834991933E+02  0.10893029843E+01  0.23284093696E+02  0.00000000000E+00 0. -1.
         -1    1    3    3    0  502  0.40512904222E+02  0.59271239460E+02 -0.17419699861E+03  0.18841170229E+03  0.00000000000E+00 0.  1.
         11    1    5    5    0    0  0.12861111561E+03 -0.11142836223E+03  0.76089882954E+03  0.77969489402E+03  0.00000000000E+00 0.  1.
        -11    1    5    5    0    0  0.81605283972E+02 -0.19201471768E+03  0.77577708097E+03  0.80334248832E+03  0.00000000000E+00 0. -1.
          2    1    6    6  503    0 -0.15167578462E+03  0.18543215667E+03  0.19281188444E+03  0.30751756234E+03  0.00000000000E+00 0. -1.
         -2    1    6    6    0  503 -0.10347229522E+03  0.35904691851E+02  0.10218551300E+03  0.14979166146E+03  0.00000000000E+00 0.  1.
<mgrwt>
<rscale>  0 0.15234353E+04</rscale>
<asrwt>0</asrwt>
<pdfrwt beam="1">  1        2 0.30081599E+00 0.15234353E+04</pdfrwt>
<pdfrwt beam="2">  1       -1 0.45652062E-01 0.15234353E+04</pdfrwt>
<totfact> 0.37063343E+01</totfact>
</mgrwt>
</event>
<event>
12    6  0.1403409E-007  0.3634404E+04  0.7818608E-02  0.8082656E-01
         -1   -1    0    0    0  501 -0.00000000000E+00  0.00000000000E+00  0.14019770781E+04  0.14019770781E+04  0.00000000000E+00 0.  1.
          2   -1    0    0  501    0  0.00000000000E+00 -0.00000000000E+00 -0.23554041307E+04  0.23554041307E+04  0.00000000000E+00 0. -1.
         24    2    1    2    0    0  0.12986922053E+04 -0.63825147562E+03 -0.13803972590E+04  0.20012650916E+04  0.74826359213E+02 0.  0.
        254    2    1    2    0    0 -0.12986922053E+04  0.63825147562E+03  0.42697020635E+03  0.17561161172E+04  0.89870677623E+03 0.  0.
         23    2    4    4    0    0 -0.32324213050E+03  0.23827891108E+03  0.55332811207E+03  0.68998458183E+03  0.92975314826E+02 0.  0.
         23    2    4    4    0    0 -0.97545007482E+03  0.39997256455E+03 -0.12635790572E+03  0.10661315353E+04  0.95860468781E+02 0.  0.
          4    1    3    3  502    0  0.35371712871E+03 -0.13821424051E+03 -0.37256137514E+03  0.53199714441E+03  0.00000000000E+00 0. -1.
         -3    1    3    3    0  502  0.94497507661E+03 -0.50003723511E+03 -0.10078358838E+04  0.14692679472E+04  0.00000000000E+00 0.  1.
         11    1    5    5    0    0 -0.13007221401E+02 -0.32303412015E+01  0.47374955690E+02  0.49234229348E+02  0.00000000000E+00 0. -1.
        -11    1    5    5    0    0 -0.31023490910E+03  0.24150925228E+03  0.50595315638E+03  0.64075035249E+03  0.00000000000E+00 0.  1.
          3    1    6    6  503    0 -0.37707906341E+03  0.13853593492E+03 -0.38073099404E+01  0.40174036508E+03  0.00000000000E+00 0. -1.
         -3    1    6    6    0  503 -0.59837101141E+03  0.26143662963E+03 -0.12255059578E+03  0.66439117027E+03  0.00000000000E+00 0.  1.
<mgrwt>
<rscale>  0 0.36344037E+04</rscale>
<asrwt>0</asrwt>
<pdfrwt beam="1">  1        2 0.36236987E+00 0.36344037E+04</pdfrwt>
<pdfrwt beam="2">  1       -1 0.21568878E+00 0.36344037E+04</pdfrwt>
<totfact> 0.45824173E-01</totfact>
</mgrwt>
</event>
<event>
12    6  0.1403409E-007  0.3104950E+04  0.7818608E-02  0.8214381E-01
          2   -1    0    0  501    0  0.00000000000E+00  0.00000000000E+00  0.14653420374E+04  0.14653420374E+04  0.00000000000E+00 0. -1.
         -1   -1    0    0    0  501 -0.00000000000E+00 -0.00000000000E+00 -0.16447889346E+04  0.16447889346E+04  0.00000000000E+00 0.  1.
         24    2    1    2    0    0  0.14004729222E+04 -0.66036479069E+02  0.15009500656E+03  0.14122743298E+04  0.79404339033E+02 0.  0.
        254    2    1    2    0    0 -0.14004729222E+04  0.66036479069E+02 -0.32954190376E+03  0.16978566423E+04  0.89912962857E+03 0.  0.
         23    2    4    4    0    0 -0.61939410389E+03  0.27211539732E+03  0.21934021440E+03  0.71698689904E+03  0.90907856386E+02 0.  0.
         23    2    4    4    0    0 -0.78107881835E+03 -0.20607891825E+03 -0.54888211816E+03  0.98086974325E+03  0.91001277911E+02 0.  0.
          2    1    3    3  502    0  0.29190627019E+03 -0.28243538858E+02  0.24440336685E+01  0.29327962998E+03  0.00000000000E+00 0. -1.
         -1    1    3    3    0  502  0.11085666520E+04 -0.37792940211E+02  0.14765097289E+03  0.11189946998E+04  0.00000000000E+00 0.  1.
         11    1    5    5    0    0 -0.56555557709E+03  0.22306509924E+03  0.21167448910E+03  0.64375246688E+03  0.00000000000E+00 0. -1.
        -11    1    5    5    0    0 -0.53838526806E+02  0.49050298083E+02  0.76657252939E+01  0.73234432167E+02  0.00000000000E+00 0.  1.
          4    1    6    6  503    0 -0.47063507048E+03 -0.14708351165E+03 -0.38037680721E+03  0.62274990520E+03  0.00000000000E+00 0. -1.
         -4    1    6    6    0  503 -0.31044374787E+03 -0.58995406602E+02 -0.16850531095E+03  0.35811983805E+03  0.00000000000E+00 0.  1.
<mgrwt>
<rscale>  0 0.31049498E+04</rscale>
<asrwt>0</asrwt>
<pdfrwt beam="1">  1        2 0.22543724E+00 0.31049498E+04</pdfrwt>
<pdfrwt beam="2">  1       -1 0.25304445E+00 0.31049498E+04</pdfrwt>
<totfact> 0.85470576E-01</totfact>
</mgrwt>
</event>
<event>
12    6  0.1403409E-007  0.4035709E+04  0.7818608E-02  0.7997381E-01
          2   -1    0    0  501    0  0.00000000000E+00  0.00000000000E+00  0.36859770099E+04  0.36859770099E+04  0.00000000000E+00 0. -1.
         -1   -1    0    0    0  501 -0.00000000000E+00 -0.00000000000E+00 -0.11046558932E+04  0.11046558932E+04  0.00000000000E+00 0.  1.
         24    2    1    2    0    0  0.11529300101E+04  0.11841807995E+04  0.23744364331E+04  0.28941746501E+04  0.82260294619E+02 0.  0.
        254    2    1    2    0    0 -0.11529300101E+04 -0.11841807995E+04  0.20688468357E+03  0.18964582530E+04  0.90676394892E+03 0.  0.
         23    2    4    4    0    0 -0.23448599909E+03 -0.86699165286E+03  0.19068500649E+02  0.90274078845E+03  0.88989401137E+02 0.  0.
         23    2    4    4    0    0 -0.91844401102E+03 -0.31718914659E+03  0.18781618292E+03  0.99371746454E+03  0.89728059609E+02 0.  0.
          4    1    3    3  502    0  0.16493020371E+03  0.19095480126E+03  0.31930617367E+03  0.40696700206E+03  0.00000000000E+00 0. -1.
         -3    1    3    3    0  502  0.98799980639E+03  0.99322599819E+03  0.20551302595E+04  0.24872076480E+04  0.00000000000E+00 0.  1.
         11    1    5    5    0    0 -0.16157645366E+02 -0.16787970749E+03 -0.16545965164E+02  0.16946514289E+03  0.00000000000E+00 0.  1.
        -11    1    5    5    0    0 -0.21832835372E+03 -0.69911194537E+03  0.35614465813E+02  0.73327564556E+03  0.00000000000E+00 0. -1.
          3    1    6    6  503    0 -0.57346275597E+03 -0.16519649766E+03  0.83695348943E+02  0.60262287275E+03  0.00000000000E+00 0. -1.
         -3    1    6    6    0  503 -0.34498125504E+03 -0.15199264893E+03  0.10412083398E+03  0.39109459179E+03  0.00000000000E+00 0.  1.
<mgrwt>
<rscale>  0 0.40357087E+04</rscale>
<asrwt>0</asrwt>
<pdfrwt beam="1">  1        2 0.56707338E+00 0.40357087E+04</pdfrwt>
<pdfrwt beam="2">  1       -1 0.16994706E+00 0.40357087E+04</pdfrwt>
<totfact> 0.13108070E-01</totfact>
</mgrwt>
</event>
<event>
12    6  0.1403409E-007  0.1378280E+04  0.7818608E-02  0.8969692E-01
          2   -1    0    0  501    0  0.00000000000E+00  0.00000000000E+00  0.99062655250E+03  0.99062655250E+03  0.00000000000E+00 0. -1.
         -1   -1    0    0    0  501 -0.00000000000E+00 -0.00000000000E+00 -0.47940771226E+03  0.47940771226E+03  0.00000000000E+00 0.  1.
         24    2    1    2    0    0 -0.14417969690E+03  0.29060105325E+03 -0.82573420628E+02  0.34431316177E+03  0.80600412056E+02 0.  0.
        254    2    1    2    0    0  0.14417969690E+03 -0.29060105325E+03  0.59379226087E+03  0.11257211030E+04  0.89967882910E+03 0.  0.
         23    2    4    4    0    0  0.33752054089E+03 -0.49117363372E+03  0.57304734243E+03  0.83195559190E+03  0.92710281278E+02 0.  0.
         23    2    4    4    0    0 -0.19334084399E+03  0.20057258047E+03  0.20744918439E+02  0.29376551110E+03  0.90872338362E+02 0.  0.
          4    1    3    3  502    0 -0.23354888445E+01  0.33636382920E+02  0.12231985135E+02  0.35867565076E+02  0.00000000000E+00 0. -1.
         -3    1    3    3    0  502 -0.14184420805E+03  0.25696467033E+03 -0.94805405763E+02  0.30844559669E+03  0.00000000000E+00 0.  1.
         11    1    5    5    0    0  0.24112520612E+03 -0.35146061914E+03  0.46479102914E+03  0.63063193117E+03  0.00000000000E+00 0. -1.
        -11    1    5    5    0    0  0.96395334764E+02 -0.13971301457E+03  0.10825631328E+03  0.20132366073E+03  0.00000000000E+00 0.  1.
          1    1    6    6  503    0 -0.18170444438E+03  0.21018123089E+03  0.21415819699E+02  0.27865981457E+03  0.00000000000E+00 0. -1.
         -1    1    6    6    0  503 -0.11636399614E+02 -0.96086504247E+01 -0.67090125986E+00  0.15105696523E+02  0.00000000000E+00 0.  1.
<mgrwt>
<rscale>  0 0.13782801E+04</rscale>
<asrwt>0</asrwt>
<pdfrwt beam="1">  1        2 0.15240408E+00 0.13782801E+04</pdfrwt>
<pdfrwt beam="2">  1       -1 0.73755033E-01 0.13782801E+04</pdfrwt>
<totfact> 0.52608885E+01</totfact>
</mgrwt>
</event>
<event>
12    6  0.1403409E-007  0.4044227E+04  0.7818608E-02  0.7995684E-01
         -1   -1    0    0    0  501 -0.00000000000E+00  0.00000000000E+00  0.13071406807E+04  0.13071406807E+04  0.00000000000E+00 0.  1.
          2   -1    0    0  501    0  0.00000000000E+00 -0.00000000000E+00 -0.31281581098E+04  0.31281581098E+04  0.00000000000E+00 0. -1.
         24    2    1    2    0    0 -0.16097964821E+04  0.93439522257E+03 -0.13871514558E+04  0.23227168955E+04  0.79280954128E+02 0.  0.
        254    2    1    2    0    0  0.16097964821E+04 -0.93439522257E+03 -0.43386597339E+03  0.21125818950E+04  0.90012412174E+03 0.  0.
         23    2    4    4    0    0  0.79445979856E+03 -0.52915833778E+03  0.22500482180E+03  0.98498066098E+03  0.91568633766E+02 0.  0.
         23    2    4    4    0    0  0.81533668355E+03 -0.40523688479E+03 -0.65887079519E+03  0.11276012340E+04  0.91558603844E+02 0.  0.
          4    1    3    3  502    0 -0.68164718483E+03  0.44110863398E+03 -0.60396338721E+03  0.10119246438E+04  0.00000000000E+00 0. -1.
         -3    1    3    3    0  502 -0.92814929728E+03  0.49328658859E+03 -0.78318806855E+03  0.13107922517E+04  0.00000000000E+00 0.  1.
         11    1    5    5    0    0  0.18273373403E+03 -0.16688675464E+03  0.44038730123E+02  0.25136072919E+03  0.00000000000E+00 0. -1.
        -11    1    5    5    0    0  0.61172606454E+03 -0.36227158313E+03  0.18096609168E+03  0.73361993179E+03  0.00000000000E+00 0.  1.
          3    1    6    6  503    0  0.42931432084E+03 -0.16344270865E+03 -0.31874383211E+03  0.55912604625E+03  0.00000000000E+00 0. -1.
         -3    1    6    6    0  503  0.38602236271E+03 -0.24179417614E+03 -0.34012696308E+03  0.56847518780E+03  0.00000000000E+00 0.  1.
<mgrwt>
<rscale>  0 0.40442269E+04</rscale>
<asrwt>0</asrwt>
<pdfrwt beam="1">  1        2 0.48125508E+00 0.40442269E+04</pdfrwt>
<pdfrwt beam="2">  1       -1 0.20109857E+00 0.40442269E+04</pdfrwt>
<totfact> 0.19039948E-01</totfact>
</mgrwt>
</event>
<event>
12    6  0.1403409E-007  0.2217477E+04  0.7818608E-02  0.8511189E-01
         -1   -1    0    0    0  501 -0.00000000000E+00  0.00000000000E+00  0.43337850867E+03  0.43337850867E+03  0.00000000000E+00 0.  1.
          2   -1    0    0  501    0  0.00000000000E+00 -0.00000000000E+00 -0.28365518712E+04  0.28365518712E+04  0.00000000000E+00 0. -1.
         24    2    1    2    0    0 -0.78096920317E+03  0.37357392092E+03 -0.14836400212E+04  0.17196232512E+04  0.80287253304E+02 0.  0.
        254    2    1    2    0    0  0.78096920317E+03 -0.37357392092E+03 -0.91953334138E+03  0.15503071287E+04  0.89913305832E+03 0.  0.
         23    2    4    4    0    0  0.46307699894E+03  0.25261366701E+03 -0.33375489004E+03  0.63069176047E+03  0.90143210455E+02 0.  0.
         23    2    4    4    0    0  0.31789220423E+03 -0.62618758793E+03 -0.58577845134E+03  0.91961536819E+03  0.96900374428E+02 0.  0.
          4    1    3    3  502    0 -0.74946859055E+03  0.34143218738E+03 -0.13885125986E+04  0.16143872965E+04  0.00000000000E+00 0. -1.
         -3    1    3    3    0  502 -0.31500612618E+02  0.32141733541E+02 -0.95127422611E+02  0.10523595471E+03  0.00000000000E+00 0.  1.
         11    1    5    5    0    0  0.25596378170E+03  0.12607597282E+03 -0.23105018445E+03  0.36714683194E+03  0.00000000000E+00 0.  1.
        -11    1    5    5    0    0  0.20711321724E+03  0.12653769419E+03 -0.10270470559E+03  0.26354492853E+03  0.00000000000E+00 0. -1.
          4    1    6    6  503    0  0.23128492106E+03 -0.53616429269E+03 -0.48742804860E+03  0.76062537824E+03  0.00000000000E+00 0.  1.
         -4    1    6    6    0  503  0.86607283165E+02 -0.90023295245E+02 -0.98350402743E+02  0.15898998995E+03  0.00000000000E+00 0. -1.
<mgrwt>
<rscale>  0 0.22174766E+04</rscale>
<asrwt>0</asrwt>
<pdfrwt beam="1">  1        2 0.43639260E+00 0.22174766E+04</pdfrwt>
<pdfrwt beam="2">  1       -1 0.66673616E-01 0.22174766E+04</pdfrwt>
<totfact> 0.52043885E+00</totfact>
</mgrwt>
</event>
<event>
12    6  0.1403409E-007  0.3547370E+04  0.7818608E-02  0.8102655E-01
          2   -1    0    0  501    0  0.00000000000E+00  0.00000000000E+00  0.23843586006E+04  0.23843586006E+04  0.00000000000E+00 0. -1.
         -1   -1    0    0    0  501 -0.00000000000E+00 -0.00000000000E+00 -0.13194147481E+04  0.13194147481E+04  0.00000000000E+00 0.  1.
         24    2    1    2    0    0 -0.84146214464E+02 -0.16048780633E+04  0.92402015223E+03  0.18555104253E+04  0.79946941591E+02 0.  0.
        254    2    1    2    0    0  0.84146214464E+02  0.16048780633E+04  0.14092370029E+03  0.18482629234E+04  0.90194354655E+03 0.  0.
         23    2    4    4    0    0  0.29116573356E+03  0.32239801459E+03 -0.22230737394E+03  0.49628625741E+03  0.90341112323E+02 0.  0.
         23    2    4    4    0    0 -0.20701951910E+03  0.12824800487E+04  0.36323107423E+03  0.13519766659E+04  0.91060064831E+02 0.  0.
          4    1    3    3  502    0 -0.40020523054E+02 -0.59514837944E+03  0.29985067725E+03  0.66761790304E+03  0.00000000000E+00 0. -1.
         -3    1    3    3    0  502 -0.44125691410E+02 -0.10097296838E+04  0.62416947498E+03  0.11878925223E+04  0.00000000000E+00 0.  1.
         11    1    5    5    0    0  0.27463246953E+03  0.28785710782E+03 -0.17295108588E+03  0.43381653490E+03  0.00000000000E+00 0. -1.
        -11    1    5    5    0    0  0.16533264032E+02  0.34540906769E+02 -0.49356288061E+02  0.62469722515E+02  0.00000000000E+00 0.  1.
          1    1    6    6  503    0 -0.10166346922E+03  0.78248498621E+03  0.18167696947E+03  0.80970657393E+03  0.00000000000E+00 0. -1.
         -1    1    6    6    0  503 -0.10535604988E+03  0.49999506247E+03  0.18155410476E+03  0.54227009202E+03  0.00000000000E+00 0.  1.
<mgrwt>
<rscale>  0 0.35473697E+04</rscale>
<asrwt>0</asrwt>
<pdfrwt beam="1">  1        2 0.36682440E+00 0.35473697E+04</pdfrwt>
<pdfrwt beam="2">  1       -1 0.20298688E+00 0.35473697E+04</pdfrwt>
<totfact> 0.54197718E-01</totfact>
</mgrwt>
</event>
<event>
12    6  0.1403409E-007  0.2609366E+04  0.7818608E-02  0.8365027E-01
         -1   -1    0    0    0  501 -0.00000000000E+00  0.00000000000E+00  0.87441874305E+03  0.87441874305E+03  0.00000000000E+00 0.  1.
          2   -1    0    0  501    0  0.00000000000E+00 -0.00000000000E+00 -0.19466625160E+04  0.19466625160E+04  0.00000000000E+00 0. -1.
         24    2    1    2    0    0  0.15526194945E+03  0.11005538573E+04 -0.78384433389E+03  0.13623783526E+04  0.79610113090E+02 0.  0.
        254    2    1    2    0    0 -0.15526194945E+03 -0.11005538573E+04 -0.28839943908E+03  0.14587029065E+04  0.89961929021E+03 0.  0.
         23    2    4    4    0    0 -0.51578859409E+03 -0.52822212934E+03 -0.10269206755E+03  0.75131349749E+03  0.94179716856E+02 0.  0.
         23    2    4    4    0    0  0.36052664464E+03 -0.57233172791E+03 -0.18570737153E+03  0.70738940900E+03  0.91484861358E+02 0.  0.
          4    1    3    3  502    0  0.96885814692E+02  0.67313841861E+03 -0.52655148886E+03  0.86009224047E+03  0.00000000000E+00 0. -1.
         -3    1    3    3    0  502  0.58376134758E+02  0.42741543864E+03 -0.25729284503E+03  0.50228611209E+03  0.00000000000E+00 0.  1.
         11    1    5    5    0    0 -0.33944583483E+03 -0.39224266836E+03 -0.41540392146E+02  0.52038773030E+03  0.00000000000E+00 0. -1.
        -11    1    5    5    0    0 -0.17634275926E+03 -0.13597946097E+03 -0.61151675402E+02  0.23092576719E+03  0.00000000000E+00 0.  1.
          2    1    6    6  503    0  0.19123604324E+03 -0.24133805975E+03 -0.11653360088E+03  0.32923451133E+03  0.00000000000E+00 0. -1.
         -2    1    6    6    0  503  0.16929060139E+03 -0.33099366816E+03 -0.69173770653E+02  0.37815489767E+03  0.00000000000E+00 0.  1.
<mgrwt>
<rscale>  0 0.26093664E+04</rscale>
<asrwt>0</asrwt>
<pdfrwt beam="1">  1        2 0.29948654E+00 0.26093664E+04</pdfrwt>
<pdfrwt beam="2">  1       -1 0.13452596E+00 0.26093664E+04</pdfrwt>
<totfact> 0.33441150E+00</totfact>
</mgrwt>
</event>
<event>
12    6  0.1403409E-007  0.3146424E+04  0.7818608E-02  0.8203111E-01
         -1   -1    0    0    0  501 -0.00000000000E+00  0.00000000000E+00  0.97433767338E+03  0.97433767338E+03  0.00000000000E+00 0.  1.
          2   -1    0    0  501    0  0.00000000000E+00 -0.00000000000E+00 -0.25401831953E+04  0.25401831953E+04  0.00000000000E+00 0. -1.
         24    2    1    2    0    0 -0.90567082998E+03 -0.11188614724E+04 -0.59499145134E+03  0.15595707072E+04  0.78455827764E+02 0.  0.
        254    2    1    2    0    0  0.90567082998E+03  0.11188614724E+04 -0.97085407061E+03  0.19549501615E+04  0.89843300310E+03 0.  0.
         23    2    4    4    0    0  0.98706509824E+03  0.67617309549E+03 -0.87578858869E+03  0.14857246158E+04  0.94151041265E+02 0.  0.
         23    2    4    4    0    0 -0.81394268256E+02  0.44268837687E+03 -0.95065481915E+02  0.46922554577E+03  0.92396650557E+02 0.  0.
          4    1    3    3  502    0 -0.52654202024E+03 -0.59162309813E+03 -0.34026100386E+03  0.86199880514E+03  0.00000000000E+00 0. -1.
         -3    1    3    3    0  502 -0.37912880975E+03 -0.52723837423E+03 -0.25473044748E+03  0.69757190204E+03  0.00000000000E+00 0.  1.
         11    1    5    5    0    0  0.45434545491E+03  0.36009516494E+03 -0.45347601383E+03  0.73602908593E+03  0.00000000000E+00 0. -1.
        -11    1    5    5    0    0  0.53271964332E+03  0.31607793055E+03 -0.42231257486E+03  0.74969552983E+03  0.00000000000E+00 0.  1.
          3    1    6    6  503    0  0.10006519477E+01 -0.20554989253E+01 -0.83744641279E+01  0.86809002748E+01  0.00000000000E+00 0. -1.
         -3    1    6    6    0  503 -0.82394920204E+02  0.44474387579E+03 -0.86691017787E+02  0.46054464550E+03  0.00000000000E+00 0.  1.
<mgrwt>
<rscale>  0 0.31464241E+04</rscale>
<asrwt>0</asrwt>
<pdfrwt beam="1">  1        2 0.39079741E+00 0.31464241E+04</pdfrwt>
<pdfrwt beam="2">  1       -1 0.14989811E+00 0.31464241E+04</pdfrwt>
<totfact> 0.11080178E+00</totfact>
</mgrwt>
</event>
<event>
12    6  0.1403409E-007  0.2791004E+04  0.7818608E-02  0.8306067E-01
         -1   -1    0    0    0  501 -0.00000000000E+00  0.00000000000E+00  0.21985949460E+04  0.21985949460E+04  0.00000000000E+00 0.  1.
          2   -1    0    0  501    0  0.00000000000E+00 -0.00000000000E+00 -0.88575931310E+03  0.88575931310E+03  0.00000000000E+00 0. -1.
         24    2    1    2    0    0 -0.10989403213E+04  0.57853000850E+03  0.72993004234E+03  0.14435012721E+04  0.92364794719E+02 0.  0.
        254    2    1    2    0    0  0.10989403213E+04 -0.57853000850E+03  0.58290559057E+03  0.16408529870E+04  0.90014043178E+03 0.  0.
         23    2    4    4    0    0  0.10813372760E+04 -0.74421965882E+03  0.60611913743E+03  0.14485597601E+04  0.88270973256E+02 0.  0.
         23    2    4    4    0    0  0.17603045276E+02  0.16568965031E+03 -0.23213546859E+02  0.19229322691E+03  0.93139083819E+02 0.  0.
          4    1    3    3  502    0 -0.38873261685E+03  0.22125427754E+03  0.21481526181E+03  0.49619764150E+03  0.00000000000E+00 0. -1.
         -3    1    3    3    0  502 -0.71020770447E+03  0.35727573097E+03  0.51511478053E+03  0.94730363060E+03  0.00000000000E+00 0.  1.
         11    1    5    5    0    0  0.26072765729E+03 -0.22353952314E+03  0.14347809601E+03  0.37220262454E+03  0.00000000000E+00 0. -1.
        -11    1    5    5    0    0  0.82060961875E+03 -0.52068013567E+03  0.46264104142E+03  0.10763571356E+04  0.00000000000E+00 0.  1.
          4    1    6    6  503    0  0.24004276774E+02  0.68245509607E+02  0.33109579599E+02  0.79560663309E+02  0.00000000000E+00 0. -1.
         -4    1    6    6    0  503 -0.64012314972E+01  0.97444140703E+02 -0.56323126457E+02  0.11273256360E+03  0.00000000000E+00 0.  1.
<mgrwt>
<rscale>  0 0.27910041E+04</rscale>
<asrwt>0</asrwt>
<pdfrwt beam="1">  1        2 0.13627066E+00 0.27910041E+04</pdfrwt>
<pdfrwt beam="2">  1       -1 0.33824538E+00 0.27910041E+04</pdfrwt>
<totfact> 0.55306426E-01</totfact>
</mgrwt>
</event>
<event>
12    6  0.1403409E-007  0.2622083E+04  0.7818608E-02  0.8360739E-01
          2   -1    0    0  501    0  0.00000000000E+00  0.00000000000E+00  0.21427408321E+04  0.21427408321E+04  0.00000000000E+00 0. -1.
         -3   -1    0    0    0  501 -0.00000000000E+00 -0.00000000000E+00 -0.80216395475E+03  0.80216395475E+03  0.00000000000E+00 0.  1.
         24    2    1    2    0    0 -0.41730862120E+03  0.97655696402E+03  0.81550812151E+02  0.10681274127E+04  0.80222474802E+02 0.  0.
        254    2    1    2    0    0  0.41730862120E+03 -0.97655696402E+03  0.12590260652E+04  0.18767773741E+04  0.89963141896E+03 0.  0.
         23    2    4    4    0    0  0.25687551560E+03 -0.39556505029E+03  0.34453527419E+01  0.48072558769E+03  0.92889615546E+02 0.  0.
         23    2    4    4    0    0  0.16043310561E+03 -0.58099191373E+03  0.12555807124E+04  0.13960517864E+04  0.95850299053E+02 0.  0.
          4    1    3    3  502    0 -0.25244274800E+03  0.55776765732E+03  0.84542902152E+02  0.61804498450E+03  0.00000000000E+00 0. -1.
         -3    1    3    3    0  502 -0.16486587320E+03  0.41878930671E+03 -0.29920900002E+01  0.45008242819E+03  0.00000000000E+00 0.  1.
         11    1    5    5    0    0  0.20318026199E+02 -0.86861432905E+02 -0.18823098794E+02  0.91170388631E+02  0.00000000000E+00 0.  1.
        -11    1    5    5    0    0  0.23655748940E+03 -0.30870361739E+03  0.22268451536E+02  0.38955519906E+03  0.00000000000E+00 0. -1.
          1    1    6    6  503    0  0.16296919923E+03 -0.52523267941E+03  0.10822871941E+04  0.12139908970E+04  0.00000000000E+00 0. -1.
         -1    1    6    6    0  503 -0.25360936245E+01 -0.55759234321E+02  0.17329351830E+03  0.18206088945E+03  0.00000000000E+00 0.  1.
<mgrwt>
<rscale>  0 0.26220827E+04</rscale>
<asrwt>0</asrwt>
<pdfrwt beam="1">  1        2 0.32965243E+00 0.26220827E+04</pdfrwt>
<pdfrwt beam="2">  1       -3 0.12340984E+00 0.26220827E+04</pdfrwt>
<totfact> 0.16501167E+00</totfact>
</mgrwt>
</event>
<event>
12    6  0.1403409E-007  0.3704321E+04  0.7818608E-02  0.8067005E-01
         -1   -1    0    0    0  501 -0.00000000000E+00  0.00000000000E+00  0.12305084361E+04  0.12305084361E+04  0.00000000000E+00 0.  1.
          2   -1    0    0  501    0  0.00000000000E+00 -0.00000000000E+00 -0.27878712306E+04  0.27878712306E+04  0.00000000000E+00 0. -1.
         24    2    1    2    0    0  0.14130657331E+04 -0.16155891900E+03 -0.18249622895E+04  0.23150384640E+04  0.77843955646E+02 0.  0.
        254    2    1    2    0    0 -0.14130657331E+04  0.16155891900E+03  0.26759949502E+03  0.17033412026E+04  0.89827930652E+03 0.  0.
         23    2    4    4    0    0 -0.54810420829E+03 -0.28091085287E+03 -0.15248140595E+03  0.64111099408E+03  0.91889048110E+02 0.  0.
         23    2    4    4    0    0 -0.86496152479E+03  0.44246977187E+03  0.42008090097E+03  0.10622302086E+04  0.89034342889E+02 0.  0.
          4    1    3    3  502    0  0.84515964189E+03 -0.61976245217E+02 -0.11128830435E+04  0.13988011095E+04  0.00000000000E+00 0. -1.
         -3    1    3    3    0  502  0.56790609119E+03 -0.99582673784E+02 -0.71207924595E+03  0.91623735454E+03  0.00000000000E+00 0.  1.
         11    1    5    5    0    0 -0.53332023527E+03 -0.25492261815E+03 -0.15502317322E+03  0.61110408183E+03  0.00000000000E+00 0. -1.
        -11    1    5    5    0    0 -0.14783973018E+02 -0.25988234711E+02  0.25417672691E+01  0.30006912244E+02  0.00000000000E+00 0.  1.
          2    1    6    6  503    0 -0.37426681327E+03  0.23487718856E+03  0.16687702110E+03  0.47232497434E+03  0.00000000000E+00 0. -1.
         -2    1    6    6    0  503 -0.49069471153E+03  0.20759258331E+03  0.25320387987E+03  0.58990523421E+03  0.00000000000E+00 0.  1.
<mgrwt>
<rscale>  0 0.37043213E+04</rscale>
<asrwt>0</asrwt>
<pdfrwt beam="1">  1        2 0.42890327E+00 0.37043213E+04</pdfrwt>
<pdfrwt beam="2">  1       -1 0.18930899E+00 0.37043213E+04</pdfrwt>
<totfact> 0.38562456E-01</totfact>
</mgrwt>
</event>
<event>
12    6  0.1403409E-007  0.1414541E+04  0.7818608E-02  0.8943360E-01
          2   -1    0    0  501    0  0.00000000000E+00  0.00000000000E+00  0.10619277294E+04  0.10619277294E+04  0.00000000000E+00 0. -1.
         -1   -1    0    0    0  501 -0.00000000000E+00 -0.00000000000E+00 -0.47106009273E+03  0.47106009273E+03  0.00000000000E+00 0.  1.
         24    2    1    2    0    0  0.40505964735E+03 -0.77365856786E+02  0.12263016750E+03  0.43751811938E+03  0.79530831108E+02 0.  0.
        254    2    1    2    0    0 -0.40505964735E+03  0.77365856786E+02  0.46823746918E+03  0.10954697028E+04  0.90041587526E+03 0.  0.
         23    2    4    4    0    0  0.20170049322E+03  0.25867254551E+03  0.23809970675E+03  0.41543531907E+03  0.91106856040E+02 0.  0.
         23    2    4    4    0    0 -0.60676014057E+03 -0.18130668872E+03  0.23013776244E+03  0.68003438369E+03  0.91942317418E+02 0.  0.
          2    1    3    3  502    0  0.25600798979E+03 -0.71383767676E+02  0.11058014764E+03  0.28786056030E+03  0.00000000000E+00 0. -1.
         -1    1    3    3    0  502  0.14905165756E+03 -0.59820891108E+01  0.12050019864E+02  0.14965755908E+03  0.00000000000E+00 0.  1.
         11    1    5    5    0    0  0.17007094241E+03  0.15630095933E+03  0.18452649928E+03  0.29564191901E+03  0.00000000000E+00 0. -1.
        -11    1    5    5    0    0  0.31629550810E+02  0.10237158617E+03  0.53573207468E+02  0.11979340006E+03  0.00000000000E+00 0.  1.
          2    1    6    6  503    0 -0.53394679660E+03 -0.13637399526E+03  0.17483325107E+03  0.57815544092E+03  0.00000000000E+00 0. -1.
         -2    1    6    6    0  503 -0.72813343974E+02 -0.44932693460E+02  0.55304511366E+02  0.10187894277E+03  0.00000000000E+00 0.  1.
<mgrwt>
<rscale>  0 0.14145413E+04</rscale>
<asrwt>0</asrwt>
<pdfrwt beam="1">  1        2 0.16337350E+00 0.14145413E+04</pdfrwt>
<pdfrwt beam="2">  1       -1 0.72470784E-01 0.14145413E+04</pdfrwt>
<totfact> 0.49013307E+01</totfact>
</mgrwt>
</event>
<event>
12    6  0.1403409E-007  0.2318938E+04  0.7818608E-02  0.8470491E-01
          2   -1    0    0  501    0  0.00000000000E+00  0.00000000000E+00  0.23224825437E+04  0.23224825437E+04  0.00000000000E+00 0. -1.
         -3   -1    0    0    0  501 -0.00000000000E+00 -0.00000000000E+00 -0.57884970770E+03  0.57884970770E+03  0.00000000000E+00 0.  1.
         24    2    1    2    0    0 -0.67148669452E+03 -0.55274521251E+03  0.13150662667E+04  0.15786970042E+04  0.80394617665E+02 0.  0.
        254    2    1    2    0    0  0.67148669452E+03  0.55274521251E+03  0.42856656936E+03  0.13226352472E+04  0.89959604375E+03 0.  0.
         23    2    4    4    0    0  0.20463610580E+03  0.46680426155E+03  0.61526834361E+03  0.80405868453E+03  0.90405083486E+02 0.  0.
         23    2    4    4    0    0  0.46685058872E+03  0.85940950951E+02 -0.18670177424E+03  0.51857656268E+03  0.93427938133E+02 0.  0.
          4    1    3    3  502    0 -0.11218724957E+03 -0.13264252591E+03  0.24807473484E+03  0.30285490373E+03  0.00000000000E+00 0. -1.
         -3    1    3    3    0  502 -0.55929944494E+03 -0.42010268660E+03  0.10669915318E+04  0.12758421005E+04  0.00000000000E+00 0.  1.
         11    1    5    5    0    0  0.17520017392E+03  0.41993307048E+03  0.49911324426E+03  0.67539093511E+03  0.00000000000E+00 0. -1.
        -11    1    5    5    0    0  0.29435931879E+02  0.46871191078E+02  0.11615509934E+03  0.12866774942E+03  0.00000000000E+00 0.  1.
          1    1    6    6  503    0  0.38277748720E+03  0.45204734319E+02 -0.11964771880E+03  0.40358103193E+03  0.00000000000E+00 0. -1.
         -1    1    6    6    0  503  0.84073101512E+02  0.40736216633E+02 -0.67054055439E+02  0.11499553076E+03  0.00000000000E+00 0.  1.
<mgrwt>
<rscale>  0 0.23189380E+04</rscale>
<asrwt>0</asrwt>
<pdfrwt beam="1">  1        2 0.35730500E+00 0.23189380E+04</pdfrwt>
<pdfrwt beam="2">  1       -3 0.89053803E-01 0.23189380E+04</pdfrwt>
<totfact> 0.29097249E+00</totfact>
</mgrwt>
</event>
<event>
12    6  0.1403409E-007  0.2995732E+04  0.7818608E-02  0.8244951E-01
         -1   -1    0    0    0  501 -0.00000000000E+00  0.00000000000E+00  0.12975507768E+04  0.12975507768E+04  0.00000000000E+00 0.  1.
          2   -1    0    0  501    0  0.00000000000E+00 -0.00000000000E+00 -0.17291052888E+04  0.17291052888E+04  0.00000000000E+00 0. -1.
         24    2    1    2    0    0  0.12813148322E+04 -0.36517750822E+03  0.87565123612E+02  0.13375566173E+04  0.79169072070E+02 0.  0.
        254    2    1    2    0    0 -0.12813148322E+04  0.36517750822E+03 -0.51911963558E+03  0.16890994483E+04  0.89913816430E+03 0.  0.
         23    2    4    4    0    0 -0.11966978980E+04  0.26381823675E+03 -0.72595048757E+03  0.14273257370E+04  0.92567423672E+02 0.  0.
         23    2    4    4    0    0 -0.84616934167E+02  0.10135927147E+03  0.20683085199E+03  0.26177371130E+03  0.91174267946E+02 0.  0.
          4    1    3    3  502    0  0.12336331019E+04 -0.33824816883E+03  0.74932064489E+02  0.12813575879E+04  0.00000000000E+00 0. -1.
         -3    1    3    3    0  502  0.47681730279E+02 -0.26929339391E+02  0.12633059123E+02  0.56199029398E+02  0.00000000000E+00 0.  1.
         11    1    5    5    0    0 -0.59922648667E+03  0.17002077236E+03 -0.33607249242E+03  0.70775996321E+03  0.00000000000E+00 0.  1.
        -11    1    5    5    0    0 -0.59747141132E+03  0.93797464397E+02 -0.38987799514E+03  0.71956577376E+03  0.00000000000E+00 0. -1.
          4    1    6    6  503    0 -0.75678640896E+02  0.29183996992E+02  0.71440122463E+02  0.10808632414E+03  0.00000000000E+00 0. -1.
         -4    1    6    6    0  503 -0.89382932710E+01  0.72175274480E+02  0.13539072952E+03  0.15368738717E+03  0.00000000000E+00 0.  1.
<mgrwt>
<rscale>  0 0.29957316E+04</rscale>
<asrwt>0</asrwt>
<pdfrwt beam="1">  1        2 0.26601620E+00 0.29957316E+04</pdfrwt>
<pdfrwt beam="2">  1       -1 0.19962320E+00 0.29957316E+04</pdfrwt>
<totfact> 0.13942337E+00</totfact>
</mgrwt>
</event>
<event>
12    6  0.1403409E-007  0.3163926E+04  0.7818608E-02  0.8198410E-01
         -1   -1    0    0    0  501 -0.00000000000E+00  0.00000000000E+00  0.59986564530E+03  0.59986564530E+03  0.00000000000E+00 0.  1.
          2   -1    0    0  501    0  0.00000000000E+00 -0.00000000000E+00 -0.41719461978E+04  0.41719461978E+04  0.00000000000E+00 0. -1.
         24    2    1    2    0    0  0.93676057432E+03 -0.27682072388E+03 -0.18545845910E+02  0.97824627376E+03  0.49716566153E+02 0.  0.
        254    2    1    2    0    0 -0.93676057432E+03  0.27682072388E+03 -0.35535347066E+04  0.37935655693E+04  0.89965589597E+03 0.  0.
         23    2    4    4    0    0  0.81072437672E+02  0.13135275722E+03 -0.14163108407E+03  0.22886667453E+03  0.92164547171E+02 0.  0.
         23    2    4    4    0    0 -0.10178330120E+04  0.14546796666E+03 -0.34119036225E+04  0.35646988948E+04  0.94058022788E+02 0.  0.
          2    1    3    3  502    0  0.55679804100E+03 -0.17350786721E+03  0.11757154837E+02  0.58332432585E+03  0.00000000000E+00 0. -1.
         -1    1    3    3    0  502  0.37996253332E+03 -0.10331285667E+03 -0.30303000747E+02  0.39492194791E+03  0.00000000000E+00 0.  1.
         11    1    5    5    0    0 -0.16687422205E+01 -0.35405904504E+01 -0.41318695570E+02  0.41503675559E+02  0.00000000000E+00 0.  1.
        -11    1    5    5    0    0  0.82741179892E+02  0.13489334767E+03 -0.10031238850E+03  0.18736299897E+03  0.00000000000E+00 0. -1.
          4    1    6    6  503    0 -0.94996258232E+03  0.14690311180E+03 -0.32490018027E+04  0.33882181373E+04  0.00000000000E+00 0. -1.
         -4    1    6    6    0  503 -0.67870429673E+02 -0.14351451402E+01 -0.16290181983E+03  0.17648075751E+03  0.00000000000E+00 0.  1.
<mgrwt>
<rscale>  0 0.31639262E+04</rscale>
<asrwt>0</asrwt>
<pdfrwt beam="1">  1        2 0.64183790E+00 0.31639262E+04</pdfrwt>
<pdfrwt beam="2">  1       -1 0.92287019E-01 0.31639262E+04</pdfrwt>
<totfact> 0.26898017E-01</totfact>
</mgrwt>
</event>
<event>
12    6  0.1403409E-007  0.2130898E+04  0.7818608E-02  0.8547753E-01
         -1   -1    0    0    0  501 -0.00000000000E+00  0.00000000000E+00  0.38433702644E+03  0.38433702644E+03  0.00000000000E+00 0.  1.
          2   -1    0    0  501    0  0.00000000000E+00 -0.00000000000E+00 -0.29536091826E+04  0.29536091826E+04  0.00000000000E+00 0. -1.
         24    2    1    2    0    0 -0.40159915926E+03 -0.77510757501E+03 -0.10145042318E+04  0.13407772246E+04  0.79944305831E+02 0.  0.
        254    2    1    2    0    0  0.40159915926E+03  0.77510757501E+03 -0.15547679244E+04  0.19971689845E+04  0.89961492671E+03 0.  0.
         23    2    4    4    0    0 -0.98853853564E+02  0.72708546936E+03 -0.98824017061E+03  0.12342354377E+04  0.91066550815E+02 0.  0.
         23    2    4    4    0    0  0.50045301283E+03  0.48022105650E+02 -0.56652775376E+03  0.76293354681E+03  0.91403284325E+02 0.  0.
          2    1    3    3  502    0 -0.43615008798E+02 -0.45987247795E+02 -0.90863870708E+02  0.11078510257E+03  0.00000000000E+00 0. -1.
         -1    1    3    3    0  502 -0.35798415047E+03 -0.72912032722E+03 -0.92364036109E+03  0.12299921220E+04  0.00000000000E+00 0.  1.
         11    1    5    5    0    0  0.65068242586E+01  0.15640105864E+03 -0.25375690536E+03  0.29815465269E+03  0.00000000000E+00 0.  1.
        -11    1    5    5    0    0 -0.10536067782E+03  0.57068441072E+03 -0.73448326525E+03  0.93608078498E+03  0.00000000000E+00 0. -1.
          3    1    6    6  503    0  0.23000302430E+03 -0.10460340439E+02 -0.30545536009E+03  0.38250985205E+03  0.00000000000E+00 0. -1.
         -3    1    6    6    0  503  0.27044998853E+03  0.58482446088E+02 -0.26107239367E+03  0.38042369476E+03  0.00000000000E+00 0.  1.
<mgrwt>
<rscale>  0 0.21308978E+04</rscale>
<asrwt>0</asrwt>
<pdfrwt beam="1">  1        2 0.45440139E+00 0.21308978E+04</pdfrwt>
<pdfrwt beam="2">  1       -1 0.59128776E-01 0.21308978E+04</pdfrwt>
<totfact> 0.56531485E+00</totfact>
</mgrwt>
</event>
<event>
12    6  0.1403409E-007  0.1554837E+04  0.7818608E-02  0.8848784E-01
          2   -1    0    0  501    0  0.00000000000E+00  0.00000000000E+00  0.18169696169E+04  0.18169696169E+04  0.00000000000E+00 0. -1.
         -1   -1    0    0    0  501 -0.00000000000E+00 -0.00000000000E+00 -0.33263064119E+03  0.33263064119E+03  0.00000000000E+00 0.  1.
         24    2    1    2    0    0  0.17389153397E+03 -0.47810953434E+03  0.60610476228E+03  0.79570136324E+03  0.83370763357E+02 0.  0.
        254    2    1    2    0    0 -0.17389153397E+03  0.47810953434E+03  0.87823421339E+03  0.13538988948E+04  0.89605797325E+03 0.  0.
         23    2    4    4    0    0  0.34236073586E+03  0.27941158624E+03  0.26713624699E+03  0.52427210322E+03  0.90651838223E+02 0.  0.
         23    2    4    4    0    0 -0.51625226984E+03  0.19869794810E+03  0.61109796640E+03  0.82962679160E+03  0.94035142978E+02 0.  0.
          4    1    3    3  502    0  0.10368479682E+03 -0.16753937652E+03  0.22403291106E+03  0.29834665242E+03  0.00000000000E+00 0. -1.
         -3    1    3    3    0  502  0.70206737158E+02 -0.31057015782E+03  0.38207185123E+03  0.49735471082E+03  0.00000000000E+00 0.  1.
         11    1    5    5    0    0  0.52963842306E+02  0.53534221117E+02  0.97820071370E+01  0.75939246019E+02  0.00000000000E+00 0. -1.
        -11    1    5    5    0    0  0.28939689356E+03  0.22587736512E+03  0.25735423985E+03  0.44833285720E+03  0.00000000000E+00 0.  1.
          3    1    6    6  503    0 -0.32999843430E+03  0.96019949211E+02  0.32396286095E+03  0.47230364445E+03  0.00000000000E+00 0.  1.
         -3    1    6    6    0  503 -0.18625383553E+03  0.10267799889E+03  0.28713510545E+03  0.35732314715E+03  0.00000000000E+00 0. -1.
<mgrwt>
<rscale>  0 0.15548373E+04</rscale>
<asrwt>0</asrwt>
<pdfrwt beam="1">  1        2 0.27953378E+00 0.15548373E+04</pdfrwt>
<pdfrwt beam="2">  1       -1 0.51173946E-01 0.15548373E+04</pdfrwt>
<totfact> 0.35538209E+01</totfact>
</mgrwt>
</event>
<event>
12    6  0.1403409E-007  0.1932739E+04  0.7818608E-02  0.8638729E-01
          2   -1    0    0  501    0  0.00000000000E+00  0.00000000000E+00  0.10123102548E+04  0.10123102548E+04  0.00000000000E+00 0. -1.
         -1   -1    0    0    0  501 -0.00000000000E+00 -0.00000000000E+00 -0.92251403965E+03  0.92251403965E+03  0.00000000000E+00 0.  1.
         24    2    1    2    0    0  0.26473869534E+03  0.57803749661E+03 -0.36146414116E+03  0.73563481212E+03  0.79298973299E+02 0.  0.
        254    2    1    2    0    0 -0.26473869534E+03 -0.57803749661E+03  0.45126035629E+03  0.11991894823E+04  0.91115617817E+03 0.  0.
         23    2    4    4    0    0 -0.38137910898E+03 -0.77102694317E+03  0.39397892028E+03  0.95041246729E+03  0.90177028699E+02 0.  0.
         23    2    4    4    0    0  0.11664041365E+03  0.19298944656E+03  0.57281436010E+02  0.24877701501E+03  0.88084775700E+02 0.  0.
          2    1    3    3  502    0  0.44283241167E+02  0.18329005849E+03 -0.10780340016E+03  0.21720456734E+03  0.00000000000E+00 0. -1.
         -1    1    3    3    0  502  0.22045545417E+03  0.39474743812E+03 -0.25366074100E+03  0.51843024478E+03  0.00000000000E+00 0.  1.
         11    1    5    5    0    0 -0.28194782875E+03 -0.47231784915E+03  0.24812483829E+03  0.60344400249E+03  0.00000000000E+00 0. -1.
        -11    1    5    5    0    0 -0.99431280238E+02 -0.29870909402E+03  0.14585408199E+03  0.34696846481E+03  0.00000000000E+00 0.  1.
          3    1    6    6  503    0  0.68823334392E+02  0.37184292223E+02  0.86755683321E+01  0.78705707740E+02  0.00000000000E+00 0. -1.
         -3    1    6    6    0  503  0.47817079255E+02  0.15580515433E+03  0.48605867678E+02  0.17007130727E+03  0.00000000000E+00 0.  1.
<mgrwt>
<rscale>  0 0.19327394E+04</rscale>
<asrwt>0</asrwt>
<pdfrwt beam="1">  1        2 0.15574004E+00 0.19327394E+04</pdfrwt>
<pdfrwt beam="2">  1       -1 0.14192524E+00 0.19327394E+04</pdfrwt>
<totfact> 0.10658882E+01</totfact>
</mgrwt>
</event>
<event>
12    6  0.1403409E-007  0.3170257E+04  0.7818608E-02  0.8196717E-01
         -1   -1    0    0    0  501 -0.00000000000E+00  0.00000000000E+00  0.13394419093E+04  0.13394419093E+04  0.00000000000E+00 0.  1.
          2   -1    0    0  501    0  0.00000000000E+00 -0.00000000000E+00 -0.18758796633E+04  0.18758796633E+04  0.00000000000E+00 0. -1.
         24    2    1    2    0    0  0.24556414366E+03 -0.10499959529E+04 -0.12396886344E+04  0.16449869424E+04  0.79755127464E+02 0.  0.
        254    2    1    2    0    0 -0.24556414366E+03  0.10499959529E+04  0.70325088034E+03  0.15703346302E+04  0.89921955071E+03 0.  0.
         23    2    4    4    0    0 -0.18114589297E+03  0.11098686243E+02 -0.12449501587E+03  0.23731799163E+03  0.88790792300E+02 0.  0.
         23    2    4    4    0    0 -0.64418250696E+02  0.10388972667E+04  0.82774589621E+03  0.13330166386E+04  0.91174822964E+02 0.  0.
          2    1    3    3  502    0  0.15740963856E+03 -0.55940177868E+03 -0.71308128942E+03  0.91988753096E+03  0.00000000000E+00 0. -1.
         -3    1    3    3    0  502  0.88154505106E+02 -0.49059417427E+03 -0.52660734500E+03  0.72509941139E+03  0.00000000000E+00 0.  1.
         11    1    5    5    0    0 -0.11181860848E+03  0.49758992318E+02 -0.81509421711E+02  0.14704810215E+03  0.00000000000E+00 0. -1.
        -11    1    5    5    0    0 -0.69327284491E+02 -0.38660306075E+02 -0.42985594160E+02  0.90269889476E+02  0.00000000000E+00 0.  1.
          3    1    6    6  503    0 -0.41406616391E+02  0.28630657436E+03  0.27320102373E+03  0.39790044203E+03  0.00000000000E+00 0. -1.
         -3    1    6    6    0  503 -0.23011634305E+02  0.75259069234E+03  0.55454487249E+03  0.93511619659E+03  0.00000000000E+00 0.  1.
<mgrwt>
<rscale>  0 0.31702567E+04</rscale>
<asrwt>0</asrwt>
<pdfrwt beam="1">  1        2 0.28859687E+00 0.31702567E+04</pdfrwt>
<pdfrwt beam="2">  1       -1 0.20606798E+00 0.31702567E+04</pdfrwt>
<totfact> 0.10284284E+00</totfact>
</mgrwt>
</event>
<event>
12    6  0.1403409E-007  0.3651987E+04  0.7818608E-02  0.8078686E-01
         -1   -1    0    0    0  501 -0.00000000000E+00  0.00000000000E+00  0.18513694362E+04  0.18513694362E+04  0.00000000000E+00 0.  1.
          2   -1    0    0  501    0  0.00000000000E+00 -0.00000000000E+00 -0.18009652494E+04  0.18009652494E+04  0.00000000000E+00 0. -1.
         24    2    1    2    0    0 -0.13299952779E+04  0.87990988741E+03 -0.60768164011E+03  0.17084246664E+04  0.79429312141E+02 0.  0.
        254    2    1    2    0    0  0.13299952779E+04 -0.87990988741E+03  0.65808582692E+03  0.19439100192E+04  0.89586849371E+03 0.  0.
         23    2    4    4    0    0  0.23277456039E+03 -0.21932217174E+02 -0.18642971731E+03  0.31253317625E+03  0.90862140863E+02 0.  0.
         23    2    4    4    0    0  0.10972207175E+04 -0.85797767024E+03  0.84451554423E+03  0.16313768430E+04  0.90359912472E+02 0.  0.
          2    1    3    3  502    0 -0.45117594080E+03  0.31378820973E+03 -0.17157779487E+03  0.57572711401E+03  0.00000000000E+00 0. -1.
         -1    1    3    3    0  502 -0.87881933715E+03  0.56612167768E+03 -0.43610384524E+03  0.11326975524E+04  0.00000000000E+00 0.  1.
         11    1    5    5    0    0  0.20413870693E+03 -0.33453496598E+02 -0.19072670047E+03  0.28136883689E+03  0.00000000000E+00 0. -1.
        -11    1    5    5    0    0  0.28635853463E+02  0.11521279423E+02  0.42969831606E+01  0.31164339354E+02  0.00000000000E+00 0.  1.
          2    1    6    6  503    0  0.93307241785E+03 -0.68676248945E+03  0.70433287588E+03  0.13558582721E+04  0.00000000000E+00 0. -1.
         -2    1    6    6    0  503  0.16414829970E+03 -0.17121518079E+03  0.14018266835E+03  0.27551857094E+03  0.00000000000E+00 0.  1.
<mgrwt>
<rscale>  0 0.36519869E+04</rscale>
<asrwt>0</asrwt>
<pdfrwt beam="1">  1        2 0.27707158E+00 0.36519869E+04</pdfrwt>
<pdfrwt beam="2">  1       -1 0.28482607E+00 0.36519869E+04</pdfrwt>
<totfact> 0.32963576E-01</totfact>
</mgrwt>
</event>
<event>
12    6  0.1403409E-007  0.2347559E+04  0.7818608E-02  0.8459402E-01
          2   -1    0    0  501    0  0.00000000000E+00  0.00000000000E+00  0.10035901423E+04  0.10035901423E+04  0.00000000000E+00 0. -1.
         -1   -1    0    0    0  501 -0.00000000000E+00 -0.00000000000E+00 -0.13728301187E+04  0.13728301187E+04  0.00000000000E+00 0.  1.
         24    2    1    2    0    0 -0.69247390284E+03  0.71862166354E+03 -0.22982153306E+03  0.10273861161E+04  0.82262343147E+02 0.  0.
        254    2    1    2    0    0  0.69247390284E+03 -0.71862166354E+03 -0.13941844336E+03  0.13490341450E+04  0.89694950833E+03 0.  0.
         23    2    4    4    0    0  0.46073270393E+03 -0.71256012275E+03 -0.43840433794E+03  0.95973070953E+03  0.94170687036E+02 0.  0.
         23    2    4    4    0    0  0.23174119891E+03 -0.60615407871E+01  0.29898589457E+03  0.38930343542E+03  0.91781665542E+02 0.  0.
          2    1    3    3  502    0 -0.28845178115E+03  0.35287309169E+03 -0.12240974807E+03  0.47191947969E+03  0.00000000000E+00 0. -1.
         -1    1    3    3    0  502 -0.40402212168E+03  0.36574857184E+03 -0.10741178498E+03  0.55546663641E+03  0.00000000000E+00 0.  1.
         11    1    5    5    0    0  0.39459280657E+03 -0.59231685880E+03 -0.32830079551E+03  0.78378833658E+03  0.00000000000E+00 0.  1.
        -11    1    5    5    0    0  0.66139897355E+02 -0.12024326395E+03 -0.11010354242E+03  0.17594237295E+03  0.00000000000E+00 0. -1.
          1    1    6    6  503    0  0.70822705446E+02 -0.40109987106E+02  0.69917636692E+02  0.10729931311E+03  0.00000000000E+00 0. -1.
         -1    1    6    6    0  503  0.16091849346E+03  0.34048446319E+02  0.22906825788E+03  0.28200412232E+03  0.00000000000E+00 0.  1.
<mgrwt>
<rscale>  0 0.23475594E+04</rscale>
<asrwt>0</asrwt>
<pdfrwt beam="1">  1        2 0.15439848E+00 0.23475594E+04</pdfrwt>
<pdfrwt beam="2">  1       -1 0.21120463E+00 0.23475594E+04</pdfrwt>
<totfact> 0.32549459E+00</totfact>
</mgrwt>
</event>
<event>
12    6  0.1403409E-007  0.1194479E+04  0.7818608E-02  0.9117703E-01
          2   -1    0    0  501    0  0.00000000000E+00  0.00000000000E+00  0.13480330253E+04  0.13480330253E+04  0.00000000000E+00 0. -1.
         -1   -1    0    0    0  501 -0.00000000000E+00 -0.00000000000E+00 -0.26460418054E+03  0.26460418054E+03  0.00000000000E+00 0.  1.
         24    2    1    2    0    0 -0.48452440042E+02  0.21446633159E+03  0.45602721215E+03  0.51407457027E+03  0.89265890721E+02 0.  0.
        254    2    1    2    0    0  0.48452440042E+02 -0.21446633159E+03  0.62740163261E+03  0.10985626356E+04  0.87456481138E+03 0.  0.
         23    2    4    4    0    0 -0.33531275043E+03 -0.30953737207E+03  0.19413241446E+03  0.50501991822E+03  0.95444738696E+02 0.  0.
         23    2    4    4    0    0  0.38376519047E+03  0.95071040475E+02  0.43326921815E+03  0.59354271734E+03  0.90865382623E+02 0.  0.
          2    1    3    3  502    0 -0.57760304701E+02  0.75112903326E+02  0.22461398359E+03  0.24378195722E+03  0.00000000000E+00 0. -1.
         -1    1    3    3    0  502  0.93078646593E+01  0.13935342827E+03  0.23141322856E+03  0.27029261305E+03  0.00000000000E+00 0.  1.
         11    1    5    5    0    0 -0.50525010937E+02 -0.95293706177E+02  0.25874940528E+02  0.11091969940E+03  0.00000000000E+00 0. -1.
        -11    1    5    5    0    0 -0.28478773949E+03 -0.21424366589E+03  0.16825747394E+03  0.39410021882E+03  0.00000000000E+00 0.  1.
          1    1    6    6  503    0  0.15741941841E+02  0.27110605880E+02  0.36670834777E+02  0.48244624647E+02  0.00000000000E+00 0. -1.
         -1    1    6    6    0  503  0.36802324863E+03  0.67960434594E+02  0.39659838337E+03  0.54529809269E+03  0.00000000000E+00 0.  1.
<mgrwt>
<rscale>  0 0.11944793E+04</rscale>
<asrwt>0</asrwt>
<pdfrwt beam="1">  1        2 0.20738969E+00 0.11944793E+04</pdfrwt>
<pdfrwt beam="2">  1       -1 0.40708336E-01 0.11944793E+04</pdfrwt>
<totfact> 0.10279564E+02</totfact>
</mgrwt>
</event>
<event>
12    6  0.1403409E-007  0.2965792E+04  0.7818608E-02  0.8253567E-01
          2   -1    0    0  501    0  0.00000000000E+00  0.00000000000E+00  0.90036138323E+03  0.90036138323E+03  0.00000000000E+00 0. -1.
         -1   -1    0    0    0  501 -0.00000000000E+00 -0.00000000000E+00 -0.24423303862E+04  0.24423303862E+04  0.00000000000E+00 0.  1.
         24    2    1    2    0    0  0.10888544667E+04 -0.66160072682E+03 -0.21149903476E+03  0.12937995338E+04  0.76588645402E+02 0.  0.
        254    2    1    2    0    0 -0.10888544667E+04  0.66160072682E+03 -0.13304699682E+04  0.20488922356E+04  0.89693337862E+03 0.  0.
         23    2    4    4    0    0 -0.86773377619E+02  0.59574546342E+00  0.11372445648E+03  0.16861102671E+03  0.89254985023E+02 0.  0.
         23    2    4    4    0    0 -0.10020810890E+04  0.66100498135E+03 -0.14441944247E+04  0.18802812089E+04  0.93090246483E+02 0.  0.
          2    1    3    3  502    0  0.65976103118E+03 -0.35706862694E+03 -0.12876664802E+03  0.76115929493E+03  0.00000000000E+00 0. -1.
         -1    1    3    3    0  502  0.42909343547E+03 -0.30453209987E+03 -0.82732386733E+02  0.53264023884E+03  0.00000000000E+00 0.  1.
         11    1    5    5    0    0 -0.10361198244E+03 -0.14783150953E+00  0.11044801371E+03  0.15144051140E+03  0.00000000000E+00 0. -1.
        -11    1    5    5    0    0  0.16838604819E+02  0.74357697295E+00  0.32764427643E+01  0.17170515314E+02  0.00000000000E+00 0.  1.
          1    1    6    6  503    0 -0.71060385920E+03  0.51403066630E+03 -0.10783455591E+04  0.13899692498E+04  0.00000000000E+00 0. -1.
         -1    1    6    6    0  503 -0.29147722984E+03  0.14697431505E+03 -0.36584886552E+03  0.49031195906E+03  0.00000000000E+00 0.  1.
<mgrwt>
<rscale>  0 0.29657916E+04</rscale>
<asrwt>0</asrwt>
<pdfrwt beam="1">  1        2 0.13851714E+00 0.29657916E+04</pdfrwt>
<pdfrwt beam="2">  1       -1 0.37574313E+00 0.29657916E+04</pdfrwt>
<totfact> 0.29961887E-01</totfact>
</mgrwt>
</event>
<event>
12    6  0.1403409E-007  0.2092539E+04  0.7818608E-02  0.8564537E-01
          2   -1    0    0  501    0  0.00000000000E+00  0.00000000000E+00  0.18118614785E+04  0.18118614785E+04  0.00000000000E+00 0. -1.
         -1   -1    0    0    0  501 -0.00000000000E+00 -0.00000000000E+00 -0.60417397652E+03  0.60417397652E+03  0.00000000000E+00 0.  1.
         24    2    1    2    0    0  0.43746319477E+03  0.34211962095E+03 -0.25072224983E+03  0.61461662061E+03  0.80449126441E+02 0.  0.
        254    2    1    2    0    0 -0.43746319477E+03 -0.34211962095E+03  0.14584097518E+04  0.18014188344E+04  0.89985050478E+03 0.  0.
         23    2    4    4    0    0 -0.26453725675E+03 -0.27822203348E+03  0.73547352698E+02  0.40125729570E+03  0.90613156538E+02 0.  0.
         23    2    4    4    0    0 -0.17292593802E+03 -0.63897587462E+02  0.13848623991E+04  0.14001615387E+04  0.92855738961E+02 0.  0.
          4    1    3    3  502    0  0.49036290322E+02  0.98901636650E+01 -0.22100922435E+02  0.54688425451E+02  0.00000000000E+00 0. -1.
         -3    1    3    3    0  502  0.38842690445E+03  0.33222945728E+03 -0.22862132740E+03  0.55992819516E+03  0.00000000000E+00 0.  1.
         11    1    5    5    0    0 -0.14921679495E+03 -0.17453323661E+03  0.11154057093E-01  0.22962469968E+03  0.00000000000E+00 0. -1.
        -11    1    5    5    0    0 -0.11532046180E+03 -0.10368879687E+03  0.73536198641E+02  0.17163259602E+03  0.00000000000E+00 0.  1.
          4    1    6    6  503    0 -0.12510073410E+03 -0.33251256951E+01  0.71516712174E+03  0.72603392630E+03  0.00000000000E+00 0. -1.
         -4    1    6    6    0  503 -0.47825203920E+02 -0.60572461767E+02  0.66969527738E+03  0.67412761240E+03  0.00000000000E+00 0.  1.
<mgrwt>
<rscale>  0 0.20925387E+04</rscale>
<asrwt>0</asrwt>
<pdfrwt beam="1">  1        2 0.27874792E+00 0.20925387E+04</pdfrwt>
<pdfrwt beam="2">  1       -1 0.92949844E-01 0.20925387E+04</pdfrwt>
<totfact> 0.10033465E+01</totfact>
</mgrwt>
</event>
<event>
12    6  0.1403409E-007  0.1523004E+04  0.7818608E-02  0.8869298E-01
         -1   -1    0    0    0  501 -0.00000000000E+00  0.00000000000E+00  0.46300961635E+03  0.46300961635E+03  0.00000000000E+00 0.  1.
          2   -1    0    0  501    0  0.00000000000E+00 -0.00000000000E+00 -0.12524254856E+04  0.12524254856E+04  0.00000000000E+00 0. -1.
         24    2    1    2    0    0 -0.78400135438E+02 -0.47257388665E+03 -0.13739111081E+03  0.50509326774E+03  0.82281420795E+02 0.  0.
        254    2    1    2    0    0  0.78400135438E+02  0.47257388665E+03 -0.65202475843E+03  0.12103418342E+04  0.90017687730E+03 0.  0.
         23    2    4    4    0    0  0.23723931971E+03 -0.19137070702E+03 -0.12008783102E+03  0.34007922487E+03  0.91255409226E+02 0.  0.
         23    2    4    4    0    0 -0.15883918427E+03  0.66394459367E+03 -0.53193692742E+03  0.87026260933E+03  0.91366320491E+02 0.  0.
          2    1    3    3  502    0 -0.26628621577E+02 -0.36042852400E+03 -0.11717384567E+03  0.37993093386E+03  0.00000000000E+00 0. -1.
         -1    1    3    3    0  502 -0.51771513860E+02 -0.11214536266E+03 -0.20217265140E+02  0.12516233388E+03  0.00000000000E+00 0.  1.
         11    1    5    5    0    0  0.78030097444E+02 -0.20732317811E+02 -0.78586479612E+01  0.81118946349E+02  0.00000000000E+00 0. -1.
        -11    1    5    5    0    0  0.15920922226E+03 -0.17063838921E+03 -0.11222918306E+03  0.25896027853E+03  0.00000000000E+00 0.  1.
          4    1    6    6  503    0 -0.10237835472E+03  0.28817250482E+03 -0.27750535293E+03  0.41295755345E+03  0.00000000000E+00 0. -1.
         -4    1    6    6    0  503 -0.56460829555E+02  0.37577208886E+03 -0.25443157449E+03  0.45730505588E+03  0.00000000000E+00 0.  1.
<mgrwt>
<rscale>  0 0.15230037E+04</rscale>
<asrwt>0</asrwt>
<pdfrwt beam="1">  1        2 0.19268084E+00 0.15230037E+04</pdfrwt>
<pdfrwt beam="2">  1       -1 0.71232249E-01 0.15230037E+04</pdfrwt>
<totfact> 0.38587137E+01</totfact>
</mgrwt>
</event>
<event>
12    6  0.1403409E-007  0.1889904E+04  0.7818608E-02  0.8659898E-01
         -1   -1    0    0    0  501 -0.00000000000E+00  0.00000000000E+00  0.67988215130E+03  0.67988215130E+03  0.00000000000E+00 0.  1.
          2   -1    0    0  501    0  0.00000000000E+00 -0.00000000000E+00 -0.13133667946E+04  0.13133667946E+04  0.00000000000E+00 0. -1.
         24    2    1    2    0    0  0.42073656125E+03 -0.32817566620E+03 -0.76612706413E+03  0.93706623693E+03  0.80149436314E+02 0.  0.
        254    2    1    2    0    0 -0.42073656125E+03  0.32817566620E+03  0.13264242085E+03  0.10561827090E+04  0.90178122681E+03 0.  0.
         23    2    4    4    0    0 -0.56800810900E+03  0.21659008702E+03 -0.21538048616E+03  0.65157249150E+03  0.92808836734E+02 0.  0.
         23    2    4    4    0    0  0.14727154775E+03  0.11158557919E+03  0.34802290701E+03  0.40461021745E+03  0.91919714967E+02 0.  0.
          2    1    3    3  502    0  0.31378155894E+03 -0.28421211475E+03 -0.61907383065E+03  0.74999186709E+03  0.00000000000E+00 0. -1.
         -1    1    3    3    0  502  0.10695500231E+03 -0.43963551455E+02 -0.14705323348E+03  0.18707436984E+03  0.00000000000E+00 0.  1.
         11    1    5    5    0    0 -0.30577794472E+03  0.77440147010E+02 -0.14113402200E+03  0.34556611526E+03  0.00000000000E+00 0. -1.
        -11    1    5    5    0    0 -0.26223016428E+03  0.13914994001E+03 -0.74246464164E+02  0.30600637625E+03  0.00000000000E+00 0.  1.
          3    1    6    6  503    0  0.91005086827E+02  0.11445990603E+03  0.21360926700E+03  0.25886659666E+03  0.00000000000E+00 0. -1.
         -3    1    6    6    0  503  0.56266460926E+02 -0.28743268474E+01  0.13441364001E+03  0.14574362079E+03  0.00000000000E+00 0.  1.
<mgrwt>
<rscale>  0 0.18899044E+04</rscale>
<asrwt>0</asrwt>
<pdfrwt beam="1">  1        2 0.20205643E+00 0.18899044E+04</pdfrwt>
<pdfrwt beam="2">  1       -1 0.10459725E+00 0.18899044E+04</pdfrwt>
<totfact> 0.14904122E+01</totfact>
</mgrwt>
</event>
<event>
12    6  0.1403409E-007  0.1574028E+04  0.7818608E-02  0.8836664E-01
         -1   -1    0    0    0  501 -0.00000000000E+00  0.00000000000E+00  0.25875517819E+03  0.25875517819E+03  0.00000000000E+00 0.  1.
          2   -1    0    0  501    0  0.00000000000E+00 -0.00000000000E+00 -0.23937348701E+04  0.23937348701E+04  0.00000000000E+00 0. -1.
         24    2    1    2    0    0  0.21031885348E+03 -0.78475428228E+02 -0.15327661551E+04  0.15511125268E+04  0.78648406241E+02 0.  0.
        254    2    1    2    0    0 -0.21031885348E+03  0.78475428228E+02 -0.60221353689E+03  0.11013775215E+04  0.89441538890E+03 0.  0.
         23    2    4    4    0    0  0.43953417226E+02  0.88202583802E+02 -0.77171552695E+03  0.78339417601E+03  0.91923782557E+02 0.  0.
         23    2    4    4    0    0 -0.25427227071E+03 -0.97271555742E+01  0.16950199006E+03  0.31798334549E+03  0.87369778342E+02 0.  0.
          2    1    3    3  502    0  0.21692086389E+02 -0.36988593532E+02 -0.36077974075E+03  0.36331903886E+03  0.00000000000E+00 0. -1.
         -1    1    3    3    0  502  0.18862676710E+03 -0.41486834696E+02 -0.11719864143E+04  0.11877934880E+04  0.00000000000E+00 0.  1.
         11    1    5    5    0    0  0.68047215900E+02  0.87248963246E+02 -0.63101797453E+03  0.64064536942E+03  0.00000000000E+00 0. -1.
        -11    1    5    5    0    0 -0.24093798674E+02  0.95362055630E+00 -0.14069755241E+03  0.14274880659E+03  0.00000000000E+00 0.  1.
          3    1    6    6  503    0 -0.25560965178E+03 -0.30000328961E+01  0.17448972826E+03  0.30950276178E+03  0.00000000000E+00 0. -1.
         -3    1    6    6    0  503  0.13373810729E+01 -0.67271226781E+01 -0.49877382019E+01  0.84805837082E+01  0.00000000000E+00 0.  1.
<mgrwt>
<rscale>  0 0.15740283E+04</rscale>
<asrwt>0</asrwt>
<pdfrwt beam="1">  1        2 0.36826691E+00 0.15740283E+04</pdfrwt>
<pdfrwt beam="2">  1       -1 0.39808489E-01 0.15740283E+04</pdfrwt>
<totfact> 0.26998412E+01</totfact>
</mgrwt>
</event>
<event>
12    6  0.1403409E-007  0.1146326E+04  0.7818608E-02  0.9161179E-01
          2   -1    0    0  501    0  0.00000000000E+00  0.00000000000E+00  0.86418157426E+03  0.86418157426E+03  0.00000000000E+00 0. -1.
         -1   -1    0    0    0  501 -0.00000000000E+00 -0.00000000000E+00 -0.38014688692E+03  0.38014688692E+03  0.00000000000E+00 0.  1.
         24    2    1    2    0    0 -0.50594875817E+02 -0.84997449218E+02  0.29735435681E+03  0.32286538165E+03  0.77704783131E+02 0.  0.
        254    2    1    2    0    0  0.50594875817E+02  0.84997449218E+02  0.18668033053E+03  0.92146307952E+03  0.89691708273E+03 0.  0.
         23    2    4    4    0    0 -0.33588461401E+03  0.85597819474E+02  0.34174106054E+03  0.49532635050E+03  0.91737562725E+02 0.  0.
         23    2    4    4    0    0  0.38647948983E+03 -0.60037025626E+00 -0.15506073001E+03  0.42613672902E+03  0.90453995652E+02 0.  0.
          4    1    3    3  502    0 -0.22308811537E+02 -0.69396963902E+02  0.10503105983E+03  0.12784813335E+03  0.00000000000E+00 0. -1.
         -1    1    3    3    0  502 -0.28286064280E+02 -0.15600485315E+02  0.19232329698E+03  0.19501724831E+03  0.00000000000E+00 0.  1.
         11    1    5    5    0    0 -0.13027447554E+03 -0.19144044712E+01  0.88035973661E+02  0.15724324017E+03  0.00000000000E+00 0. -1.
        -11    1    5    5    0    0 -0.20561013847E+03  0.87512223945E+02  0.25370508688E+03  0.33808311033E+03  0.00000000000E+00 0.  1.
          3    1    6    6  503    0  0.14701264992E+03 -0.44214579378E+02 -0.59732329530E+02  0.16472886650E+03  0.00000000000E+00 0.  1.
         -3    1    6    6    0  503  0.23946683991E+03  0.43614209122E+02 -0.95328400478E+02  0.26140786253E+03  0.00000000000E+00 0. -1.
<mgrwt>
<rscale>  0 0.11463262E+04</rscale>
<asrwt>0</asrwt>
<pdfrwt beam="1">  1        2 0.13295101E+00 0.11463262E+04</pdfrwt>
<pdfrwt beam="2">  1       -1 0.58484137E-01 0.11463262E+04</pdfrwt>
<totfact> 0.10386239E+02</totfact>
</mgrwt>
</event>
<event>
12    6  0.1403409E-007  0.3120850E+04  0.7818608E-02  0.8210039E-01
         -1   -1    0    0    0  501 -0.00000000000E+00  0.00000000000E+00  0.82145677438E+03  0.82145677438E+03  0.00000000000E+00 0.  1.
          2   -1    0    0  501    0  0.00000000000E+00 -0.00000000000E+00 -0.29641552401E+04  0.29641552401E+04  0.00000000000E+00 0. -1.
         24    2    1    2    0    0 -0.97835225481E+03 -0.51736020847E+03  0.11436655553E+03  0.11154282101E+04  0.79155942093E+02 0.  0.
        254    2    1    2    0    0  0.97835225481E+03  0.51736020847E+03 -0.22570650212E+04  0.26701838043E+04  0.90039120329E+03 0.  0.
         23    2    4    4    0    0 -0.14498951190E+03  0.14963915268E+03 -0.51449911126E+03  0.56248165279E+03  0.90897962892E+02 0.  0.
         23    2    4    4    0    0  0.11233417667E+04  0.36772105579E+03 -0.17425659099E+04  0.21077021515E+04  0.93578358878E+02 0.  0.
          4    1    3    3  502    0 -0.88880405523E+03 -0.47922405179E+03  0.83016503475E+02  0.10131732726E+04  0.00000000000E+00 0. -1.
         -3    1    3    3    0  502 -0.89548199577E+02 -0.38136156677E+02  0.31350052056E+02  0.10225493757E+03  0.00000000000E+00 0.  1.
         11    1    5    5    0    0 -0.25076471699E+02  0.34868384734E+02 -0.22245515274E+03  0.22656329948E+03  0.00000000000E+00 0.  1.
        -11    1    5    5    0    0 -0.11991304020E+03  0.11477076795E+03 -0.29204395852E+03  0.33591835331E+03  0.00000000000E+00 0. -1.
          2    1    6    6  503    0  0.48983787949E+03  0.12473703637E+03 -0.80044981884E+03  0.94668917227E+03  0.00000000000E+00 0. -1.
         -2    1    6    6    0  503  0.63350388722E+03  0.24298401942E+03 -0.94211609111E+03  0.11610129792E+04  0.00000000000E+00 0.  1.
<mgrwt>
<rscale>  0 0.31208495E+04</rscale>
<asrwt>0</asrwt>
<pdfrwt beam="1">  1        2 0.45602389E+00 0.31208495E+04</pdfrwt>
<pdfrwt beam="2">  1       -1 0.12637796E+00 0.31208495E+04</pdfrwt>
<totfact> 0.96057601E-01</totfact>
</mgrwt>
</event>
<event>
12    6  0.1403409E-007  0.2329382E+04  0.7818608E-02  0.8466425E-01
          2   -1    0    0  501    0  0.00000000000E+00  0.00000000000E+00  0.19458355431E+04  0.19458355431E+04  0.00000000000E+00 0. -1.
         -1   -1    0    0    0  501 -0.00000000000E+00 -0.00000000000E+00 -0.69713273964E+03  0.69713273964E+03  0.00000000000E+00 0.  1.
         24    2    1    2    0    0 -0.36176478050E+03  0.91782585279E+03  0.62645510684E+03  0.11712741929E+04  0.78480453649E+02 0.  0.
        254    2    1    2    0    0  0.36176478050E+03 -0.91782585279E+03  0.62224769667E+03  0.14716940899E+04  0.89744818554E+03 0.  0.
         23    2    4    4    0    0 -0.24667950558E+01 -0.84763407000E+03  0.67226957328E+03  0.10863333347E+04  0.98407994050E+02 0.  0.
         23    2    4    4    0    0  0.36423157556E+03 -0.70191782790E+02 -0.50021876619E+02  0.38536075514E+03  0.91701670983E+02 0.  0.
          4    1    3    3  502    0 -0.31948358312E+03  0.74329860939E+03  0.53294840915E+03  0.96881194740E+03  0.00000000000E+00 0. -1.
         -1    1    3    3    0  502 -0.42281197385E+02  0.17452724340E+03  0.93506697685E+02  0.20246224550E+03  0.00000000000E+00 0.  1.
         11    1    5    5    0    0  0.39302345227E+02 -0.28766547276E+03  0.19929184258E+03  0.35215527410E+03  0.00000000000E+00 0.  1.
        -11    1    5    5    0    0 -0.41769140282E+02 -0.55996859724E+03  0.47297773071E+03  0.73417806063E+03  0.00000000000E+00 0. -1.
          1    1    6    6  503    0  0.12726720623E+03 -0.59078743814E+02 -0.47465100357E+02  0.14812216413E+03  0.00000000000E+00 0. -1.
         -1    1    6    6    0  503  0.23696436932E+03 -0.11113038976E+02 -0.25567762611E+01  0.23723859102E+03  0.00000000000E+00 0.  1.
<mgrwt>
<rscale>  0 0.23293825E+04</rscale>
<asrwt>0</asrwt>
<pdfrwt beam="1">  1        2 0.29935931E+00 0.23293825E+04</pdfrwt>
<pdfrwt beam="2">  1       -1 0.10725119E+00 0.23293825E+04</pdfrwt>
<totfact> 0.59715200E+00</totfact>
</mgrwt>
</event>
<event>
12    6  0.1403409E-007  0.3105400E+04  0.7818608E-02  0.8214258E-01
         -1   -1    0    0    0  501 -0.00000000000E+00  0.00000000000E+00  0.92403247321E+03  0.92403247321E+03  0.00000000000E+00 0.  1.
          2   -1    0    0  501    0  0.00000000000E+00 -0.00000000000E+00 -0.26090825942E+04  0.26090825942E+04  0.00000000000E+00 0. -1.
         24    2    1    2    0    0  0.39561412417E+03  0.13144061712E+04 -0.11930236304E+04  0.18204207920E+04  0.80326578225E+02 0.  0.
        254    2    1    2    0    0 -0.39561412417E+03 -0.13144061712E+04 -0.49202649064E+03  0.17126942755E+04  0.89836378802E+03 0.  0.
         23    2    4    4    0    0 -0.26341109096E+03 -0.11689914295E+03 -0.39968929677E+03  0.50093778334E+03  0.90201531914E+02 0.  0.
         23    2    4    4    0    0 -0.13220303321E+03 -0.11975070282E+04 -0.92337193870E+02  0.12117564921E+04  0.91251926985E+02 0.  0.
          2    1    3    3  502    0  0.17492745418E+03  0.46697389471E+03 -0.45976118940E+03  0.67826586516E+03  0.00000000000E+00 0. -1.
         -1    1    3    3    0  502  0.22068666999E+03  0.84743227647E+03 -0.73326244098E+03  0.11421549268E+04  0.00000000000E+00 0.  1.
         11    1    5    5    0    0 -0.15678333586E+03 -0.10606296538E+03 -0.20737772014E+03  0.28077728868E+03  0.00000000000E+00 0. -1.
        -11    1    5    5    0    0 -0.10662775510E+03 -0.10836177571E+02 -0.19231157663E+03  0.22016049466E+03  0.00000000000E+00 0.  1.
          2    1    6    6  503    0 -0.84406749994E+01 -0.32264097627E+03  0.53533946333E+01  0.32279576112E+03  0.00000000000E+00 0. -1.
         -2    1    6    6    0  503 -0.12376235822E+03 -0.87486605196E+03 -0.97690588503E+02  0.88896073100E+03  0.00000000000E+00 0.  1.
<mgrwt>
<rscale>  0 0.31053998E+04</rscale>
<asrwt>0</asrwt>
<pdfrwt beam="1">  1        2 0.40139732E+00 0.31053998E+04</pdfrwt>
<pdfrwt beam="2">  1       -1 0.14215884E+00 0.31053998E+04</pdfrwt>
<totfact> 0.11668750E+00</totfact>
</mgrwt>
</event>
<event>
12    6  0.1403409E-007  0.3786835E+04  0.7818608E-02  0.8048986E-01
          2   -1    0    0  501    0  0.00000000000E+00  0.00000000000E+00  0.37508035522E+04  0.37508035522E+04  0.00000000000E+00 0. -1.
         -1   -1    0    0    0  501 -0.00000000000E+00 -0.00000000000E+00 -0.95580337060E+03  0.95580337060E+03  0.00000000000E+00 0.  1.
         24    2    1    2    0    0  0.69343902773E+03 -0.16242087957E+04  0.16419481762E+04  0.24127606634E+04  0.80674085563E+02 0.  0.
        254    2    1    2    0    0 -0.69343902773E+03  0.16242087957E+04  0.11530520054E+04  0.22938462595E+04  0.90182583543E+03 0.  0.
         23    2    4    4    0    0 -0.69868305658E+03  0.17149711841E+04  0.10762658430E+04  0.21440844534E+04  0.97292357273E+02 0.  0.
         23    2    4    4    0    0  0.52440288529E+01 -0.90762388374E+02  0.76786162418E+02  0.14976180601E+03  0.90923994732E+02 0.  0.
          4    1    3    3  502    0  0.30091550127E+03 -0.74651137968E+03  0.79839488050E+03  0.11336947403E+04  0.00000000000E+00 0. -1.
         -3    1    3    3    0  502  0.39252352646E+03 -0.87769741606E+03  0.84355329570E+03  0.12790659231E+04  0.00000000000E+00 0.  1.
         11    1    5    5    0    0 -0.28682293719E+03  0.81121133820E+03  0.53062634567E+03  0.10108884960E+04  0.00000000000E+00 0.  1.
        -11    1    5    5    0    0 -0.41186011939E+03  0.90375984591E+03  0.54563949735E+03  0.11331959575E+04  0.00000000000E+00 0. -1.
          2    1    6    6  503    0  0.17276155986E+02 -0.71768296226E+02  0.95363377911E+02  0.12059572030E+03  0.00000000000E+00 0. -1.
         -2    1    6    6    0  503 -0.12032127133E+02 -0.18994092149E+02 -0.18577215493E+02  0.29166085705E+02  0.00000000000E+00 0.  1.
<mgrwt>
<rscale>  0 0.37868354E+04</rscale>
<asrwt>0</asrwt>
<pdfrwt beam="1">  1        2 0.57704669E+00 0.37868354E+04</pdfrwt>
<pdfrwt beam="2">  1       -1 0.14704667E+00 0.37868354E+04</pdfrwt>
<totfact> 0.17890174E-01</totfact>
</mgrwt>
</event>
<event>
12    6  0.1403409E-007  0.2093242E+04  0.7818608E-02  0.8564226E-01
          2   -1    0    0  501    0  0.00000000000E+00  0.00000000000E+00  0.16894594142E+04  0.16894594142E+04  0.00000000000E+00 0. -1.
         -1   -1    0    0    0  501 -0.00000000000E+00 -0.00000000000E+00 -0.64838243071E+03  0.64838243071E+03  0.00000000000E+00 0.  1.
         24    2    1    2    0    0  0.32313222594E+03  0.78599829004E+03  0.47506550403E+03  0.97684206537E+03  0.79532635908E+02 0.  0.
        254    2    1    2    0    0 -0.32313222594E+03 -0.78599829004E+03  0.56601147948E+03  0.13609997796E+04  0.89985757633E+03 0.  0.
         23    2    4    4    0    0 -0.60502114877E+03 -0.69162266991E+03  0.41011297319E+03  0.10100428069E+04  0.87185509292E+02 0.  0.
         23    2    4    4    0    0  0.28188892283E+03 -0.94375620129E+02  0.15589850629E+03  0.35095697264E+03  0.10246135807E+03 0.  0.
          4    1    3    3  502    0  0.58381007019E+02  0.20726814580E+03  0.14813537996E+03  0.26136663337E+03  0.00000000000E+00 0. -1.
         -3    1    3    3    0  502  0.26475121892E+03  0.57873014424E+03  0.32693012407E+03  0.71547543200E+03  0.00000000000E+00 0.  1.
         11    1    5    5    0    0 -0.12051301353E+03 -0.15758131237E+03  0.52767771914E+02  0.20527955133E+03  0.00000000000E+00 0. -1.
        -11    1    5    5    0    0 -0.48450813524E+03 -0.53404135753E+03  0.35734520128E+03  0.80476325559E+03  0.00000000000E+00 0.  1.
          4    1    6    6  503    0  0.15714524218E+03 -0.31233748286E+01  0.10152545609E+03  0.18711440577E+03  0.00000000000E+00 0. -1.
         -4    1    6    6    0  503  0.12474368065E+03 -0.91252245300E+02  0.54373050196E+02  0.16384256688E+03  0.00000000000E+00 0.  1.
<mgrwt>
<rscale>  0 0.20932423E+04</rscale>
<asrwt>0</asrwt>
<pdfrwt beam="1">  1        2 0.25991683E+00 0.20932423E+04</pdfrwt>
<pdfrwt beam="2">  1       -1 0.99751144E-01 0.20932423E+04</pdfrwt>
<totfact> 0.10005936E+01</totfact>
</mgrwt>
</event>
<event>
12    6  0.1403409E-007  0.2460032E+04  0.7818608E-02  0.8417364E-01
          2   -1    0    0  501    0  0.00000000000E+00  0.00000000000E+00  0.84767068253E+03  0.84767068253E+03  0.00000000000E+00 0. -1.
         -1   -1    0    0    0  501 -0.00000000000E+00 -0.00000000000E+00 -0.17848191966E+04  0.17848191966E+04  0.00000000000E+00 0.  1.
         24    2    1    2    0    0 -0.37503104810E+03  0.10319478976E+03 -0.14650966586E+04  0.15179810554E+04  0.80379187641E+02 0.  0.
        254    2    1    2    0    0  0.37503104810E+03 -0.10319478976E+03  0.52794814445E+03  0.11145088238E+04  0.90116769997E+03 0.  0.
         23    2    4    4    0    0  0.30224411450E+03  0.15527224984E+03  0.69972907854E+03  0.78260001464E+03  0.85912881680E+02 0.  0.
         23    2    4    4    0    0  0.72786933595E+02 -0.25846703960E+03 -0.17178093409E+03  0.33190880918E+03  0.92474969784E+02 0.  0.
          2    1    3    3  502    0 -0.18980525974E+03  0.20954130410E+02 -0.60970924480E+03  0.63891351167E+03  0.00000000000E+00 0. -1.
         -1    1    3    3    0  502 -0.18522578836E+03  0.82240659352E+02 -0.85538741377E+03  0.87906754368E+03  0.00000000000E+00 0.  1.
         11    1    5    5    0    0  0.21034384045E+03  0.14958862247E+03  0.50117404616E+03  0.56373461108E+03  0.00000000000E+00 0. -1.
        -11    1    5    5    0    0  0.91900274053E+02  0.56836273673E+01  0.19855503237E+03  0.21886540355E+03  0.00000000000E+00 0.  1.
          4    1    6    6  503    0  0.45158026987E+02 -0.97801131215E+02 -0.11908651580E+03  0.16057990819E+03  0.00000000000E+00 0.  1.
         -4    1    6    6    0  503  0.27628906608E+02 -0.16066590838E+03 -0.52694418285E+02  0.17132890099E+03  0.00000000000E+00 0. -1.
<mgrwt>
<rscale>  0 0.24600316E+04</rscale>
<asrwt>0</asrwt>
<pdfrwt beam="1">  1        2 0.13041088E+00 0.24600316E+04</pdfrwt>
<pdfrwt beam="2">  1       -1 0.27458757E+00 0.24600316E+04</pdfrwt>
<totfact> 0.15686808E+00</totfact>
</mgrwt>
</event>
<event>
12    6  0.1403409E-007  0.2735172E+04  0.7818608E-02  0.8323682E-01
         -1   -1    0    0    0  501 -0.00000000000E+00  0.00000000000E+00  0.70327760912E+03  0.70327760912E+03  0.00000000000E+00 0.  1.
          2   -1    0    0  501    0  0.00000000000E+00 -0.00000000000E+00 -0.26593935707E+04  0.26593935707E+04  0.00000000000E+00 0. -1.
         24    2    1    2    0    0  0.69529005148E+03  0.54441877984E+03  0.15768409939E+03  0.90068723335E+03  0.80951550844E+02 0.  0.
        254    2    1    2    0    0 -0.69529005148E+03 -0.54441877984E+03 -0.21138000609E+04  0.24619839464E+04  0.90188369061E+03 0.  0.
         23    2    4    4    0    0 -0.34836569881E+03  0.14610425820E+03 -0.12022961985E+04  0.12634818207E+04  0.90360655032E+02 0.  0.
         23    2    4    4    0    0 -0.34692435267E+03 -0.69052303804E+03 -0.91150386245E+03  0.11985021257E+04  0.91594113333E+02 0.  0.
          2    1    3    3  502    0  0.19178950562E+03  0.19653860371E+03  0.57138373377E+02  0.28049140972E+03  0.00000000000E+00 0. -1.
         -1    1    3    3    0  502  0.50350054586E+03  0.34788017613E+03  0.10054572601E+03  0.62019582363E+03  0.00000000000E+00 0.  1.
         11    1    5    5    0    0 -0.21965417828E+03  0.12792114743E+03 -0.87949156902E+03  0.91548741006E+03  0.00000000000E+00 0.  1.
        -11    1    5    5    0    0 -0.12871152053E+03  0.18183110767E+02 -0.32280462946E+03  0.34799441063E+03  0.00000000000E+00 0. -1.
          1    1    6    6  503    0 -0.16288055647E+03 -0.39774939985E+03 -0.45650582103E+03  0.62700257208E+03  0.00000000000E+00 0. -1.
         -1    1    6    6    0  503 -0.18404379620E+03 -0.29277363819E+03 -0.45499804142E+03  0.57149955366E+03  0.00000000000E+00 0.  1.
<mgrwt>
<rscale>  0 0.27351724E+04</rscale>
<asrwt>0</asrwt>
<pdfrwt beam="1">  1        2 0.40913747E+00 0.27351724E+04</pdfrwt>
<pdfrwt beam="2">  1       -1 0.10819656E+00 0.27351724E+04</pdfrwt>
<totfact> 0.22147557E+00</totfact>
</mgrwt>
</event>
<event>
12    6  0.1403409E-007  0.3255191E+04  0.7818608E-02  0.8174392E-01
         -1   -1    0    0    0  501 -0.00000000000E+00  0.00000000000E+00  0.22027030125E+04  0.22027030125E+04  0.00000000000E+00 0.  1.
          2   -1    0    0  501    0  0.00000000000E+00 -0.00000000000E+00 -0.12026438548E+04  0.12026438548E+04  0.00000000000E+00 0. -1.
         24    2    1    2    0    0  0.10196800196E+04  0.10359563561E+04  0.85958489179E+03  0.16905536984E+04  0.78311600875E+02 0.  0.
        254    2    1    2    0    0 -0.10196800196E+04 -0.10359563561E+04  0.14047426592E+03  0.17147931689E+04  0.89879345723E+03 0.  0.
         23    2    4    4    0    0 -0.11368149211E+04 -0.10548835659E+04  0.16916898123E+03  0.15625472888E+04  0.88365056387E+02 0.  0.
         23    2    4    4    0    0  0.11713490152E+03  0.18927209764E+02 -0.28694715305E+02  0.15224588012E+03  0.90975803947E+02 0.  0.
          4    1    3    3  502    0  0.29010390681E+03  0.27472906791E+03  0.19948967314E+03  0.44657862375E+03  0.00000000000E+00 0. -1.
         -3    1    3    3    0  502  0.72957611274E+03  0.76122728821E+03  0.66009521864E+03  0.12439750746E+04  0.00000000000E+00 0.  1.
         11    1    5    5    0    0 -0.15414237535E+02 -0.19312705880E+02  0.13648788203E+02  0.28228863715E+02  0.00000000000E+00 0. -1.
        -11    1    5    5    0    0 -0.11214006835E+04 -0.10355708600E+04  0.15552019302E+03  0.15343184251E+04  0.00000000000E+00 0.  1.
          1    1    6    6  503    0  0.83285147222E+02  0.19662321896E+02 -0.61281282958E+02  0.10525406544E+03  0.00000000000E+00 0. -1.
         -1    1    6    6    0  503  0.33849754301E+02 -0.73511213157E+00  0.32586567653E+02  0.46991814686E+02  0.00000000000E+00 0.  1.
<mgrwt>
<rscale>  0 0.32551911E+04</rscale>
<asrwt>0</asrwt>
<pdfrwt beam="1">  1        2 0.18502213E+00 0.32551911E+04</pdfrwt>
<pdfrwt beam="2">  1       -1 0.33887739E+00 0.32551911E+04</pdfrwt>
<totfact> 0.33156054E-01</totfact>
</mgrwt>
</event>
<event>
12    6  0.1403409E-007  0.2717354E+04  0.7818608E-02  0.8329396E-01
          2   -1    0    0  501    0  0.00000000000E+00  0.00000000000E+00  0.13014392710E+04  0.13014392710E+04  0.00000000000E+00 0. -1.
         -1   -1    0    0    0  501 -0.00000000000E+00 -0.00000000000E+00 -0.14184316510E+04  0.14184316510E+04  0.00000000000E+00 0.  1.
         24    2    1    2    0    0 -0.12000624793E+04 -0.61075496055E+01 -0.19103964450E+03  0.12177939591E+04  0.79616108408E+02 0.  0.
        254    2    1    2    0    0  0.12000624793E+04  0.61075496055E+01  0.74047264474E+02  0.15020769629E+04  0.90031380571E+03 0.  0.
         23    2    4    4    0    0  0.17564654999E+03  0.32064702002E+03  0.18568961324E+03  0.42078611325E+03  0.94414504534E+02 0.  0.
         23    2    4    4    0    0  0.10244159293E+04 -0.31453947042E+03 -0.11164234877E+03  0.10812908497E+04  0.91448416305E+02 0.  0.
          4    1    3    3  502    0 -0.58139736759E+03 -0.19070762058E+02 -0.12941671878E+03  0.59593227812E+03  0.00000000000E+00 0. -1.
         -3    1    3    3    0  502 -0.61866511172E+03  0.12963212453E+02 -0.61622925720E+02  0.62186168101E+03  0.00000000000E+00 0.  1.
         11    1    5    5    0    0  0.68835833604E+02  0.90280374803E+02  0.10422044173E+03  0.15411300574E+03  0.00000000000E+00 0. -1.
        -11    1    5    5    0    0  0.10681071639E+03  0.23036664522E+03  0.81469171509E+02  0.26667310751E+03  0.00000000000E+00 0.  1.
          1    1    6    6  503    0  0.82873268032E+03 -0.22102640907E+03 -0.10712346731E+03  0.86436448688E+03  0.00000000000E+00 0. -1.
         -1    1    6    6    0  503  0.19568324900E+03 -0.93513061347E+02 -0.45188814581E+01  0.21692636278E+03  0.00000000000E+00 0.  1.
<mgrwt>
<rscale>  0 0.27173536E+04</rscale>
<asrwt>0</asrwt>
<pdfrwt beam="1">  1        2 0.20022143E+00 0.27173536E+04</pdfrwt>
<pdfrwt beam="2">  1       -1 0.21822025E+00 0.27173536E+04</pdfrwt>
<totfact> 0.18628081E+00</totfact>
</mgrwt>
</event>
<event>
12    6  0.1403409E-007  0.1380122E+04  0.7818608E-02  0.8968334E-01
          2   -1    0    0  501    0  0.00000000000E+00  0.00000000000E+00  0.15296128094E+04  0.15296128094E+04  0.00000000000E+00 0. -1.
         -1   -1    0    0    0  501 -0.00000000000E+00 -0.00000000000E+00 -0.31131042569E+03  0.31131042569E+03  0.00000000000E+00 0.  1.
         24    2    1    2    0    0  0.36364453379E+03 -0.10326215532E+02  0.55006023112E+03  0.66427734326E+03  0.79712942639E+02 0.  0.
        254    2    1    2    0    0 -0.36364453379E+03  0.10326215532E+02  0.66824215255E+03  0.11766458918E+04  0.89755445658E+03 0.  0.
         23    2    4    4    0    0 -0.42549860052E+03  0.11420943238E+03  0.83639799364E+03  0.95044094848E+03  0.98404975963E+02 0.  0.
         23    2    4    4    0    0  0.61854066729E+02 -0.10388321685E+03 -0.16815584108E+03  0.22620494331E+03  0.90965054678E+02 0.  0.
          2    1    3    3  502    0  0.17020344760E+03  0.32011612914E+02  0.28349097088E+03  0.33220639293E+03  0.00000000000E+00 0. -1.
         -1    1    3    3    0  502  0.19344108619E+03 -0.42337828446E+02  0.26656926024E+03  0.33207095033E+03  0.00000000000E+00 0.  1.
         11    1    5    5    0    0 -0.78308497497E+02  0.15004540758E+02  0.24372145669E+03  0.25643226294E+03  0.00000000000E+00 0.  1.
        -11    1    5    5    0    0 -0.34719010302E+03  0.99204891625E+02  0.59267653694E+03  0.69400868553E+03  0.00000000000E+00 0. -1.
          3    1    6    6  503    0  0.27821252512E+02 -0.42197164618E+02 -0.79132647159E+01  0.51158992871E+02  0.00000000000E+00 0. -1.
         -3    1    6    6    0  503  0.34032814217E+02 -0.61686052233E+02 -0.16024257637E+03  0.17504595044E+03  0.00000000000E+00 0.  1.
<mgrwt>
<rscale>  0 0.13801223E+04</rscale>
<asrwt>0</asrwt>
<pdfrwt beam="1">  1        2 0.23532504E+00 0.13801223E+04</pdfrwt>
<pdfrwt beam="2">  1       -1 0.47893913E-01 0.13801223E+04</pdfrwt>
<totfact> 0.59079013E+01</totfact>
</mgrwt>
</event>
<event>
12    6  0.1403409E-007  0.1651205E+04  0.7818608E-02  0.8789694E-01
         -1   -1    0    0    0  501 -0.00000000000E+00  0.00000000000E+00  0.58004977569E+03  0.58004977569E+03  0.00000000000E+00 0.  1.
          2   -1    0    0  501    0  0.00000000000E+00 -0.00000000000E+00 -0.11751045809E+04  0.11751045809E+04  0.00000000000E+00 0. -1.
         24    2    1    2    0    0  0.29286346583E+03 -0.49401647510E+03 -0.26964269095E+03  0.63949288514E+03  0.80141637616E+02 0.  0.
        254    2    1    2    0    0 -0.29286346583E+03  0.49401647510E+03 -0.32541211430E+03  0.11156614715E+04  0.89943659452E+03 0.  0.
         23    2    4    4    0    0 -0.37095722846E+02  0.20161591978E+03  0.29834775758E+03  0.37521267683E+03  0.98732449776E+02 0.  0.
         23    2    4    4    0    0 -0.25576774299E+03  0.29240055531E+03 -0.62375987188E+03  0.74044879466E+03  0.90955025421E+02 0.  0.
          2    1    3    3  502    0  0.34236332741E+02 -0.90672592330E+02 -0.74039866284E+02  0.12196535278E+03  0.00000000000E+00 0. -1.
         -1    1    3    3    0  502  0.25862713309E+03 -0.40334388277E+03 -0.19560282466E+03  0.51752753236E+03  0.00000000000E+00 0.  1.
         11    1    5    5    0    0 -0.18607887210E+02  0.68557165912E+02  0.18929030584E+03  0.20218100392E+03  0.00000000000E+00 0. -1.
        -11    1    5    5    0    0 -0.18487835636E+02  0.13305875387E+03  0.10905745174E+03  0.17303167291E+03  0.00000000000E+00 0.  1.
          3    1    6    6  503    0 -0.18301165955E+03  0.25770131112E+03 -0.46282023332E+03  0.56045142667E+03  0.00000000000E+00 0. -1.
         -3    1    6    6    0  503 -0.72756083441E+02  0.34699244192E+02 -0.16093963857E+03  0.17999736800E+03  0.00000000000E+00 0.  1.
<mgrwt>
<rscale>  0 0.16512046E+04</rscale>
<asrwt>0</asrwt>
<pdfrwt beam="1">  1        2 0.18078532E+00 0.16512046E+04</pdfrwt>
<pdfrwt beam="2">  1       -1 0.89238428E-01 0.16512046E+04</pdfrwt>
<totfact> 0.26285954E+01</totfact>
</mgrwt>
</event>
<event>
12    6  0.1403409E-007  0.1703069E+04  0.7818608E-02  0.8759616E-01
          2   -1    0    0  501    0  0.00000000000E+00  0.00000000000E+00  0.14462734881E+04  0.14462734881E+04  0.00000000000E+00 0. -1.
         -1   -1    0    0    0  501 -0.00000000000E+00 -0.00000000000E+00 -0.50136524209E+03  0.50136524209E+03  0.00000000000E+00 0.  1.
         24    2    1    2    0    0 -0.25418309377E+03 -0.17318738451E+03  0.94408029711E+03  0.99619170510E+03  0.80668399001E+02 0.  0.
        254    2    1    2    0    0  0.25418309377E+03  0.17318738451E+03  0.82794891941E+00  0.95144702512E+03  0.90035983962E+03 0.  0.
         23    2    4    4    0    0  0.57966857537E+03  0.71689911986E+02 -0.57023309828E+02  0.59426970177E+03  0.93539937107E+02 0.  0.
         23    2    4    4    0    0 -0.32548548159E+03  0.10149747253E+03  0.57851258747E+02  0.35717732334E+03  0.89366305257E+02 0.  0.
          2    1    3    3  502    0 -0.12504545111E+03 -0.10228602078E+03  0.61078959612E+03  0.63179326177E+03  0.00000000000E+00 0. -1.
         -1    1    3    3    0  502 -0.12913764266E+03 -0.70901363735E+02  0.33329070099E+03  0.36439844332E+03  0.00000000000E+00 0.  1.
         11    1    5    5    0    0  0.17904553712E+03  0.59662635891E+02  0.44635777724E+01  0.18877727090E+03  0.00000000000E+00 0. -1.
        -11    1    5    5    0    0  0.40062303825E+03  0.12027276095E+02 -0.61486887600E+02  0.40549243087E+03  0.00000000000E+00 0.  1.
          3    1    6    6  503    0 -0.18922548779E+03  0.14191250969E+02  0.18685082573E+02  0.19067461589E+03  0.00000000000E+00 0. -1.
         -3    1    6    6    0  503 -0.13625999380E+03  0.87306221559E+02  0.39166176174E+02  0.16650270746E+03  0.00000000000E+00 0.  1.
<mgrwt>
<rscale>  0 0.17030693E+04</rscale>
<asrwt>0</asrwt>
<pdfrwt beam="1">  1        2 0.22250361E+00 0.17030693E+04</pdfrwt>
<pdfrwt beam="2">  1       -1 0.77133115E-01 0.17030693E+04</pdfrwt>
<totfact> 0.24881874E+01</totfact>
</mgrwt>
</event>
<event>
12    6  0.1403409E-007  0.1550657E+04  0.7818608E-02  0.8851448E-01
         -1   -1    0    0    0  501 -0.00000000000E+00  0.00000000000E+00  0.32251740206E+03  0.32251740206E+03  0.00000000000E+00 0.  1.
          2   -1    0    0  501    0  0.00000000000E+00 -0.00000000000E+00 -0.18638823339E+04  0.18638823339E+04  0.00000000000E+00 0. -1.
         24    2    1    2    0    0 -0.40746893344E+03  0.30405250946E+03 -0.52893296903E+03  0.73777338799E+03  0.77850022966E+02 0.  0.
        254    2    1    2    0    0  0.40746893344E+03 -0.30405250946E+03 -0.10124319628E+04  0.14486263480E+04  0.90278511093E+03 0.  0.
         23    2    4    4    0    0  0.27768337357E+03 -0.21641746644E+02 -0.10779673576E+04  0.11180922311E+04  0.10266543790E+03 0.  0.
         23    2    4    4    0    0  0.12978555987E+03 -0.28241076281E+03  0.65535394712E+02  0.33053411690E+03  0.91420916504E+02 0.  0.
          4    1    3    3  502    0 -0.24467494797E+03  0.19914217574E+03 -0.37725337904E+03  0.49177591271E+03  0.00000000000E+00 0. -1.
         -3    1    3    3    0  502 -0.16279398548E+03  0.10491033372E+03 -0.15167958999E+03  0.24599747528E+03  0.00000000000E+00 0.  1.
         11    1    5    5    0    0  0.14345221429E+03 -0.57873251843E+02 -0.48633400035E+03  0.51034166100E+03  0.00000000000E+00 0.  1.
        -11    1    5    5    0    0  0.13423115928E+03  0.36231505199E+02 -0.59163335721E+03  0.60775057010E+03  0.00000000000E+00 0. -1.
          1    1    6    6  503    0  0.89962657476E+02 -0.16680969887E+03 -0.46007573905E+01  0.18957827499E+03  0.00000000000E+00 0. -1.
         -1    1    6    6    0  503  0.39822902396E+02 -0.11560106394E+03  0.70136152102E+02  0.14095584192E+03  0.00000000000E+00 0.  1.
<mgrwt>
<rscale>  0 0.15506573E+04</rscale>
<asrwt>0</asrwt>
<pdfrwt beam="1">  1        2 0.28675113E+00 0.15506573E+04</pdfrwt>
<pdfrwt beam="2">  1       -1 0.49618061E-01 0.15506573E+04</pdfrwt>
<totfact> 0.35515065E+01</totfact>
</mgrwt>
</event>
<event>
12    6  0.1403409E-007  0.1576553E+04  0.7818608E-02  0.8835084E-01
          2   -1    0    0  501    0  0.00000000000E+00  0.00000000000E+00  0.21111989134E+04  0.21111989134E+04  0.00000000000E+00 0. -1.
         -1   -1    0    0    0  501 -0.00000000000E+00 -0.00000000000E+00 -0.29432540532E+03  0.29432540532E+03  0.00000000000E+00 0.  1.
         24    2    1    2    0    0 -0.45664881081E+03  0.18952341033E+03  0.33332326853E+03  0.60158385730E+03  0.79696151360E+02 0.  0.
        254    2    1    2    0    0  0.45664881081E+03 -0.18952341033E+03  0.14835502396E+04  0.18039404614E+04  0.89935121929E+03 0.  0.
         23    2    4    4    0    0 -0.20628918362E+03 -0.23106659977E+01  0.81687943140E+02  0.23935518764E+03  0.89763129075E+02 0.  0.
         23    2    4    4    0    0  0.66293799443E+03 -0.18721274433E+03  0.14018622964E+04  0.15645852738E+04  0.90408986072E+02 0.  0.
          2    1    3    3  502    0 -0.29357246850E+03  0.84978699896E+02  0.22619896516E+03  0.38022643982E+03  0.00000000000E+00 0. -1.
         -1    1    3    3    0  502 -0.16307634230E+03  0.10454471043E+03  0.10712430336E+03  0.22135741747E+03  0.00000000000E+00 0.  1.
         11    1    5    5    0    0 -0.20570569824E+03 -0.25044280486E+01  0.94599376349E+02  0.22642912457E+03  0.00000000000E+00 0. -1.
        -11    1    5    5    0    0 -0.58348537501E+00  0.19376205083E+00 -0.12911433209E+02  0.12926063068E+02  0.00000000000E+00 0.  1.
          2    1    6    6  503    0  0.59941905517E+03 -0.16559285065E+03  0.11952033789E+04  0.13473066885E+04  0.00000000000E+00 0. -1.
         -2    1    6    6    0  503  0.63518939256E+02 -0.21619893685E+02  0.20665891751E+03  0.21727858531E+03  0.00000000000E+00 0.  1.
<mgrwt>
<rscale>  0 0.15765525E+04</rscale>
<asrwt>0</asrwt>
<pdfrwt beam="1">  1        2 0.32479982E+00 0.15765525E+04</pdfrwt>
<pdfrwt beam="2">  1       -1 0.45280833E-01 0.15765525E+04</pdfrwt>
<totfact> 0.30692542E+01</totfact>
</mgrwt>
</event>
<event>
12    6  0.1403409E-007  0.2125564E+04  0.7818608E-02  0.8550065E-01
         -1   -1    0    0    0  501 -0.00000000000E+00  0.00000000000E+00  0.11801686708E+04  0.11801686708E+04  0.00000000000E+00 0.  1.
          2   -1    0    0  501    0  0.00000000000E+00 -0.00000000000E+00 -0.95707158397E+03  0.95707158397E+03  0.00000000000E+00 0. -1.
         24    2    1    2    0    0 -0.70798863505E+03  0.29426836778E+03 -0.32186854856E+03  0.83535944321E+03  0.79901546739E+02 0.  0.
        254    2    1    2    0    0  0.70798863505E+03 -0.29426836778E+03  0.54496563538E+03  0.13018808115E+04  0.90003573489E+03 0.  0.
         23    2    4    4    0    0  0.65678122512E+03 -0.33695354097E+03  0.75707814256E+03  0.10612041968E+04  0.89932012935E+02 0.  0.
         23    2    4    4    0    0  0.51207409929E+02  0.42685173185E+02 -0.21211250718E+03  0.24067661473E+03  0.92137366664E+02 0.  0.
          4    1    3    3  502    0 -0.48855367260E+03  0.17334227741E+03 -0.24432236654E+03  0.57308433493E+03  0.00000000000E+00 0. -1.
         -3    1    3    3    0  502 -0.21943496245E+03  0.12092609037E+03 -0.77546182018E+02  0.26227510829E+03  0.00000000000E+00 0.  1.
         11    1    5    5    0    0  0.67688180326E+02 -0.67456515867E+02  0.10687784282E+03  0.14336995701E+03  0.00000000000E+00 0. -1.
        -11    1    5    5    0    0  0.58909304480E+03 -0.26949702510E+03  0.65020029974E+03  0.91783423980E+03  0.00000000000E+00 0.  1.
          2    1    6    6  503    0 -0.19514851993E+02 -0.64208689497E+00 -0.94347847851E+01  0.21685407255E+02  0.00000000000E+00 0. -1.
         -2    1    6    6    0  503  0.70722261922E+02  0.43327260080E+02 -0.20267772239E+03  0.21899120748E+03  0.00000000000E+00 0.  1.
<mgrwt>
<rscale>  0 0.21255643E+04</rscale>
<asrwt>0</asrwt>
<pdfrwt beam="1">  1        2 0.14724178E+00 0.21255643E+04</pdfrwt>
<pdfrwt beam="2">  1       -1 0.18156441E+00 0.21255643E+04</pdfrwt>
<totfact> 0.57140429E+00</totfact>
</mgrwt>
</event>
<event>
12    6  0.1403409E-007  0.2166382E+04  0.7818608E-02  0.8532552E-01
         -1   -1    0    0    0  501 -0.00000000000E+00  0.00000000000E+00  0.52631087700E+03  0.52631087700E+03  0.00000000000E+00 0.  1.
          2   -1    0    0  501    0  0.00000000000E+00 -0.00000000000E+00 -0.22292970391E+04  0.22292970391E+04  0.00000000000E+00 0. -1.
         24    2    1    2    0    0 -0.54862963223E+03  0.45429765769E+03 -0.18999404445E+02  0.71697506388E+03  0.79444507089E+02 0.  0.
        254    2    1    2    0    0  0.54862963223E+03 -0.45429765769E+03 -0.16839867577E+04  0.20386328522E+04  0.90157177812E+03 0.  0.
         23    2    4    4    0    0  0.20510508293E+03  0.35676218778E+02 -0.13049502973E+04  0.13247283320E+04  0.93107398095E+02 0.  0.
         23    2    4    4    0    0  0.34352454930E+03 -0.48997387647E+03 -0.37903646040E+03  0.71390452026E+03  0.88924182017E+02 0.  0.
          2    1    3    3  502    0 -0.22080614688E+03  0.17424345893E+03 -0.45813523241E+02  0.28498248436E+03  0.00000000000E+00 0. -1.
         -1    1    3    3    0  502 -0.32782348535E+03  0.28005419876E+03  0.26814118795E+02  0.43199257952E+03  0.00000000000E+00 0.  1.
         11    1    5    5    0    0  0.41634446764E+02  0.35922418166E+02 -0.18793470972E+03  0.19581445912E+03  0.00000000000E+00 0. -1.
        -11    1    5    5    0    0  0.16347063617E+03 -0.24619938720E+00 -0.11170155876E+04  0.11289138729E+04  0.00000000000E+00 0.  1.
          1    1    6    6  503    0  0.15652438818E+03 -0.18496756666E+03 -0.19813116377E+03  0.31299974899E+03  0.00000000000E+00 0. -1.
         -1    1    6    6    0  503  0.18700016111E+03 -0.30500630981E+03 -0.18090529663E+03  0.40090477127E+03  0.00000000000E+00 0.  1.
<mgrwt>
<rscale>  0 0.21663825E+04</rscale>
<asrwt>0</asrwt>
<pdfrwt beam="1">  1        2 0.34296877E+00 0.21663825E+04</pdfrwt>
<pdfrwt beam="2">  1       -1 0.80970905E-01 0.21663825E+04</pdfrwt>
<totfact> 0.78829215E+00</totfact>
</mgrwt>
</event>
<event>
12    6  0.1403409E-007  0.2959814E+04  0.7818608E-02  0.8255300E-01
         -1   -1    0    0    0  501 -0.00000000000E+00  0.00000000000E+00  0.10017213720E+04  0.10017213720E+04  0.00000000000E+00 0.  1.
          2   -1    0    0  501    0  0.00000000000E+00 -0.00000000000E+00 -0.21863605138E+04  0.21863605138E+04  0.00000000000E+00 0. -1.
         24    2    1    2    0    0 -0.98190801113E+02 -0.92384292187E+03  0.50399751471E+03  0.10599046034E+04  0.79101806398E+02 0.  0.
        254    2    1    2    0    0  0.98190801113E+02  0.92384292187E+03 -0.16886366566E+04  0.21281772824E+04  0.90250629336E+03 0.  0.
         23    2    4    4    0    0 -0.23824750826E+03  0.18232900010E+03 -0.75868666332E+02  0.31938421148E+03  0.79022025679E+02 0.  0.
         23    2    4    4    0    0  0.33643830937E+03  0.74151392177E+03 -0.16127679903E+04  0.18087930709E+04  0.87625057815E+02 0.  0.
          4    1    3    3  502    0 -0.61301262369E+02 -0.74997556706E+03  0.37835992450E+03  0.84224546803E+03  0.00000000000E+00 0. -1.
         -3    1    3    3    0  502 -0.36889538744E+02 -0.17386735481E+03  0.12563759021E+03  0.21765913537E+03  0.00000000000E+00 0.  1.
         11    1    5    5    0    0 -0.20628992380E+03  0.11653073772E+03 -0.62380085760E+02  0.24500249100E+03  0.00000000000E+00 0.  1.
        -11    1    5    5    0    0 -0.31957584462E+02  0.65798262376E+02 -0.13488580573E+02  0.74381720484E+02  0.00000000000E+00 0. -1.
          4    1    6    6  503    0  0.52487993399E+02  0.19185382044E+03 -0.34847190178E+03  0.40124250049E+03  0.00000000000E+00 0. -1.
         -4    1    6    6    0  503  0.28395031597E+03  0.54966010133E+03 -0.12642960885E+04  0.14075505704E+04  0.00000000000E+00 0.  1.
<mgrwt>
<rscale>  0 0.29598135E+04</rscale>
<asrwt>0</asrwt>
<pdfrwt beam="1">  1        2 0.33636315E+00 0.29598135E+04</pdfrwt>
<pdfrwt beam="2">  1       -1 0.15411098E+00 0.29598135E+04</pdfrwt>
<totfact> 0.16640038E+00</totfact>
</mgrwt>
</event>
<event>
12    6  0.1403409E-007  0.2530526E+04  0.7818608E-02  0.8392190E-01
         -1   -1    0    0    0  501 -0.00000000000E+00  0.00000000000E+00  0.57205938757E+03  0.57205938757E+03  0.00000000000E+00 0.  1.
          2   -1    0    0  501    0  0.00000000000E+00 -0.00000000000E+00 -0.27984696014E+04  0.27984696014E+04  0.00000000000E+00 0. -1.
         24    2    1    2    0    0 -0.69399684078E+03  0.83497768890E+03 -0.70197348477E+03  0.12954039359E+04  0.80530911768E+02 0.  0.
        254    2    1    2    0    0  0.69399684078E+03 -0.83497768890E+03 -0.15244367291E+04  0.20751250531E+04  0.89633547804E+03 0.  0.
         23    2    4    4    0    0  0.10100453527E+03 -0.69184919696E+03 -0.11629721265E+04  0.13600051722E+04  0.90844227804E+02 0.  0.
         23    2    4    4    0    0  0.59299230552E+03 -0.14312849194E+03 -0.36146460257E+03  0.71511988099E+03  0.92812421972E+02 0.  0.
          4    1    3    3  502    0 -0.51929036229E+03  0.65548996065E+03 -0.50656505827E+03  0.97772067951E+03  0.00000000000E+00 0. -1.
         -3    1    3    3    0  502 -0.17470647849E+03  0.17948772825E+03 -0.19540842650E+03  0.31768325635E+03  0.00000000000E+00 0.  1.
         11    1    5    5    0    0  0.64152566743E+02 -0.41016838939E+03 -0.77439511203E+03  0.87865889230E+03  0.00000000000E+00 0. -1.
        -11    1    5    5    0    0  0.36851968523E+02 -0.28168080757E+03 -0.38857701450E+03  0.48134627986E+03  0.00000000000E+00 0.  1.
          3    1    6    6  503    0  0.35132652187E+03 -0.11070650345E+03 -0.17307866506E+03  0.40699198908E+03  0.00000000000E+00 0. -1.
         -3    1    6    6    0  503  0.24166578364E+03 -0.32421988491E+02 -0.18838593751E+03  0.30812789191E+03  0.00000000000E+00 0.  1.
<mgrwt>
<rscale>  0 0.25305263E+04</rscale>
<asrwt>0</asrwt>
<pdfrwt beam="1">  1        2 0.43053379E+00 0.25305263E+04</pdfrwt>
<pdfrwt beam="2">  1       -1 0.88009135E-01 0.25305263E+04</pdfrwt>
<totfact> 0.29747030E+00</totfact>
</mgrwt>
</event>
<event>
12    6  0.1403409E-007  0.1569837E+04  0.7818608E-02  0.8839296E-01
         -1   -1    0    0    0  501 -0.00000000000E+00  0.00000000000E+00  0.36905386915E+03  0.36905386915E+03  0.00000000000E+00 0.  1.
          2   -1    0    0  501    0  0.00000000000E+00 -0.00000000000E+00 -0.16693953945E+04  0.16693953945E+04  0.00000000000E+00 0. -1.
         24    2    1    2    0    0  0.55290628155E+01 -0.35608087664E+03  0.59048115874E+02  0.37011825975E+03  0.81710984389E+02 0.  0.
        254    2    1    2    0    0 -0.55290628155E+01  0.35608087664E+03 -0.13593896412E+04  0.16683310039E+04  0.89920185757E+03 0.  0.
         23    2    4    4    0    0  0.33334158625E+03  0.30309401690E+03 -0.29493283506E+03  0.54646063913E+03  0.93012132066E+02 0.  0.
         23    2    4    4    0    0 -0.33887064906E+03  0.52986859733E+02 -0.10644568062E+04  0.11218703648E+04  0.88791323134E+02 0.  0.
          2    1    3    3  502    0  0.41343137562E+02 -0.13165703322E+03  0.17745267095E+02  0.13913203774E+03  0.00000000000E+00 0. -1.
         -1    1    3    3    0  502 -0.35814074746E+02 -0.22442384341E+03  0.41302848779E+02  0.23098622201E+03  0.00000000000E+00 0.  1.
         11    1    5    5    0    0  0.23148198330E+03  0.25037457483E+03 -0.18665531778E+03  0.38873068308E+03  0.00000000000E+00 0. -1.
        -11    1    5    5    0    0  0.10185960295E+03  0.52719442077E+02 -0.10827751728E+03  0.15772995605E+03  0.00000000000E+00 0.  1.
          3    1    6    6  503    0 -0.19961714281E+03  0.54630948767E+02 -0.74847760766E+03  0.77656311620E+03  0.00000000000E+00 0. -1.
         -3    1    6    6    0  503 -0.13925350625E+03 -0.16440890338E+01 -0.31597919850E+03  0.34530724857E+03  0.00000000000E+00 0.  1.
<mgrwt>
<rscale>  0 0.15698367E+04</rscale>
<asrwt>0</asrwt>
<pdfrwt beam="1">  1        2 0.25683006E+00 0.15698367E+04</pdfrwt>
<pdfrwt beam="2">  1       -1 0.56777518E-01 0.15698367E+04</pdfrwt>
<totfact> 0.35068446E+01</totfact>
</mgrwt>
</event>
<event>
12    6  0.1403409E-007  0.2511842E+04  0.7818608E-02  0.8398779E-01
         -1   -1    0    0    0  501 -0.00000000000E+00  0.00000000000E+00  0.26735053050E+04  0.26735053050E+04  0.00000000000E+00 0.  1.
          2   -1    0    0  501    0  0.00000000000E+00 -0.00000000000E+00 -0.58998847337E+03  0.58998847337E+03  0.00000000000E+00 0. -1.
         24    2    1    2    0    0  0.50607656513E+03 -0.16529826754E+03 -0.33088700458E+03  0.63179151430E+03  0.78976583298E+02 0.  0.
        254    2    1    2    0    0 -0.50607656513E+03  0.16529826754E+03  0.24144038362E+04  0.26317022640E+04  0.90170611367E+03 0.  0.
         23    2    4    4    0    0 -0.36760316328E+03  0.29057139052E+03  0.44893410215E+03  0.65529359633E+03  0.91126564031E+02 0.  0.
         23    2    4    4    0    0 -0.13847340185E+03 -0.12527312298E+03  0.19654697340E+04  0.19764086677E+04  0.90838913061E+02 0.  0.
          2    1    3    3  502    0  0.49750908293E+03 -0.16237207962E+03 -0.30815160582E+03  0.60731984325E+03  0.00000000000E+00 0. -1.
         -1    1    3    3    0  502  0.85674822077E+01 -0.29261879187E+01 -0.22735398761E+02  0.24471671050E+02  0.00000000000E+00 0.  1.
         11    1    5    5    0    0 -0.34848337034E+03  0.24123905237E+03  0.40909842615E+03  0.58906575360E+03  0.00000000000E+00 0.  1.
        -11    1    5    5    0    0 -0.19119792944E+02  0.49332338151E+02  0.39835676006E+02  0.66227842729E+02  0.00000000000E+00 0. -1.
          1    1    6    6  503    0 -0.13151761250E+02  0.11867604539E+02  0.87688078787E+02  0.89459532879E+02  0.00000000000E+00 0. -1.
         -1    1    6    6    0  503 -0.12532164060E+03 -0.13714072752E+03  0.18777816552E+04  0.18869491348E+04  0.00000000000E+00 0.  1.
<mgrwt>
<rscale>  0 0.25118418E+04</rscale>
<asrwt>0</asrwt>
<pdfrwt beam="1">  1        2 0.90767459E-01 0.25118418E+04</pdfrwt>
<pdfrwt beam="2">  1       -1 0.41130850E+00 0.25118418E+04</pdfrwt>
<totfact> 0.30792058E-01</totfact>
</mgrwt>
</event>
<event>
12    6  0.1403409E-007  0.2963531E+04  0.7818608E-02  0.8254222E-01
          2   -1    0    0  501    0  0.00000000000E+00  0.00000000000E+00  0.19860684137E+04  0.19860684137E+04  0.00000000000E+00 0. -1.
         -1   -1    0    0    0  501 -0.00000000000E+00 -0.00000000000E+00 -0.11055156237E+04  0.11055156237E+04  0.00000000000E+00 0.  1.
         24    2    1    2    0    0  0.11304186072E+04 -0.51413637345E+03 -0.13400511212E+03  0.12516938821E+04  0.81226636254E+02 0.  0.
        254    2    1    2    0    0 -0.11304186072E+04  0.51413637345E+03  0.10145579021E+04  0.18398901552E+04  0.90204523632E+03 0.  0.
         23    2    4    4    0    0 -0.12498383060E+04  0.39972689355E+03  0.74619241395E+03  0.15122383715E+04  0.90467635684E+02 0.  0.
         23    2    4    4    0    0  0.11941969878E+03  0.11440947990E+03  0.26836548819E+03  0.32765178368E+03  0.89359177209E+02 0.  0.
          4    1    3    3  502    0  0.80648485592E+03 -0.32592397010E+03 -0.92120384695E+02  0.87471733857E+03  0.00000000000E+00 0. -1.
         -3    1    3    3    0  502  0.32393375130E+03 -0.18821240335E+03 -0.41884727422E+02  0.37697654356E+03  0.00000000000E+00 0.  1.
         11    1    5    5    0    0 -0.94992727554E+03  0.34385533942E+03  0.57253496237E+03  0.11612039469E+04  0.00000000000E+00 0. -1.
        -11    1    5    5    0    0 -0.29991103045E+03  0.55871554132E+02  0.17365745158E+03  0.35103442457E+03  0.00000000000E+00 0.  1.
          3    1    6    6  503    0  0.32195257148E+01 -0.99244990087E+01  0.48550151271E+02  0.49658616723E+02  0.00000000000E+00 0. -1.
         -3    1    6    6    0  503  0.11620017306E+03  0.12433397891E+03  0.21981533692E+03  0.27799316696E+03  0.00000000000E+00 0.  1.
<mgrwt>
<rscale>  0 0.29635314E+04</rscale>
<asrwt>0</asrwt>
<pdfrwt beam="1">  1        2 0.30554899E+00 0.29635314E+04</pdfrwt>
<pdfrwt beam="2">  1       -1 0.17007933E+00 0.29635314E+04</pdfrwt>
<totfact> 0.16324344E+00</totfact>
</mgrwt>
</event>
<event>
12    6  0.1403409E-007  0.1556435E+04  0.7818608E-02  0.8847768E-01
          2   -1    0    0  501    0  0.00000000000E+00  0.00000000000E+00  0.14417878883E+04  0.14417878883E+04  0.00000000000E+00 0. -1.
         -1   -1    0    0    0  501 -0.00000000000E+00 -0.00000000000E+00 -0.42004938082E+03  0.42004938082E+03  0.00000000000E+00 0.  1.
         24    2    1    2    0    0  0.33348281486E+03 -0.38709614339E+03  0.40334208398E+03  0.65598820682E+03  0.81126313493E+02 0.  0.
        254    2    1    2    0    0 -0.33348281486E+03  0.38709614339E+03  0.61839642351E+03  0.12058490623E+04  0.90033527779E+03 0.  0.
         23    2    4    4    0    0 -0.48729905041E+03  0.75167045979E+02  0.67609035001E+03  0.84173596662E+03  0.91163736218E+02 0.  0.
         23    2    4    4    0    0  0.15381623555E+03  0.31192909741E+03 -0.57693926493E+02  0.36411309569E+03  0.91052518730E+02 0.  0.
          4    1    3    3  502    0  0.17163354818E+03 -0.19911220975E+03  0.25878916323E+03  0.36888423378E+03  0.00000000000E+00 0. -1.
         -3    1    3    3    0  502  0.16184926669E+03 -0.18798393365E+03  0.14455292075E+03  0.28710397304E+03  0.00000000000E+00 0.  1.
         11    1    5    5    0    0 -0.22774441539E+03  0.28445297046E+02  0.23982606042E+03  0.33195360056E+03  0.00000000000E+00 0. -1.
        -11    1    5    5    0    0 -0.25955463502E+03  0.46721748933E+02  0.43626428958E+03  0.50978236606E+03  0.00000000000E+00 0.  1.
          3    1    6    6  503    0  0.30321944127E+02  0.60079361511E+02  0.24822872277E+02  0.71729526440E+02  0.00000000000E+00 0. -1.
         -3    1    6    6    0  503  0.12349429142E+03  0.25184973590E+03 -0.82516798771E+02  0.29238356925E+03  0.00000000000E+00 0.  1.
<mgrwt>
<rscale>  0 0.15564345E+04</rscale>
<asrwt>0</asrwt>
<pdfrwt beam="1">  1        2 0.22181352E+00 0.15564345E+04</pdfrwt>
<pdfrwt beam="2">  1       -1 0.64622982E-01 0.15564345E+04</pdfrwt>
<totfact> 0.36462528E+01</totfact>
</mgrwt>
</event>
<event>
12    6  0.1403409E-007  0.1713379E+04  0.7818608E-02  0.8753770E-01
         -1   -1    0    0    0  501 -0.00000000000E+00  0.00000000000E+00  0.37960174304E+03  0.37960174304E+03  0.00000000000E+00 0.  1.
          2   -1    0    0  501    0  0.00000000000E+00 -0.00000000000E+00 -0.19333875018E+04  0.19333875018E+04  0.00000000000E+00 0. -1.
         24    2    1    2    0    0  0.50214453997E+03  0.27582543396E+03 -0.25558422915E+03  0.63244712361E+03  0.80232517911E+02 0.  0.
        254    2    1    2    0    0 -0.50214453997E+03 -0.27582543396E+03 -0.12982015296E+04  0.16805421212E+04  0.90036981330E+03 0.  0.
         23    2    4    4    0    0  0.21124766297E+03 -0.25987282118E+03 -0.45637123911E+03  0.57331043138E+03  0.90833278839E+02 0.  0.
         23    2    4    4    0    0 -0.71339220294E+03 -0.15952612776E+02 -0.84183029051E+03  0.11072316899E+04  0.90004755067E+02 0.  0.
          4    1    3    3  502    0  0.21462651983E+03  0.10902720217E+03 -0.15019190785E+03  0.28374122543E+03  0.00000000000E+00 0. -1.
         -3    1    3    3    0  502  0.28751802014E+03  0.16679823179E+03 -0.10539232130E+03  0.34870589818E+03  0.00000000000E+00 0.  1.
         11    1    5    5    0    0  0.95557061866E+02 -0.53996718386E+02 -0.12419953964E+03  0.16574777017E+03  0.00000000000E+00 0.  1.
        -11    1    5    5    0    0  0.11569060110E+03 -0.20587610280E+03 -0.33217169947E+03  0.40756266121E+03  0.00000000000E+00 0. -1.
          4    1    6    6  503    0 -0.51020665797E+03 -0.35001967059E+01 -0.53755161164E+03  0.74113751787E+03  0.00000000000E+00 0. -1.
         -4    1    6    6    0  503 -0.20318554498E+03 -0.12452416070E+02 -0.30427867887E+03  0.36609417199E+03  0.00000000000E+00 0.  1.
<mgrwt>
<rscale>  0 0.17133794E+04</rscale>
<asrwt>0</asrwt>
<pdfrwt beam="1">  1        2 0.29744423E+00 0.17133794E+04</pdfrwt>
<pdfrwt beam="2">  1       -1 0.58400268E-01 0.17133794E+04</pdfrwt>
<totfact> 0.23405137E+01</totfact>
</mgrwt>
</event>
<event>
12    6  0.1403409E-007  0.3445915E+04  0.7818608E-02  0.8126728E-01
         -1   -1    0    0    0  501 -0.00000000000E+00  0.00000000000E+00  0.16071718037E+04  0.16071718037E+04  0.00000000000E+00 0.  1.
          2   -1    0    0  501    0  0.00000000000E+00 -0.00000000000E+00 -0.18470845334E+04  0.18470845334E+04  0.00000000000E+00 0. -1.
         24    2    1    2    0    0  0.37088898142E+03 -0.15502421769E+04 -0.29574860206E+03  0.16230956824E+04  0.78504234754E+02 0.  0.
        254    2    1    2    0    0 -0.37088898142E+03  0.15502421769E+04  0.55835872280E+02  0.18311606547E+04  0.89956781575E+03 0.  0.
         23    2    4    4    0    0  0.18930597300E+02 -0.46795874334E+02 -0.13891442826E+03  0.17325149669E+03  0.90391600035E+02 0.  0.
         23    2    4    4    0    0 -0.38981957872E+03  0.15970380513E+04  0.19475030054E+03  0.16579091580E+04  0.90803389935E+02 0.  0.
          2    1    3    3  502    0  0.18369785313E+03 -0.63363386257E+03 -0.99142606661E+02  0.66713269256E+03  0.00000000000E+00 0. -1.
         -1    1    3    3    0  502  0.18719112830E+03 -0.91660831437E+03 -0.19660599539E+03  0.95596298982E+03  0.00000000000E+00 0.  1.
         11    1    5    5    0    0 -0.25403143782E+02 -0.22325069399E+02 -0.10968903767E+03  0.11478420371E+03  0.00000000000E+00 0.  1.
        -11    1    5    5    0    0  0.44333741082E+02 -0.24470804935E+02 -0.29225390594E+02  0.58467292975E+02  0.00000000000E+00 0. -1.
          2    1    6    6  503    0 -0.28766593548E+03  0.10169839632E+04  0.10423005268E+03  0.10620131711E+04  0.00000000000E+00 0. -1.
         -2    1    6    6    0  503 -0.10215364325E+03  0.58005408809E+03  0.90520247867E+02  0.59589598690E+03  0.00000000000E+00 0.  1.
<mgrwt>
<rscale>  0 0.34459148E+04</rscale>
<asrwt>0</asrwt>
<pdfrwt beam="1">  1        2 0.28416685E+00 0.34459148E+04</pdfrwt>
<pdfrwt beam="2">  1       -1 0.24725720E+00 0.34459148E+04</pdfrwt>
<totfact> 0.55439085E-01</totfact>
</mgrwt>
</event>
<event>
12    6  0.1403409E-007  0.2705377E+04  0.7818608E-02  0.8333262E-01
          2   -1    0    0  501    0  0.00000000000E+00  0.00000000000E+00  0.15505509118E+04  0.15505509118E+04  0.00000000000E+00 0. -1.
         -1   -1    0    0    0  501 -0.00000000000E+00 -0.00000000000E+00 -0.11800752150E+04  0.11800752150E+04  0.00000000000E+00 0.  1.
         24    2    1    2    0    0  0.75939529789E+03  0.45340976156E+03 -0.65588984280E+03  0.11040145159E+04  0.79968337669E+02 0.  0.
        254    2    1    2    0    0 -0.75939529789E+03 -0.45340976156E+03  0.10263655397E+04  0.16266116109E+04  0.90009859537E+03 0.  0.
         23    2    4    4    0    0 -0.46044193208E+02  0.23962487181E+03  0.25837050913E+03  0.36666890957E+03  0.90280797190E+02 0.  0.
         23    2    4    4    0    0 -0.71335110468E+03 -0.69303463337E+03  0.76799503054E+03  0.12599427013E+04  0.92045869630E+02 0.  0.
          2    1    3    3  502    0  0.16936485040E+03  0.95259073346E+02 -0.10478691282E+03  0.22076920235E+03  0.00000000000E+00 0. -1.
         -1    1    3    3    0  502  0.59003044749E+03  0.35815068821E+03 -0.55110292997E+03  0.88324531352E+03  0.00000000000E+00 0.  1.
         11    1    5    5    0    0 -0.12008929986E+02  0.12500530731E+03  0.19338850734E+03  0.23058546361E+03  0.00000000000E+00 0. -1.
        -11    1    5    5    0    0 -0.34035263222E+02  0.11461956451E+03  0.64982001783E+02  0.13608344596E+03  0.00000000000E+00 0.  1.
          3    1    6    6  503    0 -0.50698807402E+02 -0.60281898493E+02  0.33273472817E+02  0.85506726936E+02  0.00000000000E+00 0. -1.
         -3    1    6    6    0  503 -0.66265229728E+03 -0.63275273488E+03  0.73472155772E+03  0.11744359744E+04  0.00000000000E+00 0.  1.
<mgrwt>
<rscale>  0 0.27053774E+04</rscale>
<asrwt>0</asrwt>
<pdfrwt beam="1">  1        2 0.23854629E+00 0.27053774E+04</pdfrwt>
<pdfrwt beam="2">  1       -1 0.18155003E+00 0.27053774E+04</pdfrwt>
<totfact> 0.24079983E+00</totfact>
</mgrwt>
</event>
<event>
12    6  0.1403409E-007  0.2483923E+04  0.7818608E-02  0.8408736E-01
          2   -1    0    0  501    0  0.00000000000E+00  0.00000000000E+00  0.32191928489E+04  0.32191928489E+04  0.00000000000E+00 0. -1.
         -1   -1    0    0    0  501 -0.00000000000E+00 -0.00000000000E+00 -0.47914741245E+03  0.47914741245E+03  0.00000000000E+00 0.  1.
         24    2    1    2    0    0  0.34814169130E+03 -0.89939197157E+03  0.47727025500E+03  0.10790046799E+04  0.79722312403E+02 0.  0.
        254    2    1    2    0    0 -0.34814169130E+03  0.89939197157E+03  0.22627751814E+04  0.26193355815E+04  0.90036593169E+03 0.  0.
         23    2    4    4    0    0 -0.30662706720E+03  0.10274793736E+04  0.21919789397E+04  0.24418976796E+04  0.91425291187E+02 0.  0.
         23    2    4    4    0    0 -0.41514624104E+02 -0.12808740208E+03  0.70796241744E+02  0.17743790190E+03  0.91335943642E+02 0.  0.
          4    1    3    3  502    0  0.26770049646E+03 -0.72818520017E+03  0.35078500051E+03  0.85145015011E+03  0.00000000000E+00 0. -1.
         -1    1    3    3    0  502  0.80441194842E+02 -0.17120677140E+03  0.12648525450E+03  0.22755452974E+03  0.00000000000E+00 0.  1.
         11    1    5    5    0    0 -0.78676589438E+02  0.32766677224E+03  0.60390355107E+03  0.69155984437E+03  0.00000000000E+00 0. -1.
        -11    1    5    5    0    0 -0.22795047776E+03  0.69981260140E+03  0.15880753886E+04  0.17503378352E+04  0.00000000000E+00 0.  1.
          1    1    6    6  503    0 -0.47463394021E+02 -0.10226715116E+03  0.90372422315E+02  0.14449400920E+03  0.00000000000E+00 0. -1.
         -1    1    6    6    0  503  0.59487699177E+01 -0.25820250916E+02 -0.19576180570E+02  0.32943892706E+02  0.00000000000E+00 0.  1.
<mgrwt>
<rscale>  0 0.24839226E+04</rscale>
<asrwt>0</asrwt>
<pdfrwt beam="1">  1        2 0.49526043E+00 0.24839226E+04</pdfrwt>
<pdfrwt beam="2">  1       -1 0.73714988E-01 0.24839226E+04</pdfrwt>
<totfact> 0.23732394E+00</totfact>
</mgrwt>
</event>
<event>
12    6  0.1403409E-007  0.1641104E+04  0.7818608E-02  0.8795687E-01
          2   -1    0    0  501    0  0.00000000000E+00  0.00000000000E+00  0.10343635795E+04  0.10343635795E+04  0.00000000000E+00 0. -1.
         -1   -1    0    0    0  501 -0.00000000000E+00 -0.00000000000E+00 -0.65093701920E+03  0.65093701920E+03  0.00000000000E+00 0.  1.
         24    2    1    2    0    0 -0.35117907288E+03  0.31810971428E+03 -0.18914298977E+03  0.51674892847E+03  0.82060056959E+02 0.  0.
        254    2    1    2    0    0  0.35117907288E+03 -0.31810971428E+03  0.57256955004E+03  0.11685516702E+04  0.90175195300E+03 0.  0.
         23    2    4    4    0    0  0.61224826880E+03 -0.34329611622E+03  0.27023433707E+03  0.75787948425E+03  0.93029832115E+02 0.  0.
         23    2    4    4    0    0 -0.26106919592E+03  0.25186401941E+02  0.30233521297E+03  0.41067218595E+03  0.91943370641E+02 0.  0.
          2    1    3    3  502    0 -0.42396799564E+00  0.15994596066E+02  0.15662229730E+01  0.16076688297E+02  0.00000000000E+00 0. -1.
         -1    1    3    3    0  502 -0.35075510488E+03  0.30211511821E+03 -0.19070921275E+03  0.50067224017E+03  0.00000000000E+00 0.  1.
         11    1    5    5    0    0  0.61478381390E+03 -0.34152503629E+03  0.27230860833E+03  0.75415546568E+03  0.00000000000E+00 0. -1.
        -11    1    5    5    0    0 -0.25355451005E+01 -0.17710799297E+01 -0.20742712604E+01  0.37240185735E+01  0.00000000000E+00 0.  1.
          3    1    6    6  503    0 -0.10349116238E+03 -0.84246809896E+01  0.60790215238E+02  0.12031976649E+03  0.00000000000E+00 0. -1.
         -3    1    6    6    0  503 -0.15757803354E+03  0.33611082930E+02  0.24154499774E+03  0.29035241945E+03  0.00000000000E+00 0.  1.
<mgrwt>
<rscale>  0 0.16411040E+04</rscale>
<asrwt>0</asrwt>
<pdfrwt beam="1">  1        2 0.15913286E+00 0.16411040E+04</pdfrwt>
<pdfrwt beam="2">  1       -1 0.10014416E+00 0.16411040E+04</pdfrwt>
<totfact> 0.24813225E+01</totfact>
</mgrwt>
</event>
<event>
12    6  0.1403409E-007  0.2435839E+04  0.7818608E-02  0.8426207E-01
          2   -1    0    0  501    0  0.00000000000E+00  0.00000000000E+00  0.20487702595E+04  0.20487702595E+04  0.00000000000E+00 0. -1.
         -1   -1    0    0    0  501 -0.00000000000E+00 -0.00000000000E+00 -0.72400868873E+03  0.72400868873E+03  0.00000000000E+00 0.  1.
         24    2    1    2    0    0  0.33633511117E+03 -0.86842589351E+03  0.21299324767E+02  0.93490417188E+03  0.79418573630E+02 0.  0.
        254    2    1    2    0    0 -0.33633511117E+03  0.86842589351E+03  0.13034622460E+04  0.18378747764E+04  0.90082463737E+03 0.  0.
         23    2    4    4    0    0 -0.52114900619E+03  0.22161888461E+03  0.83550045459E+03  0.10134406158E+04  0.91047545280E+02 0.  0.
         23    2    4    4    0    0  0.18481389503E+03  0.64680700890E+03  0.46796179143E+03  0.82443416055E+03  0.90487370834E+02 0.  0.
          4    1    3    3  502    0  0.21392004068E+03 -0.57091660163E+03 -0.23267421033E+02  0.61012205558E+03  0.00000000000E+00 0. -1.
         -3    1    3    3    0  502  0.12241507048E+03 -0.29750929189E+03  0.44566745800E+02  0.32478211630E+03  0.00000000000E+00 0.  1.
         11    1    5    5    0    0 -0.42286165699E+03  0.14510597232E+03  0.68646764191E+03  0.81921031948E+03  0.00000000000E+00 0.  1.
        -11    1    5    5    0    0 -0.98287349200E+02  0.76512912290E+02  0.14903281268E+03  0.19423029634E+03  0.00000000000E+00 0. -1.
          1    1    6    6  503    0  0.69617400525E+00  0.12506436099E+03  0.97553900785E+02  0.15861381594E+03  0.00000000000E+00 0. -1.
         -1    1    6    6    0  503  0.18411772102E+03  0.52174264792E+03  0.37040789064E+03  0.66582034461E+03  0.00000000000E+00 0.  1.
<mgrwt>
<rscale>  0 0.24358386E+04</rscale>
<asrwt>0</asrwt>
<pdfrwt beam="1">  1        2 0.31519542E+00 0.24358386E+04</pdfrwt>
<pdfrwt beam="2">  1       -1 0.11138595E+00 0.24358386E+04</pdfrwt>
<totfact> 0.47430995E+00</totfact>
</mgrwt>
</event>
<event>
12    6  0.1403409E-007  0.2552831E+04  0.7818608E-02  0.8384402E-01
          2   -1    0    0  501    0  0.00000000000E+00  0.00000000000E+00  0.10455272344E+04  0.10455272344E+04  0.00000000000E+00 0. -1.
         -1   -1    0    0    0  501 -0.00000000000E+00 -0.00000000000E+00 -0.15582922518E+04  0.15582922518E+04  0.00000000000E+00 0.  1.
         24    2    1    2    0    0 -0.62532813184E+03  0.82673800889E+03  0.19707674959E+03  0.10581621567E+04  0.79604627720E+02 0.  0.
        254    2    1    2    0    0  0.62532813184E+03 -0.82673800889E+03 -0.70984176692E+03  0.15456573296E+04  0.90036117119E+03 0.  0.
         23    2    4    4    0    0  0.29900372972E+03 -0.88535161234E+03 -0.74949177915E+03  0.12013573809E+04  0.90944607951E+02 0.  0.
         23    2    4    4    0    0  0.32632440212E+03  0.58613603457E+02  0.39650012223E+02  0.34429994869E+03  0.83947372055E+02 0.  0.
          2    1    3    3  502    0 -0.41674628813E+03  0.56316716313E+03  0.17017975816E+03  0.72096870417E+03  0.00000000000E+00 0. -1.
         -3    1    3    3    0  502 -0.20858184371E+03  0.26357084576E+03  0.26896991423E+02  0.33719345249E+03  0.00000000000E+00 0.  1.
         11    1    5    5    0    0  0.19845452550E+03 -0.70287434538E+03 -0.59320446278E+03  0.94090811387E+03  0.00000000000E+00 0. -1.
        -11    1    5    5    0    0  0.10054920422E+03 -0.18247726696E+03 -0.15628731637E+03  0.26044926701E+03  0.00000000000E+00 0.  1.
          1    1    6    6  503    0  0.31964032032E+03  0.71107513306E+02  0.34686045011E+02  0.32928609831E+03  0.00000000000E+00 0. -1.
         -1    1    6    6    0  503  0.66840817931E+01 -0.12493909849E+02  0.49639672119E+01  0.15013850380E+02  0.00000000000E+00 0.  1.
<mgrwt>
<rscale>  0 0.25528314E+04</rscale>
<asrwt>0</asrwt>
<pdfrwt beam="1">  1        2 0.16085034E+00 0.25528314E+04</pdfrwt>
<pdfrwt beam="2">  1       -1 0.23973727E+00 0.25528314E+04</pdfrwt>
<totfact> 0.19412715E+00</totfact>
</mgrwt>
</event>
<event>
12    6  0.1403409E-007  0.1778651E+04  0.7818608E-02  0.8717736E-01
          2   -1    0    0  501    0  0.00000000000E+00  0.00000000000E+00  0.21534378474E+04  0.21534378474E+04  0.00000000000E+00 0. -1.
         -1   -1    0    0    0  501 -0.00000000000E+00 -0.00000000000E+00 -0.36727303634E+03  0.36727303634E+03  0.00000000000E+00 0.  1.
         24    2    1    2    0    0  0.31495323348E+03  0.32525001827E+03  0.13572352282E+04  0.14330194385E+04  0.80461996974E+02 0.  0.
        254    2    1    2    0    0 -0.31495323348E+03 -0.32525001827E+03  0.42892958287E+03  0.10876914452E+04  0.89112792527E+03 0.  0.
         23    2    4    4    0    0 -0.21137992281E+03 -0.41177795198E+03 -0.14294339688E+03  0.49314967101E+03  0.92310507544E+02 0.  0.
         23    2    4    4    0    0 -0.10357331067E+03  0.86527933705E+02  0.57187297975E+03  0.59454177418E+03  0.90701170226E+02 0.  0.
          2    1    3    3  502    0  0.31058506875E+03  0.32220458489E+03  0.12871146316E+04  0.13626969415E+04  0.00000000000E+00 0. -1.
         -1    1    3    3    0  502  0.43681647308E+01  0.30454333770E+01  0.70120596532E+02  0.70322497009E+02  0.00000000000E+00 0.  1.
         11    1    5    5    0    0 -0.16491574589E+03 -0.24857934381E+03 -0.60023621201E+02  0.30428888990E+03  0.00000000000E+00 0.  1.
        -11    1    5    5    0    0 -0.46464176921E+02 -0.16319860816E+03 -0.82919775677E+02  0.18886078111E+03  0.00000000000E+00 0. -1.
          4    1    6    6  503    0 -0.41746660753E+02  0.89092454677E+02  0.39817276485E+03  0.41014850949E+03  0.00000000000E+00 0.  1.
         -4    1    6    6    0  503 -0.61826649919E+02 -0.25645209717E+01  0.17370021489E+03  0.18439326469E+03  0.00000000000E+00 0. -1.
<mgrwt>
<rscale>  0 0.17786508E+04</rscale>
<asrwt>0</asrwt>
<pdfrwt beam="1">  1        2 0.33129812E+00 0.17786508E+04</pdfrwt>
<pdfrwt beam="2">  1       -1 0.56503545E-01 0.17786508E+04</pdfrwt>
<totfact> 0.18727656E+01</totfact>
</mgrwt>
</event>
<event>
12    6  0.1403409E-007  0.3399952E+04  0.7818608E-02  0.8137918E-01
         -1   -1    0    0    0  501 -0.00000000000E+00  0.00000000000E+00  0.11765465797E+04  0.11765465797E+04  0.00000000000E+00 0.  1.
          2   -1    0    0  501    0  0.00000000000E+00 -0.00000000000E+00 -0.24562712770E+04  0.24562712770E+04  0.00000000000E+00 0. -1.
         24    2    1    2    0    0  0.45080763706E+03 -0.69287250375E+03 -0.20344468301E+04  0.21973456861E+04  0.77809561282E+02 0.  0.
        254    2    1    2    0    0 -0.45080763706E+03  0.69287250375E+03  0.75472213278E+03  0.14354721706E+04  0.89870741775E+03 0.  0.
         23    2    4    4    0    0 -0.28115309990E+03  0.70005389063E+03  0.91183152346E+03  0.11876014796E+04  0.99186853310E+02 0.  0.
         23    2    4    4    0    0 -0.16965453715E+03 -0.71813868762E+01 -0.15710939068E+03  0.24787069095E+03  0.89007215990E+02 0.  0.
          2    1    3    3  502    0  0.16241844652E+03 -0.18516981592E+03 -0.59033659408E+03  0.63965999313E+03  0.00000000000E+00 0. -1.
         -1    1    3    3    0  502  0.28838919054E+03 -0.50770268783E+03 -0.14441102360E+04  0.15576856930E+04  0.00000000000E+00 0.  1.
         11    1    5    5    0    0 -0.14361647146E+03  0.48047844487E+03  0.61735049807E+03  0.79536586822E+03  0.00000000000E+00 0. -1.
        -11    1    5    5    0    0 -0.13753662844E+03  0.21957544576E+03  0.29448102539E+03  0.39223561141E+03  0.00000000000E+00 0.  1.
          3    1    6    6  503    0 -0.14557354409E+03 -0.32494359209E+02 -0.15128790988E+03  0.21245133983E+03  0.00000000000E+00 0. -1.
         -3    1    6    6    0  503 -0.24080993065E+02  0.25312972333E+02 -0.58214808019E+01  0.35419351124E+02  0.00000000000E+00 0.  1.
<mgrwt>
<rscale>  0 0.33999515E+04</rscale>
<asrwt>0</asrwt>
<pdfrwt beam="1">  1        2 0.37788789E+00 0.33999515E+04</pdfrwt>
<pdfrwt beam="2">  1       -1 0.18100717E+00 0.33999515E+04</pdfrwt>
<totfact> 0.71097539E-01</totfact>
</mgrwt>
</event>
<event>
12    6  0.1403409E-007  0.1466247E+04  0.7818608E-02  0.8907213E-01
         -1   -1    0    0    0  501 -0.00000000000E+00  0.00000000000E+00  0.12941439253E+03  0.12941439253E+03  0.00000000000E+00 0.  1.
          2   -1    0    0  501    0  0.00000000000E+00 -0.00000000000E+00 -0.41530961882E+04  0.41530961882E+04  0.00000000000E+00 0. -1.
         24    2    1    2    0    0  0.99411812208E+02 -0.97448612302E+02 -0.40602086403E+01  0.15983107523E+03  0.78425422339E+02 0.  0.
        254    2    1    2    0    0 -0.99411812208E+02  0.97448612302E+02 -0.40196215870E+04  0.41226795055E+04  0.90540027704E+03 0.  0.
         23    2    4    4    0    0  0.24796146967E+03 -0.72905432917E+02 -0.32012299899E+04  0.32129600653E+04  0.91863160864E+02 0.  0.
         23    2    4    4    0    0 -0.34737328187E+03  0.17035404522E+03 -0.81839159708E+03  0.90971944016E+03  0.90199534051E+02 0.  0.
          2    1    3    3  502    0  0.84730332356E+02 -0.38629271679E+02 -0.23728839699E+02  0.96096345846E+02  0.00000000000E+00 0. -1.
         -3    1    3    3    0  502  0.14681479853E+02 -0.58819340623E+02  0.19668631058E+02  0.63734729384E+02  0.00000000000E+00 0.  1.
         11    1    5    5    0    0  0.15007095731E+02  0.11388719065E+02 -0.93964596444E+02  0.95834551332E+02  0.00000000000E+00 0.  1.
        -11    1    5    5    0    0  0.23295437393E+03 -0.84294151982E+02 -0.31072653935E+04  0.31171255140E+04  0.00000000000E+00 0. -1.
          1    1    6    6  503    0 -0.18005827622E+03  0.13764618987E+03 -0.45483190590E+03  0.50817272560E+03  0.00000000000E+00 0. -1.
         -1    1    6    6    0  503 -0.16731500565E+03  0.32707855353E+02 -0.36355969119E+03  0.40154671456E+03  0.00000000000E+00 0.  1.
<mgrwt>
<rscale>  0 0.14662475E+04</rscale>
<asrwt>0</asrwt>
<pdfrwt beam="1">  1        2 0.63893781E+00 0.14662475E+04</pdfrwt>
<pdfrwt beam="2">  1       -1 0.19909908E-01 0.14662475E+04</pdfrwt>
<totfact> 0.59705024E+00</totfact>
</mgrwt>
</event>
<event>
12    6  0.1403409E-007  0.1928351E+04  0.7818608E-02  0.8640872E-01
         -1   -1    0    0    0  501 -0.00000000000E+00  0.00000000000E+00  0.37347236881E+03  0.37347236881E+03  0.00000000000E+00 0.  1.
          2   -1    0    0  501    0  0.00000000000E+00 -0.00000000000E+00 -0.24891650324E+04  0.24891650324E+04  0.00000000000E+00 0. -1.
         24    2    1    2    0    0  0.45559891113E+02  0.74551843999E+03 -0.69697128282E+03  0.10244896888E+04  0.77050018817E+02 0.  0.
        254    2    1    2    0    0 -0.45559891113E+02 -0.74551843999E+03 -0.14187213808E+04  0.18381477124E+04  0.89896785717E+03 0.  0.
         23    2    4    4    0    0  0.29314266343E+03 -0.69139389130E+03 -0.12066344016E+04  0.14242368743E+04  0.92336130827E+02 0.  0.
         23    2    4    4    0    0 -0.33870255455E+03 -0.54124548682E+02 -0.21208697916E+03  0.41391083802E+03  0.93233083609E+02 0.  0.
          4    1    3    3  502    0  0.84089051757E+01  0.18087417433E+02 -0.34784911549E+02  0.40098060141E+02  0.00000000000E+00 0. -1.
         -3    1    3    3    0  502  0.37150985937E+02  0.72743102255E+03 -0.66218637127E+03  0.98439162868E+03  0.00000000000E+00 0.  1.
         11    1    5    5    0    0  0.15845956419E+03 -0.25891985240E+03 -0.47253446150E+03  0.56163844309E+03  0.00000000000E+00 0. -1.
        -11    1    5    5    0    0  0.13468309925E+03 -0.43247403891E+03 -0.73409994009E+03  0.86259843125E+03  0.00000000000E+00 0.  1.
          2    1    6    6  503    0 -0.20340658638E+03  0.77068349353E+01 -0.14935615621E+03  0.25246959438E+03  0.00000000000E+00 0. -1.
         -2    1    6    6    0  503 -0.13529596817E+03 -0.61831383617E+02 -0.62730822945E+02  0.16144124365E+03  0.00000000000E+00 0.  1.
<mgrwt>
<rscale>  0 0.19283510E+04</rscale>
<asrwt>0</asrwt>
<pdfrwt beam="1">  1        2 0.38294847E+00 0.19283510E+04</pdfrwt>
<pdfrwt beam="2">  1       -1 0.57457288E-01 0.19283510E+04</pdfrwt>
<totfact> 0.11534272E+01</totfact>
</mgrwt>
</event>
<event>
12    6  0.1403409E-007  0.1716249E+04  0.7818608E-02  0.8752151E-01
         -1   -1    0    0    0  501 -0.00000000000E+00  0.00000000000E+00  0.33346714689E+03  0.33346714689E+03  0.00000000000E+00 0.  1.
          2   -1    0    0  501    0  0.00000000000E+00 -0.00000000000E+00 -0.22082457346E+04  0.22082457346E+04  0.00000000000E+00 0. -1.
         24    2    1    2    0    0  0.33118941945E+03 -0.48645522924E+03 -0.39572884934E+03  0.71374469575E+03  0.80653870969E+02 0.  0.
        254    2    1    2    0    0 -0.33118941945E+03  0.48645522924E+03 -0.14790497384E+04  0.18279681858E+04  0.89864032735E+03 0.  0.
         23    2    4    4    0    0  0.13055307406E+03  0.38689268185E+03 -0.12031825434E+04  0.12736462331E+04  0.88297462169E+02 0.  0.
         23    2    4    4    0    0 -0.46174249351E+03  0.99562547393E+02 -0.27586719497E+03  0.55432195269E+03  0.89728963078E+02 0.  0.
          4    1    3    3  502    0  0.20338153135E+03 -0.33215300118E+03 -0.30039486249E+03  0.49186048520E+03  0.00000000000E+00 0. -1.
         -3    1    3    3    0  502  0.12780788809E+03 -0.15430222806E+03 -0.95333986846E+02  0.22188421055E+03  0.00000000000E+00 0.  1.
         11    1    5    5    0    0  0.56813828857E+02  0.77782665943E+02 -0.35677243821E+03  0.36954637995E+03  0.00000000000E+00 0.  1.
        -11    1    5    5    0    0  0.73739245207E+02  0.30911001590E+03 -0.84641010523E+03  0.90409985314E+03  0.00000000000E+00 0. -1.
          3    1    6    6  503    0 -0.31176115705E+03  0.35223767615E+02 -0.14749758988E+03  0.34668612876E+03  0.00000000000E+00 0. -1.
         -3    1    6    6    0  503 -0.14998133646E+03  0.64338779778E+02 -0.12836960509E+03  0.20763582393E+03  0.00000000000E+00 0.  1.
<mgrwt>
<rscale>  0 0.17162487E+04</rscale>
<asrwt>0</asrwt>
<pdfrwt beam="1">  1        2 0.33973012E+00 0.17162487E+04</pdfrwt>
<pdfrwt beam="2">  1       -1 0.51302637E-01 0.17162487E+04</pdfrwt>
<totfact> 0.21139200E+01</totfact>
</mgrwt>
</event>
<event>
12    6  0.1403409E-007  0.3287640E+04  0.7818608E-02  0.8166048E-01
         -1   -1    0    0    0  501 -0.00000000000E+00  0.00000000000E+00  0.92240541200E+03  0.92240541200E+03  0.00000000000E+00 0.  1.
          2   -1    0    0  501    0  0.00000000000E+00 -0.00000000000E+00 -0.29294535107E+04  0.29294535107E+04  0.00000000000E+00 0. -1.
         24    2    1    2    0    0 -0.10907337016E+03  0.14770756707E+04 -0.13296045205E+04  0.19918712367E+04  0.77802991476E+02 0.  0.
        254    2    1    2    0    0  0.10907337016E+03 -0.14770756707E+04 -0.67744357819E+03  0.18599876860E+04  0.89831779076E+03 0.  0.
         23    2    4    4    0    0 -0.33647073620E+03 -0.29345795037E+03 -0.10669281067E+03  0.46948989865E+03  0.98525550673E+02 0.  0.
         23    2    4    4    0    0  0.44554410636E+03 -0.11836177204E+04 -0.57075076752E+03  0.13904977873E+04  0.90924140055E+02 0.  0.
          2    1    3    3  502    0 -0.31515926626E+02  0.33912977989E+03 -0.34981668618E+03  0.48823557343E+03  0.00000000000E+00 0. -1.
         -1    1    3    3    0  502 -0.77557443538E+02  0.11379458909E+04 -0.97978783432E+03  0.15036356633E+04  0.00000000000E+00 0.  1.
         11    1    5    5    0    0 -0.32338761983E+03 -0.24236638331E+03 -0.10007335727E+03  0.41633603406E+03  0.00000000000E+00 0. -1.
        -11    1    5    5    0    0 -0.13083116371E+02 -0.51091567056E+02 -0.66194533983E+01  0.53153864596E+02  0.00000000000E+00 0.  1.
          3    1    6    6  503    0  0.90440832738E+02 -0.32932882146E+03 -0.18196086747E+03  0.38697128338E+03  0.00000000000E+00 0. -1.
         -3    1    6    6    0  503  0.35510327363E+03 -0.85428889892E+03 -0.38878990005E+03  0.10035265040E+04  0.00000000000E+00 0.  1.
<mgrwt>
<rscale>  0 0.32876397E+04</rscale>
<asrwt>0</asrwt>
<pdfrwt beam="1">  1        2 0.45068516E+00 0.32876397E+04</pdfrwt>
<pdfrwt beam="2">  1       -1 0.14190852E+00 0.32876397E+04</pdfrwt>
<totfact> 0.73962197E-01</totfact>
</mgrwt>
</event>
<event>
12    6  0.1403409E-007  0.1438110E+04  0.7818608E-02  0.8926685E-01
          4   -1    0    0  501    0  0.00000000000E+00  0.00000000000E+00  0.17356527741E+04  0.17356527741E+04  0.00000000000E+00 0. -1.
         -3   -1    0    0    0  501 -0.00000000000E+00 -0.00000000000E+00 -0.29789389795E+03  0.29789389795E+03  0.00000000000E+00 0.  1.
         24    2    1    2    0    0  0.18327493056E+01 -0.42150789664E+03  0.37740055293E+03  0.57174232894E+03  0.82376255419E+02 0.  0.
        254    2    1    2    0    0 -0.18327493056E+01  0.42150789664E+03  0.10603583232E+04  0.14618043431E+04  0.91369573599E+03 0.  0.
         23    2    4    4    0    0 -0.38547795309E+03  0.49284172872E+02  0.20399888151E+03  0.44829791342E+03  0.91286874782E+02 0.  0.
         23    2    4    4    0    0  0.38364520378E+03  0.37222372377E+03  0.85635944169E+03  0.10135064297E+04  0.90053576702E+02 0.  0.
          4    1    3    3  502    0 -0.22904596463E+02 -0.49400109943E+02  0.68424743889E+02  0.87446766537E+02  0.00000000000E+00 0. -1.
         -3    1    3    3    0  502  0.24737345769E+02 -0.37210778669E+03  0.30897580904E+03  0.48429556240E+03  0.00000000000E+00 0.  1.
         11    1    5    5    0    0 -0.31484737928E+03  0.15420244247E+02  0.13145540254E+03  0.34153649736E+03  0.00000000000E+00 0.  1.
        -11    1    5    5    0    0 -0.70630573811E+02  0.33863928625E+02  0.72543478971E+02  0.10676141606E+03  0.00000000000E+00 0. -1.
          1    1    6    6  503    0  0.27154195063E+03  0.20704330543E+03  0.51070543922E+03  0.61434681323E+03  0.00000000000E+00 0. -1.
         -1    1    6    6    0  503  0.11210325316E+03  0.16518041833E+03  0.34565400247E+03  0.39915961644E+03  0.00000000000E+00 0.  1.
<mgrwt>
<rscale>  0 0.14381104E+04</rscale>
<asrwt>0</asrwt>
<pdfrwt beam="1">  1        4 0.26702350E+00 0.14381104E+04</pdfrwt>
<pdfrwt beam="2">  1       -3 0.45829832E-01 0.14381104E+04</pdfrwt>
<totfact> 0.52229534E-01</totfact>
</mgrwt>
</event>
<event>
12    6  0.1403409E-007  0.1595966E+04  0.7818608E-02  0.8823030E-01
         -1   -1    0    0    0  501 -0.00000000000E+00  0.00000000000E+00  0.32576347475E+03  0.32576347475E+03  0.00000000000E+00 0.  1.
          2   -1    0    0  501    0  0.00000000000E+00 -0.00000000000E+00 -0.19547212127E+04  0.19547212127E+04  0.00000000000E+00 0. -1.
         24    2    1    2    0    0  0.37035872134E+03  0.27072183432E+03 -0.93358650021E+03  0.10421150139E+04  0.62960740387E+02 0.  0.
        254    2    1    2    0    0 -0.37035872134E+03 -0.27072183432E+03 -0.69537123774E+03  0.12383696735E+04  0.91627637533E+03 0.  0.
         23    2    4    4    0    0  0.18941661595E+03 -0.27910331061E+03 -0.55186235259E+03  0.65307259249E+03  0.90412623393E+02 0.  0.
         23    2    4    4    0    0 -0.55977533728E+03  0.83814762907E+01 -0.14350888515E+03  0.58529708103E+03  0.92515920642E+02 0.  0.
          4    1    3    3  502    0  0.24897431964E+03  0.15903175164E+03 -0.65120981195E+03  0.71508987480E+03  0.00000000000E+00 0. -1.
         -3    1    3    3    0  502  0.12138440170E+03  0.11169008269E+03 -0.28237668826E+03  0.32702513913E+03  0.00000000000E+00 0.  1.
         11    1    5    5    0    0  0.79950078432E+02 -0.10265684639E+03 -0.29755805022E+03  0.32476335446E+03  0.00000000000E+00 0.  1.
        -11    1    5    5    0    0  0.10946653751E+03 -0.17644646422E+03 -0.25430430237E+03  0.32830923803E+03  0.00000000000E+00 0. -1.
          2    1    6    6  503    0 -0.13561884252E+03  0.41912222658E+02 -0.34995291864E+02  0.14619772675E+03  0.00000000000E+00 0. -1.
         -2    1    6    6    0  503 -0.42415649477E+03 -0.33530746367E+02 -0.10851359329E+03  0.43909935428E+03  0.00000000000E+00 0.  1.
<mgrwt>
<rscale>  0 0.15959659E+04</rscale>
<asrwt>0</asrwt>
<pdfrwt beam="1">  1        2 0.30072634E+00 0.15959659E+04</pdfrwt>
<pdfrwt beam="2">  1       -1 0.50117458E-01 0.15959659E+04</pdfrwt>
<totfact> 0.30916851E+01</totfact>
</mgrwt>
</event>
<event>
12    6  0.1403409E-007  0.1408876E+04  0.7818608E-02  0.8947418E-01
          2   -1    0    0  501    0  0.00000000000E+00  0.00000000000E+00  0.21022887226E+04  0.21022887226E+04  0.00000000000E+00 0. -1.
         -1   -1    0    0    0  501 -0.00000000000E+00 -0.00000000000E+00 -0.23604423425E+03  0.23604423425E+03  0.00000000000E+00 0.  1.
         24    2    1    2    0    0 -0.38612015608E+03 -0.12308977694E+03  0.68249643140E+03  0.79776726226E+03  0.79945967716E+02 0.  0.
        254    2    1    2    0    0  0.38612015608E+03  0.12308977694E+03  0.11837480570E+04  0.15405656946E+04  0.89880105079E+03 0.  0.
         23    2    4    4    0    0  0.12718673197E+03  0.12888874965E+03 -0.10125266721E+03  0.22656552474E+03  0.91055256912E+02 0.  0.
         23    2    4    4    0    0  0.25893342411E+03 -0.57989727126E+01  0.12850007242E+04  0.13140001699E+04  0.91046356584E+02 0.  0.
          2    1    3    3  502    0 -0.43871348237E+01  0.61323544744E+01  0.29253374248E+02  0.30209479113E+02  0.00000000000E+00 0. -1.
         -1    1    3    3    0  502 -0.38173302125E+03 -0.12922213141E+03  0.65324305715E+03  0.76755778315E+03  0.00000000000E+00 0.  1.
         11    1    5    5    0    0  0.11643678446E+03  0.57001336666E+02 -0.71253063664E+02  0.14793132271E+03  0.00000000000E+00 0.  1.
        -11    1    5    5    0    0  0.10749947508E+02  0.71887412984E+02 -0.29999603543E+02  0.78634202035E+02  0.00000000000E+00 0. -1.
          1    1    6    6  503    0  0.95162732924E+02  0.30022418946E+02  0.34389557151E+03  0.35808023609E+03  0.00000000000E+00 0. -1.
         -1    1    6    6    0  503  0.16377069118E+03 -0.35821391658E+02  0.94110515269E+03  0.95591993379E+03  0.00000000000E+00 0.  1.
<mgrwt>
<rscale>  0 0.14088763E+04</rscale>
<asrwt>0</asrwt>
<pdfrwt beam="1">  1        2 0.32342902E+00 0.14088763E+04</pdfrwt>
<pdfrwt beam="2">  1       -1 0.36314499E-01 0.14088763E+04</pdfrwt>
<totfact> 0.47181830E+01</totfact>
</mgrwt>
</event>
<event>
12    6  0.1403409E-007  0.1380804E+04  0.7818608E-02  0.8967832E-01
          2   -1    0    0  501    0  0.00000000000E+00  0.00000000000E+00  0.62566000883E+03  0.62566000883E+03  0.00000000000E+00 0. -1.
         -1   -1    0    0    0  501 -0.00000000000E+00 -0.00000000000E+00 -0.76184376098E+03  0.76184376098E+03  0.00000000000E+00 0.  1.
         24    2    1    2    0    0 -0.26426639803E+03  0.17452574088E+03  0.19167764236E+03  0.37883587698E+03  0.80500557403E+02 0.  0.
        254    2    1    2    0    0  0.26426639803E+03 -0.17452574088E+03 -0.32786139451E+03  0.10086678928E+04  0.89978989807E+03 0.  0.
         23    2    4    4    0    0  0.17537441236E+03  0.15049009004E+03  0.23739844293E+03  0.34421271511E+03  0.93385870582E+02 0.  0.
         23    2    4    4    0    0  0.88891985671E+02 -0.32501583092E+03 -0.56525983744E+03  0.66445517773E+03  0.91896267189E+02 0.  0.
          4    1    3    3  502    0 -0.23943044049E+03  0.13860456756E+03  0.18906331424E+03  0.33508670337E+03  0.00000000000E+00 0. -1.
         -3    1    3    3    0  502 -0.24835957545E+02  0.35921173322E+02  0.26143281231E+01  0.43749173610E+02  0.00000000000E+00 0.  1.
         11    1    5    5    0    0  0.79351010240E+02  0.12529977289E+03  0.16135470471E+03  0.21916194160E+03  0.00000000000E+00 0. -1.
        -11    1    5    5    0    0  0.96023402123E+02  0.25190317154E+02  0.76043738215E+02  0.12505077351E+03  0.00000000000E+00 0.  1.
          2    1    6    6  503    0  0.16046361365E+02 -0.22031385901E+02 -0.10604660111E+03  0.10949314720E+03  0.00000000000E+00 0. -1.
         -2    1    6    6    0  503  0.72845624306E+02 -0.30298444502E+03 -0.45921323633E+03  0.55496203053E+03  0.00000000000E+00 0.  1.
<mgrwt>
<rscale>  0 0.13808044E+04</rscale>
<asrwt>0</asrwt>
<pdfrwt beam="1">  1        2 0.96255386E-01 0.13808044E+04</pdfrwt>
<pdfrwt beam="2">  1       -1 0.11720673E+00 0.13808044E+04</pdfrwt>
<totfact> 0.34425431E+01</totfact>
</mgrwt>
</event>
<event>
12    6  0.1403409E-007  0.1449535E+04  0.7818608E-02  0.8918723E-01
          2   -1    0    0  501    0  0.00000000000E+00  0.00000000000E+00  0.50098554331E+03  0.50098554331E+03  0.00000000000E+00 0. -1.
         -3   -1    0    0    0  501 -0.00000000000E+00 -0.00000000000E+00 -0.10485091726E+04  0.10485091726E+04  0.00000000000E+00 0.  1.
         24    2    1    2    0    0  0.32162835206E+03 -0.82334934855E+01  0.15162312126E+03  0.36452482978E+03  0.79851069900E+02 0.  0.
        254    2    1    2    0    0 -0.32162835206E+03  0.82334934855E+01 -0.69914675053E+03  0.11849698861E+04  0.90101879280E+03 0.  0.
         23    2    4    4    0    0 -0.36102184021E+03  0.35092475712E+03 -0.64611918509E+03  0.82425678033E+03  0.91892787022E+02 0.  0.
         23    2    4    4    0    0  0.39393488151E+02 -0.34269126364E+03 -0.53027565446E+02  0.36071310580E+03  0.91174957709E+02 0.  0.
          2    1    3    3  502    0  0.15282600365E+03 -0.43740481371E+02  0.70027791647E+02  0.17370350804E+03  0.00000000000E+00 0. -1.
         -3    1    3    3    0  502  0.16880234840E+03  0.35506987886E+02  0.81595329610E+02  0.19082132174E+03  0.00000000000E+00 0.  1.
         11    1    5    5    0    0 -0.18945031006E+03  0.21510539007E+03 -0.30129856792E+03  0.41586365055E+03  0.00000000000E+00 0.  1.
        -11    1    5    5    0    0 -0.17157153015E+03  0.13581936705E+03 -0.34482061716E+03  0.40839312977E+03  0.00000000000E+00 0. -1.
          2    1    6    6  503    0  0.46341046325E+02 -0.12181066752E+03  0.10565414776E+02  0.13075534133E+03  0.00000000000E+00 0. -1.
         -2    1    6    6    0  503 -0.69475581738E+01 -0.22088059612E+03 -0.63592980222E+02  0.22995776447E+03  0.00000000000E+00 0.  1.
<mgrwt>
<rscale>  0 0.14495350E+04</rscale>
<asrwt>0</asrwt>
<pdfrwt beam="1">  1        2 0.77074699E-01 0.14495350E+04</pdfrwt>
<pdfrwt beam="2">  1       -3 0.16130910E+00 0.14495350E+04</pdfrwt>
<totfact> 0.99508579E+00</totfact>
</mgrwt>
</event>
<event>
12    6  0.1403409E-007  0.2307868E+04  0.7818608E-02  0.8474825E-01
          2   -1    0    0  501    0  0.00000000000E+00  0.00000000000E+00  0.28249406402E+04  0.28249406402E+04  0.00000000000E+00 0. -1.
         -1   -1    0    0    0  501 -0.00000000000E+00 -0.00000000000E+00 -0.47135982966E+03  0.47135982966E+03  0.00000000000E+00 0.  1.
         24    2    1    2    0    0  0.52466736753E+03 -0.78699053745E+03  0.65189581244E+03  0.11513353715E+04  0.77298349077E+02 0.  0.
        254    2    1    2    0    0 -0.52466736753E+03  0.78699053745E+03  0.17016849981E+04  0.21449650984E+04  0.90028522587E+03 0.  0.
         23    2    4    4    0    0 -0.59991282089E+03  0.34435918478E+03  0.14784201849E+04  0.16346832657E+04  0.89356002740E+02 0.  0.
         23    2    4    4    0    0  0.75245453364E+02  0.44263135267E+03  0.22326481318E+03  0.51028183267E+03  0.94636036067E+02 0.  0.
          4    1    3    3  502    0  0.58140363535E+02 -0.12949062639E+03  0.80498345804E+02  0.16318121177E+03  0.00000000000E+00 0. -1.
         -3    1    3    3    0  502  0.46652700399E+03 -0.65749991106E+03  0.57139746664E+03  0.98815415972E+03  0.00000000000E+00 0.  1.
         11    1    5    5    0    0 -0.39451834058E+03  0.17731675273E+03  0.89850173552E+03  0.99719171707E+03  0.00000000000E+00 0. -1.
        -11    1    5    5    0    0 -0.20539448031E+03  0.16704243205E+03  0.57991844938E+03  0.63749154863E+03  0.00000000000E+00 0.  1.
          1    1    6    6  503    0  0.46534760287E+02  0.41690768820E+03  0.21255218722E+03  0.47027219426E+03  0.00000000000E+00 0. -1.
         -1    1    6    6    0  503  0.28710693077E+02  0.25723664470E+02  0.10712625962E+02  0.40009638410E+02  0.00000000000E+00 0.  1.
<mgrwt>
<rscale>  0 0.23078679E+04</rscale>
<asrwt>0</asrwt>
<pdfrwt beam="1">  1        2 0.43460624E+00 0.23078679E+04</pdfrwt>
<pdfrwt beam="2">  1       -1 0.72516899E-01 0.23078679E+04</pdfrwt>
<totfact> 0.44167493E+00</totfact>
</mgrwt>
</event>
<event>
12    6  0.1403409E-007  0.1392782E+04  0.7818608E-02  0.8959060E-01
          2   -1    0    0  501    0  0.00000000000E+00  0.00000000000E+00  0.40679601458E+03  0.40679601458E+03  0.00000000000E+00 0. -1.
         -1   -1    0    0    0  501 -0.00000000000E+00 -0.00000000000E+00 -0.11921465827E+04  0.11921465827E+04  0.00000000000E+00 0.  1.
         24    2    1    2    0    0  0.39655397885E+03  0.83754876064E+01 -0.30202536448E+03  0.50204315230E+03  0.59184449375E+02 0.  0.
        254    2    1    2    0    0 -0.39655397885E+03 -0.83754876064E+01 -0.48332520359E+03  0.10968994449E+04  0.90125464378E+03 0.  0.
         23    2    4    4    0    0 -0.40457244592E+03  0.10041948070E+02  0.16136905442E+03  0.44482475797E+03  0.89718386386E+02 0.  0.
         23    2    4    4    0    0  0.80184670699E+01 -0.18417435676E+02 -0.64469425801E+03  0.65207468696E+03  0.95745565511E+02 0.  0.
          2    1    3    3  502    0  0.10330041648E+03  0.54632959896E+01 -0.47931515967E+02  0.11400988497E+03  0.00000000000E+00 0. -1.
         -1    1    3    3    0  502  0.29325356237E+03  0.29121916169E+01 -0.25409384851E+03  0.38803326733E+03  0.00000000000E+00 0.  1.
         11    1    5    5    0    0 -0.32921872849E+03  0.14714607041E+02  0.16636808794E+03  0.36916098322E+03  0.00000000000E+00 0.  1.
        -11    1    5    5    0    0 -0.75353717435E+02 -0.46726589713E+01 -0.49990335170E+01  0.75663774749E+02  0.00000000000E+00 0. -1.
          1    1    6    6  503    0 -0.14637600901E+02  0.35736582347E+02 -0.28904195587E+03  0.29161038207E+03  0.00000000000E+00 0. -1.
         -1    1    6    6    0  503  0.22656067971E+02 -0.54154018023E+02 -0.35565230214E+03  0.36046430489E+03  0.00000000000E+00 0.  1.
<mgrwt>
<rscale>  0 0.13927821E+04</rscale>
<asrwt>0</asrwt>
<pdfrwt beam="1">  1        2 0.62584002E-01 0.13927821E+04</pdfrwt>
<pdfrwt beam="2">  1       -1 0.18340717E+00 0.13927821E+04</pdfrwt>
<totfact> 0.17100788E+01</totfact>
</mgrwt>
</event>
<event>
12    6  0.1403409E-007  0.2051564E+04  0.7818608E-02  0.8582885E-01
          2   -1    0    0  501    0  0.00000000000E+00  0.00000000000E+00  0.17633031529E+04  0.17633031529E+04  0.00000000000E+00 0. -1.
         -1   -1    0    0    0  501 -0.00000000000E+00 -0.00000000000E+00 -0.59673700793E+03  0.59673700793E+03  0.00000000000E+00 0.  1.
         24    2    1    2    0    0  0.67463231606E+03  0.46618859960E+03  0.36171456880E+03  0.89972146643E+03  0.78744622670E+02 0.  0.
        254    2    1    2    0    0 -0.67463231606E+03 -0.46618859960E+03  0.80485157613E+03  0.14603186944E+04  0.90126802740E+03 0.  0.
         23    2    4    4    0    0 -0.40372862664E+03 -0.68756768149E+03  0.74217206864E+03  0.10933188986E+04  0.93705463870E+02 0.  0.
         23    2    4    4    0    0 -0.27090368943E+03  0.22137908189E+03  0.62679507487E+02  0.36699979576E+03  0.91447376036E+02 0.  0.
          4    1    3    3  502    0  0.49444249603E+03  0.37138774710E+03  0.24592445353E+03  0.66549310847E+03  0.00000000000E+00 0. -1.
         -3    1    3    3    0  502  0.18018982004E+03  0.94800852495E+02  0.11579011527E+03  0.23422835796E+03  0.00000000000E+00 0.  1.
         11    1    5    5    0    0 -0.24044225046E+03 -0.31869466796E+03  0.35683900023E+03  0.53545573045E+03  0.00000000000E+00 0. -1.
        -11    1    5    5    0    0 -0.16328637618E+03 -0.36887301353E+03  0.38533306841E+03  0.55786316814E+03  0.00000000000E+00 0.  1.
          1    1    6    6  503    0  0.57078142483E+01  0.54980466065E+01 -0.53784683932E+01  0.95778693997E+01  0.00000000000E+00 0. -1.
         -1    1    6    6    0  503 -0.27661150368E+03  0.21588103529E+03  0.68057975880E+02  0.35742192636E+03  0.00000000000E+00 0.  1.
<mgrwt>
<rscale>  0 0.20515635E+04</rscale>
<asrwt>0</asrwt>
<pdfrwt beam="1">  1        2 0.27127741E+00 0.20515635E+04</pdfrwt>
<pdfrwt beam="2">  1       -1 0.91805694E-01 0.20515635E+04</pdfrwt>
<totfact> 0.11012946E+01</totfact>
</mgrwt>
</event>
<event>
12    6  0.1403409E-007  0.2053544E+04  0.7818608E-02  0.8581988E-01
          2   -1    0    0  501    0  0.00000000000E+00  0.00000000000E+00  0.70074363911E+03  0.70074363911E+03  0.00000000000E+00 0. -1.
         -1   -1    0    0    0  501 -0.00000000000E+00 -0.00000000000E+00 -0.15044879634E+04  0.15044879634E+04  0.00000000000E+00 0.  1.
         24    2    1    2    0    0 -0.33028131370E+03  0.65644512689E+03  0.80042429881E+02  0.74373313862E+03  0.82013657983E+02 0.  0.
        254    2    1    2    0    0  0.33028131370E+03 -0.65644512689E+03 -0.88378675419E+03  0.14614984639E+04  0.90271411994E+03 0.  0.
         23    2    4    4    0    0  0.48903648838E+03 -0.42678028707E+03 -0.15173746608E+03  0.67269537454E+03  0.90535672060E+02 0.  0.
         23    2    4    4    0    0 -0.15875517469E+03 -0.22966483983E+03 -0.73204928811E+03  0.78880308937E+03  0.91460425570E+02 0.  0.
          4    1    3    3  502    0 -0.12618381658E+03  0.33816007008E+03  0.50941290722E+02  0.36451283059E+03  0.00000000000E+00 0. -1.
         -3    1    3    3    0  502 -0.20409749712E+03  0.31828505681E+03  0.29101139159E+02  0.37922030803E+03  0.00000000000E+00 0.  1.
         11    1    5    5    0    0  0.47099047307E+03 -0.42655283252E+03 -0.15566513563E+03  0.65422548033E+03  0.00000000000E+00 0. -1.
        -11    1    5    5    0    0  0.18046015314E+02 -0.22745454237E+00  0.39276695434E+01  0.18469894215E+02  0.00000000000E+00 0.  1.
          3    1    6    6  503    0 -0.16743166030E+03 -0.19329088022E+03 -0.65527844374E+03  0.70340924367E+03  0.00000000000E+00 0. -1.
         -3    1    6    6    0  503  0.86764856089E+01 -0.36373959601E+02 -0.76770844371E+02  0.85393845709E+02  0.00000000000E+00 0.  1.
<mgrwt>
<rscale>  0 0.20535436E+04</rscale>
<asrwt>0</asrwt>
<pdfrwt beam="1">  1        2 0.10780671E+00 0.20535436E+04</pdfrwt>
<pdfrwt beam="2">  1       -1 0.23145969E+00 0.20535436E+04</pdfrwt>
<totfact> 0.39880200E+00</totfact>
</mgrwt>
</event>
<event>
12    6  0.1403409E-007  0.1826225E+04  0.7818608E-02  0.8692476E-01
          2   -1    0    0  501    0  0.00000000000E+00  0.00000000000E+00  0.31515656964E+04  0.31515656964E+04  0.00000000000E+00 0. -1.
         -1   -1    0    0    0  501 -0.00000000000E+00 -0.00000000000E+00 -0.26455892008E+03  0.26455892008E+03  0.00000000000E+00 0.  1.
         24    2    1    2    0    0  0.36134436529E+03 -0.26718092141E+03  0.20679155425E+04  0.21176298737E+04  0.78270019768E+02 0.  0.
        254    2    1    2    0    0 -0.36134436529E+03  0.26718092141E+03  0.81909123382E+03  0.12984947428E+04  0.90178864075E+03 0.  0.
         23    2    4    4    0    0 -0.39436230704E+03  0.89632190510E+02  0.96413841976E+03  0.10495536654E+04  0.91893662894E+02 0.  0.
         23    2    4    4    0    0  0.33017941754E+02  0.17754873090E+03 -0.14504718594E+03  0.24894107738E+03  0.91209854373E+02 0.  0.
          2    1    3    3  502    0  0.21065626732E+03 -0.16092287600E+03  0.13919744290E+04  0.14169915476E+04  0.00000000000E+00 0. -1.
         -1    1    3    3    0  502  0.15068809797E+03 -0.10625804541E+03  0.67594111348E+03  0.70063832608E+03  0.00000000000E+00 0.  1.
         11    1    5    5    0    0 -0.26520951849E+02 -0.13565682464E+02  0.10815705081E+03  0.11218438513E+03  0.00000000000E+00 0.  1.
        -11    1    5    5    0    0 -0.36784135519E+03  0.10319787297E+03  0.85598136896E+03  0.93736928026E+03  0.00000000000E+00 0. -1.
          3    1    6    6  503    0  0.56949585878E+02  0.71831664242E+02 -0.85080116329E+02  0.12506666028E+03  0.00000000000E+00 0. -1.
         -3    1    6    6    0  503 -0.23931644124E+02  0.10571706666E+03 -0.59967069615E+02  0.12387441710E+03  0.00000000000E+00 0.  1.
<mgrwt>
<rscale>  0 0.18262254E+04</rscale>
<asrwt>0</asrwt>
<pdfrwt beam="1">  1        2 0.48485624E+00 0.18262254E+04</pdfrwt>
<pdfrwt beam="2">  1       -1 0.40701374E-01 0.18262254E+04</pdfrwt>
<totfact> 0.88634954E+00</totfact>
</mgrwt>
</event>
<event>
12    6  0.1403409E-007  0.1131492E+04  0.7818608E-02  0.9175030E-01
          2   -1    0    0  501    0  0.00000000000E+00  0.00000000000E+00  0.22393872392E+03  0.22393872392E+03  0.00000000000E+00 0. -1.
         -1   -1    0    0    0  501 -0.00000000000E+00 -0.00000000000E+00 -0.14292679412E+04  0.14292679412E+04  0.00000000000E+00 0.  1.
         24    2    1    2    0    0  0.16274483814E+02 -0.18370920873E+03 -0.31934883899E+03  0.37679196388E+03  0.77295348410E+02 0.  0.
        254    2    1    2    0    0 -0.16274483814E+02  0.18370920873E+03 -0.88598037826E+03  0.12764147012E+04  0.90014405881E+03 0.  0.
         23    2    4    4    0    0  0.25885748042E+03 -0.11023270378E+03 -0.80240059781E+03  0.85510648815E+03  0.90564576789E+02 0.  0.
         23    2    4    4    0    0 -0.27513196423E+03  0.29394191251E+03 -0.83579780456E+02  0.42130821306E+03  0.91736497740E+02 0.  0.
          4    1    3    3  502    0  0.24457776589E+02 -0.36691464485E+02 -0.33962570744E+02  0.55658805353E+02  0.00000000000E+00 0. -1.
         -3    1    3    3    0  502 -0.81832927744E+01 -0.14701774425E+03 -0.28538626825E+03  0.32113315853E+03  0.00000000000E+00 0.  1.
         11    1    5    5    0    0  0.78874787399E+02  0.50116663363E+01 -0.16770664190E+03  0.18539651190E+03  0.00000000000E+00 0.  1.
        -11    1    5    5    0    0  0.17998269302E+03 -0.11524437011E+03 -0.63469395591E+03  0.66970997625E+03  0.00000000000E+00 0. -1.
          4    1    6    6  503    0 -0.24107318095E+03  0.28646844784E+03 -0.91771330032E+02  0.38548985356E+03  0.00000000000E+00 0. -1.
         -4    1    6    6    0  503 -0.34058783278E+02  0.74734646681E+01  0.81915495759E+01  0.35818359496E+02  0.00000000000E+00 0.  1.
<mgrwt>
<rscale>  0 0.11314918E+04</rscale>
<asrwt>0</asrwt>
<pdfrwt beam="1">  1        2 0.34452110E-01 0.11314918E+04</pdfrwt>
<pdfrwt beam="2">  1       -1 0.21988738E+00 0.11314918E+04</pdfrwt>
<totfact> 0.19115850E+01</totfact>
</mgrwt>
</event>
<event>
12    6  0.1403409E-007  0.2772555E+04  0.7818608E-02  0.8311840E-01
          2   -1    0    0  501    0  0.00000000000E+00  0.00000000000E+00  0.20481383289E+04  0.20481383289E+04  0.00000000000E+00 0. -1.
         -1   -1    0    0    0  501 -0.00000000000E+00 -0.00000000000E+00 -0.93829889723E+03  0.93829889723E+03  0.00000000000E+00 0.  1.
         24    2    1    2    0    0 -0.12339387807E+04  0.49692832777E+02  0.57981704282E+03  0.13665619559E+04  0.78927081432E+02 0.  0.
        254    2    1    2    0    0  0.12339387807E+04 -0.49692832777E+02  0.53002238884E+03  0.16198752702E+04  0.90443234472E+03 0.  0.
         23    2    4    4    0    0 -0.32567902774E+02 -0.12685172064E+03  0.28170201184E+03  0.32377511548E+03  0.91226501650E+02 0.  0.
         23    2    4    4    0    0  0.12665066834E+04  0.77158887861E+02  0.24832037699E+03  0.12961001547E+04  0.90663819642E+02 0.  0.
          2    1    3    3  502    0 -0.73638534789E+03  0.24915174734E+02  0.30326201614E+03  0.79677600174E+03  0.00000000000E+00 0. -1.
         -1    1    3    3    0  502 -0.49755343278E+03  0.24777658044E+02  0.27655502668E+03  0.56978595419E+03  0.00000000000E+00 0.  1.
         11    1    5    5    0    0 -0.54234041799E+02 -0.46039980626E+02  0.16941283955E+03  0.18374362931E+03  0.00000000000E+00 0. -1.
        -11    1    5    5    0    0  0.21666139025E+02 -0.80811740012E+02  0.11228917229E+03  0.14003148617E+03  0.00000000000E+00 0.  1.
          3    1    6    6  503    0  0.10067372333E+04  0.25838240033E+02  0.18657400746E+03  0.10242057078E+04  0.00000000000E+00 0. -1.
         -3    1    6    6    0  503  0.25976945016E+03  0.51320647829E+02  0.61746369539E+02  0.27189444694E+03  0.00000000000E+00 0.  1.
<mgrwt>
<rscale>  0 0.27725555E+04</rscale>
<asrwt>0</asrwt>
<pdfrwt beam="1">  1        2 0.31509820E+00 0.27725555E+04</pdfrwt>
<pdfrwt beam="2">  1       -1 0.14435368E+00 0.27725555E+04</pdfrwt>
<totfact> 0.24091971E+00</totfact>
</mgrwt>
</event>
<event>
12    6  0.1403409E-007  0.1530577E+04  0.7818608E-02  0.8864370E-01
          2   -1    0    0  501    0  0.00000000000E+00  0.00000000000E+00  0.22269484417E+04  0.22269484417E+04  0.00000000000E+00 0. -1.
         -1   -1    0    0    0  501 -0.00000000000E+00 -0.00000000000E+00 -0.26299064893E+03  0.26299064893E+03  0.00000000000E+00 0.  1.
         24    2    1    2    0    0 -0.45077991702E+03  0.11531041114E+03  0.36092576221E+03  0.59437922885E+03  0.80747986687E+02 0.  0.
        254    2    1    2    0    0  0.45077991702E+03 -0.11531041114E+03  0.16030320305E+04  0.18955598618E+04  0.89829642885E+03 0.  0.
         23    2    4    4    0    0  0.18875057829E+02 -0.39404014114E+03  0.33803722115E+03  0.52732838828E+03  0.90455323592E+02 0.  0.
         23    2    4    4    0    0  0.43190485919E+03  0.27872973000E+03  0.12649948094E+04  0.13682314735E+04  0.87254956674E+02 0.  0.
          4    1    3    3  502    0 -0.18863720997E+03  0.74559101841E+02  0.19563372861E+03  0.28180775792E+03  0.00000000000E+00 0. -1.
         -3    1    3    3    0  502 -0.26214270705E+03  0.40751309300E+02  0.16529203361E+03  0.31257147093E+03  0.00000000000E+00 0.  1.
         11    1    5    5    0    0 -0.29911792838E+00 -0.25416255131E+03  0.26930115549E+03  0.37029961424E+03  0.00000000000E+00 0. -1.
        -11    1    5    5    0    0  0.19174175757E+02 -0.13987758984E+03  0.68736065653E+02  0.15702877404E+03  0.00000000000E+00 0.  1.
          1    1    6    6  503    0  0.32975727024E+03  0.25143141875E+03  0.10403144271E+04  0.11199159446E+04  0.00000000000E+00 0. -1.
         -1    1    6    6    0  503  0.10214758895E+03  0.27298311250E+02  0.22468038226E+03  0.24831552891E+03  0.00000000000E+00 0.  1.
<mgrwt>
<rscale>  0 0.15305772E+04</rscale>
<asrwt>0</asrwt>
<pdfrwt beam="1">  1        2 0.34260744E+00 0.15305772E+04</pdfrwt>
<pdfrwt beam="2">  1       -1 0.40460101E-01 0.15305772E+04</pdfrwt>
<totfact> 0.32688215E+01</totfact>
</mgrwt>
</event>
<event>
12    6  0.1403409E-007  0.2489651E+04  0.7818608E-02  0.8406682E-01
          2   -1    0    0  501    0  0.00000000000E+00  0.00000000000E+00  0.14872866331E+04  0.14872866331E+04  0.00000000000E+00 0. -1.
         -1   -1    0    0    0  501 -0.00000000000E+00 -0.00000000000E+00 -0.10418911604E+04  0.10418911604E+04  0.00000000000E+00 0.  1.
         24    2    1    2    0    0 -0.10051990091E+04  0.11051329195E+03  0.58477808946E+03  0.11709632157E+04  0.80939502617E+02 0.  0.
        254    2    1    2    0    0  0.10051990091E+04 -0.11051329195E+03 -0.13938261681E+03  0.13582145778E+04  0.89592471215E+03 0.  0.
         23    2    4    4    0    0  0.79464056730E+03 -0.37069924715E+03 -0.35422014478E+03  0.95003607289E+03  0.90692148413E+02 0.  0.
         23    2    4    4    0    0  0.21055844181E+03  0.26018595520E+03  0.21483752796E+03  0.40817850491E+03  0.91776575151E+02 0.  0.
          2    1    3    3  502    0 -0.10977268261E+03 -0.12307059463E+02  0.71365921907E+02  0.13150893647E+03  0.00000000000E+00 0. -1.
         -1    1    3    3    0  502 -0.89542632650E+03  0.12282035141E+03  0.51341216756E+03  0.10394542793E+04  0.00000000000E+00 0.  1.
         11    1    5    5    0    0  0.74231871087E+03 -0.36942641385E+03 -0.33501569978E+03  0.89428656641E+03  0.00000000000E+00 0. -1.
        -11    1    5    5    0    0  0.52321856432E+02 -0.12728332974E+01 -0.19204444993E+02  0.55749506479E+02  0.00000000000E+00 0.  1.
          1    1    6    6  503    0  0.21879879962E+03  0.25382852779E+03  0.21425918275E+03  0.39775474055E+03  0.00000000000E+00 0. -1.
         -1    1    6    6    0  503 -0.82403578149E+01  0.63574274122E+01  0.57834521278E+00  0.10423764359E+02  0.00000000000E+00 0.  1.
<mgrwt>
<rscale>  0 0.24896512E+04</rscale>
<asrwt>0</asrwt>
<pdfrwt beam="1">  1        2 0.22881333E+00 0.24896512E+04</pdfrwt>
<pdfrwt beam="2">  1       -1 0.16029095E+00 0.24896512E+04</pdfrwt>
<totfact> 0.38154823E+00</totfact>
</mgrwt>
</event>
<event>
12    6  0.1403409E-007  0.2198595E+04  0.7818608E-02  0.8519013E-01
         -1   -1    0    0    0  501 -0.00000000000E+00  0.00000000000E+00  0.64154204407E+03  0.64154204407E+03  0.00000000000E+00 0.  1.
          2   -1    0    0  501    0  0.00000000000E+00 -0.00000000000E+00 -0.18836728000E+04  0.18836728000E+04  0.00000000000E+00 0. -1.
         24    2    1    2    0    0 -0.71433767643E+03  0.56880099571E+03 -0.48094411548E+03  0.10350464724E+04  0.78746867145E+02 0.  0.
        254    2    1    2    0    0  0.71433767643E+03 -0.56880099571E+03 -0.76118664045E+03  0.14901683717E+04  0.89854537206E+03 0.  0.
         23    2    4    4    0    0  0.44545571644E+03 -0.77760911812E+03 -0.68246976438E+03  0.11299147411E+04  0.88518963593E+02 0.  0.
         23    2    4    4    0    0  0.26888195999E+03  0.20880812240E+03 -0.78716876075E+02  0.36025363060E+03  0.87681191792E+02 0.  0.
          2    1    3    3  502    0 -0.50319380561E+03  0.36613464854E+03 -0.35490551773E+03  0.71639131302E+03  0.00000000000E+00 0. -1.
         -1    1    3    3    0  502 -0.21114387083E+03  0.20266634717E+03 -0.12603859775E+03  0.31865515936E+03  0.00000000000E+00 0.  1.
         11    1    5    5    0    0  0.94197213883E+02 -0.19052155017E+03 -0.20770337622E+03  0.29717380214E+03  0.00000000000E+00 0.  1.
        -11    1    5    5    0    0  0.35125850256E+03 -0.58708756795E+03 -0.47476638815E+03  0.83274093893E+03  0.00000000000E+00 0. -1.
          3    1    6    6  503    0  0.16180152667E+03  0.17604422294E+03 -0.44960678398E+02  0.24329563305E+03  0.00000000000E+00 0. -1.
         -3    1    6    6    0  503  0.10708043333E+03  0.32763899467E+02 -0.33756197676E+02  0.11695799755E+03  0.00000000000E+00 0.  1.
<mgrwt>
<rscale>  0 0.21985953E+04</rscale>
<asrwt>0</asrwt>
<pdfrwt beam="1">  1        2 0.28979581E+00 0.21985953E+04</pdfrwt>
<pdfrwt beam="2">  1       -1 0.98698778E-01 0.21985953E+04</pdfrwt>
<totfact> 0.79238845E+00</totfact>
</mgrwt>
</event>
<event>
12    6  0.1403409E-007  0.3101022E+04  0.7818608E-02  0.8215457E-01
         -1   -1    0    0    0  501 -0.00000000000E+00  0.00000000000E+00  0.91641007948E+03  0.91641007948E+03  0.00000000000E+00 0.  1.
          2   -1    0    0  501    0  0.00000000000E+00 -0.00000000000E+00 -0.26233720394E+04  0.26233720394E+04  0.00000000000E+00 0. -1.
         24    2    1    2    0    0 -0.57883051014E+03  0.11813385283E+04 -0.13873762761E+04  0.19137418013E+04  0.83601869576E+02 0.  0.
        254    2    1    2    0    0  0.57883051014E+03 -0.11813385283E+04 -0.31958568391E+03  0.16260403177E+04  0.90070340704E+03 0.  0.
         23    2    4    4    0    0 -0.95497389399E+02 -0.50566099607E+03  0.16964056659E+03  0.54977871012E+03  0.93090890739E+02 0.  0.
         23    2    4    4    0    0  0.67432789954E+03 -0.67567753221E+03 -0.48922625050E+03  0.10762616075E+04  0.87968631182E+02 0.  0.
          2    1    3    3  502    0 -0.21701664803E+03  0.41970452040E+03 -0.55528667653E+03  0.72910314984E+03  0.00000000000E+00 0. -1.
         -1    1    3    3    0  502 -0.36181386211E+03  0.76163400788E+03 -0.83208959953E+03  0.11846386514E+04  0.00000000000E+00 0.  1.
         11    1    5    5    0    0 -0.30432446592E+02 -0.12294115835E+03  0.84757790635E+02  0.15239601469E+03  0.00000000000E+00 0. -1.
        -11    1    5    5    0    0 -0.65064942807E+02 -0.38271983773E+03  0.84882775955E+02  0.39738269543E+03  0.00000000000E+00 0.  1.
          3    1    6    6  503    0  0.52753937542E+03 -0.57220416886E+03 -0.38037832668E+03  0.86625808792E+03  0.00000000000E+00 0. -1.
         -3    1    6    6    0  503  0.14678852412E+03 -0.10347336335E+03 -0.10884792382E+03  0.21000351963E+03  0.00000000000E+00 0.  1.
<mgrwt>
<rscale>  0 0.31010221E+04</rscale>
<asrwt>0</asrwt>
<pdfrwt beam="1">  1        2 0.40359570E+00 0.31010221E+04</pdfrwt>
<pdfrwt beam="2">  1       -1 0.14098617E+00 0.31010221E+04</pdfrwt>
<totfact> 0.11700983E+00</totfact>
</mgrwt>
</event>
<event>
12    6  0.1403409E-007  0.2477432E+04  0.7818608E-02  0.8411070E-01
         -1   -1    0    0    0  501 -0.00000000000E+00  0.00000000000E+00  0.39531480810E+03  0.39531480810E+03  0.00000000000E+00 0.  1.
          2   -1    0    0  501    0  0.00000000000E+00 -0.00000000000E+00 -0.38815060019E+04  0.38815060019E+04  0.00000000000E+00 0. -1.
         24    2    1    2    0    0 -0.98276559187E+03  0.42156494080E+03 -0.16755206969E+04  0.19893497209E+04  0.81224986632E+02 0.  0.
        254    2    1    2    0    0  0.98276559187E+03 -0.42156494080E+03 -0.18106704970E+04  0.22874710892E+04  0.90025059138E+03 0.  0.
         23    2    4    4    0    0  0.23896569075E+03 -0.45818189780E+03 -0.12352609910E+04  0.13420503699E+04  0.90521967775E+02 0.  0.
         23    2    4    4    0    0  0.74379990111E+03  0.36616956998E+02 -0.57540950602E+03  0.94542071930E+03  0.90250442806E+02 0.  0.
          2    1    3    3  502    0 -0.41076151373E+03  0.13297978153E+03 -0.68005092346E+03  0.80552957858E+03  0.00000000000E+00 0. -1.
         -1    1    3    3    0  502 -0.57200407813E+03  0.28858515927E+03 -0.99546977340E+03  0.11838201423E+04  0.00000000000E+00 0.  1.
         11    1    5    5    0    0  0.31064087539E+02 -0.12945942502E+03 -0.37549678343E+03  0.39839999326E+03  0.00000000000E+00 0.  1.
        -11    1    5    5    0    0  0.20790160321E+03 -0.32872247278E+03 -0.85976420752E+03  0.94365037660E+03  0.00000000000E+00 0. -1.
          1    1    6    6  503    0  0.34219080853E+03  0.42865084957E+02 -0.21973546456E+03  0.40892008918E+03  0.00000000000E+00 0. -1.
         -1    1    6    6    0  503  0.40160909259E+03 -0.62481279597E+01 -0.35567404146E+03  0.53650063012E+03  0.00000000000E+00 0.  1.
<mgrwt>
<rscale>  0 0.24774316E+04</rscale>
<asrwt>0</asrwt>
<pdfrwt beam="1">  1        2 0.59715475E+00 0.24774316E+04</pdfrwt>
<pdfrwt beam="2">  1       -1 0.60817665E-01 0.24774316E+04</pdfrwt>
<totfact> 0.11878434E+00</totfact>
</mgrwt>
</event>
<event>
12    6  0.1403409E-007  0.1826776E+04  0.7818608E-02  0.8692188E-01
         -1   -1    0    0    0  501 -0.00000000000E+00  0.00000000000E+00  0.51751527234E+03  0.51751527234E+03  0.00000000000E+00 0.  1.
          2   -1    0    0  501    0  0.00000000000E+00 -0.00000000000E+00 -0.16120835998E+04  0.16120835998E+04  0.00000000000E+00 0. -1.
         24    2    1    2    0    0 -0.48907956476E+03  0.31466178046E+03 -0.84561605973E+03  0.10296353186E+04  0.82894583654E+02 0.  0.
        254    2    1    2    0    0  0.48907956476E+03 -0.31466178046E+03 -0.24895226770E+03  0.10999635536E+04  0.89985094921E+03 0.  0.
         23    2    4    4    0    0  0.43570750281E+03  0.73445887120E+02 -0.46074665475E+03  0.64494813938E+03  0.91843869090E+02 0.  0.
         23    2    4    4    0    0  0.53372061955E+02 -0.38810766758E+03  0.21179438705E+03  0.45501541417E+03  0.93306088271E+02 0.  0.
          4    1    3    3  502    0 -0.78965866183E+02  0.17776297193E+02 -0.10748802341E+03  0.13455586178E+03  0.00000000000E+00 0. -1.
         -3    1    3    3    0  502 -0.41011369858E+03  0.29688548327E+03 -0.73812803632E+03  0.89507945678E+03  0.00000000000E+00 0.  1.
         11    1    5    5    0    0  0.43268956870E+03  0.64578667752E+02 -0.43246522460E+03  0.61515594582E+03  0.00000000000E+00 0. -1.
        -11    1    5    5    0    0  0.30179341062E+01  0.88672193679E+01 -0.28281430159E+02  0.29792193565E+02  0.00000000000E+00 0.  1.
          2    1    6    6  503    0  0.37642139365E+01 -0.26600306276E+03  0.17409630662E+03  0.31793289022E+03  0.00000000000E+00 0. -1.
         -2    1    6    6    0  503  0.49607848019E+02 -0.12210460482E+03  0.37698080438E+02  0.13708252395E+03  0.00000000000E+00 0.  1.
<mgrwt>
<rscale>  0 0.18267763E+04</rscale>
<asrwt>0</asrwt>
<pdfrwt beam="1">  1        2 0.24801286E+00 0.18267763E+04</pdfrwt>
<pdfrwt beam="2">  1       -1 0.79617734E-01 0.18267763E+04</pdfrwt>
<totfact> 0.18568962E+01</totfact>
</mgrwt>
</event>
<event>
12    6  0.1403409E-007  0.2151670E+04  0.7818608E-02  0.8538818E-01
         -1   -1    0    0    0  501 -0.00000000000E+00  0.00000000000E+00  0.76486409909E+03  0.76486409909E+03  0.00000000000E+00 0.  1.
          2   -1    0    0  501    0  0.00000000000E+00 -0.00000000000E+00 -0.15132372685E+04  0.15132372685E+04  0.00000000000E+00 0. -1.
         24    2    1    2    0    0 -0.88608778989E+03 -0.13831634269E+02 -0.29695763729E+03  0.93812962267E+03  0.80996697932E+02 0.  0.
        254    2    1    2    0    0  0.88608778989E+03  0.13831634269E+02 -0.45141553209E+03  0.13399717449E+04  0.89800078451E+03 0.  0.
         23    2    4    4    0    0  0.24342520509E+03 -0.31404676757E+03  0.10785713858E+03  0.42255965773E+03  0.95091005360E+02 0.  0.
         23    2    4    4    0    0  0.64266258480E+03  0.32787840184E+03 -0.55927267067E+03  0.91741208716E+03  0.91321263737E+02 0.  0.
          2    1    3    3  502    0 -0.48391453740E+03  0.49688379991E+01 -0.20241138972E+03  0.52456490499E+03  0.00000000000E+00 0. -1.
         -1    1    3    3    0  502 -0.40217325249E+03 -0.18800472268E+02 -0.94546247572E+02  0.41356471768E+03  0.00000000000E+00 0.  1.
         11    1    5    5    0    0  0.16515742611E+03 -0.21022603338E+03  0.11783587458E+03  0.29215963761E+03  0.00000000000E+00 0. -1.
        -11    1    5    5    0    0  0.78267778980E+02 -0.10382073419E+03 -0.99787359993E+01  0.13040002012E+03  0.00000000000E+00 0.  1.
          1    1    6    6  503    0  0.43880639554E+03  0.18207012768E+03 -0.39389517838E+03  0.61713369355E+03  0.00000000000E+00 0. -1.
         -1    1    6    6    0  503  0.20385618926E+03  0.14580827416E+03 -0.16537749229E+03  0.30027839361E+03  0.00000000000E+00 0.  1.
<mgrwt>
<rscale>  0 0.21516699E+04</rscale>
<asrwt>0</asrwt>
<pdfrwt beam="1">  1        2 0.23280573E+00 0.21516699E+04</pdfrwt>
<pdfrwt beam="2">  1       -1 0.11767140E+00 0.21516699E+04</pdfrwt>
<totfact> 0.84712231E+00</totfact>
</mgrwt>
</event>
<event>
12    6  0.1403409E-007  0.2396955E+04  0.7818608E-02  0.8440644E-01
          2   -1    0    0  501    0  0.00000000000E+00  0.00000000000E+00  0.28682656960E+04  0.28682656960E+04  0.00000000000E+00 0. -1.
         -1   -1    0    0    0  501 -0.00000000000E+00 -0.00000000000E+00 -0.50077249087E+03  0.50077249087E+03  0.00000000000E+00 0.  1.
         24    2    1    2    0    0 -0.77223884455E+03  0.64814529592E+03  0.12991453720E+04  0.16465424519E+04  0.82934858987E+02 0.  0.
        254    2    1    2    0    0  0.77223884455E+03 -0.64814529592E+03  0.10683478332E+04  0.17224957349E+04  0.89954394367E+03 0.  0.
         23    2    4    4    0    0  0.94437108791E+03 -0.38842894313E+03  0.77716945487E+03  0.12864333613E+04  0.90579445458E+02 0.  0.
         23    2    4    4    0    0 -0.17213224336E+03 -0.25971635279E+03  0.29117837829E+03  0.43606237364E+03  0.91013474867E+02 0.  0.
          4    1    3    3  502    0 -0.22067859412E+03  0.15612801046E+03  0.39671959399E+03  0.48006398928E+03  0.00000000000E+00 0. -1.
         -3    1    3    3    0  502 -0.55156025044E+03  0.49201728547E+03  0.90242577799E+03  0.11664784627E+04  0.00000000000E+00 0.  1.
         11    1    5    5    0    0  0.85144379998E+03 -0.32404917997E+03  0.70918509417E+03  0.11545163114E+04  0.00000000000E+00 0.  1.
        -11    1    5    5    0    0  0.92927287932E+02 -0.64379763163E+02  0.67984360705E+02  0.13191704987E+03  0.00000000000E+00 0. -1.
          1    1    6    6  503    0 -0.11370238061E+03 -0.15827882399E+03  0.23765558734E+03  0.30734442516E+03  0.00000000000E+00 0. -1.
         -1    1    6    6    0  503 -0.58429862746E+02 -0.10143752880E+03  0.53522790948E+02  0.12871794848E+03  0.00000000000E+00 0.  1.
<mgrwt>
<rscale>  0 0.23969552E+04</rscale>
<asrwt>0</asrwt>
<pdfrwt beam="1">  1        2 0.44127164E+00 0.23969552E+04</pdfrwt>
<pdfrwt beam="2">  1       -1 0.77041923E-01 0.23969552E+04</pdfrwt>
<totfact> 0.36335358E+00</totfact>
</mgrwt>
</event>
<event>
12    6  0.1403409E-007  0.1370239E+04  0.7818608E-02  0.8975648E-01
         -1   -1    0    0    0  501 -0.00000000000E+00  0.00000000000E+00  0.34396259658E+03  0.34396259658E+03  0.00000000000E+00 0.  1.
          2   -1    0    0  501    0  0.00000000000E+00 -0.00000000000E+00 -0.13646496743E+04  0.13646496743E+04  0.00000000000E+00 0. -1.
         24    2    1    2    0    0  0.10639708730E+03  0.30732962703E+03 -0.55605797636E+03  0.64870490356E+03  0.76457432553E+02 0.  0.
        254    2    1    2    0    0 -0.10639708730E+03 -0.30732962703E+03 -0.46462910136E+03  0.10599073673E+04  0.89540582176E+03 0.  0.
         23    2    4    4    0    0  0.11523389120E+02 -0.37887969662E+03  0.15444728654E+03  0.41910802972E+03  0.90083090792E+02 0.  0.
         23    2    4    4    0    0 -0.11792047643E+03  0.71550069589E+02 -0.61907638790E+03  0.64079933761E+03  0.91343121292E+02 0.  0.
          2    1    3    3  502    0  0.25352883304E+02  0.12426054091E+02 -0.45007926956E+02  0.53130866744E+02  0.00000000000E+00 0. -1.
         -1    1    3    3    0  502  0.81044204001E+02  0.29490357294E+03 -0.51105004941E+03  0.59557403682E+03  0.00000000000E+00 0.  1.
         11    1    5    5    0    0 -0.13617859310E+02 -0.70369538800E+02  0.65381941084E+02  0.97016062088E+02  0.00000000000E+00 0. -1.
        -11    1    5    5    0    0  0.25141248430E+02 -0.30851015782E+03  0.89065345457E+02  0.32209196763E+03  0.00000000000E+00 0.  1.
          4    1    6    6  503    0 -0.51387702011E+02 -0.16591664929E+02 -0.23765070366E+03  0.24370850665E+03  0.00000000000E+00 0. -1.
         -4    1    6    6    0  503 -0.66532774414E+02  0.88141734518E+02 -0.38142568424E+03  0.39709083096E+03  0.00000000000E+00 0.  1.
<mgrwt>
<rscale>  0 0.13702386E+04</rscale>
<asrwt>0</asrwt>
<pdfrwt beam="1">  1        2 0.20994610E+00 0.13702386E+04</pdfrwt>
<pdfrwt beam="2">  1       -1 0.52917322E-01 0.13702386E+04</pdfrwt>
<totfact> 0.60682900E+01</totfact>
</mgrwt>
</event>
<event>
12    6  0.1403409E-007  0.3361620E+04  0.7818608E-02  0.8147391E-01
         -3   -1    0    0    0  501 -0.00000000000E+00  0.00000000000E+00  0.11726531308E+04  0.11726531308E+04  0.00000000000E+00 0.  1.
          2   -1    0    0  501    0  0.00000000000E+00 -0.00000000000E+00 -0.24091718370E+04  0.24091718370E+04  0.00000000000E+00 0. -1.
         24    2    1    2    0    0 -0.12765368959E+04  0.28992074572E+03 -0.14756971514E+04  0.19742349509E+04  0.79505178439E+02 0.  0.
        254    2    1    2    0    0  0.12765368959E+04 -0.28992074572E+03  0.23917844517E+03  0.16075900168E+04  0.90196388416E+03 0.  0.
         23    2    4    4    0    0  0.11848891051E+04 -0.53980901067E+03  0.23749820189E+03  0.13266535719E+04  0.90820396427E+02 0.  0.
         23    2    4    4    0    0  0.91647790753E+02  0.24988826495E+03  0.16802432831E+01  0.28093644499E+03  0.89883259819E+02 0.  0.
          2    1    3    3  502    0 -0.39941284288E+03  0.57679904625E+02 -0.48097750616E+03  0.62785105868E+03  0.00000000000E+00 0. -1.
         -1    1    3    3    0  502 -0.87712405298E+03  0.23224084109E+03 -0.99471964521E+03  0.13463838922E+04  0.00000000000E+00 0.  1.
         11    1    5    5    0    0  0.10680303007E+04 -0.48409391171E+03  0.24107310202E+03  0.11971432158E+04  0.00000000000E+00 0.  1.
        -11    1    5    5    0    0  0.11685880442E+03 -0.55715098962E+02 -0.35749001273E+01  0.12951035608E+03  0.00000000000E+00 0. -1.
          1    1    6    6  503    0  0.36746374094E+02  0.17281658645E+02  0.99020664307E+01  0.41797160839E+02  0.00000000000E+00 0. -1.
         -1    1    6    6    0  503  0.54901416660E+02  0.23260660631E+03 -0.82218231475E+01  0.23913928415E+03  0.00000000000E+00 0.  1.
<mgrwt>
<rscale>  0 0.33616204E+04</rscale>
<asrwt>0</asrwt>
<pdfrwt beam="1">  1        2 0.37064182E+00 0.33616204E+04</pdfrwt>
<pdfrwt beam="2">  1       -3 0.18040818E+00 0.33616204E+04</pdfrwt>
<totfact> 0.40656121E-01</totfact>
</mgrwt>
</event>
<event>
12    6  0.1403409E-007  0.1743071E+04  0.7818608E-02  0.8737174E-01
          2   -1    0    0  501    0  0.00000000000E+00  0.00000000000E+00  0.61959184460E+03  0.61959184460E+03  0.00000000000E+00 0. -1.
         -1   -1    0    0    0  501 -0.00000000000E+00 -0.00000000000E+00 -0.12259267184E+04  0.12259267184E+04  0.00000000000E+00 0.  1.
         24    2    1    2    0    0 -0.46813311544E+03 -0.40093991367E+03 -0.39188401285E+03  0.73485833362E+03  0.80884255727E+02 0.  0.
        254    2    1    2    0    0  0.46813311544E+03  0.40093991367E+03 -0.21445086095E+03  0.11106602294E+04  0.89870770845E+03 0.  0.
         23    2    4    4    0    0  0.19110377410E+03  0.54100168140E+03 -0.42941355898E+03  0.72254907304E+03  0.92074353438E+02 0.  0.
         23    2    4    4    0    0  0.27702934134E+03 -0.14006176773E+03  0.21496269803E+03  0.38811115634E+03  0.89770559704E+02 0.  0.
          4    1    3    3  502    0 -0.45120055450E+03 -0.40095375906E+03 -0.37330087355E+03  0.70971783089E+03  0.00000000000E+00 0. -1.
         -3    1    3    3    0  502 -0.16932560933E+02  0.13845390472E-01 -0.18583139298E+02  0.25140502732E+02  0.00000000000E+00 0.  1.
         11    1    5    5    0    0  0.77576223276E+02  0.22236100293E+03 -0.23354922073E+03  0.33167412403E+03  0.00000000000E+00 0.  1.
        -11    1    5    5    0    0  0.11352755082E+03  0.31864067847E+03 -0.19586433825E+03  0.39087494902E+03  0.00000000000E+00 0. -1.
          3    1    6    6  503    0  0.15314956499E+03 -0.82177478962E+02  0.66018722511E+02  0.18592041047E+03  0.00000000000E+00 0. -1.
         -3    1    6    6    0  503  0.12387977635E+03 -0.57884288769E+02  0.14894397552E+03  0.20219074588E+03  0.00000000000E+00 0.  1.
<mgrwt>
<rscale>  0 0.17430711E+04</rscale>
<asrwt>0</asrwt>
<pdfrwt beam="1">  1        2 0.95321822E-01 0.17430711E+04</pdfrwt>
<pdfrwt beam="2">  1       -1 0.18860411E+00 0.17430711E+04</pdfrwt>
<totfact> 0.93364718E+00</totfact>
</mgrwt>
</event>
<event>
12    6  0.1403409E-007  0.1621031E+04  0.7818608E-02  0.8807731E-01
          2   -1    0    0  501    0  0.00000000000E+00  0.00000000000E+00  0.80549944635E+03  0.80549944635E+03  0.00000000000E+00 0. -1.
         -1   -1    0    0    0  501 -0.00000000000E+00 -0.00000000000E+00 -0.81556260202E+03  0.81556260202E+03  0.00000000000E+00 0.  1.
         24    2    1    2    0    0 -0.32967561787E+03 -0.42977503907E+03  0.12708773931E+03  0.56198920612E+03  0.79296765909E+02 0.  0.
        254    2    1    2    0    0  0.32967561787E+03  0.42977503907E+03 -0.13715089498E+03  0.10590728423E+04  0.89968456693E+03 0.  0.
         23    2    4    4    0    0  0.23871724115E+03 -0.90607145745E+02 -0.38282230359E+03  0.46903549670E+03  0.90806414689E+02 0.  0.
         23    2    4    4    0    0  0.90958376714E+02  0.52038218482E+03  0.24567140861E+03  0.59003734556E+03  0.93373355803E+02 0.  0.
          4    1    3    3  502    0 -0.33518837204E+02 -0.27044942989E+02  0.30675564156E+02  0.52876569717E+02  0.00000000000E+00 0. -1.
         -3    1    3    3    0  502 -0.29615678066E+03 -0.40273009609E+03  0.96412175153E+02  0.50911263640E+03  0.00000000000E+00 0.  1.
         11    1    5    5    0    0  0.31053928371E+02  0.25851416757E+01 -0.10942137331E+02  0.33026652784E+02  0.00000000000E+00 0. -1.
        -11    1    5    5    0    0  0.20766331278E+03 -0.93192287421E+02 -0.37188016626E+03  0.43600884391E+03  0.00000000000E+00 0.  1.
          3    1    6    6  503    0 -0.17710371344E+02  0.10893649970E+03  0.40037031886E+02  0.11740435316E+03  0.00000000000E+00 0. -1.
         -3    1    6    6    0  503  0.10866874806E+03  0.41144568512E+03  0.20563437672E+03  0.47263299240E+03  0.00000000000E+00 0.  1.
<mgrwt>
<rscale>  0 0.16210308E+04</rscale>
<asrwt>0</asrwt>
<pdfrwt beam="1">  1        2 0.12392299E+00 0.16210308E+04</pdfrwt>
<pdfrwt beam="2">  1       -1 0.12547117E+00 0.16210308E+04</pdfrwt>
<totfact> 0.20687241E+01</totfact>
</mgrwt>
</event>
<event>
12    6  0.1403409E-007  0.1624980E+04  0.7818608E-02  0.8805347E-01
         -1   -1    0    0    0  501 -0.00000000000E+00  0.00000000000E+00  0.30138571805E+03  0.30138571805E+03  0.00000000000E+00 0.  1.
          2   -1    0    0  501    0  0.00000000000E+00 -0.00000000000E+00 -0.21903480404E+04  0.21903480404E+04  0.00000000000E+00 0. -1.
         24    2    1    2    0    0 -0.55304343651E+03  0.77834776590E+02 -0.71560500074E+03  0.91123778906E+03  0.79677449833E+02 0.  0.
        254    2    1    2    0    0  0.55304343651E+03 -0.77834776590E+02 -0.11733573216E+04  0.15804959694E+04  0.89960258446E+03 0.  0.
         23    2    4    4    0    0  0.25685329515E+03  0.27306937207E+03 -0.82818421842E+02  0.39375367240E+03  0.87421772695E+02 0.  0.
         23    2    4    4    0    0  0.29619014136E+03 -0.35090414866E+03 -0.10905388998E+04  0.11867422970E+04  0.90663477482E+02 0.  0.
          2    1    3    3  502    0 -0.29132617088E+03  0.80656945654E+02 -0.37373053922E+03  0.48067764319E+03  0.00000000000E+00 0. -1.
         -1    1    3    3    0  502 -0.26171726563E+03 -0.28221690635E+01 -0.34187446152E+03  0.43056014587E+03  0.00000000000E+00 0.  1.
         11    1    5    5    0    0  0.12078037889E+02  0.31342860811E+02 -0.31280613107E+02  0.45899135933E+02  0.00000000000E+00 0. -1.
        -11    1    5    5    0    0  0.24477525726E+03  0.24172651126E+03 -0.51537808735E+02  0.34785453647E+03  0.00000000000E+00 0.  1.
          4    1    6    6  503    0  0.27420282499E+03 -0.27254599692E+03 -0.90835116009E+03  0.98720329199E+03  0.00000000000E+00 0.  1.
         -4    1    6    6    0  503  0.21987316371E+02 -0.78358151746E+02 -0.18218773971E+03  0.19953900502E+03  0.00000000000E+00 0. -1.
<mgrwt>
<rscale>  0 0.16249795E+04</rscale>
<asrwt>0</asrwt>
<pdfrwt beam="1">  1        2 0.33697662E+00 0.16249795E+04</pdfrwt>
<pdfrwt beam="2">  1       -1 0.46367034E-01 0.16249795E+04</pdfrwt>
<totfact> 0.26407876E+01</totfact>
</mgrwt>
</event>
<event>
12    6  0.1403409E-007  0.1516076E+04  0.7818608E-02  0.8873832E-01
          2   -1    0    0  501    0  0.00000000000E+00  0.00000000000E+00  0.18395305088E+04  0.18395305088E+04  0.00000000000E+00 0. -1.
         -1   -1    0    0    0  501 -0.00000000000E+00 -0.00000000000E+00 -0.31237416673E+03  0.31237416673E+03  0.00000000000E+00 0.  1.
         24    2    1    2    0    0  0.30728935049E+03 -0.12128210939E+03  0.10033072880E+04  0.10593514102E+04  0.80397767916E+02 0.  0.
        254    2    1    2    0    0 -0.30728935049E+03  0.12128210939E+03  0.52384905412E+03  0.10925532654E+04  0.90006594830E+03 0.  0.
         23    2    4    4    0    0 -0.38229154642E+03  0.25561591272E+03 -0.68587079478E+02  0.47394656591E+03  0.91841377195E+02 0.  0.
         23    2    4    4    0    0  0.75002195929E+02 -0.13433380332E+03  0.59243613360E+03  0.61860669951E+03  0.89569951294E+02 0.  0.
          2    1    3    3  502    0  0.11934991229E+03 -0.43345867479E+02  0.51353441658E+03  0.52899987033E+03  0.00000000000E+00 0. -1.
         -1    1    3    3    0  502  0.18793943820E+03 -0.77936241914E+02  0.48977287141E+03  0.53035153983E+03  0.00000000000E+00 0.  1.
         11    1    5    5    0    0 -0.35974400439E+03  0.26104262353E+03 -0.72732383340E+02  0.45038761038E+03  0.00000000000E+00 0. -1.
        -11    1    5    5    0    0 -0.22547542025E+02 -0.54267108069E+01  0.41453038626E+01  0.23558955530E+02  0.00000000000E+00 0.  1.
          3    1    6    6  503    0  0.50440916242E+02 -0.13909381898E+03  0.54788473395E+03  0.56751128465E+03  0.00000000000E+00 0. -1.
         -3    1    6    6    0  503  0.24561279686E+02  0.47600156579E+01  0.44551399646E+02  0.51095414856E+02  0.00000000000E+00 0.  1.
<mgrwt>
<rscale>  0 0.15160763E+04</rscale>
<asrwt>0</asrwt>
<pdfrwt beam="1">  1        2 0.28300469E+00 0.15160763E+04</pdfrwt>
<pdfrwt beam="2">  1       -1 0.48057565E-01 0.15160763E+04</pdfrwt>
<totfact> 0.39030963E+01</totfact>
</mgrwt>
</event>
<event>
12    6  0.1403409E-007  0.2015651E+04  0.7818608E-02  0.8599338E-01
          2   -1    0    0  501    0  0.00000000000E+00  0.00000000000E+00  0.12131079471E+04  0.12131079471E+04  0.00000000000E+00 0. -1.
         -1   -1    0    0    0  501 -0.00000000000E+00 -0.00000000000E+00 -0.83728091173E+03  0.83728091173E+03  0.00000000000E+00 0.  1.
         24    2    1    2    0    0 -0.30192474249E+03 -0.73020809571E+03  0.19646327131E+02  0.79434391739E+03  0.78954846317E+02 0.  0.
        254    2    1    2    0    0  0.30192474249E+03  0.73020809571E+03  0.35618070820E+03  0.12560449414E+04  0.90907743607E+03 0.  0.
         23    2    4    4    0    0  0.38732572802E+03  0.88297686561E+03  0.16612253677E+03  0.98264478635E+03  0.91239871384E+02 0.  0.
         23    2    4    4    0    0 -0.85400985534E+02 -0.15276876990E+03  0.19005817143E+03  0.27340015505E+03  0.89408673329E+02 0.  0.
          2    1    3    3  502    0 -0.18243382325E+03 -0.42454397891E+03  0.49870132399E+02  0.46476523105E+03  0.00000000000E+00 0. -1.
         -1    1    3    3    0  502 -0.11949091924E+03 -0.30566411680E+03 -0.30223805268E+02  0.32957868633E+03  0.00000000000E+00 0.  1.
         11    1    5    5    0    0  0.19372691074E+02  0.20540446438E+02  0.17692052901E+02  0.33319961512E+02  0.00000000000E+00 0. -1.
        -11    1    5    5    0    0  0.36795303695E+03  0.86243641918E+03  0.14843048387E+03  0.94932482484E+03  0.00000000000E+00 0.  1.
          3    1    6    6  503    0 -0.40423997674E+02 -0.89509074932E+01  0.67407024798E+02  0.79107049781E+02  0.00000000000E+00 0. -1.
         -3    1    6    6    0  503 -0.44976987860E+02 -0.14381786241E+03  0.12265114663E+03  0.19429310527E+03  0.00000000000E+00 0.  1.
<mgrwt>
<rscale>  0 0.20156509E+04</rscale>
<asrwt>0</asrwt>
<pdfrwt beam="1">  1        2 0.18663199E+00 0.20156509E+04</pdfrwt>
<pdfrwt beam="2">  1       -1 0.12881245E+00 0.20156509E+04</pdfrwt>
<totfact> 0.10215057E+01</totfact>
</mgrwt>
</event>
<event>
12    6  0.1403409E-007  0.1203840E+04  0.7818608E-02  0.9109502E-01
          2   -1    0    0  501    0  0.00000000000E+00  0.00000000000E+00  0.23565999517E+03  0.23565999517E+03  0.00000000000E+00 0. -1.
         -1   -1    0    0    0  501 -0.00000000000E+00 -0.00000000000E+00 -0.15374176481E+04  0.15374176481E+04  0.00000000000E+00 0.  1.
         24    2    1    2    0    0  0.13781464896E+03  0.19411289846E+03 -0.42612088880E+03  0.49446298050E+03  0.79005901019E+02 0.  0.
        254    2    1    2    0    0 -0.13781464896E+03 -0.19411289846E+03 -0.87563676416E+03  0.12786146628E+04  0.90080132014E+03 0.  0.
         23    2    4    4    0    0 -0.33636336346E+03 -0.12443863888E+03  0.22366796934E+01  0.37040153761E+03  0.92558139605E+02 0.  0.
         23    2    4    4    0    0  0.19854871449E+03 -0.69674259584E+02 -0.87787344385E+03  0.90821312519E+03  0.99565068551E+02 0.  0.
          2    1    3    3  502    0  0.76317378685E+02  0.16166907276E+03 -0.27345670869E+03  0.32671057972E+03  0.00000000000E+00 0. -1.
         -1    1    3    3    0  502  0.61497270280E+02  0.32443825706E+02 -0.15266418011E+03  0.16775240078E+03  0.00000000000E+00 0.  1.
         11    1    5    5    0    0 -0.24692893434E+03 -0.47717343852E+02 -0.11563682918E+02  0.25176290887E+03  0.00000000000E+00 0. -1.
        -11    1    5    5    0    0 -0.89434429114E+02 -0.76721295027E+02  0.13800362612E+02  0.11863862874E+03  0.00000000000E+00 0.  1.
          2    1    6    6  503    0  0.87552069752E+02 -0.75911410480E+02 -0.34743371941E+03  0.36624868128E+03  0.00000000000E+00 0. -1.
         -2    1    6    6    0  503  0.11099664474E+03  0.62371508963E+01 -0.53043972444E+03  0.54196444391E+03  0.00000000000E+00 0.  1.
<mgrwt>
<rscale>  0 0.12038402E+04</rscale>
<asrwt>0</asrwt>
<pdfrwt beam="1">  1        2 0.36255384E-01 0.12038402E+04</pdfrwt>
<pdfrwt beam="2">  1       -1 0.23652579E+00 0.12038402E+04</pdfrwt>
<totfact> 0.13926841E+01</totfact>
</mgrwt>
</event>
<event>
12    6  0.1403409E-007  0.2417096E+04  0.7818608E-02  0.8433131E-01
          2   -1    0    0  501    0  0.00000000000E+00  0.00000000000E+00  0.18023282367E+04  0.18023282367E+04  0.00000000000E+00 0. -1.
         -1   -1    0    0    0  501 -0.00000000000E+00 -0.00000000000E+00 -0.81038997354E+03  0.81038997354E+03  0.00000000000E+00 0.  1.
         24    2    1    2    0    0  0.27176347717E+03 -0.57430798960E+03  0.13138511623E+04  0.14615523896E+04  0.79028201567E+02 0.  0.
        254    2    1    2    0    0 -0.27176347717E+03  0.57430798960E+03 -0.32191289909E+03  0.11511658206E+04  0.90436153031E+03 0.  0.
         23    2    4    4    0    0  0.66154007176E+02  0.14576111337E+03 -0.52938960961E+03  0.56091856559E+03  0.93560801738E+02 0.  0.
         23    2    4    4    0    0 -0.33791748434E+03  0.42854687623E+03  0.20747671052E+03  0.59024725503E+03  0.86629009642E+02 0.  0.
          2    1    3    3  502    0  0.12819683039E+03 -0.33568324874E+03  0.80285261931E+03  0.87959649791E+03  0.00000000000E+00 0. -1.
         -1    1    3    3    0  502  0.14356664677E+03 -0.23862474086E+03  0.51099854295E+03  0.58195589172E+03  0.00000000000E+00 0.  1.
         11    1    5    5    0    0 -0.11009177319E+02  0.64106357369E+02 -0.27896801811E+03  0.28645066272E+03  0.00000000000E+00 0.  1.
        -11    1    5    5    0    0  0.77163184496E+02  0.81654756002E+02 -0.25042159149E+03  0.27446790287E+03  0.00000000000E+00 0. -1.
          3    1    6    6  503    0 -0.10441637050E+03  0.74231705992E+02  0.42743254624E+02  0.13505595292E+03  0.00000000000E+00 0. -1.
         -3    1    6    6    0  503 -0.23350111384E+03  0.35431517024E+03  0.16473345589E+03  0.45519130211E+03  0.00000000000E+00 0.  1.
<mgrwt>
<rscale>  0 0.24170964E+04</rscale>
<asrwt>0</asrwt>
<pdfrwt beam="1">  1        2 0.27728127E+00 0.24170964E+04</pdfrwt>
<pdfrwt beam="2">  1       -1 0.12467538E+00 0.24170964E+04</pdfrwt>
<totfact> 0.49534168E+00</totfact>
</mgrwt>
</event>
<event>
12    6  0.1403409E-007  0.2633152E+04  0.7818608E-02  0.8357027E-01
          2   -1    0    0  501    0  0.00000000000E+00  0.00000000000E+00  0.23736846619E+04  0.23736846619E+04  0.00000000000E+00 0. -1.
         -1   -1    0    0    0  501 -0.00000000000E+00 -0.00000000000E+00 -0.73024562549E+03  0.73024562549E+03  0.00000000000E+00 0.  1.
         24    2    1    2    0    0 -0.99174734458E+03  0.60635987963E+03  0.71844337226E+03  0.13689726374E+04  0.81793054303E+02 0.  0.
        254    2    1    2    0    0  0.99174734458E+03 -0.60635987963E+03  0.92499566413E+03  0.17349576499E+04  0.89622874835E+03 0.  0.
         23    2    4    4    0    0  0.46420011104E+03 -0.38537245430E+03  0.97824156930E+03  0.11530363525E+04  0.92426136169E+02 0.  0.
         23    2    4    4    0    0  0.52754723353E+03 -0.22098742533E+03 -0.53245905178E+02  0.58192129745E+03  0.93036252299E+02 0.  0.
          4    1    3    3  502    0 -0.83494380932E+03  0.54129281677E+03  0.62739911100E+03  0.11763327432E+04  0.00000000000E+00 0. -1.
         -1    1    3    3    0  502 -0.15680353526E+03  0.65067062864E+02  0.91044261258E+02  0.19263989422E+03  0.00000000000E+00 0.  1.
         11    1    5    5    0    0  0.29461223372E+03 -0.29895100849E+03  0.65623810882E+03  0.77898429330E+03  0.00000000000E+00 0. -1.
        -11    1    5    5    0    0  0.16958787732E+03 -0.86421445809E+02  0.32200346048E+03  0.37405205920E+03  0.00000000000E+00 0.  1.
          3    1    6    6  503    0  0.42505493717E+03 -0.18739756387E+03 -0.70411228745E+01  0.46458489425E+03  0.00000000000E+00 0. -1.
         -3    1    6    6    0  503  0.10249229636E+03 -0.33589861457E+02 -0.46204782303E+02  0.11733640319E+03  0.00000000000E+00 0.  1.
<mgrwt>
<rscale>  0 0.26331524E+04</rscale>
<asrwt>0</asrwt>
<pdfrwt beam="1">  1        2 0.36518225E+00 0.26331524E+04</pdfrwt>
<pdfrwt beam="2">  1       -1 0.11234548E+00 0.26331524E+04</pdfrwt>
<totfact> 0.29964937E+00</totfact>
</mgrwt>
</event>
<event>
12    6  0.1403409E-007  0.3275210E+04  0.7818608E-02  0.8169232E-01
         -1   -1    0    0    0  501 -0.00000000000E+00  0.00000000000E+00  0.10351959855E+04  0.10351959855E+04  0.00000000000E+00 0.  1.
          2   -1    0    0  501    0  0.00000000000E+00 -0.00000000000E+00 -0.25905724742E+04  0.25905724742E+04  0.00000000000E+00 0. -1.
         24    2    1    2    0    0 -0.10445871446E+04 -0.10666554054E+04 -0.99624537203E+03  0.17967327113E+04  0.82628916937E+02 0.  0.
        254    2    1    2    0    0  0.10445871446E+04  0.10666554054E+04 -0.55913111665E+03  0.18290357484E+04  0.89656461385E+03 0.  0.
         23    2    4    4    0    0  0.37514675010E+03  0.12192541071E+03  0.18978878014E+03  0.44719351317E+03  0.91440512168E+02 0.  0.
         23    2    4    4    0    0  0.66944039447E+03  0.94472999470E+03 -0.74891989679E+03  0.13818422352E+04  0.89116477842E+02 0.  0.
          2    1    3    3  502    0 -0.66226603305E+03 -0.70301083239E+03 -0.68572126644E+03  0.11844974395E+04  0.00000000000E+00 0. -1.
         -1    1    3    3    0  502 -0.38232111152E+03 -0.36364457302E+03 -0.31052410559E+03  0.61223527173E+03  0.00000000000E+00 0.  1.
         11    1    5    5    0    0  0.29976250981E+03  0.10992884038E+03  0.11239191959E+03  0.33848760069E+03  0.00000000000E+00 0. -1.
        -11    1    5    5    0    0  0.75384240293E+02  0.11996570329E+02  0.77396860549E+02  0.10870591248E+03  0.00000000000E+00 0.  1.
          4    1    6    6  503    0  0.11264014066E+03  0.21526165511E+03 -0.17591766228E+03  0.29995400539E+03  0.00000000000E+00 0. -1.
         -4    1    6    6    0  503  0.55680025381E+03  0.72946833959E+03 -0.57300223451E+03  0.10818882298E+04  0.00000000000E+00 0.  1.
<mgrwt>
<rscale>  0 0.32752101E+04</rscale>
<asrwt>0</asrwt>
<pdfrwt beam="1">  1        2 0.39854960E+00 0.32752101E+04</pdfrwt>
<pdfrwt beam="2">  1       -1 0.15926092E+00 0.32752101E+04</pdfrwt>
<totfact> 0.86749734E-01</totfact>
</mgrwt>
</event>
<event>
12    6  0.1403409E-007  0.2110716E+04  0.7818608E-02  0.8556538E-01
         -1   -1    0    0    0  501 -0.00000000000E+00  0.00000000000E+00  0.57011853145E+03  0.57011853145E+03  0.00000000000E+00 0.  1.
          2   -1    0    0  501    0  0.00000000000E+00 -0.00000000000E+00 -0.19535942701E+04  0.19535942701E+04  0.00000000000E+00 0. -1.
         24    2    1    2    0    0 -0.44230184984E+03 -0.50048931077E+03  0.83614077308E+02  0.67784457856E+03  0.79758900362E+02 0.  0.
        254    2    1    2    0    0  0.44230184984E+03  0.50048931077E+03 -0.14670898159E+04  0.18458682230E+04  0.89930889685E+03 0.  0.
         23    2    4    4    0    0  0.27621260974E+03  0.50643674639E+03 -0.28721362004E+03  0.65081933218E+03  0.91118361107E+02 0.  0.
         23    2    4    4    0    0  0.16608924010E+03 -0.59474356139E+01 -0.11798761959E+04  0.11950488908E+04  0.91722440305E+02 0.  0.
          2    1    3    3  502    0 -0.11107523500E+03 -0.78033246225E+02  0.21525454518E+02  0.13744177145E+03  0.00000000000E+00 0. -1.
         -1    1    3    3    0  502 -0.33122661484E+03 -0.42245606455E+03  0.62088622790E+02  0.54040280711E+03  0.00000000000E+00 0.  1.
         11    1    5    5    0    0  0.14104984435E+03  0.18962622567E+03 -0.83511438146E+02  0.25065379381E+03  0.00000000000E+00 0.  1.
        -11    1    5    5    0    0  0.13516276539E+03  0.31681052072E+03 -0.20370218190E+03  0.40016553836E+03  0.00000000000E+00 0. -1.
          4    1    6    6  503    0  0.11091458365E+03  0.37323990386E+02 -0.63668654033E+03  0.64735220380E+03  0.00000000000E+00 0.  1.
         -4    1    6    6    0  503  0.55174656457E+02 -0.43271426000E+02 -0.54318965556E+03  0.54769668699E+03  0.00000000000E+00 0. -1.
<mgrwt>
<rscale>  0 0.21107158E+04</rscale>
<asrwt>0</asrwt>
<pdfrwt beam="1">  1        2 0.30055296E+00 0.21107158E+04</pdfrwt>
<pdfrwt beam="2">  1       -1 0.87710544E-01 0.21107158E+04</pdfrwt>
<totfact> 0.95010451E+00</totfact>
</mgrwt>
</event>
<event>
12    6  0.1403409E-007  0.1416491E+04  0.7818608E-02  0.8941967E-01
          2   -1    0    0  501    0  0.00000000000E+00  0.00000000000E+00  0.68946140459E+03  0.68946140459E+03  0.00000000000E+00 0. -1.
         -1   -1    0    0    0  501 -0.00000000000E+00 -0.00000000000E+00 -0.72754113859E+03  0.72754113859E+03  0.00000000000E+00 0.  1.
         24    2    1    2    0    0  0.33699512443E+03 -0.16595318238E+03 -0.19119762377E+03  0.42911839516E+03  0.80497783150E+02 0.  0.
        254    2    1    2    0    0 -0.33699512443E+03  0.16595318238E+03  0.15311788977E+03  0.98788414802E+03  0.90075736417E+03 0.  0.
         23    2    4    4    0    0  0.25446295145E+03 -0.12669950036E+03 -0.21444515596E+02  0.29937910818E+03  0.91453956226E+02 0.  0.
         23    2    4    4    0    0 -0.59145807588E+03  0.29265268275E+03  0.17456240537E+03  0.68850503984E+03  0.89993934674E+02 0.  0.
          4    1    3    3  502    0  0.46883071433E+02 -0.49959026949E+02 -0.14004338186E+02  0.69928879933E+02  0.00000000000E+00 0. -1.
         -3    1    3    3    0  502  0.29011205300E+03 -0.11599415544E+03 -0.17719328559E+03  0.35918951522E+03  0.00000000000E+00 0.  1.
         11    1    5    5    0    0  0.18400563088E+03 -0.42628567860E+02 -0.15925455446E+02  0.18954916809E+03  0.00000000000E+00 0.  1.
        -11    1    5    5    0    0  0.70457320574E+02 -0.84070932502E+02 -0.55190601491E+01  0.10982994009E+03  0.00000000000E+00 0. -1.
          1    1    6    6  503    0 -0.14760826788E+03  0.82810114973E+02  0.85193716015E+02  0.18948267767E+03  0.00000000000E+00 0. -1.
         -1    1    6    6    0  503 -0.44384980801E+03  0.20984256777E+03  0.89368689353E+02  0.49902236218E+03  0.00000000000E+00 0.  1.
<mgrwt>
<rscale>  0 0.14164908E+04</rscale>
<asrwt>0</asrwt>
<pdfrwt beam="1">  1        2 0.10607099E+00 0.14164908E+04</pdfrwt>
<pdfrwt beam="2">  1       -1 0.11192941E+00 0.14164908E+04</pdfrwt>
<totfact> 0.33978347E+01</totfact>
</mgrwt>
</event>
<event>
12    6  0.1403409E-007  0.2903646E+04  0.7818608E-02  0.8271793E-01
          2   -1    0    0  501    0  0.00000000000E+00  0.00000000000E+00  0.40119148551E+04  0.40119148551E+04  0.00000000000E+00 0. -1.
         -1   -1    0    0    0  501 -0.00000000000E+00 -0.00000000000E+00 -0.52538261390E+03  0.52538261390E+03  0.00000000000E+00 0.  1.
         24    2    1    2    0    0 -0.69968897031E+03 -0.85041213015E+03  0.26849974297E+04  0.29036785986E+04  0.96813017240E+02 0.  0.
        254    2    1    2    0    0  0.69968897031E+03  0.85041213015E+03  0.80153481154E+03  0.16336188704E+04  0.90193520467E+03 0.  0.
         23    2    4    4    0    0  0.76700472871E+03  0.49392435782E+03  0.22282803195E+03  0.94381598424E+03  0.94227146684E+02 0.  0.
         23    2    4    4    0    0 -0.67315758395E+02  0.35648777233E+03  0.57870677959E+03  0.68980288619E+03  0.96496331026E+02 0.  0.
          4    1    3    3  502    0 -0.58662372419E+03 -0.76011696857E+03  0.23657702144E+04  0.25531889681E+04  0.00000000000E+00 0. -1.
         -3    1    3    3    0  502 -0.11306524613E+03 -0.90295161578E+02  0.31922721529E+03  0.35048963047E+03  0.00000000000E+00 0.  1.
         11    1    5    5    0    0  0.27393977335E+03  0.20437753356E+03  0.12378944180E+03  0.36350653577E+03  0.00000000000E+00 0.  1.
        -11    1    5    5    0    0  0.49306495536E+03  0.28954682426E+03  0.99038590152E+02  0.58030944847E+03  0.00000000000E+00 0. -1.
          4    1    6    6  503    0 -0.54231759819E+02  0.34305976180E+03  0.57328101174E+03  0.67028516496E+03  0.00000000000E+00 0. -1.
         -4    1    6    6    0  503 -0.13083998577E+02  0.13428010525E+02  0.54257678584E+01  0.19517721236E+02  0.00000000000E+00 0.  1.
<mgrwt>
<rscale>  0 0.29036462E+04</rscale>
<asrwt>0</asrwt>
<pdfrwt beam="1">  1        2 0.61721765E+00 0.29036462E+04</pdfrwt>
<pdfrwt beam="2">  1       -1 0.80828097E-01 0.29036462E+04</pdfrwt>
<totfact> 0.50056885E-01</totfact>
</mgrwt>
</event>
<event>
12    6  0.1403409E-007  0.1939317E+04  0.7818608E-02  0.8635530E-01
          2   -1    0    0  501    0  0.00000000000E+00  0.00000000000E+00  0.15567536194E+04  0.15567536194E+04  0.00000000000E+00 0. -1.
         -1   -1    0    0    0  501 -0.00000000000E+00 -0.00000000000E+00 -0.60397335465E+03  0.60397335465E+03  0.00000000000E+00 0.  1.
         24    2    1    2    0    0  0.77717363356E+02 -0.73196356645E+03  0.56039387909E+03  0.92889116460E+03  0.83587348177E+02 0.  0.
        254    2    1    2    0    0 -0.77717363356E+02  0.73196356645E+03  0.39238638567E+03  0.12318358095E+04  0.90644455683E+03 0.  0.
         23    2    4    4    0    0 -0.52385745338E+02 -0.94958632277E+02 -0.17470578762E+03  0.22478284137E+03  0.90795404020E+02 0.  0.
         23    2    4    4    0    0 -0.25331618018E+02  0.82692219873E+03  0.56709217329E+03  0.10070529681E+04  0.90111785530E+02 0.  0.
          4    1    3    3  502    0  0.63338635042E+02 -0.62383564067E+03  0.51215672983E+03  0.80962164322E+03  0.00000000000E+00 0. -1.
         -3    1    3    3    0  502  0.14378728314E+02 -0.10812792579E+03  0.48237149254E+02  0.11926952138E+03  0.00000000000E+00 0.  1.
         11    1    5    5    0    0  0.13318419564E+02  0.60406433701E+01 -0.28547255541E+01  0.14900306373E+02  0.00000000000E+00 0.  1.
        -11    1    5    5    0    0 -0.65704164902E+02 -0.10099927565E+03 -0.17185106206E+03  0.20988253500E+03  0.00000000000E+00 0. -1.
          2    1    6    6  503    0 -0.52687179108E+02  0.42223152636E+03  0.26464265498E+03  0.50108994754E+03  0.00000000000E+00 0.  1.
         -2    1    6    6    0  503  0.27355561090E+02  0.40469067238E+03  0.30244951831E+03  0.50596302054E+03  0.00000000000E+00 0. -1.
<mgrwt>
<rscale>  0 0.19393171E+04</rscale>
<asrwt>0</asrwt>
<pdfrwt beam="1">  1        2 0.23950055E+00 0.19393171E+04</pdfrwt>
<pdfrwt beam="2">  1       -1 0.92918978E-01 0.19393171E+04</pdfrwt>
<totfact> 0.14114157E+01</totfact>
</mgrwt>
</event>
<event>
12    6  0.1403409E-007  0.2107561E+04  0.7818608E-02  0.8557920E-01
         -1   -1    0    0    0  501 -0.00000000000E+00  0.00000000000E+00  0.82160617391E+03  0.82160617391E+03  0.00000000000E+00 0.  1.
          2   -1    0    0  501    0  0.00000000000E+00 -0.00000000000E+00 -0.13515641100E+04  0.13515641100E+04  0.00000000000E+00 0. -1.
         24    2    1    2    0    0  0.84295803876E+03 -0.16741997991E+03 -0.23003585481E+03  0.89328484508E+03  0.80209819716E+02 0.  0.
        254    2    1    2    0    0 -0.84295803876E+03  0.16741997991E+03 -0.29992208133E+03  0.12798854389E+04  0.89974761850E+03 0.  0.
         23    2    4    4    0    0 -0.36086991052E+03 -0.36286594908E+03 -0.16081016028E+03  0.54412423282E+03  0.91172823698E+02 0.  0.
         23    2    4    4    0    0 -0.48208812824E+03  0.53028592899E+03 -0.13911192105E+03  0.73576120605E+03  0.91543956019E+02 0.  0.
          4    1    3    3  502    0  0.34508720268E+03 -0.40517718766E+02 -0.63758017075E+02  0.35325903772E+03  0.00000000000E+00 0. -1.
         -3    1    3    3    0  502  0.49787083608E+03 -0.12690226115E+03 -0.16627783773E+03  0.54002580737E+03  0.00000000000E+00 0.  1.
         11    1    5    5    0    0 -0.22273196430E+02 -0.59741691064E+02 -0.34235762429E+02  0.72368863190E+02  0.00000000000E+00 0.  1.
        -11    1    5    5    0    0 -0.33859671409E+03 -0.30312425801E+03 -0.12657439785E+03  0.47175536963E+03  0.00000000000E+00 0. -1.
          2    1    6    6  503    0 -0.19108907239E+03  0.21633850709E+03 -0.10698390940E+02  0.28884570069E+03  0.00000000000E+00 0.  1.
         -2    1    6    6    0  503 -0.29099905584E+03  0.31394742190E+03 -0.12841353011E+03  0.44691550537E+03  0.00000000000E+00 0. -1.
<mgrwt>
<rscale>  0 0.21075611E+04</rscale>
<asrwt>0</asrwt>
<pdfrwt beam="1">  1        2 0.20793294E+00 0.21075611E+04</pdfrwt>
<pdfrwt beam="2">  1       -1 0.12640095E+00 0.21075611E+04</pdfrwt>
<totfact> 0.88151188E+00</totfact>
</mgrwt>
</event>
<event>
12    6  0.1403409E-007  0.1820999E+04  0.7818608E-02  0.8695212E-01
          2   -1    0    0  501    0  0.00000000000E+00  0.00000000000E+00  0.93540942434E+03  0.93540942434E+03  0.00000000000E+00 0. -1.
         -1   -1    0    0    0  501 -0.00000000000E+00 -0.00000000000E+00 -0.88625263515E+03  0.88625263515E+03  0.00000000000E+00 0.  1.
         24    2    1    2    0    0  0.24026786360E+03 -0.59891162955E+03 -0.21267054858E+03  0.68396043922E+03  0.78417688648E+02 0.  0.
        254    2    1    2    0    0 -0.24026786360E+03  0.59891162955E+03  0.26182733777E+03  0.11377016203E+04  0.89965973328E+03 0.  0.
         23    2    4    4    0    0 -0.52166818720E+03  0.56115918327E+03  0.53078078446E+02  0.77355906237E+03  0.92406785768E+02 0.  0.
         23    2    4    4    0    0  0.28140032359E+03  0.37752446278E+02  0.20874925932E+03  0.36414255791E+03  0.91717827571E+02 0.  0.
          4    1    3    3  502    0  0.13971649624E+02 -0.58906674006E+02  0.13785123536E+01  0.60556614271E+02  0.00000000000E+00 0. -1.
         -3    1    3    3    0  502  0.22629621398E+03 -0.54000495554E+03 -0.21404906093E+03  0.62340382495E+03  0.00000000000E+00 0.  1.
         11    1    5    5    0    0 -0.67545183548E+02  0.61111258604E+02  0.35759227440E+02  0.97855301828E+02  0.00000000000E+00 0. -1.
        -11    1    5    5    0    0 -0.45412300365E+03  0.50004792467E+03  0.17318851006E+02  0.67570376054E+03  0.00000000000E+00 0.  1.
          2    1    6    6  503    0  0.11557442886E+03  0.25289302950E+02  0.34409555708E+02  0.12321126156E+03  0.00000000000E+00 0. -1.
         -2    1    6    6    0  503  0.16582589473E+03  0.12463143328E+02  0.17433970362E+03  0.24093129635E+03  0.00000000000E+00 0.  1.
<mgrwt>
<rscale>  0 0.18209987E+04</rscale>
<asrwt>0</asrwt>
<pdfrwt beam="1">  1        2 0.14390914E+00 0.18209987E+04</pdfrwt>
<pdfrwt beam="2">  1       -1 0.13634656E+00 0.18209987E+04</pdfrwt>
<totfact> 0.13406769E+01</totfact>
</mgrwt>
</event>
<event>
12    6  0.1403409E-007  0.2059469E+04  0.7818608E-02  0.8579311E-01
          2   -1    0    0  501    0  0.00000000000E+00  0.00000000000E+00  0.13545458025E+04  0.13545458025E+04  0.00000000000E+00 0. -1.
         -1   -1    0    0    0  501 -0.00000000000E+00 -0.00000000000E+00 -0.78281121729E+03  0.78281121729E+03  0.00000000000E+00 0.  1.
         24    2    1    2    0    0  0.61917580008E+02  0.76110525068E+02 -0.62492018654E+03  0.63758451872E+03  0.79763276199E+02 0.  0.
        254    2    1    2    0    0 -0.61917580008E+02 -0.76110525068E+02  0.11966547718E+04  0.14997725011E+04  0.89872593902E+03 0.  0.
         23    2    4    4    0    0 -0.42935666327E+03  0.12681626638E+03  0.46786472498E+03  0.65375191455E+03  0.89803425251E+02 0.  0.
         23    2    4    4    0    0  0.36743908326E+03 -0.20292679145E+03  0.72879004678E+03  0.84602058653E+03  0.91788550209E+02 0.  0.
          2    1    3    3  502    0  0.11736409041E+02  0.33539763127E+02 -0.67392432866E+02  0.76186606535E+02  0.00000000000E+00 0. -1.
         -1    1    3    3    0  502  0.50181170967E+02  0.42570761941E+02 -0.55752775367E+03  0.56139791218E+03  0.00000000000E+00 0.  1.
         11    1    5    5    0    0 -0.42044002061E+03  0.13483365707E+03  0.43963079687E+03  0.62307717304E+03  0.00000000000E+00 0. -1.
        -11    1    5    5    0    0 -0.89166426557E+01 -0.80173906971E+01  0.28233928116E+02  0.30674741510E+02  0.00000000000E+00 0.  1.
          2    1    6    6  503    0  0.36367958718E+03 -0.18646945346E+03  0.71742264617E+03  0.82566879101E+03  0.00000000000E+00 0. -1.
         -2    1    6    6    0  503  0.37594960779E+01 -0.16457337982E+02  0.11367400610E+02  0.20351795519E+02  0.00000000000E+00 0.  1.
<mgrwt>
<rscale>  0 0.20594695E+04</rscale>
<asrwt>0</asrwt>
<pdfrwt beam="1">  1        2 0.20839166E+00 0.20594695E+04</pdfrwt>
<pdfrwt beam="2">  1       -1 0.12043250E+00 0.20594695E+04</pdfrwt>
<totfact> 0.99384018E+00</totfact>
</mgrwt>
</event>
<event>
12    6  0.1403409E-007  0.1100251E+04  0.7818608E-02  0.9204947E-01
         -1   -1    0    0    0  501 -0.00000000000E+00  0.00000000000E+00  0.56040003479E+03  0.56040003479E+03  0.00000000000E+00 0.  1.
          2   -1    0    0  501    0  0.00000000000E+00 -0.00000000000E+00 -0.54003931939E+03  0.54003931939E+03  0.00000000000E+00 0. -1.
         24    2    1    2    0    0  0.28322132802E+02 -0.12350842516E+03 -0.99180615552E+02  0.18384788513E+03  0.88920054384E+02 0.  0.
        254    2    1    2    0    0 -0.28322132802E+02  0.12350842516E+03  0.11954133095E+03  0.91659146906E+03  0.89988516881E+03 0.  0.
         23    2    4    4    0    0  0.32727318740E+03 -0.33451489043E+02 -0.20834253485E+03  0.40001709917E+03  0.91544123178E+02 0.  0.
         23    2    4    4    0    0 -0.35559532020E+03  0.15695991421E+03  0.32788386580E+03  0.51657436989E+03  0.90866956307E+02 0.  0.
          2    1    3    3  502    0  0.39994044711E+02 -0.13124312577E+03 -0.10006871813E+03  0.16981763755E+03  0.00000000000E+00 0. -1.
         -1    1    3    3    0  502 -0.11671911909E+02  0.77347006028E+01  0.88810257806E+00  0.14030247582E+02  0.00000000000E+00 0.  1.
         11    1    5    5    0    0  0.32817292778E+03 -0.38440300371E+02 -0.19035056060E+03  0.38132461649E+03  0.00000000000E+00 0.  1.
        -11    1    5    5    0    0 -0.89974038108E+00  0.49888113276E+01 -0.17991974249E+02  0.18692482676E+02  0.00000000000E+00 0. -1.
          2    1    6    6  503    0 -0.49486849328E+02 -0.10010960701E+02  0.41816534721E+02  0.65557533256E+02  0.00000000000E+00 0. -1.
         -2    1    6    6    0  503 -0.30610847088E+03  0.16697087491E+03  0.28606733108E+03  0.45101683663E+03  0.00000000000E+00 0.  1.
<mgrwt>
<rscale>  0 0.11002510E+04</rscale>
<asrwt>0</asrwt>
<pdfrwt beam="1">  1        2 0.83082972E-01 0.11002510E+04</pdfrwt>
<pdfrwt beam="2">  1       -1 0.86215390E-01 0.11002510E+04</pdfrwt>
<totfact> 0.84816003E+01</totfact>
</mgrwt>
</event>
<event>
12    6  0.1403409E-007  0.1605566E+04  0.7818608E-02  0.8817136E-01
         -1   -1    0    0    0  501 -0.00000000000E+00  0.00000000000E+00  0.12475461386E+04  0.12475461386E+04  0.00000000000E+00 0.  1.
          2   -1    0    0  501    0  0.00000000000E+00 -0.00000000000E+00 -0.51658255031E+03  0.51658255031E+03  0.00000000000E+00 0. -1.
         24    2    1    2    0    0 -0.20133846385E+03 -0.49137604408E+03  0.10982943442E+03  0.54802651156E+03  0.79265118312E+02 0.  0.
        254    2    1    2    0    0  0.20133846385E+03  0.49137604408E+03  0.62113415389E+03  0.12161021774E+04  0.90061605303E+03 0.  0.
         23    2    4    4    0    0  0.47011912429E+03  0.15095370699E+02  0.37932640424E+03  0.61124032624E+03  0.92121410252E+02 0.  0.
         23    2    4    4    0    0 -0.26878066044E+03  0.47628067339E+03  0.24180774965E+03  0.60486185114E+03  0.91107342758E+02 0.  0.
          4    1    3    3  502    0 -0.12557464685E+03 -0.24540993422E+03  0.23968541017E+02  0.27671197788E+03  0.00000000000E+00 0. -1.
         -3    1    3    3    0  502 -0.75763817000E+02 -0.24596610986E+03  0.85860893401E+02  0.27131453368E+03  0.00000000000E+00 0.  1.
         11    1    5    5    0    0  0.19143719336E+03 -0.13568852989E+02  0.10330198860E+03  0.21795323724E+03  0.00000000000E+00 0.  1.
        -11    1    5    5    0    0  0.27868193092E+03  0.28664223687E+02  0.27602441564E+03  0.39328708900E+03  0.00000000000E+00 0. -1.
          1    1    6    6  503    0 -0.99499562442E+02  0.20940546062E+03  0.56957918989E+02  0.23873628631E+03  0.00000000000E+00 0. -1.
         -1    1    6    6    0  503 -0.16928109800E+03  0.26687521276E+03  0.18484983066E+03  0.36612556483E+03  0.00000000000E+00 0.  1.
<mgrwt>
<rscale>  0 0.16055660E+04</rscale>
<asrwt>0</asrwt>
<pdfrwt beam="1">  1        2 0.79474239E-01 0.16055660E+04</pdfrwt>
<pdfrwt beam="2">  1       -1 0.19193017E+00 0.16055660E+04</pdfrwt>
<totfact> 0.11121313E+01</totfact>
</mgrwt>
</event>
<event>
12    6  0.1403409E-007  0.2677449E+04  0.7818608E-02  0.8342359E-01
         -1   -1    0    0    0  501 -0.00000000000E+00  0.00000000000E+00  0.60531931798E+03  0.60531931798E+03  0.00000000000E+00 0.  1.
          2   -1    0    0  501    0  0.00000000000E+00 -0.00000000000E+00 -0.29607240036E+04  0.29607240036E+04  0.00000000000E+00 0. -1.
         24    2    1    2    0    0  0.17000473300E+03  0.11040836170E+04 -0.51853674351E+03  0.12342118166E+04  0.80599076693E+02 0.  0.
        254    2    1    2    0    0 -0.17000473300E+03 -0.11040836170E+04 -0.18368679421E+04  0.23318315050E+04  0.90302385809E+03 0.  0.
         23    2    4    4    0    0 -0.49025895050E+03 -0.36864587250E+03 -0.92746904424E+03  0.11155405311E+04  0.89320941518E+02 0.  0.
         23    2    4    4    0    0  0.32025421750E+03 -0.73543774454E+03 -0.90939889786E+03  0.12162909739E+04  0.94477181717E+02 0.  0.
          4    1    3    3  502    0  0.12378653257E+03  0.54912280786E+03 -0.27275225479E+03  0.62550200340E+03  0.00000000000E+00 0. -1.
         -3    1    3    3    0  502  0.46218200433E+02  0.55496080917E+03 -0.24578448871E+03  0.60870981317E+03  0.00000000000E+00 0.  1.
         11    1    5    5    0    0 -0.17243296776E+02 -0.11359175195E+02 -0.70970382695E+02  0.73913174500E+02  0.00000000000E+00 0. -1.
        -11    1    5    5    0    0 -0.47301565372E+03 -0.35728669730E+03 -0.85649866154E+03  0.10416273566E+04  0.00000000000E+00 0.  1.
          1    1    6    6  503    0  0.94440565111E+02 -0.28301682924E+03 -0.39460951649E+03  0.49470619207E+03  0.00000000000E+00 0. -1.
         -1    1    6    6    0  503  0.22581365239E+03 -0.45242091530E+03 -0.51478938137E+03  0.72158478184E+03  0.00000000000E+00 0.  1.
<mgrwt>
<rscale>  0 0.26774491E+04</rscale>
<asrwt>0</asrwt>
<pdfrwt beam="1">  1        2 0.45549600E+00 0.26774491E+04</pdfrwt>
<pdfrwt beam="2">  1       -1 0.93126048E-01 0.26774491E+04</pdfrwt>
<totfact> 0.20606488E+00</totfact>
</mgrwt>
</event>
<event>
12    6  0.1403409E-007  0.1410719E+04  0.7818608E-02  0.8946096E-01
          2   -1    0    0  501    0  0.00000000000E+00  0.00000000000E+00  0.22072229514E+04  0.22072229514E+04  0.00000000000E+00 0. -1.
         -1   -1    0    0    0  501 -0.00000000000E+00 -0.00000000000E+00 -0.22541083479E+03  0.22541083479E+03  0.00000000000E+00 0.  1.
         24    2    1    2    0    0  0.74047844188E+02  0.39535387830E+03  0.76099047226E+03  0.86438685195E+03  0.79185596221E+02 0.  0.
        254    2    1    2    0    0 -0.74047844188E+02 -0.39535387830E+03  0.12208216444E+04  0.15682469343E+04  0.89844598453E+03 0.  0.
         23    2    4    4    0    0  0.59720767107E+02 -0.58794583776E+00 -0.11742652526E+03  0.16360993952E+03  0.97017048866E+02 0.  0.
         23    2    4    4    0    0 -0.13376861129E+03 -0.39476593246E+03  0.13382481697E+04  0.14046369947E+04  0.91448021459E+02 0.  0.
          2    1    3    3  502    0  0.20916081033E+02  0.19187183251E+03  0.44208248285E+03  0.48237869377E+03  0.00000000000E+00 0. -1.
         -1    1    3    3    0  502  0.53131763155E+02  0.20348204578E+03  0.31890798940E+03  0.38200815818E+03  0.00000000000E+00 0.  1.
         11    1    5    5    0    0  0.81361612160E+02  0.15373723200E+02 -0.67204585309E+02  0.10664201604E+03  0.00000000000E+00 0. -1.
        -11    1    5    5    0    0 -0.21640845054E+02 -0.15961669038E+02 -0.50221939955E+02  0.56967923483E+02  0.00000000000E+00 0.  1.
          4    1    6    6  503    0 -0.81407770421E+02 -0.22261613188E+03  0.60862178557E+03  0.65315055319E+03  0.00000000000E+00 0. -1.
         -4    1    6    6    0  503 -0.52360840874E+02 -0.17214980058E+03  0.72962638408E+03  0.75148644156E+03  0.00000000000E+00 0.  1.
<mgrwt>
<rscale>  0 0.14107189E+04</rscale>
<asrwt>0</asrwt>
<pdfrwt beam="1">  1        2 0.33957275E+00 0.14107189E+04</pdfrwt>
<pdfrwt beam="2">  1       -1 0.34678591E-01 0.14107189E+04</pdfrwt>
<totfact> 0.44776273E+01</totfact>
</mgrwt>
</event>
<event>
12    6  0.1403409E-007  0.2457429E+04  0.7818608E-02  0.8418310E-01
         -1   -1    0    0    0  501 -0.00000000000E+00  0.00000000000E+00  0.83246423677E+03  0.83246423677E+03  0.00000000000E+00 0.  1.
          2   -1    0    0  501    0  0.00000000000E+00 -0.00000000000E+00 -0.18135791851E+04  0.18135791851E+04  0.00000000000E+00 0. -1.
         24    2    1    2    0    0 -0.30377953202E+03  0.66085403716E+03  0.40736548482E+03  0.83745857387E+03  0.79875917625E+02 0.  0.
        254    2    1    2    0    0  0.30377953202E+03 -0.66085403716E+03 -0.13884804332E+04  0.18085848480E+04  0.90227001318E+03 0.  0.
         23    2    4    4    0    0 -0.13214185408E+03 -0.63911232441E+03 -0.10849256559E+04  0.12694480035E+04  0.92241650071E+02 0.  0.
         23    2    4    4    0    0  0.43592138610E+03 -0.21741712742E+02 -0.30355477723E+03  0.53913684446E+03  0.89570516011E+02 0.  0.
          4    1    3    3  502    0 -0.22664574159E+03  0.51311806204E+03  0.27553740499E+03  0.62496343839E+03  0.00000000000E+00 0. -1.
         -3    1    3    3    0  502 -0.77133790437E+02  0.14773597511E+03  0.13182807983E+03  0.21249513548E+03  0.00000000000E+00 0.  1.
         11    1    5    5    0    0 -0.27911301780E+02 -0.34080927956E+03 -0.52589419539E+03  0.62729156741E+03  0.00000000000E+00 0.  1.
        -11    1    5    5    0    0 -0.10423055230E+03 -0.29830304485E+03 -0.55903146054E+03  0.64215643614E+03  0.00000000000E+00 0. -1.
          1    1    6    6  503    0  0.61250962255E+02 -0.31091818741E+02 -0.29081204148E+02  0.74592881728E+02  0.00000000000E+00 0. -1.
         -1    1    6    6    0  503  0.37467042385E+03  0.93501059996E+01 -0.27447357308E+03  0.46454396273E+03  0.00000000000E+00 0.  1.
<mgrwt>
<rscale>  0 0.24574294E+04</rscale>
<asrwt>0</asrwt>
<pdfrwt beam="1">  1        2 0.27901218E+00 0.24574294E+04</pdfrwt>
<pdfrwt beam="2">  1       -1 0.12807142E+00 0.24574294E+04</pdfrwt>
<totfact> 0.45497847E+00</totfact>
</mgrwt>
</event>
<event>
12    6  0.1403409E-007  0.3204788E+04  0.7818608E-02  0.8187554E-01
          2   -1    0    0  501    0  0.00000000000E+00  0.00000000000E+00  0.48880334070E+04  0.48880334070E+04  0.00000000000E+00 0. -1.
         -1   -1    0    0    0  501 -0.00000000000E+00 -0.00000000000E+00 -0.52529628724E+03  0.52529628724E+03  0.00000000000E+00 0.  1.
         24    2    1    2    0    0  0.79109822354E+03  0.60222914278E+03  0.38523233537E+04  0.39791397312E+04  0.68128110260E+02 0.  0.
        254    2    1    2    0    0 -0.79109822354E+03 -0.60222914278E+03  0.51041376604E+03  0.14341899630E+04  0.89881160301E+03 0.  0.
         23    2    4    4    0    0 -0.83360041673E+03 -0.72913125607E+03  0.58635908572E+03  0.12565478508E+04  0.92593091932E+02 0.  0.
         23    2    4    4    0    0  0.42502193184E+02  0.12690211329E+03 -0.75945319682E+02  0.17764211217E+03  0.88760608672E+02 0.  0.
          4    1    3    3  502    0  0.75576160160E+03  0.56724201069E+03  0.37069924593E+04  0.38255368500E+04  0.00000000000E+00 0. -1.
         -3    1    3    3    0  502  0.35336621940E+02  0.34987132086E+02  0.14533089436E+03  0.15360288121E+03  0.00000000000E+00 0.  1.
         11    1    5    5    0    0 -0.92633812087E+02 -0.66843699332E+02  0.91435802915E+02  0.14632022873E+03  0.00000000000E+00 0. -1.
        -11    1    5    5    0    0 -0.74096660464E+03 -0.66228755673E+03  0.49492328280E+03  0.11102276221E+04  0.00000000000E+00 0.  1.
          1    1    6    6  503    0  0.22377557640E+01  0.67615354959E+02  0.70124658410E+01  0.68014839956E+02  0.00000000000E+00 0. -1.
         -1    1    6    6    0  503  0.40264437420E+02  0.59286758330E+02 -0.82957785523E+02  0.10962727221E+03  0.00000000000E+00 0.  1.
<mgrwt>
<rscale>  0 0.32047875E+04</rscale>
<asrwt>0</asrwt>
<pdfrwt beam="1">  1        2 0.75200511E+00 0.32047875E+04</pdfrwt>
<pdfrwt beam="2">  1       -1 0.80814817E-01 0.32047875E+04</pdfrwt>
<totfact> 0.68441324E-02</totfact>
</mgrwt>
</event>
<event>
12    6  0.1403409E-007  0.1651522E+04  0.7818608E-02  0.8789507E-01
          2   -1    0    0  501    0  0.00000000000E+00  0.00000000000E+00  0.37326910631E+04  0.37326910631E+04  0.00000000000E+00 0. -1.
         -1   -1    0    0    0  501 -0.00000000000E+00 -0.00000000000E+00 -0.18267814726E+03  0.18267814726E+03  0.00000000000E+00 0.  1.
         24    2    1    2    0    0  0.26301642322E+03 -0.31144765786E+03  0.28427198068E+03  0.50301998954E+03  0.77725596884E+02 0.  0.
        254    2    1    2    0    0 -0.26301642322E+03  0.31144765786E+03  0.32657409351E+04  0.34123492208E+04  0.90160194471E+03 0.  0.
         23    2    4    4    0    0  0.14416029312E+03  0.31908906702E+03  0.26105032945E+04  0.26354935711E+04  0.92189422599E+02 0.  0.
         23    2    4    4    0    0 -0.40717671634E+03 -0.76414091686E+01  0.65523764057E+03  0.77685564967E+03  0.91197945926E+02 0.  0.
          4    1    3    3  502    0  0.32981315770E+02 -0.11435540327E+02  0.39165819526E+02  0.52464275384E+02  0.00000000000E+00 0. -1.
         -3    1    3    3    0  502  0.23003510746E+03 -0.30001211753E+03  0.24510616116E+03  0.45055571416E+03  0.00000000000E+00 0.  1.
         11    1    5    5    0    0  0.10103973113E+03  0.27864705982E+03  0.19565703436E+04  0.19788938124E+04  0.00000000000E+00 0.  1.
        -11    1    5    5    0    0  0.43120561995E+02  0.40442007200E+02  0.65393295097E+03  0.65659975874E+03  0.00000000000E+00 0. -1.
          4    1    6    6  503    0 -0.21264040898E+03 -0.31022658354E+01  0.25667913061E+03  0.33333128218E+03  0.00000000000E+00 0. -1.
         -4    1    6    6    0  503 -0.19453630737E+03 -0.45391433332E+01  0.39855850995E+03  0.44352436749E+03  0.00000000000E+00 0.  1.
<mgrwt>
<rscale>  0 0.16515218E+04</rscale>
<asrwt>0</asrwt>
<pdfrwt beam="1">  1        2 0.57426011E+00 0.16515218E+04</pdfrwt>
<pdfrwt beam="2">  1       -1 0.28104333E-01 0.16515218E+04</pdfrwt>
<totfact> 0.69645311E+00</totfact>
</mgrwt>
</event>
<event>
12    6  0.1403409E-007  0.2907525E+04  0.7818608E-02  0.8270642E-01
          2   -1    0    0  501    0  0.00000000000E+00  0.00000000000E+00  0.40900984218E+04  0.40900984218E+04  0.00000000000E+00 0. -1.
         -1   -1    0    0    0  501 -0.00000000000E+00 -0.00000000000E+00 -0.51671766908E+03  0.51671766908E+03  0.00000000000E+00 0.  1.
         24    2    1    2    0    0 -0.11144134803E+04 -0.35690705199E+03  0.67003584192E+03  0.13507918634E+04  0.79941101792E+02 0.  0.
        254    2    1    2    0    0  0.11144134803E+04  0.35690705199E+03  0.29033449108E+04  0.32560242276E+04  0.89609265719E+03 0.  0.
         23    2    4    4    0    0  0.25207944630E+03 -0.38523483716E+02  0.16986879422E+04  0.17200780942E+04  0.89998995197E+02 0.  0.
         23    2    4    4    0    0  0.86233403403E+03  0.39543053571E+03  0.12046569686E+04  0.15359461334E+04  0.89144925087E+02 0.  0.
          4    1    3    3  502    0 -0.69482911252E+03 -0.23973198405E+03  0.46067815049E+03  0.86745794026E+03  0.00000000000E+00 0. -1.
         -3    1    3    3    0  502 -0.41958436780E+03 -0.11717506794E+03  0.20935769144E+03  0.48333392310E+03  0.00000000000E+00 0.  1.
         11    1    5    5    0    0  0.24057309312E+03 -0.23506000329E+02  0.13938727293E+04  0.14146763343E+04  0.00000000000E+00 0.  1.
        -11    1    5    5    0    0  0.11506353181E+02 -0.15017483387E+02  0.30481521288E+03  0.30540175994E+03  0.00000000000E+00 0. -1.
          1    1    6    6  503    0  0.86556461983E+02  0.60978490306E+02  0.16903723338E+03  0.19945922806E+03  0.00000000000E+00 0. -1.
         -1    1    6    6    0  503  0.77577757205E+03  0.33445204540E+03  0.10356197353E+04  0.13364869053E+04  0.00000000000E+00 0.  1.
<mgrwt>
<rscale>  0 0.29075255E+04</rscale>
<asrwt>0</asrwt>
<pdfrwt beam="1">  1        2 0.62924589E+00 0.29075255E+04</pdfrwt>
<pdfrwt beam="2">  1       -1 0.79495029E-01 0.29075255E+04</pdfrwt>
<totfact> 0.44701478E-01</totfact>
</mgrwt>
</event>
<event>
12    6  0.1403409E-007  0.1651830E+04  0.7818608E-02  0.8789325E-01
          2   -1    0    0  501    0  0.00000000000E+00  0.00000000000E+00  0.86015495685E+03  0.86015495685E+03  0.00000000000E+00 0. -1.
         -1   -1    0    0    0  501 -0.00000000000E+00 -0.00000000000E+00 -0.79303814176E+03  0.79303814176E+03  0.00000000000E+00 0.  1.
         24    2    1    2    0    0  0.54322486105E+03  0.11036425717E+03  0.19348128511E+03  0.59257431737E+03  0.80223406753E+02 0.  0.
        254    2    1    2    0    0 -0.54322486105E+03 -0.11036425717E+03 -0.12636447002E+03  0.10606187812E+04  0.89536065409E+03 0.  0.
         23    2    4    4    0    0 -0.95295711712E+02  0.33260682268E+03  0.12298099173E+03  0.37707536559E+03  0.85749261506E+02 0.  0.
         23    2    4    4    0    0 -0.44792914934E+03 -0.44297107984E+03 -0.24934546174E+03  0.68354341564E+03  0.90523706107E+02 0.  0.
          2    1    3    3  502    0  0.35846010654E+03  0.10979155046E+03  0.11857495438E+03  0.39320205027E+03  0.00000000000E+00 0. -1.
         -1    1    3    3    0  502  0.18476475451E+03  0.57270670571E+00  0.74906330726E+02  0.19937226709E+03  0.00000000000E+00 0.  1.
         11    1    5    5    0    0 -0.87297524805E+02  0.15832260335E+03  0.77994847133E+02  0.19690124618E+03  0.00000000000E+00 0.  1.
        -11    1    5    5    0    0 -0.79981869079E+01  0.17428421933E+03  0.44986144592E+02  0.18017411941E+03  0.00000000000E+00 0. -1.
          4    1    6    6  503    0 -0.33834742604E+03 -0.37630987335E+03 -0.22089122380E+03  0.55216033382E+03  0.00000000000E+00 0.  1.
         -4    1    6    6    0  503 -0.10958172330E+03 -0.66661206493E+02 -0.28454237942E+02  0.13138308182E+03  0.00000000000E+00 0. -1.
<mgrwt>
<rscale>  0 0.16518301E+04</rscale>
<asrwt>0</asrwt>
<pdfrwt beam="1">  1        2 0.13233153E+00 0.16518301E+04</pdfrwt>
<pdfrwt beam="2">  1       -1 0.12200587E+00 0.16518301E+04</pdfrwt>
<totfact> 0.20236213E+01</totfact>
</mgrwt>
</event>
<event>
12    6  0.1403409E-007  0.2327831E+04  0.7818608E-02  0.8467028E-01
         -1   -1    0    0    0  501 -0.00000000000E+00  0.00000000000E+00  0.34460654041E+03  0.34460654041E+03  0.00000000000E+00 0.  1.
          2   -1    0    0  501    0  0.00000000000E+00 -0.00000000000E+00 -0.39311476423E+04  0.39311476423E+04  0.00000000000E+00 0. -1.
         24    2    1    2    0    0  0.48186293644E+03  0.62973435239E+03 -0.26105506822E+04  0.27295362121E+04  0.81460571178E+02 0.  0.
        254    2    1    2    0    0 -0.48186293644E+03 -0.62973435239E+03 -0.97599041964E+03  0.15462179706E+04  0.89970854683E+03 0.  0.
         23    2    4    4    0    0 -0.47463485809E+03 -0.22557539418E+03 -0.54622200100E+02  0.53581400051E+03  0.89165864704E+02 0.  0.
         23    2    4    4    0    0 -0.72280783481E+01 -0.40415895821E+03 -0.92136821954E+03  0.10104039701E+04  0.92736606272E+02 0.  0.
          4    1    3    3  502    0  0.43334479739E+03  0.59548265633E+03 -0.24526580153E+04  0.25608433469E+04  0.00000000000E+00 0. -1.
         -3    1    3    3    0  502  0.48518139044E+02  0.34251696058E+02 -0.15789266696E+03  0.16869286523E+03  0.00000000000E+00 0.  1.
         11    1    5    5    0    0 -0.21857463114E+03 -0.80315021911E+02  0.14843642258E+02  0.23333603631E+03  0.00000000000E+00 0.  1.
        -11    1    5    5    0    0 -0.25606022695E+03 -0.14526037227E+03 -0.69465842358E+02  0.30247796421E+03  0.00000000000E+00 0. -1.
          4    1    6    6  503    0  0.18729850365E+02 -0.20915631334E+03 -0.57389525234E+03  0.61110795393E+03  0.00000000000E+00 0. -1.
         -4    1    6    6    0  503 -0.25957928713E+02 -0.19500264486E+03 -0.34747296720E+03  0.39929601614E+03  0.00000000000E+00 0.  1.
<mgrwt>
<rscale>  0 0.23278309E+04</rscale>
<asrwt>0</asrwt>
<pdfrwt beam="1">  1        2 0.60479193E+00 0.23278309E+04</pdfrwt>
<pdfrwt beam="2">  1       -1 0.53016392E-01 0.23278309E+04</pdfrwt>
<totfact> 0.14412221E+00</totfact>
</mgrwt>
</event>
<event>
12    6  0.1403409E-007  0.1279110E+04  0.7818608E-02  0.9046297E-01
         -1   -1    0    0    0  501 -0.00000000000E+00  0.00000000000E+00  0.14995681677E+03  0.14995681677E+03  0.00000000000E+00 0.  1.
          2   -1    0    0  501    0  0.00000000000E+00 -0.00000000000E+00 -0.27276548707E+04  0.27276548707E+04  0.00000000000E+00 0. -1.
         24    2    1    2    0    0 -0.30657094865E+03 -0.41246081460E+02 -0.56905570798E+03  0.65256626339E+03  0.79569740100E+02 0.  0.
        254    2    1    2    0    0  0.30657094865E+03  0.41246081460E+02 -0.20086423460E+04  0.22250454241E+04  0.90581238650E+03 0.  0.
         23    2    4    4    0    0  0.19705806236E+03 -0.35092845885E+03 -0.44713311260E+03  0.60871225192E+03  0.92843535480E+02 0.  0.
         23    2    4    4    0    0  0.10951288629E+03  0.39217454031E+03 -0.15615092334E+04  0.16163331722E+04  0.91803569052E+02 0.  0.
          4    1    3    3  502    0 -0.11514442178E+03  0.11006859702E+02 -0.26921899252E+03  0.29301579268E+03  0.00000000000E+00 0. -1.
         -3    1    3    3    0  502 -0.19142652687E+03 -0.52252941162E+02 -0.29983671547E+03  0.35955047071E+03  0.00000000000E+00 0.  1.
         11    1    5    5    0    0  0.19501023241E+03 -0.35643411807E+03 -0.44469559942E+03  0.60235242792E+03  0.00000000000E+00 0. -1.
        -11    1    5    5    0    0  0.20478299483E+01  0.55056592164E+01 -0.24375131805E+01  0.63598240077E+01  0.00000000000E+00 0.  1.
          2    1    6    6  503    0  0.57888175759E+02  0.32918699376E+03 -0.13099966231E+04  0.13519638568E+04  0.00000000000E+00 0. -1.
         -2    1    6    6    0  503  0.51624710527E+02  0.62987546549E+02 -0.25151261033E+03  0.26436931537E+03  0.00000000000E+00 0.  1.
<mgrwt>
<rscale>  0 0.12791098E+04</rscale>
<asrwt>0</asrwt>
<pdfrwt beam="1">  1        2 0.41963919E+00 0.12791098E+04</pdfrwt>
<pdfrwt beam="2">  1       -1 0.23070280E-01 0.12791098E+04</pdfrwt>
<totfact> 0.46289018E+01</totfact>
</mgrwt>
</event>
<event>
12    6  0.1403409E-007  0.2687861E+04  0.7818608E-02  0.8338954E-01
          2   -1    0    0  501    0  0.00000000000E+00  0.00000000000E+00  0.22673518751E+04  0.22673518751E+04  0.00000000000E+00 0. -1.
         -1   -1    0    0    0  501 -0.00000000000E+00 -0.00000000000E+00 -0.79658978491E+03  0.79658978491E+03  0.00000000000E+00 0.  1.
         24    2    1    2    0    0 -0.10335215122E+04 -0.58612425636E+03  0.77302132953E+03  0.14197106933E+04  0.79423651857E+02 0.  0.
        254    2    1    2    0    0  0.10335215122E+04  0.58612425636E+03  0.69774076069E+03  0.16442309668E+04  0.89718723958E+03 0.  0.
         23    2    4    4    0    0  0.21272784752E+03  0.61870364884E+03  0.26440378357E+03  0.71121907905E+03  0.88746129159E+02 0.  0.
         23    2    4    4    0    0  0.82079366472E+03 -0.32579392480E+02  0.43333697712E+03  0.93301188774E+03  0.89255756511E+02 0.  0.
          2    1    3    3  502    0 -0.63434700569E+03 -0.38609429692E+03  0.51931265791E+03  0.90617358514E+03  0.00000000000E+00 0. -1.
         -1    1    3    3    0  502 -0.39917450656E+03 -0.20002995944E+03  0.25370867162E+03  0.51353710812E+03  0.00000000000E+00 0.  1.
         11    1    5    5    0    0  0.27792128502E+02  0.17146635165E+03  0.42621789915E+02  0.17885672795E+03  0.00000000000E+00 0.  1.
        -11    1    5    5    0    0  0.18493571902E+03  0.44723729718E+03  0.22178199365E+03  0.53236235110E+03  0.00000000000E+00 0. -1.
          4    1    6    6  503    0  0.19715518024E+03 -0.24185356150E+02  0.66685608511E+02  0.20952820080E+03  0.00000000000E+00 0. -1.
         -4    1    6    6    0  503  0.62363848448E+03 -0.83940363298E+01  0.36665136861E+03  0.72348368695E+03  0.00000000000E+00 0.  1.
<mgrwt>
<rscale>  0 0.26878611E+04</rscale>
<asrwt>0</asrwt>
<pdfrwt beam="1">  1        2 0.34882336E+00 0.26878611E+04</pdfrwt>
<pdfrwt beam="2">  1       -1 0.12255228E+00 0.26878611E+04</pdfrwt>
<totfact> 0.27768494E+00</totfact>
</mgrwt>
</event>
<event>
12    6  0.1403409E-007  0.1988577E+04  0.7818608E-02  0.8611980E-01
          2   -1    0    0  501    0  0.00000000000E+00  0.00000000000E+00  0.13162442719E+04  0.13162442719E+04  0.00000000000E+00 0. -1.
         -1   -1    0    0    0  501 -0.00000000000E+00 -0.00000000000E+00 -0.75108351015E+03  0.75108351015E+03  0.00000000000E+00 0.  1.
         24    2    1    2    0    0  0.54680391514E+02  0.43957900334E+03 -0.44809742555E+03  0.63539296395E+03  0.81934549915E+02 0.  0.
        254    2    1    2    0    0 -0.54680391514E+02 -0.43957900334E+03  0.10132581873E+04  0.14319348181E+04  0.90968429896E+03 0.  0.
         23    2    4    4    0    0 -0.45354323086E+03 -0.37234255241E+03  0.52414576433E+03  0.79098710378E+03  0.81187298733E+02 0.  0.
         23    2    4    4    0    0  0.39886283935E+03 -0.67236450925E+02  0.48911242297E+03  0.64094771433E+03  0.89278806305E+02 0.  0.
          2    1    3    3  502    0 -0.13584879343E+02  0.91833814350E+02 -0.12599610433E+03  0.15650244954E+03  0.00000000000E+00 0. -1.
         -1    1    3    3    0  502  0.68265270857E+02  0.34774518899E+03 -0.32210132122E+03  0.47889051442E+03  0.00000000000E+00 0.  1.
         11    1    5    5    0    0 -0.31051096278E+03 -0.22830992979E+03  0.38586407261E+03  0.54537470108E+03  0.00000000000E+00 0.  1.
        -11    1    5    5    0    0 -0.14303226808E+03 -0.14403262262E+03  0.13828169172E+03  0.24561240270E+03  0.00000000000E+00 0. -1.
          2    1    6    6  503    0  0.35465723539E+03 -0.57642748969E+02  0.38074407425E+03  0.52351742206E+03  0.00000000000E+00 0.  1.
         -2    1    6    6    0  503  0.44205603955E+02 -0.95937019560E+01  0.10836834871E+03  0.11743029226E+03  0.00000000000E+00 0. -1.
<mgrwt>
<rscale>  0 0.19885767E+04</rscale>
<asrwt>0</asrwt>
<pdfrwt beam="1">  1        2 0.20249912E+00 0.19885767E+04</pdfrwt>
<pdfrwt beam="2">  1       -1 0.11555131E+00 0.19885767E+04</pdfrwt>
<totfact> 0.11634503E+01</totfact>
</mgrwt>
</event>
<event>
12    6  0.1403409E-007  0.1215041E+04  0.7818608E-02  0.9099792E-01
          2   -1    0    0  501    0  0.00000000000E+00  0.00000000000E+00  0.17912671441E+04  0.17912671441E+04  0.00000000000E+00 0. -1.
         -1   -1    0    0    0  501 -0.00000000000E+00 -0.00000000000E+00 -0.20604459439E+03  0.20604459439E+03  0.00000000000E+00 0.  1.
         24    2    1    2    0    0 -0.26208673809E+03 -0.37535871629E+02  0.40909848726E+03  0.49388998472E+03  0.80419803472E+02 0.  0.
        254    2    1    2    0    0  0.26208673809E+03  0.37535871629E+02  0.11761240625E+04  0.15034217538E+04  0.89828211576E+03 0.  0.
         23    2    4    4    0    0  0.56611407365E+03 -0.97328606136E+02  0.63248630273E+03  0.85955749044E+03  0.94032729737E+02 0.  0.
         23    2    4    4    0    0 -0.30402733556E+03  0.13486447776E+03  0.54363775975E+03  0.64386426336E+03  0.91641298967E+02 0.  0.
          4    1    3    3  502    0 -0.12014196199E+03 -0.42451576957E+02  0.25012770165E+03  0.28071354536E+03  0.00000000000E+00 0. -1.
         -3    1    3    3    0  502 -0.14194477611E+03  0.49157053281E+01  0.15897078561E+03  0.21317643936E+03  0.00000000000E+00 0.  1.
         11    1    5    5    0    0  0.44183222786E+03 -0.10802267900E+03  0.46219683319E+03  0.64846783217E+03  0.00000000000E+00 0.  1.
        -11    1    5    5    0    0  0.12428184580E+03  0.10694072867E+02  0.17028946954E+03  0.21108965826E+03  0.00000000000E+00 0. -1.
          2    1    6    6  503    0 -0.95078385966E+02  0.55221361767E+01  0.11057131973E+03  0.14593289626E+03  0.00000000000E+00 0. -1.
         -2    1    6    6    0  503 -0.20894894959E+03  0.12934234159E+03  0.43306644003E+03  0.49793136710E+03  0.00000000000E+00 0.  1.
<mgrwt>
<rscale>  0 0.12150406E+04</rscale>
<asrwt>0</asrwt>
<pdfrwt beam="1">  1        2 0.27557955E+00 0.12150406E+04</pdfrwt>
<pdfrwt beam="2">  1       -1 0.31699170E-01 0.12150406E+04</pdfrwt>
<totfact> 0.90744819E+01</totfact>
</mgrwt>
</event>
<event>
12    6  0.1403409E-007  0.3519658E+04  0.7818608E-02  0.8109147E-01
         -1   -1    0    0    0  501 -0.00000000000E+00  0.00000000000E+00  0.69676922244E+03  0.69676922244E+03  0.00000000000E+00 0.  1.
          2   -1    0    0  501    0  0.00000000000E+00 -0.00000000000E+00 -0.44447968765E+04  0.44447968765E+04  0.00000000000E+00 0. -1.
         24    2    1    2    0    0 -0.12707129358E+04  0.79141639927E+03 -0.75621276776E+03  0.16790405235E+04  0.79171000424E+02 0.  0.
        254    2    1    2    0    0  0.12707129358E+04 -0.79141639927E+03 -0.29918148863E+04  0.34625255754E+04  0.89279099686E+03 0.  0.
         23    2    4    4    0    0  0.32593807021E+03  0.12528207231E+03 -0.10865811240E+04  0.11449526583E+04  0.91251451321E+02 0.  0.
         23    2    4    4    0    0  0.94477486561E+03 -0.91669847158E+03 -0.19052337622E+04  0.23175729171E+04  0.91065375977E+02 0.  0.
          2    1    3    3  502    0 -0.13947117903E+03  0.95964094797E+02 -0.11301240551E+03  0.20355127381E+03  0.00000000000E+00 0. -1.
         -1    1    3    3    0  502 -0.11312417568E+04  0.69545230447E+03 -0.64320036224E+03  0.14754892497E+04  0.00000000000E+00 0.  1.
         11    1    5    5    0    0  0.15069204696E+03  0.61594407646E+02 -0.65283747196E+03  0.67282890014E+03  0.00000000000E+00 0.  1.
        -11    1    5    5    0    0  0.17524602325E+03  0.63687664668E+02 -0.43374365208E+03  0.47212375815E+03  0.00000000000E+00 0. -1.
          2    1    6    6  503    0  0.80229121286E+03 -0.74887632338E+03 -0.16316889829E+04  0.19664424413E+04  0.00000000000E+00 0. -1.
         -2    1    6    6    0  503  0.14248365274E+03 -0.16782214821E+03 -0.27354477932E+03  0.35113047578E+03  0.00000000000E+00 0.  1.
<mgrwt>
<rscale>  0 0.35196577E+04</rscale>
<asrwt>0</asrwt>
<pdfrwt beam="1">  1        2 0.68381490E+00 0.35196577E+04</pdfrwt>
<pdfrwt beam="2">  1       -1 0.10719527E+00 0.35196577E+04</pdfrwt>
<totfact> 0.10462398E-01</totfact>
</mgrwt>
</event>
<event>
12    6  0.1403409E-007  0.1403308E+04  0.7818608E-02  0.8951427E-01
          2   -1    0    0  501    0  0.00000000000E+00  0.00000000000E+00  0.16832902323E+04  0.16832902323E+04  0.00000000000E+00 0. -1.
         -1   -1    0    0    0  501 -0.00000000000E+00 -0.00000000000E+00 -0.29247388470E+03  0.29247388470E+03  0.00000000000E+00 0.  1.
         24    2    1    2    0    0 -0.28378992491E+03  0.79259268744E+02  0.15991506381E+02  0.30667922692E+03  0.83532429530E+02 0.  0.
        254    2    1    2    0    0  0.28378992491E+03 -0.79259268744E+02  0.13748248413E+04  0.16690848901E+04  0.89937882626E+03 0.  0.
         23    2    4    4    0    0  0.10377038057E+02  0.34022872885E+03  0.92949299972E+03  0.99401000488E+03  0.90749007760E+02 0.  0.
         23    2    4    4    0    0  0.27341288685E+03 -0.41948799760E+03  0.44533184153E+03  0.67507488524E+03  0.81736557169E+02 0.  0.
          2    1    3    3  502    0 -0.16826070889E+03  0.52605884023E+01 -0.16675798573E+01  0.16835118286E+03  0.00000000000E+00 0. -1.
         -1    1    3    3    0  502 -0.11552921602E+03  0.73998680342E+02  0.17659086238E+02  0.13832804406E+03  0.00000000000E+00 0.  1.
         11    1    5    5    0    0 -0.18126513710E+02  0.29423639365E+03  0.82933872678E+03  0.88017404506E+03  0.00000000000E+00 0.  1.
        -11    1    5    5    0    0  0.28503551767E+02  0.45992335198E+02  0.10015427294E+03  0.11383595982E+03  0.00000000000E+00 0. -1.
          4    1    6    6  503    0  0.69648442300E+02 -0.17873236670E+03  0.16135716594E+03  0.25066371780E+03  0.00000000000E+00 0. -1.
         -4    1    6    6    0  503  0.20376444455E+03 -0.24075563089E+03  0.28397467559E+03  0.42441116744E+03  0.00000000000E+00 0.  1.
<mgrwt>
<rscale>  0 0.14033081E+04</rscale>
<asrwt>0</asrwt>
<pdfrwt beam="1">  1        2 0.25896772E+00 0.14033081E+04</pdfrwt>
<pdfrwt beam="2">  1       -1 0.44995983E-01 0.14033081E+04</pdfrwt>
<totfact> 0.54403705E+01</totfact>
</mgrwt>
</event>
<event>
12    6  0.1403409E-007  0.2467440E+04  0.7818608E-02  0.8414678E-01
          2   -1    0    0  501    0  0.00000000000E+00  0.00000000000E+00  0.14917780737E+04  0.14917780737E+04  0.00000000000E+00 0. -1.
         -1   -1    0    0    0  501 -0.00000000000E+00 -0.00000000000E+00 -0.10203027535E+04  0.10203027535E+04  0.00000000000E+00 0.  1.
         24    2    1    2    0    0 -0.82232140696E+03  0.67893089055E+03  0.14824124223E+03  0.10797358900E+04  0.81819776235E+02 0.  0.
        254    2    1    2    0    0  0.82232140696E+03 -0.67893089055E+03  0.32323407800E+03  0.14323449372E+04  0.89998449950E+03 0.  0.
         23    2    4    4    0    0  0.38023756901E+03 -0.82498222240E+03  0.28472191880E+03  0.95603047136E+03  0.88042120379E+02 0.  0.
         23    2    4    4    0    0  0.44208383795E+03  0.14605133186E+03  0.38512159196E+02  0.47631446579E+03  0.92861039202E+02 0.  0.
          4    1    3    3  502    0 -0.25706982558E+03  0.16580961797E+03  0.51645639936E+02  0.31023377760E+03  0.00000000000E+00 0. -1.
         -3    1    3    3    0  502 -0.56525158138E+03  0.51312127258E+03  0.96595602296E+02  0.76950211241E+03  0.00000000000E+00 0.  1.
         11    1    5    5    0    0  0.99592905892E+02 -0.20136905618E+03  0.11038085426E+03  0.25030416831E+03  0.00000000000E+00 0.  1.
        -11    1    5    5    0    0  0.28064466312E+03 -0.62361316623E+03  0.17434106455E+03  0.70572630305E+03  0.00000000000E+00 0. -1.
          4    1    6    6  503    0  0.29059635660E+03  0.57421247179E+02  0.50101090120E+02  0.30042230497E+03  0.00000000000E+00 0. -1.
         -4    1    6    6    0  503  0.15148748136E+03  0.88630084678E+02 -0.11588930924E+02  0.17589216082E+03  0.00000000000E+00 0.  1.
<mgrwt>
<rscale>  0 0.24674402E+04</rscale>
<asrwt>0</asrwt>
<pdfrwt beam="1">  1        2 0.22950432E+00 0.24674402E+04</pdfrwt>
<pdfrwt beam="2">  1       -1 0.15696965E+00 0.24674402E+04</pdfrwt>
<totfact> 0.40281200E+00</totfact>
</mgrwt>
</event>
<event>
12    6  0.1403409E-007  0.1970641E+04  0.7818608E-02  0.8620471E-01
         -1   -1    0    0    0  501 -0.00000000000E+00  0.00000000000E+00  0.42561518793E+03  0.42561518793E+03  0.00000000000E+00 0.  1.
          2   -1    0    0  501    0  0.00000000000E+00 -0.00000000000E+00 -0.22810662724E+04  0.22810662724E+04  0.00000000000E+00 0. -1.
         24    2    1    2    0    0 -0.59467893441E+03 -0.49571862394E+03 -0.83788793588E+03  0.11443703147E+04  0.90262034321E+02 0.  0.
        254    2    1    2    0    0  0.59467893441E+03  0.49571862394E+03 -0.10175631486E+04  0.15623111456E+04  0.89777578789E+03 0.  0.
         23    2    4    4    0    0  0.18808271076E+02  0.50803912215E+03 -0.19018790122E+03  0.55062409947E+03  0.92509245245E+02 0.  0.
         23    2    4    4    0    0  0.57587066334E+03 -0.12320498211E+02 -0.82737524735E+03  0.10116870462E+04  0.84747058299E+02 0.  0.
          4    1    3    3  502    0 -0.40198352890E+01 -0.27986935731E+01 -0.23751930211E+02  0.24251720562E+02  0.00000000000E+00 0. -1.
         -3    1    3    3    0  502 -0.59065909912E+03 -0.49291993036E+03 -0.81413600567E+03  0.11201185941E+04  0.00000000000E+00 0.  1.
         11    1    5    5    0    0  0.10219453199E+02  0.53208847977E+02 -0.52222979549E+02  0.75251965553E+02  0.00000000000E+00 0.  1.
        -11    1    5    5    0    0  0.85888178771E+01  0.45483027417E+03 -0.13796492167E+03  0.47537213392E+03  0.00000000000E+00 0. -1.
          4    1    6    6  503    0  0.48830856519E+03  0.19386257029E+02 -0.68109110875E+03  0.83827571849E+03  0.00000000000E+00 0. -1.
         -4    1    6    6    0  503  0.87562098148E+02 -0.31706755240E+02 -0.14628413861E+03  0.17341132768E+03  0.00000000000E+00 0.  1.
<mgrwt>
<rscale>  0 0.19706410E+04</rscale>
<asrwt>0</asrwt>
<pdfrwt beam="1">  1        2 0.35093327E+00 0.19706410E+04</pdfrwt>
<pdfrwt beam="2">  1       -1 0.65479260E-01 0.19706410E+04</pdfrwt>
<totfact> 0.11650725E+01</totfact>
</mgrwt>
</event>
<event>
12    6  0.1403409E-007  0.1105942E+04  0.7818608E-02  0.9199420E-01
         -1   -1    0    0    0  501 -0.00000000000E+00  0.00000000000E+00  0.12049477523E+03  0.12049477523E+03  0.00000000000E+00 0.  1.
          2   -1    0    0  501    0  0.00000000000E+00 -0.00000000000E+00 -0.25376765868E+04  0.25376765868E+04  0.00000000000E+00 0. -1.
         24    2    1    2    0    0  0.75464394472E+02  0.13731940104E+03 -0.25316508037E+03  0.30963152379E+03  0.85015468429E+02 0.  0.
        254    2    1    2    0    0 -0.75464394472E+02 -0.13731940104E+03 -0.21640167312E+04  0.23485398383E+04  0.89895465190E+03 0.  0.
         23    2    4    4    0    0 -0.18351186520E+03  0.27478075958E+03 -0.15942021798E+04  0.16304769377E+04  0.88280142923E+02 0.  0.
         23    2    4    4    0    0  0.10804747072E+03 -0.41210016062E+03 -0.56981455144E+03  0.71806290063E+03  0.97081964925E+02 0.  0.
          2    1    3    3  502    0 -0.97747987597E+01  0.41273958132E+02 -0.10682257583E+03  0.11493541238E+03  0.00000000000E+00 0. -1.
         -1    1    3    3    0  502  0.85239193232E+02  0.96045442907E+02 -0.14634250454E+03  0.19469611141E+03  0.00000000000E+00 0.  1.
         11    1    5    5    0    0 -0.11701991819E+03  0.96383143684E+02 -0.71679267991E+03  0.73264938246E+03  0.00000000000E+00 0. -1.
        -11    1    5    5    0    0 -0.66491947007E+02  0.17839761590E+03 -0.87740949988E+03  0.89782755519E+03  0.00000000000E+00 0.  1.
          1    1    6    6  503    0  0.81586791172E+02 -0.15291461116E+03 -0.27027121347E+03  0.32106979246E+03  0.00000000000E+00 0. -1.
         -1    1    6    6    0  503  0.26460679552E+02 -0.25918554946E+03 -0.29954333797E+03  0.39699310817E+03  0.00000000000E+00 0.  1.
<mgrwt>
<rscale>  0 0.11059417E+04</rscale>
<asrwt>0</asrwt>
<pdfrwt beam="1">  1        2 0.39041176E+00 0.11059417E+04</pdfrwt>
<pdfrwt beam="2">  1       -1 0.18537659E-01 0.11059417E+04</pdfrwt>
<totfact> 0.87695356E+01</totfact>
</mgrwt>
</event>
<event>
12    6  0.1403409E-007  0.4041363E+04  0.7818608E-02  0.7996254E-01
          2   -1    0    0  501    0  0.00000000000E+00  0.00000000000E+00  0.28277731365E+04  0.28277731365E+04  0.00000000000E+00 0. -1.
         -1   -1    0    0    0  501 -0.00000000000E+00 -0.00000000000E+00 -0.14439464424E+04  0.14439464424E+04  0.00000000000E+00 0.  1.
         24    2    1    2    0    0 -0.10474619033E+04  0.12782407981E+04 -0.37469285826E+03  0.16962556410E+04  0.76239653548E+02 0.  0.
        254    2    1    2    0    0  0.10474619033E+04 -0.12782407981E+04  0.17585195524E+04  0.25754639379E+04  0.89974857730E+03 0.  0.
         23    2    4    4    0    0  0.10280448912E+04 -0.11175419456E+04  0.10647679947E+04  0.18567917605E+04  0.90379537733E+02 0.  0.
         23    2    4    4    0    0  0.19417012142E+02 -0.16069885254E+03  0.69375155765E+03  0.71867217739E+03  0.94854273679E+02 0.  0.
          2    1    3    3  502    0 -0.18201914920E+03  0.20063438654E+03 -0.86969454285E+02  0.28451505007E+03  0.00000000000E+00 0. -1.
         -1    1    3    3    0  502 -0.86544275410E+03  0.10776064116E+04 -0.28772340398E+03  0.14117405910E+04  0.00000000000E+00 0.  1.
         11    1    5    5    0    0  0.98910075215E+03 -0.10968152116E+04  0.10299110508E+04  0.18005667660E+04  0.00000000000E+00 0.  1.
        -11    1    5    5    0    0  0.38944139004E+02 -0.20726734000E+02  0.34856943868E+02  0.56224994450E+02  0.00000000000E+00 0. -1.
          2    1    6    6  503    0  0.46690458958E+02 -0.37365869943E+02  0.18250274123E+03  0.19205066454E+03  0.00000000000E+00 0. -1.
         -2    1    6    6    0  503 -0.27273446816E+02 -0.12333298259E+03  0.51124881642E+03  0.52662151284E+03  0.00000000000E+00 0.  1.
<mgrwt>
<rscale>  0 0.40413626E+04</rscale>
<asrwt>0</asrwt>
<pdfrwt beam="1">  1        2 0.43504202E+00 0.40413626E+04</pdfrwt>
<pdfrwt beam="2">  1       -1 0.22214561E+00 0.40413626E+04</pdfrwt>
<totfact> 0.21146378E-01</totfact>
</mgrwt>
</event>
<event>
12    6  0.1403409E-007  0.2341269E+04  0.7818608E-02  0.8461825E-01
         -1   -1    0    0    0  501 -0.00000000000E+00  0.00000000000E+00  0.77542756862E+03  0.77542756862E+03  0.00000000000E+00 0.  1.
          2   -1    0    0  501    0  0.00000000000E+00 -0.00000000000E+00 -0.17672644144E+04  0.17672644144E+04  0.00000000000E+00 0. -1.
         24    2    1    2    0    0  0.81001970605E+03 -0.32460464340E+03 -0.94406716872E+03  0.12880386732E+04  0.79250904638E+02 0.  0.
        254    2    1    2    0    0 -0.81001970605E+03  0.32460464340E+03 -0.47769677015E+02  0.12546533098E+04  0.90020713560E+03 0.  0.
         23    2    4    4    0    0 -0.81056074430E+03 -0.96859544906E+01  0.18679362982E+03  0.83628298905E+03  0.85876887002E+02 0.  0.
         23    2    4    4    0    0  0.54103824282E+00  0.33429059790E+03 -0.23456330683E+03  0.41837032073E+03  0.90902606088E+02 0.  0.
          2    1    3    3  502    0  0.16618216690E+03 -0.74080215286E+02 -0.24524683150E+03  0.30536928342E+03  0.00000000000E+00 0. -1.
         -1    1    3    3    0  502  0.64383753915E+03 -0.25052442812E+03 -0.69882033723E+03  0.98266938979E+03  0.00000000000E+00 0.  1.
         11    1    5    5    0    0 -0.60861383021E+03  0.24851739117E+02  0.15896824995E+03  0.62952307961E+03  0.00000000000E+00 0. -1.
        -11    1    5    5    0    0 -0.20194691408E+03 -0.34537693608E+02  0.27825379863E+02  0.20675990944E+03  0.00000000000E+00 0.  1.
          2    1    6    6  503    0 -0.37635119067E+02  0.24592338565E+03 -0.18547520116E+03  0.31031558781E+03  0.00000000000E+00 0. -1.
         -2    1    6    6    0  503  0.38176157310E+02  0.88367212247E+02 -0.49088105674E+02  0.10805473292E+03  0.00000000000E+00 0.  1.
<mgrwt>
<rscale>  0 0.23412694E+04</rscale>
<asrwt>0</asrwt>
<pdfrwt beam="1">  1        2 0.27188683E+00 0.23412694E+04</pdfrwt>
<pdfrwt beam="2">  1       -1 0.11929655E+00 0.23412694E+04</pdfrwt>
<totfact> 0.58132931E+00</totfact>
</mgrwt>
</event>
<event>
12    6  0.1403409E-007  0.1102115E+04  0.7818608E-02  0.9203133E-01
         -1   -1    0    0    0  501 -0.00000000000E+00  0.00000000000E+00  0.23785112201E+03  0.23785112201E+03  0.00000000000E+00 0.  1.
          2   -1    0    0  501    0  0.00000000000E+00 -0.00000000000E+00 -0.12766994586E+04  0.12766994586E+04  0.00000000000E+00 0. -1.
         24    2    1    2    0    0  0.14801641399E+03  0.66149242029E+02 -0.14280817732E+03  0.23016783018E+03  0.79362922759E+02 0.  0.
        254    2    1    2    0    0 -0.14801641399E+03 -0.66149242029E+02 -0.89604015923E+03  0.12843827504E+04  0.90579605955E+03 0.  0.
         23    2    4    4    0    0  0.98379736211E+02  0.33347359212E+03 -0.66106165795E+03  0.75224493712E+03  0.89368454588E+02 0.  0.
         23    2    4    4    0    0 -0.24639615020E+03 -0.39962283415E+03 -0.23497850128E+03  0.53213781327E+03  0.86869349208E+02 0.  0.
          4    1    3    3  502    0  0.76901191783E+02  0.76334388539E+02 -0.79196881091E+02  0.13421206408E+03  0.00000000000E+00 0. -1.
         -3    1    3    3    0  502  0.71115222211E+02 -0.10185146510E+02 -0.63611296227E+02  0.95955766096E+02  0.00000000000E+00 0.  1.
         11    1    5    5    0    0  0.85520658179E+02  0.14077416846E+03 -0.27458018178E+03  0.32019591769E+03  0.00000000000E+00 0.  1.
        -11    1    5    5    0    0  0.12859078032E+02  0.19269942366E+03 -0.38648147617E+03  0.43204901943E+03  0.00000000000E+00 0. -1.
          4    1    6    6  503    0 -0.53720112644E+00 -0.49080087127E+02 -0.28892853535E+02  0.56955601329E+02  0.00000000000E+00 0. -1.
         -4    1    6    6    0  503 -0.24585894908E+03 -0.35054274702E+03 -0.20608564775E+03  0.47518221194E+03  0.00000000000E+00 0.  1.
<mgrwt>
<rscale>  0 0.11021151E+04</rscale>
<asrwt>0</asrwt>
<pdfrwt beam="1">  1        2 0.19641530E+00 0.11021151E+04</pdfrwt>
<pdfrwt beam="2">  1       -1 0.36592480E-01 0.11021151E+04</pdfrwt>
<totfact> 0.13811221E+02</totfact>
</mgrwt>
</event>
<event>
12    6  0.1403409E-007  0.2163935E+04  0.7818608E-02  0.8533591E-01
         -1   -1    0    0    0  501 -0.00000000000E+00  0.00000000000E+00  0.75509625619E+03  0.75509625619E+03  0.00000000000E+00 0.  1.
          2   -1    0    0  501    0  0.00000000000E+00 -0.00000000000E+00 -0.15503364077E+04  0.15503364077E+04  0.00000000000E+00 0. -1.
         24    2    1    2    0    0  0.77283383168E+02 -0.66413091073E+03 -0.96007936929E+03  0.11726073633E+04  0.78822871854E+02 0.  0.
        254    2    1    2    0    0 -0.77283383168E+02  0.66413091073E+03  0.16483921782E+03  0.11328253006E+04  0.89948796882E+03 0.  0.
         23    2    4    4    0    0  0.23876720492E+03  0.43494360072E+02  0.32204908857E+03  0.41350769516E+03  0.91495688445E+02 0.  0.
         23    2    4    4    0    0 -0.31605058809E+03  0.62063655066E+03 -0.15720987074E+03  0.71931760544E+03  0.87322229694E+02 0.  0.
          2    1    3    3  502    0  0.60474128857E+02 -0.20725126999E+03 -0.31995957944E+03  0.38598489821E+03  0.00000000000E+00 0. -1.
         -1    1    3    3    0  502  0.16809254311E+02 -0.45687964074E+03 -0.64011978984E+03  0.78662246504E+03  0.00000000000E+00 0.  1.
         11    1    5    5    0    0  0.37017692071E+01  0.21505352674E+02  0.41078955206E+02  0.46515200201E+02  0.00000000000E+00 0. -1.
        -11    1    5    5    0    0  0.23506543572E+03  0.21989007398E+02  0.28097013336E+03  0.36699249496E+03  0.00000000000E+00 0.  1.
          1    1    6    6  503    0 -0.48195127296E+02  0.14664331643E+03 -0.63307837042E+02  0.16683798962E+03  0.00000000000E+00 0. -1.
         -1    1    6    6    0  503 -0.26785546080E+03  0.47399323423E+03 -0.93902033700E+02  0.55247961583E+03  0.00000000000E+00 0.  1.
<mgrwt>
<rscale>  0 0.21639346E+04</rscale>
<asrwt>0</asrwt>
<pdfrwt beam="1">  1        2 0.23851329E+00 0.21639346E+04</pdfrwt>
<pdfrwt beam="2">  1       -1 0.11616866E+00 0.21639346E+04</pdfrwt>
<totfact> 0.83187399E+00</totfact>
</mgrwt>
</event>
<event>
12    6  0.1403409E-007  0.3093300E+04  0.7818608E-02  0.8217579E-01
         -3   -1    0    0    0  501 -0.00000000000E+00  0.00000000000E+00  0.14662766691E+04  0.14662766691E+04  0.00000000000E+00 0.  1.
          2   -1    0    0  501    0  0.00000000000E+00 -0.00000000000E+00 -0.16314286060E+04  0.16314286060E+04  0.00000000000E+00 0. -1.
         24    2    1    2    0    0  0.10929852856E+04 -0.80926391632E+03  0.31129998293E+03  0.13973305680E+04  0.78103238853E+02 0.  0.
        254    2    1    2    0    0 -0.10929852856E+04  0.80926391632E+03 -0.47645191977E+03  0.17003747071E+04  0.90263103860E+03 0.  0.
         23    2    4    4    0    0 -0.10845219396E+04  0.96528957039E+03 -0.42194066692E+03  0.15147347932E+04  0.91737533263E+02 0.  0.
         23    2    4    4    0    0 -0.84633460028E+01 -0.15602565406E+03 -0.54511252848E+02  0.18563991393E+03  0.84113423459E+02 0.  0.
          4    1    3    3  502    0  0.74233098864E+03 -0.56032571945E+03  0.17649225198E+03  0.94666241268E+03  0.00000000000E+00 0. -1.
         -3    1    3    3    0  502  0.35065429700E+03 -0.24893819687E+03  0.13480773095E+03  0.45066815529E+03  0.00000000000E+00 0.  1.
         11    1    5    5    0    0 -0.25169509915E+03  0.21576520232E+03 -0.13639220236E+03  0.35847995527E+03  0.00000000000E+00 0. -1.
        -11    1    5    5    0    0 -0.83282684049E+03  0.74952436807E+03 -0.28554846456E+03  0.11562548379E+04  0.00000000000E+00 0.  1.
          2    1    6    6  503    0  0.25770121409E+02 -0.79111853608E+02 -0.57927541262E+02  0.10138236817E+03  0.00000000000E+00 0.  1.
         -2    1    6    6    0  503 -0.34233467412E+02 -0.76913800456E+02  0.34162884136E+01  0.84257545764E+02  0.00000000000E+00 0. -1.
<mgrwt>
<rscale>  0 0.30932997E+04</rscale>
<asrwt>0</asrwt>
<pdfrwt beam="1">  1        2 0.25098901E+00 0.30932997E+04</pdfrwt>
<pdfrwt beam="2">  1       -3 0.22558103E+00 0.30932997E+04</pdfrwt>
<totfact> 0.58446128E-01</totfact>
</mgrwt>
</event>
<event>
12    6  0.1403409E-007  0.1912268E+04  0.7818608E-02  0.8648774E-01
         -1   -1    0    0    0  501 -0.00000000000E+00  0.00000000000E+00  0.74030277989E+03  0.74030277989E+03  0.00000000000E+00 0.  1.
          2   -1    0    0  501    0  0.00000000000E+00 -0.00000000000E+00 -0.12348899267E+04  0.12348899267E+04  0.00000000000E+00 0. -1.
         24    2    1    2    0    0 -0.66694959998E+03 -0.30296989375E+03 -0.62049793596E+02  0.73950608573E+03  0.80040917775E+02 0.  0.
        254    2    1    2    0    0  0.66694959998E+03  0.30296989375E+03 -0.43253735324E+03  0.12356866209E+04  0.89622560646E+03 0.  0.
         23    2    4    4    0    0 -0.79957217062E+02  0.32733031892E+03  0.29202204761E+02  0.35262466816E+03  0.99765192265E+02 0.  0.
         23    2    4    4    0    0  0.74690681704E+03 -0.24360425169E+02 -0.46173955800E+03  0.88306195273E+03  0.90176323364E+02 0.  0.
          2    1    3    3  502    0 -0.32643873245E+03 -0.18377722795E+03 -0.55292422311E+02  0.37867343123E+03  0.00000000000E+00 0. -1.
         -1    1    3    3    0  502 -0.34051086753E+03 -0.11919266580E+03 -0.67573712855E+01  0.36083265450E+03  0.00000000000E+00 0.  1.
         11    1    5    5    0    0 -0.29182613420E+02  0.25289827275E+03 -0.90563095774E+01  0.25473746883E+03  0.00000000000E+00 0. -1.
        -11    1    5    5    0    0 -0.50774603642E+02  0.74432046168E+02  0.38258514338E+02  0.97887199322E+02  0.00000000000E+00 0.  1.
          4    1    6    6  503    0  0.64273551945E+03 -0.21160352268E+02 -0.43188718387E+03  0.77465040377E+03  0.00000000000E+00 0. -1.
         -4    1    6    6    0  503  0.10417129759E+03 -0.32000729010E+01 -0.29852374127E+02  0.10841154896E+03  0.00000000000E+00 0.  1.
<mgrwt>
<rscale>  0 0.19122682E+04</rscale>
<asrwt>0</asrwt>
<pdfrwt beam="1">  1        2 0.18998306E+00 0.19122682E+04</pdfrwt>
<pdfrwt beam="2">  1       -1 0.11389274E+00 0.19122682E+04</pdfrwt>
<totfact> 0.13532270E+01</totfact>
</mgrwt>
</event>
<event>
12    6  0.1403409E-007  0.1729719E+04  0.7818608E-02  0.8744594E-01
          2   -1    0    0  501    0  0.00000000000E+00  0.00000000000E+00  0.46073673804E+04  0.46073673804E+04  0.00000000000E+00 0. -1.
         -1   -1    0    0    0  501 -0.00000000000E+00 -0.00000000000E+00 -0.16234480470E+03  0.16234480470E+03  0.00000000000E+00 0.  1.
         24    2    1    2    0    0  0.10907890983E+03  0.49253836689E+03  0.26076269795E+04  0.26572081079E+04  0.80896310378E+02 0.  0.
        254    2    1    2    0    0 -0.10907890983E+03 -0.49253836689E+03  0.18373955962E+04  0.21125040772E+04  0.91222730051E+03 0.  0.
         23    2    4    4    0    0 -0.33639879928E+03  0.13102155600E+03  0.65463096174E+03  0.75322091632E+03  0.92028541382E+02 0.  0.
         23    2    4    4    0    0  0.22731988945E+03 -0.62355992288E+03  0.11827646344E+04  0.13592831608E+04  0.90648890358E+02 0.  0.
          4    1    3    3  502    0  0.72678875772E+02  0.37163901973E+03  0.21166161714E+04  0.21502236621E+04  0.00000000000E+00 0. -1.
         -1    1    3    3    0  502  0.36400034058E+02  0.12089934716E+03  0.49101080814E+03  0.50698444585E+03  0.00000000000E+00 0.  1.
         11    1    5    5    0    0 -0.27409761674E+03  0.10587220291E+03  0.59408694373E+03  0.66278029811E+03  0.00000000000E+00 0.  1.
        -11    1    5    5    0    0 -0.62301182536E+02  0.25149353085E+02  0.60544018005E+02  0.90440618209E+02  0.00000000000E+00 0. -1.
          1    1    6    6  503    0  0.16854165567E+03 -0.46427842808E+03  0.79444122310E+03  0.93546651754E+03  0.00000000000E+00 0.  1.
         -1    1    6    6    0  503  0.58778233780E+02 -0.15928149480E+03  0.38832341132E+03  0.42381664329E+03  0.00000000000E+00 0. -1.
<mgrwt>
<rscale>  0 0.17297192E+04</rscale>
<asrwt>0</asrwt>
<pdfrwt beam="1">  1        2 0.70882565E+00 0.17297192E+04</pdfrwt>
<pdfrwt beam="2">  1       -1 0.24976127E-01 0.17297192E+04</pdfrwt>
<totfact> 0.14969947E+00</totfact>
</mgrwt>
</event>
<event>
12    6  0.1403409E-007  0.2139317E+04  0.7818608E-02  0.8544119E-01
          2   -1    0    0  501    0  0.00000000000E+00  0.00000000000E+00  0.19414442706E+04  0.19414442706E+04  0.00000000000E+00 0. -1.
         -1   -1    0    0    0  501 -0.00000000000E+00 -0.00000000000E+00 -0.58933919522E+03  0.58933919522E+03  0.00000000000E+00 0.  1.
         24    2    1    2    0    0 -0.74336762374E+03 -0.46519649994E+03  0.60407951381E+03  0.10678723730E+04  0.80225547919E+02 0.  0.
        254    2    1    2    0    0  0.74336762374E+03  0.46519649994E+03  0.74802556153E+03  0.14629110927E+04  0.90086814626E+03 0.  0.
         23    2    4    4    0    0  0.52297566001E+03 -0.18380026924E+03  0.38452250611E+03  0.68056926180E+03  0.89615191006E+02 0.  0.
         23    2    4    4    0    0  0.22039196373E+03  0.64899676918E+03  0.36350305541E+03  0.78234183093E+03  0.10077125110E+03 0.  0.
          2    1    3    3  502    0 -0.60633027192E+03 -0.39941742831E+03  0.52897474786E+03  0.89832341869E+03  0.00000000000E+00 0. -1.
         -1    1    3    3    0  502 -0.13703735182E+03 -0.65779071622E+02  0.75104765953E+02  0.16954895436E+03  0.00000000000E+00 0.  1.
         11    1    5    5    0    0  0.41961424005E+03 -0.17353088262E+03  0.34139317995E+03  0.56810067857E+03  0.00000000000E+00 0. -1.
        -11    1    5    5    0    0  0.10336141996E+03 -0.10269386618E+02  0.43129326164E+02  0.11246858322E+03  0.00000000000E+00 0.  1.
          3    1    6    6  503    0  0.12822246604E+03  0.44357979392E+03  0.19550489289E+03  0.50142416926E+03  0.00000000000E+00 0. -1.
         -3    1    6    6    0  503  0.92169497689E+02  0.20541697525E+03  0.16799816252E+03  0.28091766167E+03  0.00000000000E+00 0.  1.
<mgrwt>
<rscale>  0 0.21393169E+04</rscale>
<asrwt>0</asrwt>
<pdfrwt beam="1">  1        2 0.29868373E+00 0.21393169E+04</pdfrwt>
<pdfrwt beam="2">  1       -1 0.90667569E-01 0.21393169E+04</pdfrwt>
<totfact> 0.89487136E+00</totfact>
</mgrwt>
</event>
<event>
12    6  0.1403409E-007  0.1493864E+04  0.7818608E-02  0.8888543E-01
          2   -1    0    0  501    0  0.00000000000E+00  0.00000000000E+00  0.11766335983E+04  0.11766335983E+04  0.00000000000E+00 0. -1.
         -1   -1    0    0    0  501 -0.00000000000E+00 -0.00000000000E+00 -0.47415588601E+03  0.47415588601E+03  0.00000000000E+00 0.  1.
         24    2    1    2    0    0  0.40654009164E+03  0.12513087766E+03  0.23821771937E+01  0.43268864481E+03  0.79254059390E+02 0.  0.
        254    2    1    2    0    0 -0.40654009164E+03 -0.12513087766E+03  0.70009553511E+03  0.12181008395E+04  0.90150059028E+03 0.  0.
         23    2    4    4    0    0 -0.41615593059E+03 -0.16079714102E+03 -0.53104723266E+02  0.45846130249E+03  0.91242397618E+02 0.  0.
         23    2    4    4    0    0  0.96158389472E+01  0.35666263357E+02  0.75320025838E+03  0.75963953702E+03  0.91526227311E+02 0.  0.
          2    1    3    3  502    0  0.23716655351E+03  0.60808191267E+02  0.38786886239E+02  0.24789117123E+03  0.00000000000E+00 0. -1.
         -1    1    3    3    0  502  0.16937353813E+03  0.64322686394E+02 -0.36404709046E+02  0.18479747358E+03  0.00000000000E+00 0.  1.
         11    1    5    5    0    0 -0.36259319634E+03 -0.10469714672E+03 -0.51297006803E+02  0.38087622854E+03  0.00000000000E+00 0. -1.
        -11    1    5    5    0    0 -0.53562734250E+02 -0.56099994295E+02 -0.18077164634E+01  0.77585073945E+02  0.00000000000E+00 0.  1.
          3    1    6    6  503    0 -0.35931215065E+01  0.91815599930E+01  0.68761615696E+03  0.68768684070E+03  0.00000000000E+00 0. -1.
         -3    1    6    6    0  503  0.13208960454E+02  0.26484703364E+02  0.65584101419E+02  0.71952696318E+02  0.00000000000E+00 0.  1.
<mgrwt>
<rscale>  0 0.14938644E+04</rscale>
<asrwt>0</asrwt>
<pdfrwt beam="1">  1        2 0.18102055E+00 0.14938644E+04</pdfrwt>
<pdfrwt beam="2">  1       -1 0.72947060E-01 0.14938644E+04</pdfrwt>
<totfact> 0.40857269E+01</totfact>
</mgrwt>
</event>
<event>
12    6  0.1403409E-007  0.2857629E+04  0.7818608E-02  0.8285597E-01
          2   -1    0    0  501    0  0.00000000000E+00  0.00000000000E+00  0.17485224358E+04  0.17485224358E+04  0.00000000000E+00 0. -1.
         -1   -1    0    0    0  501 -0.00000000000E+00 -0.00000000000E+00 -0.11675634726E+04  0.11675634726E+04  0.00000000000E+00 0.  1.
         24    2    1    2    0    0  0.63352041151E+03  0.28419887200E+03  0.13662077596E+04  0.15345914819E+04  0.79562952137E+02 0.  0.
        254    2    1    2    0    0 -0.63352041151E+03 -0.28419887200E+03 -0.78524879636E+03  0.13814944265E+04  0.89988558587E+03 0.  0.
         23    2    4    4    0    0 -0.24374368464E+03 -0.53480607812E+03 -0.19628482234E+03  0.62663870021E+03  0.93379891443E+02 0.  0.
         23    2    4    4    0    0 -0.38977672687E+03  0.25060720612E+03 -0.58896397402E+03  0.75485572630E+03  0.90546873341E+02 0.  0.
          4    1    3    3  502    0  0.55670436011E+03  0.22542698567E+03  0.12099762958E+04  0.13508440720E+04  0.00000000000E+00 0. -1.
         -3    1    3    3    0  502  0.76816051396E+02  0.58771886325E+02  0.15623146377E+03  0.18374740990E+03  0.00000000000E+00 0.  1.
         11    1    5    5    0    0 -0.24334320510E+03 -0.47394823077E+03 -0.18920849206E+03  0.56536952022E+03  0.00000000000E+00 0.  1.
        -11    1    5    5    0    0 -0.40047954731E+00 -0.60857847341E+02 -0.70763302784E+01  0.61269179994E+02  0.00000000000E+00 0. -1.
          1    1    6    6  503    0 -0.71394050472E+02  0.79539345764E+01 -0.88102808163E+02  0.11367708795E+03  0.00000000000E+00 0. -1.
         -1    1    6    6    0  503 -0.31838267639E+03  0.24265327154E+03 -0.50086116586E+03  0.64117863835E+03  0.00000000000E+00 0.  1.
<mgrwt>
<rscale>  0 0.28576290E+04</rscale>
<asrwt>0</asrwt>
<pdfrwt beam="1">  1        2 0.26900345E+00 0.28576290E+04</pdfrwt>
<pdfrwt beam="2">  1       -1 0.17962515E+00 0.28576290E+04</pdfrwt>
<totfact> 0.19024188E+00</totfact>
</mgrwt>
</event>
<event>
12    6  0.1403409E-007  0.1506321E+04  0.7818608E-02  0.8880260E-01
         -1   -1    0    0    0  501 -0.00000000000E+00  0.00000000000E+00  0.29579770854E+03  0.29579770854E+03  0.00000000000E+00 0.  1.
          2   -1    0    0  501    0  0.00000000000E+00 -0.00000000000E+00 -0.19176980746E+04  0.19176980746E+04  0.00000000000E+00 0. -1.
         24    2    1    2    0    0  0.11629896834E+03  0.27367535847E+03  0.29096941237E+02  0.30910898924E+03  0.79234357251E+02 0.  0.
        254    2    1    2    0    0 -0.11629896834E+03 -0.27367535847E+03 -0.16509973073E+04  0.19043867939E+04  0.90137300834E+03 0.  0.
         23    2    4    4    0    0 -0.38181737719E+03 -0.39329355859E+03 -0.63639288154E+03  0.84494474967E+03  0.92040195415E+02 0.  0.
         23    2    4    4    0    0  0.26551840884E+03  0.11961820012E+03 -0.10146044257E+04  0.10594420442E+04  0.90480744170E+02 0.  0.
          4    1    3    3  502    0  0.82421807954E+02  0.16608249326E+03 -0.19206009552E+02  0.18640176983E+03  0.00000000000E+00 0. -1.
         -1    1    3    3    0  502  0.33877160391E+02  0.10759286521E+03  0.48302950789E+02  0.12270721941E+03  0.00000000000E+00 0.  1.
         11    1    5    5    0    0 -0.11174835463E+03 -0.14130857397E+03 -0.27072062790E+03  0.32518527982E+03  0.00000000000E+00 0. -1.
        -11    1    5    5    0    0 -0.27006902256E+03 -0.25198498461E+03 -0.36567225363E+03  0.51975946985E+03  0.00000000000E+00 0.  1.
          4    1    6    6  503    0 -0.28494690524E+01  0.17625142049E+02 -0.58579576742E+02  0.61239953604E+02  0.00000000000E+00 0. -1.
         -4    1    6    6    0  503  0.26836787789E+03  0.10199305807E+03 -0.95602484898E+03  0.99820209059E+03  0.00000000000E+00 0.  1.
<mgrwt>
<rscale>  0 0.15063209E+04</rscale>
<asrwt>0</asrwt>
<pdfrwt beam="1">  1        2 0.29503047E+00 0.15063209E+04</pdfrwt>
<pdfrwt beam="2">  1       -1 0.45507341E-01 0.15063209E+04</pdfrwt>
<totfact> 0.39171729E+01</totfact>
</mgrwt>
</event>
<event>
12    6  0.1403409E-007  0.1372704E+04  0.7818608E-02  0.8973817E-01
          2   -1    0    0  501    0  0.00000000000E+00  0.00000000000E+00  0.32179162068E+04  0.32179162068E+04  0.00000000000E+00 0. -1.
         -1   -1    0    0    0  501 -0.00000000000E+00 -0.00000000000E+00 -0.14639266755E+03  0.14639266755E+03  0.00000000000E+00 0.  1.
         24    2    1    2    0    0  0.28560652828E+03 -0.25137186940E+03  0.10388983941E+04  0.11089503750E+04  0.75512615399E+02 0.  0.
        254    2    1    2    0    0 -0.28560652828E+03  0.25137186940E+03  0.20326251452E+04  0.22553584994E+04  0.90017669069E+03 0.  0.
         23    2    4    4    0    0  0.28738909256E+02 -0.31140271315E+03  0.72730040018E+03  0.79677765858E+03  0.89951044750E+02 0.  0.
         23    2    4    4    0    0 -0.31434543754E+03  0.56277458256E+03  0.13053247450E+04  0.14585808408E+04  0.89761319850E+02 0.  0.
          4    1    3    3  502    0  0.22121929100E+03 -0.21757201132E+03  0.90295517884E+03  0.95477935137E+03  0.00000000000E+00 0. -1.
         -3    1    3    3    0  502  0.64387237283E+02 -0.33799858077E+02  0.13594321530E+03  0.15417102360E+03  0.00000000000E+00 0.  1.
         11    1    5    5    0    0  0.14276333100E+02 -0.14301671041E+02  0.15960057388E+02  0.25750241031E+02  0.00000000000E+00 0.  1.
        -11    1    5    5    0    0  0.14462576156E+02 -0.29710104211E+03  0.71134034279E+03  0.77102741755E+03  0.00000000000E+00 0. -1.
          1    1    6    6  503    0 -0.16645573545E+03  0.30927793743E+03  0.61059928888E+03  0.70440886283E+03  0.00000000000E+00 0. -1.
         -1    1    6    6    0  503 -0.14788970209E+03  0.25349664513E+03  0.69472545609E+03  0.75417197801E+03  0.00000000000E+00 0.  1.
<mgrwt>
<rscale>  0 0.13727044E+04</rscale>
<asrwt>0</asrwt>
<pdfrwt beam="1">  1        2 0.49506398E+00 0.13727044E+04</pdfrwt>
<pdfrwt beam="2">  1       -1 0.22521951E-01 0.13727044E+04</pdfrwt>
<totfact> 0.23776345E+01</totfact>
</mgrwt>
</event>
<event>
12    6  0.1403409E-007  0.1899094E+04  0.7818608E-02  0.8655307E-01
          2   -1    0    0  501    0  0.00000000000E+00  0.00000000000E+00  0.22414063911E+04  0.22414063911E+04  0.00000000000E+00 0. -1.
         -1   -1    0    0    0  501 -0.00000000000E+00 -0.00000000000E+00 -0.40226506143E+03  0.40226506143E+03  0.00000000000E+00 0.  1.
         24    2    1    2    0    0 -0.33866139382E+03  0.62256247401E+03  0.44701181943E+03  0.84051265826E+03  0.66078652188E+02 0.  0.
        254    2    1    2    0    0  0.33866139382E+03 -0.62256247401E+03  0.13921295103E+04  0.18031587943E+04  0.90060062756E+03 0.  0.
         23    2    4    4    0    0  0.56245430245E+03 -0.39507878683E+03  0.12753276229E+04  0.14513777074E+04  0.87147079710E+02 0.  0.
         23    2    4    4    0    0 -0.22379290863E+03 -0.22748368718E+03  0.11680188732E+03  0.35178108691E+03  0.90967897282E+02 0.  0.
          4    1    3    3  502    0 -0.18511420413E+03  0.38922564442E+03  0.29731155020E+03  0.52360102055E+03  0.00000000000E+00 0. -1.
         -3    1    3    3    0  502 -0.15354718968E+03  0.23333682959E+03  0.14970026923E+03  0.31691163770E+03  0.00000000000E+00 0.  1.
         11    1    5    5    0    0  0.30738337164E+03 -0.19477037265E+03  0.59022990338E+03  0.69339121286E+03  0.00000000000E+00 0.  1.
        -11    1    5    5    0    0  0.25507093081E+03 -0.20030841418E+03  0.68509771956E+03  0.75798649452E+03  0.00000000000E+00 0. -1.
          3    1    6    6  503    0 -0.96148011949E+02 -0.11318582977E+03  0.78153332639E+01  0.14871634643E+03  0.00000000000E+00 0. -1.
         -3    1    6    6    0  503 -0.12764489668E+03 -0.11429785741E+03  0.10898655406E+03  0.20306474047E+03  0.00000000000E+00 0.  1.
<mgrwt>
<rscale>  0 0.18990940E+04</rscale>
<asrwt>0</asrwt>
<pdfrwt beam="1">  1        2 0.34483174E+00 0.18990940E+04</pdfrwt>
<pdfrwt beam="2">  1       -1 0.61886934E-01 0.18990940E+04</pdfrwt>
<totfact> 0.13823036E+01</totfact>
</mgrwt>
</event>
<event>
12    6  0.1403409E-007  0.1846710E+04  0.7818608E-02  0.8681847E-01
          2   -1    0    0  501    0  0.00000000000E+00  0.00000000000E+00  0.19832156350E+04  0.19832156350E+04  0.00000000000E+00 0. -1.
         -1   -1    0    0    0  501 -0.00000000000E+00 -0.00000000000E+00 -0.42989999039E+03  0.42989999039E+03  0.00000000000E+00 0.  1.
         24    2    1    2    0    0  0.32610935450E+02  0.46843553720E+03  0.12735647770E+04  0.13597936237E+04  0.81093353880E+02 0.  0.
        254    2    1    2    0    0 -0.32610935450E+02 -0.46843553720E+03  0.27975086756E+03  0.10533220017E+04  0.90040622264E+03 0.  0.
         23    2    4    4    0    0  0.21107594895E+03 -0.27876229927E+03 -0.24568169116E+03  0.43705454888E+03  0.91628104851E+02 0.  0.
         23    2    4    4    0    0 -0.24368688440E+03 -0.18967323792E+03  0.52543255872E+03  0.61626745284E+03  0.91361725293E+02 0.  0.
          2    1    3    3  502    0  0.14947525609E+02  0.39938814834E+03  0.11456685355E+04  0.12133798724E+04  0.00000000000E+00 0. -1.
         -1    1    3    3    0  502  0.17663409840E+02  0.69047388863E+02  0.12789624150E+03  0.14641375122E+03  0.00000000000E+00 0.  1.
         11    1    5    5    0    0  0.46194866304E+01 -0.60513083596E+02 -0.48622674195E+02  0.77764628134E+02  0.00000000000E+00 0.  1.
        -11    1    5    5    0    0  0.20645646232E+03 -0.21824921568E+03 -0.19705901697E+03  0.35928992074E+03  0.00000000000E+00 0. -1.
          1    1    6    6  503    0 -0.21321080979E+03 -0.19640086760E+03  0.48715088308E+03  0.56687576512E+03  0.00000000000E+00 0. -1.
         -1    1    6    6    0  503 -0.30476074619E+02  0.67276296723E+01  0.38281675644E+02  0.49391687715E+02  0.00000000000E+00 0.  1.
<mgrwt>
<rscale>  0 0.18467099E+04</rscale>
<asrwt>0</asrwt>
<pdfrwt beam="1">  1        2 0.30511009E+00 0.18467099E+04</pdfrwt>
<pdfrwt beam="2">  1       -1 0.66138461E-01 0.18467099E+04</pdfrwt>
<totfact> 0.16939433E+01</totfact>
</mgrwt>
</event>
<event>
12    6  0.1403409E-007  0.1552896E+04  0.7818608E-02  0.8850020E-01
         -1   -1    0    0    0  501 -0.00000000000E+00  0.00000000000E+00  0.23052641760E+03  0.23052641760E+03  0.00000000000E+00 0.  1.
          2   -1    0    0  501    0  0.00000000000E+00 -0.00000000000E+00 -0.26151949551E+04  0.26151949551E+04  0.00000000000E+00 0. -1.
         24    2    1    2    0    0  0.30723164464E+03  0.17072260267E+03 -0.11296538834E+03  0.37756558057E+03  0.79101821349E+02 0.  0.
        254    2    1    2    0    0 -0.30723164464E+03 -0.17072260267E+03 -0.22717031492E+04  0.24681557921E+04  0.89867698634E+03 0.  0.
         23    2    4    4    0    0 -0.47870777262E+03  0.16836094495E+02 -0.59095788089E+03  0.76643086224E+03  0.93490448450E+02 0.  0.
         23    2    4    4    0    0  0.17147612798E+03 -0.18755869716E+03 -0.16807452683E+04  0.17017249299E+04  0.79879614805E+02 0.  0.
          2    1    3    3  502    0  0.11205463158E+03  0.29230909979E+02 -0.61279779908E+02  0.13101869325E+03  0.00000000000E+00 0. -1.
         -1    1    3    3    0  502  0.19517701306E+03  0.14149169269E+03 -0.51685608428E+02  0.24654688732E+03  0.00000000000E+00 0.  1.
         11    1    5    5    0    0 -0.20824562998E+03 -0.39012628758E+02 -0.25835017323E+03  0.33411530887E+03  0.00000000000E+00 0.  1.
        -11    1    5    5    0    0 -0.27046214264E+03  0.55848723253E+02 -0.33260770766E+03  0.43231555337E+03  0.00000000000E+00 0. -1.
          2    1    6    6  503    0  0.11080039831E+03 -0.12409456119E+03 -0.83335991606E+03  0.84980288189E+03  0.00000000000E+00 0. -1.
         -2    1    6    6    0  503  0.60675729672E+02 -0.63464135977E+02 -0.84738535220E+03  0.85192204799E+03  0.00000000000E+00 0.  1.
<mgrwt>
<rscale>  0 0.15528960E+04</rscale>
<asrwt>0</asrwt>
<pdfrwt beam="1">  1        2 0.40233770E+00 0.15528960E+04</pdfrwt>
<pdfrwt beam="2">  1       -1 0.35465601E-01 0.15528960E+04</pdfrwt>
<totfact> 0.24837382E+01</totfact>
</mgrwt>
</event>
<event>
12    6  0.1403409E-007  0.2744581E+04  0.7818608E-02  0.8320683E-01
         -1   -1    0    0    0  501 -0.00000000000E+00  0.00000000000E+00  0.99351208844E+03  0.99351208844E+03  0.00000000000E+00 0.  1.
          2   -1    0    0  501    0  0.00000000000E+00 -0.00000000000E+00 -0.18954782309E+04  0.18954782309E+04  0.00000000000E+00 0. -1.
         24    2    1    2    0    0  0.89845931003E+03  0.78884485685E+03 -0.67426188894E+03  0.13749815367E+04  0.80248311319E+02 0.  0.
        254    2    1    2    0    0 -0.89845931003E+03 -0.78884485685E+03 -0.22770425350E+03  0.15140087826E+04  0.90048210797E+03 0.  0.
         23    2    4    4    0    0 -0.64685786171E+03 -0.12999469292E+03  0.18502107001E+03  0.69154428994E+03  0.93150389953E+02 0.  0.
         23    2    4    4    0    0 -0.25160144832E+03 -0.65885016393E+03 -0.41272532350E+03  0.82246449266E+03  0.93374631082E+02 0.  0.
          2    1    3    3  502    0  0.89742018629E+02  0.75492012053E+02 -0.94683924352E+02  0.15072398390E+03  0.00000000000E+00 0. -1.
         -1    1    3    3    0  502  0.80871729141E+03  0.71335284479E+03 -0.57957796458E+03  0.12242575528E+04  0.00000000000E+00 0.  1.
         11    1    5    5    0    0 -0.43412848809E+03 -0.78033929527E+02  0.78459506887E+02  0.44800974604E+03  0.00000000000E+00 0.  1.
        -11    1    5    5    0    0 -0.21272937363E+03 -0.51960763395E+02  0.10656156312E+03  0.24353454390E+03  0.00000000000E+00 0. -1.
          4    1    6    6  503    0 -0.14965808960E+03 -0.27533009830E+03 -0.15850331995E+03  0.35118016636E+03  0.00000000000E+00 0. -1.
         -4    1    6    6    0  503 -0.10194335872E+03 -0.38352006563E+03 -0.25422200355E+03  0.47128432630E+03  0.00000000000E+00 0.  1.
<mgrwt>
<rscale>  0 0.27445805E+04</rscale>
<asrwt>0</asrwt>
<pdfrwt beam="1">  1        2 0.29161203E+00 0.27445805E+04</pdfrwt>
<pdfrwt beam="2">  1       -1 0.15284801E+00 0.27445805E+04</pdfrwt>
<totfact> 0.25186768E+00</totfact>
</mgrwt>
</event>
<event>
12    6  0.1403409E-007  0.2807560E+04  0.7818608E-02  0.8300925E-01
         -1   -1    0    0    0  501 -0.00000000000E+00  0.00000000000E+00  0.71327219661E+03  0.71327219661E+03  0.00000000000E+00 0.  1.
          2   -1    0    0  501    0  0.00000000000E+00 -0.00000000000E+00 -0.27627569603E+04  0.27627569603E+04  0.00000000000E+00 0. -1.
         24    2    1    2    0    0 -0.11724763701E+04 -0.26395607799E+03 -0.45829169611E+03  0.12886871535E+04  0.79433314146E+02 0.  0.
        254    2    1    2    0    0  0.11724763701E+04  0.26395607799E+03 -0.15911930676E+04  0.21873420034E+04  0.89899722575E+03 0.  0.
         23    2    4    4    0    0  0.10062550591E+04  0.16843975155E+03 -0.62879902176E+03  0.12020024565E+04  0.92198165610E+02 0.  0.
         23    2    4    4    0    0  0.16622131098E+03  0.95516326444E+02 -0.96239404579E+03  0.98533954687E+03  0.89100114521E+02 0.  0.
          2    1    3    3  502    0 -0.33834971551E+02 -0.55914941198E+01 -0.28222972493E+02  0.44414032497E+02  0.00000000000E+00 0. -1.
         -1    1    3    3    0  502 -0.11386413985E+04 -0.25836458387E+03 -0.43006872362E+03  0.12442731210E+04  0.00000000000E+00 0.  1.
         11    1    5    5    0    0  0.79354751802E+03  0.16798876576E+03 -0.51424439035E+03  0.96040886178E+03  0.00000000000E+00 0. -1.
        -11    1    5    5    0    0  0.21270754109E+03  0.45098578488E+00 -0.11455463141E+03  0.24159359471E+03  0.00000000000E+00 0.  1.
          3    1    6    6  503    0  0.16861759828E+03  0.66377716305E+02 -0.79304612387E+03  0.81348635530E+03  0.00000000000E+00 0. -1.
         -3    1    6    6    0  503 -0.23962873025E+01  0.29138610139E+02 -0.16934792193E+03  0.17185319157E+03  0.00000000000E+00 0.  1.
<mgrwt>
<rscale>  0 0.28075596E+04</rscale>
<asrwt>0</asrwt>
<pdfrwt beam="1">  1        2 0.42503953E+00 0.28075596E+04</pdfrwt>
<pdfrwt beam="2">  1       -1 0.10973419E+00 0.28075596E+04</pdfrwt>
<totfact> 0.18469617E+00</totfact>
</mgrwt>
</event>
<event>
12    6  0.1403409E-007  0.2636599E+04  0.7818608E-02  0.8355875E-01
          2   -1    0    0  501    0  0.00000000000E+00  0.00000000000E+00  0.83562049215E+03  0.83562049215E+03  0.00000000000E+00 0. -1.
         -1   -1    0    0    0  501 -0.00000000000E+00 -0.00000000000E+00 -0.20797884331E+04  0.20797884331E+04  0.00000000000E+00 0.  1.
         24    2    1    2    0    0  0.11352632084E+04 -0.72712852494E+02 -0.28364384485E+03  0.11751197973E+04  0.79642927750E+02 0.  0.
        254    2    1    2    0    0 -0.11352632084E+04  0.72712852494E+02 -0.96052409616E+03  0.17402891280E+04  0.90104938731E+03 0.  0.
         23    2    4    4    0    0 -0.10097852337E+03  0.20134667849E+03 -0.57646645236E+03  0.62560547484E+03  0.91277008780E+02 0.  0.
         23    2    4    4    0    0 -0.10342846851E+04 -0.12863382600E+03 -0.38405764379E+03  0.11146836532E+04  0.93423240558E+02 0.  0.
          2    1    3    3  502    0  0.33937990736E+02  0.10607904009E+02 -0.38976188205E+01  0.35770186960E+02  0.00000000000E+00 0. -1.
         -1    1    3    3    0  502  0.11013252177E+04 -0.83320756503E+02 -0.27974622602E+03  0.11393496103E+04  0.00000000000E+00 0.  1.
         11    1    5    5    0    0 -0.82475488062E+01  0.56522904445E+02 -0.67793148545E+02  0.88649713918E+02  0.00000000000E+00 0.  1.
        -11    1    5    5    0    0 -0.92730974559E+02  0.14482377404E+03 -0.50867330382E+03  0.53695576092E+03  0.00000000000E+00 0. -1.
          2    1    6    6  503    0 -0.93062233595E+03 -0.11816900152E+03 -0.31450279294E+03  0.98941086100E+03  0.00000000000E+00 0. -1.
         -2    1    6    6    0  503 -0.10366234912E+03 -0.10464824475E+02 -0.69554850850E+02  0.12527279215E+03  0.00000000000E+00 0.  1.
<mgrwt>
<rscale>  0 0.26365992E+04</rscale>
<asrwt>0</asrwt>
<pdfrwt beam="1">  1        2 0.12855700E+00 0.26365992E+04</pdfrwt>
<pdfrwt beam="2">  1       -1 0.31996745E+00 0.26365992E+04</pdfrwt>
<totfact> 0.79999148E-01</totfact>
</mgrwt>
</event>
<event>
12    6  0.1403409E-007  0.1453120E+04  0.7818608E-02  0.8916241E-01
         -1   -1    0    0    0  501 -0.00000000000E+00  0.00000000000E+00  0.53661407221E+03  0.53661407221E+03  0.00000000000E+00 0.  1.
          2   -1    0    0  501    0  0.00000000000E+00 -0.00000000000E+00 -0.98374085190E+03  0.98374085190E+03  0.00000000000E+00 0. -1.
         24    2    1    2    0    0 -0.29690844217E+03  0.32843067045E+03 -0.12184141423E+03  0.46641891035E+03  0.81730908385E+02 0.  0.
        254    2    1    2    0    0  0.29690844217E+03 -0.32843067045E+03 -0.32528536545E+03  0.10539360138E+04  0.89941604600E+03 0.  0.
         23    2    4    4    0    0 -0.21082435467E+03  0.16984443340E+03 -0.91643764285E+02  0.29913091439E+03  0.88242191342E+02 0.  0.
         23    2    4    4    0    0  0.50773279684E+03 -0.49827510385E+03 -0.23364160117E+03  0.75480509936E+03  0.95245305010E+02 0.  0.
          2    1    3    3  502    0 -0.22106748378E+03  0.18667707690E+03 -0.73279784600E+02  0.29847795607E+03  0.00000000000E+00 0. -1.
         -1    1    3    3    0  502 -0.75840958386E+02  0.14175359355E+03 -0.48561629632E+02  0.16794095428E+03  0.00000000000E+00 0.  1.
         11    1    5    5    0    0 -0.15189818378E+03  0.10923296513E+03 -0.10342538365E+03  0.21377958015E+03  0.00000000000E+00 0. -1.
        -11    1    5    5    0    0 -0.58926170894E+02  0.60611468269E+02  0.11781619364E+02  0.85351334241E+02  0.00000000000E+00 0.  1.
          4    1    6    6  503    0  0.13109876966E+03 -0.16289191885E+03 -0.31360800887E+02  0.21143359351E+03  0.00000000000E+00 0. -1.
         -4    1    6    6    0  503  0.37663402718E+03 -0.33538318500E+03 -0.20228080028E+03  0.54337150585E+03  0.00000000000E+00 0.  1.
<mgrwt>
<rscale>  0 0.14531197E+04</rscale>
<asrwt>0</asrwt>
<pdfrwt beam="1">  1        2 0.15134475E+00 0.14531197E+04</pdfrwt>
<pdfrwt beam="2">  1       -1 0.82556012E-01 0.14531197E+04</pdfrwt>
<totfact> 0.41638316E+01</totfact>
</mgrwt>
</event>
<event>
12    6  0.1403409E-007  0.3012851E+04  0.7818608E-02  0.8240071E-01
         -1   -1    0    0    0  501 -0.00000000000E+00  0.00000000000E+00  0.88163422574E+03  0.88163422574E+03  0.00000000000E+00 0.  1.
          2   -1    0    0  501    0  0.00000000000E+00 -0.00000000000E+00 -0.25739903703E+04  0.25739903703E+04  0.00000000000E+00 0. -1.
         24    2    1    2    0    0  0.77946198331E+03  0.79029691881E+03  0.15027138411E+03  0.11230962664E+04  0.81446493904E+02 0.  0.
        254    2    1    2    0    0 -0.77946198331E+03 -0.79029691881E+03 -0.18426275287E+04  0.23325283296E+04  0.90182148782E+03 0.  0.
         23    2    4    4    0    0 -0.14312213094E+03 -0.37908626061E+03 -0.13780187574E+04  0.14391201445E+04  0.89110925571E+02 0.  0.
         23    2    4    4    0    0 -0.63633985237E+03 -0.41121065820E+03 -0.46460877123E+03  0.89340818516E+03  0.91072838381E+02 0.  0.
          2    1    3    3  502    0  0.32383258532E+03  0.38581382744E+03  0.64203844213E+02  0.50778143563E+03  0.00000000000E+00 0. -1.
         -1    1    3    3    0  502  0.45562939799E+03  0.40448309137E+03  0.86067539900E+02  0.61531483075E+03  0.00000000000E+00 0.  1.
         11    1    5    5    0    0 -0.84618732076E+02 -0.12480004168E+03 -0.42182612828E+03  0.44796502399E+03  0.00000000000E+00 0. -1.
        -11    1    5    5    0    0 -0.58503398864E+02 -0.25428621894E+03 -0.95619262915E+03  0.99115512048E+03  0.00000000000E+00 0.  1.
          3    1    6    6  503    0 -0.95318731497E+02 -0.27704995096E+02 -0.48145943090E+02  0.11032342980E+03  0.00000000000E+00 0. -1.
         -3    1    6    6    0  503 -0.54102112087E+03 -0.38350566310E+03 -0.41646282814E+03  0.78308475536E+03  0.00000000000E+00 0.  1.
<mgrwt>
<rscale>  0 0.30128511E+04</rscale>
<asrwt>0</asrwt>
<pdfrwt beam="1">  1        2 0.39599851E+00 0.30128511E+04</pdfrwt>
<pdfrwt beam="2">  1       -1 0.13563604E+00 0.30128511E+04</pdfrwt>
<totfact> 0.13937695E+00</totfact>
</mgrwt>
</event>
<event>
12    6  0.1403409E-007  0.2866316E+04  0.7818608E-02  0.8282971E-01
          2   -1    0    0  501    0  0.00000000000E+00  0.00000000000E+00  0.10322417612E+04  0.10322417612E+04  0.00000000000E+00 0. -1.
         -1   -1    0    0    0  501 -0.00000000000E+00 -0.00000000000E+00 -0.19897871340E+04  0.19897871340E+04  0.00000000000E+00 0.  1.
         24    2    1    2    0    0  0.12896624731E+04  0.14194335213E+02 -0.54486760830E+03  0.14024124582E+04  0.80307026764E+02 0.  0.
        254    2    1    2    0    0 -0.12896624731E+04 -0.14194335213E+02 -0.41267776450E+03  0.16196164370E+04  0.88849518398E+03 0.  0.
         23    2    4    4    0    0 -0.12570911216E+03 -0.39569173469E+02 -0.42120922645E+03  0.45176170944E+03  0.96451694134E+02 0.  0.
         23    2    4    4    0    0 -0.11639533610E+04  0.25374838256E+02  0.85314619524E+01  0.11678547276E+04  0.91545452688E+02 0.  0.
          2    1    3    3  502    0  0.94547324416E+03  0.11050565058E+02 -0.43752895786E+03  0.10418605278E+04  0.00000000000E+00 0. -1.
         -1    1    3    3    0  502  0.34418922897E+03  0.31437701547E+01 -0.10733865043E+03  0.36055193039E+03  0.00000000000E+00 0.  1.
         11    1    5    5    0    0 -0.86569348154E+02  0.21332925191E+02 -0.26488949945E+03  0.27949202610E+03  0.00000000000E+00 0. -1.
        -11    1    5    5    0    0 -0.39139764002E+02 -0.60902098659E+02 -0.15631972701E+03  0.17226968334E+03  0.00000000000E+00 0.  1.
          3    1    6    6  503    0 -0.76619840184E+02  0.26464726322E+00 -0.22283415071E+02  0.79794865344E+02  0.00000000000E+00 0. -1.
         -3    1    6    6    0  503 -0.10873335208E+04  0.25110190992E+02  0.30814877024E+02  0.10880598622E+04  0.00000000000E+00 0.  1.
<mgrwt>
<rscale>  0 0.28663157E+04</rscale>
<asrwt>0</asrwt>
<pdfrwt beam="1">  1        2 0.15880643E+00 0.28663157E+04</pdfrwt>
<pdfrwt beam="2">  1       -1 0.30612109E+00 0.28663157E+04</pdfrwt>
<totfact> 0.71398224E-01</totfact>
</mgrwt>
</event>
<event>
12    6  0.1403409E-007  0.1576432E+04  0.7818608E-02  0.8835159E-01
          2   -1    0    0  501    0  0.00000000000E+00  0.00000000000E+00  0.37001808492E+03  0.37001808492E+03  0.00000000000E+00 0. -1.
         -1   -1    0    0    0  501 -0.00000000000E+00 -0.00000000000E+00 -0.16790641940E+04  0.16790641940E+04  0.00000000000E+00 0.  1.
         24    2    1    2    0    0  0.35952316790E+03 -0.90126215516E+02 -0.93433342625E+03  0.10066176375E+04  0.54041407617E+02 0.  0.
        254    2    1    2    0    0 -0.35952316790E+03  0.90126215516E+02 -0.37471268288E+03  0.10424646415E+04  0.89941274785E+03 0.  0.
         23    2    4    4    0    0  0.26537204372E+03 -0.86745701565E+02 -0.14258698219E+02  0.29388119251E+03  0.90640534583E+02 0.  0.
         23    2    4    4    0    0 -0.62489521162E+03  0.17687191708E+03 -0.36045398466E+03  0.74858344894E+03  0.93125745174E+02 0.  0.
          4    1    3    3  502    0  0.19069626324E+02 -0.11025206252E+02 -0.31056989907E+02  0.38075483492E+02  0.00000000000E+00 0. -1.
         -3    1    3    3    0  502  0.34045354158E+03 -0.79101009264E+02 -0.90327643634E+03  0.96854215401E+03  0.00000000000E+00 0.  1.
         11    1    5    5    0    0  0.18042773807E+03 -0.83680831043E+02 -0.44239281133E+02  0.20374926783E+03  0.00000000000E+00 0. -1.
        -11    1    5    5    0    0  0.84944305656E+02 -0.30648705225E+01  0.29980582914E+02  0.90131924680E+02  0.00000000000E+00 0.  1.
          1    1    6    6  503    0 -0.51347893042E+03  0.17470532474E+03 -0.27477627764E+03  0.60801691196E+03  0.00000000000E+00 0. -1.
         -1    1    6    6    0  503 -0.11141628121E+03  0.21665923443E+01 -0.85677707014E+02  0.14056653698E+03  0.00000000000E+00 0.  1.
<mgrwt>
<rscale>  0 0.15764316E+04</rscale>
<asrwt>0</asrwt>
<pdfrwt beam="1">  1        2 0.56925859E-01 0.15764316E+04</pdfrwt>
<pdfrwt beam="2">  1       -1 0.25831757E+00 0.15764316E+04</pdfrwt>
<totfact> 0.58753667E+00</totfact>
</mgrwt>
</event>
<event>
12    6  0.1403409E-007  0.3161982E+04  0.7818608E-02  0.8198930E-01
          2   -1    0    0  501    0  0.00000000000E+00  0.00000000000E+00  0.24102619318E+04  0.24102619318E+04  0.00000000000E+00 0. -1.
         -1   -1    0    0    0  501 -0.00000000000E+00 -0.00000000000E+00 -0.10370376832E+04  0.10370376832E+04  0.00000000000E+00 0.  1.
         24    2    1    2    0    0  0.95667630337E+03  0.10404741080E+04  0.98994280936E+03  0.17274941393E+04  0.80207959093E+02 0.  0.
        254    2    1    2    0    0 -0.95667630337E+03 -0.10404741080E+04  0.38328143920E+03  0.17198054757E+04  0.90167083458E+03 0.  0.
         23    2    4    4    0    0 -0.93459407802E+03 -0.70861075556E+03  0.59109440067E+03  0.13166392486E+04  0.92471761936E+02 0.  0.
         23    2    4    4    0    0 -0.22082225347E+02 -0.33186335242E+03 -0.20781296147E+03  0.40316622719E+03  0.93465878427E+02 0.  0.
          2    1    3    3  502    0  0.35224295417E+03  0.32893294411E+03  0.34928622551E+03  0.59520823904E+03  0.00000000000E+00 0. -1.
         -1    1    3    3    0  502  0.60443334919E+03  0.71154116387E+03  0.64065658385E+03  0.11322859003E+04  0.00000000000E+00 0.  1.
         11    1    5    5    0    0 -0.39370499880E+03 -0.31069163072E+03  0.30301192438E+03  0.58596001723E+03  0.00000000000E+00 0. -1.
        -11    1    5    5    0    0 -0.54088907922E+03 -0.39791912484E+03  0.28808247629E+03  0.73067923132E+03  0.00000000000E+00 0.  1.
          3    1    6    6  503    0 -0.16580581871E+02 -0.33621034843E+03 -0.20875022724E+03  0.39609212496E+03  0.00000000000E+00 0. -1.
         -3    1    6    6    0  503 -0.55016434758E+01  0.43469960042E+01  0.93726576292E+00  0.70741022261E+01  0.00000000000E+00 0.  1.
<mgrwt>
<rscale>  0 0.31619819E+04</rscale>
<asrwt>0</asrwt>
<pdfrwt beam="1">  1        2 0.37080953E+00 0.31619819E+04</pdfrwt>
<pdfrwt beam="2">  1       -1 0.15954426E+00 0.31619819E+04</pdfrwt>
<totfact> 0.11090758E+00</totfact>
</mgrwt>
</event>
<event>
12    6  0.1403409E-007  0.2138185E+04  0.7818608E-02  0.8544607E-01
         -1   -1    0    0    0  501 -0.00000000000E+00  0.00000000000E+00  0.79607321305E+03  0.79607321305E+03  0.00000000000E+00 0.  1.
          2   -1    0    0  501    0  0.00000000000E+00 -0.00000000000E+00 -0.14357457379E+04  0.14357457379E+04  0.00000000000E+00 0. -1.
         24    2    1    2    0    0 -0.14023446018E+03  0.85131659677E+03 -0.42718464734E+03  0.96599054964E+03  0.79027636351E+02 0.  0.
        254    2    1    2    0    0  0.14023446018E+03 -0.85131659677E+03 -0.21248787748E+03  0.12658284013E+04  0.90153468688E+03 0.  0.
         23    2    4    4    0    0 -0.30386650010E+02 -0.50111125066E+03  0.31828537732E+03  0.60121002308E+03  0.90067066069E+02 0.  0.
         23    2    4    4    0    0  0.17062111019E+03 -0.35020534611E+03 -0.53077325480E+03  0.66461837820E+03  0.90785422560E+02 0.  0.
          2    1    3    3  502    0 -0.67448887997E+02  0.30856310506E+03 -0.19495788103E+03  0.37117262517E+03  0.00000000000E+00 0. -1.
         -1    1    3    3    0  502 -0.72785572181E+02  0.54275349171E+03 -0.23222676631E+03  0.59481792447E+03  0.00000000000E+00 0.  1.
         11    1    5    5    0    0 -0.19432242255E+02 -0.43596148716E+03  0.23744966675E+03  0.49681221257E+03  0.00000000000E+00 0.  1.
        -11    1    5    5    0    0 -0.10954407756E+02 -0.65149763507E+02  0.80835710569E+02  0.10439781050E+03  0.00000000000E+00 0. -1.
          4    1    6    6  503    0  0.30253134641E+02 -0.13631272002E+03 -0.14144471413E+03  0.19875365896E+03  0.00000000000E+00 0. -1.
         -4    1    6    6    0  503  0.14036797555E+03 -0.21389262608E+03 -0.38932854067E+03  0.46586471924E+03  0.00000000000E+00 0.  1.
<mgrwt>
<rscale>  0 0.21381850E+04</rscale>
<asrwt>0</asrwt>
<pdfrwt beam="1">  1        2 0.22088396E+00 0.21381850E+04</pdfrwt>
<pdfrwt beam="2">  1       -1 0.12247280E+00 0.21381850E+04</pdfrwt>
<totfact> 0.85085686E+00</totfact>
</mgrwt>
</event>
<event>
12    6  0.1403409E-007  0.2444416E+04  0.7818608E-02  0.8423060E-01
          2   -1    0    0  501    0  0.00000000000E+00  0.00000000000E+00  0.21694740528E+04  0.21694740528E+04  0.00000000000E+00 0. -1.
         -1   -1    0    0    0  501 -0.00000000000E+00 -0.00000000000E+00 -0.68855059278E+03  0.68855059278E+03  0.00000000000E+00 0.  1.
         24    2    1    2    0    0 -0.18455664231E+03  0.58481906575E+03 -0.36198947142E+03  0.71591584340E+03  0.73652043606E+02 0.  0.
        254    2    1    2    0    0  0.18455664231E+03 -0.58481906575E+03  0.18429129315E+04  0.21421088022E+04  0.90345312754E+03 0.  0.
         23    2    4    4    0    0  0.52352160669E+02 -0.10379438979E+02 -0.78098565727E+02  0.13060716533E+03  0.90057560411E+02 0.  0.
         23    2    4    4    0    0  0.13220448164E+03 -0.57443962677E+03  0.19210114972E+04  0.20115016369E+04  0.91622884943E+02 0.  0.
          2    1    3    3  502    0 -0.15830681036E+03  0.45420971408E+03 -0.31346694654E+03  0.57413329214E+03  0.00000000000E+00 0. -1.
         -1    1    3    3    0  502 -0.26249831947E+02  0.13060935167E+03 -0.48522524881E+02  0.14178255126E+03  0.00000000000E+00 0.  1.
         11    1    5    5    0    0 -0.13580853974E+02 -0.30185521212E+02 -0.40018835591E+02  0.51933731693E+02  0.00000000000E+00 0.  1.
        -11    1    5    5    0    0  0.65933014642E+02  0.19806082233E+02 -0.38079730136E+02  0.78673433639E+02  0.00000000000E+00 0. -1.
          2    1    6    6  503    0  0.12056518093E+03 -0.56679021344E+03  0.18335636036E+04  0.19229515328E+04  0.00000000000E+00 0. -1.
         -2    1    6    6    0  503  0.11639300706E+02 -0.76494133321E+01  0.87447893583E+02  0.88550104107E+02  0.00000000000E+00 0.  1.
<mgrwt>
<rscale>  0 0.24444162E+04</rscale>
<asrwt>0</asrwt>
<pdfrwt beam="1">  1        2 0.33376524E+00 0.24444162E+04</pdfrwt>
<pdfrwt beam="2">  1       -1 0.10593086E+00 0.24444162E+04</pdfrwt>
<totfact> 0.45662923E+00</totfact>
</mgrwt>
</event>
<event>
12    6  0.1403409E-007  0.2593409E+04  0.7818608E-02  0.8370444E-01
         -1   -1    0    0    0  501 -0.00000000000E+00  0.00000000000E+00  0.94772885540E+03  0.94772885540E+03  0.00000000000E+00 0.  1.
          2   -1    0    0  501    0  0.00000000000E+00 -0.00000000000E+00 -0.17741807447E+04  0.17741807447E+04  0.00000000000E+00 0. -1.
         24    2    1    2    0    0  0.11086194993E+04  0.10379591876E+00 -0.63821849911E+03  0.12816188408E+04  0.78656185324E+02 0.  0.
        254    2    1    2    0    0 -0.11086194993E+04 -0.10379591876E+00 -0.18823339017E+03  0.14402907593E+04  0.89998247600E+03 0.  0.
         23    2    4    4    0    0 -0.24883686285E+02  0.28722068132E+03 -0.49930195236E+02  0.30650348214E+03  0.91304121194E+02 0.  0.
         23    2    4    4    0    0 -0.10837358130E+04 -0.28732447724E+03 -0.13830319493E+03  0.11337872771E+04  0.96473563462E+02 0.  0.
          2    1    3    3  502    0  0.52224982052E+03 -0.10733971439E+02 -0.25720984974E+03  0.58225166379E+03  0.00000000000E+00 0. -1.
         -1    1    3    3    0  502  0.58636967877E+03  0.10837767357E+02 -0.38100864937E+03  0.69936717701E+03  0.00000000000E+00 0.  1.
         11    1    5    5    0    0 -0.36427179204E+02  0.27987810203E+03 -0.32142369363E+02  0.28406306217E+03  0.00000000000E+00 0.  1.
        -11    1    5    5    0    0  0.11543492919E+02  0.73425792972E+01 -0.17787825873E+02  0.22440419979E+02  0.00000000000E+00 0. -1.
          2    1    6    6  503    0 -0.48935795220E+03 -0.95729835995E+02 -0.26287073692E+02  0.49932596279E+03  0.00000000000E+00 0. -1.
         -2    1    6    6    0  503 -0.59437786082E+03 -0.19159464125E+03 -0.11201612124E+03  0.63446131435E+03  0.00000000000E+00 0.  1.
<mgrwt>
<rscale>  0 0.25934088E+04</rscale>
<asrwt>0</asrwt>
<pdfrwt beam="1">  1        2 0.27295088E+00 0.25934088E+04</pdfrwt>
<pdfrwt beam="2">  1       -1 0.14580444E+00 0.25934088E+04</pdfrwt>
<totfact> 0.33826847E+00</totfact>
</mgrwt>
</event>
<event>
12    6  0.1403409E-007  0.2477395E+04  0.7818608E-02  0.8411083E-01
          2   -1    0    0  501    0  0.00000000000E+00  0.00000000000E+00  0.19926243919E+04  0.19926243919E+04  0.00000000000E+00 0. -1.
         -1   -1    0    0    0  501 -0.00000000000E+00 -0.00000000000E+00 -0.77002529136E+03  0.77002529136E+03  0.00000000000E+00 0.  1.
         24    2    1    2    0    0 -0.80783299456E+03 -0.49170273656E+03 -0.36146335508E+02  0.95020188156E+03  0.84919549679E+02 0.  0.
        254    2    1    2    0    0  0.80783299456E+03  0.49170273656E+03  0.12587454360E+04  0.18124478017E+04  0.89786481882E+03 0.  0.
         23    2    4    4    0    0  0.65052204804E+03  0.74400437174E+03  0.94191739732E+03  0.13682565072E+04  0.90532016740E+02 0.  0.
         23    2    4    4    0    0  0.15731094652E+03 -0.25230163518E+03  0.31682803871E+03  0.44419129445E+03  0.92320371257E+02 0.  0.
          2    1    3    3  502    0 -0.39070085025E+03 -0.19741729236E+03  0.78597188501E+01  0.43781561974E+03  0.00000000000E+00 0. -1.
         -1    1    3    3    0  502 -0.41713214431E+03 -0.29428544421E+03 -0.44006054358E+02  0.51238626182E+03  0.00000000000E+00 0.  1.
         11    1    5    5    0    0  0.41102381644E+03  0.45201897303E+03  0.63964632322E+03  0.88453894683E+03  0.00000000000E+00 0. -1.
        -11    1    5    5    0    0  0.23949823160E+03  0.29198539871E+03  0.30227107411E+03  0.48371756040E+03  0.00000000000E+00 0.  1.
          1    1    6    6  503    0  0.80090622968E+02 -0.13349254470E+03  0.99523951060E+02  0.18476954352E+03  0.00000000000E+00 0. -1.
         -1    1    6    6    0  503  0.77220323552E+02 -0.11880909048E+03  0.21730408765E+03  0.25942175093E+03  0.00000000000E+00 0.  1.
<mgrwt>
<rscale>  0 0.24773947E+04</rscale>
<asrwt>0</asrwt>
<pdfrwt beam="1">  1        2 0.30655760E+00 0.24773947E+04</pdfrwt>
<pdfrwt beam="2">  1       -1 0.11846543E+00 0.24773947E+04</pdfrwt>
<totfact> 0.43812429E+00</totfact>
</mgrwt>
</event>
<event>
12    6  0.1403409E-007  0.1460429E+04  0.7818608E-02  0.8911202E-01
          2   -1    0    0  501    0  0.00000000000E+00  0.00000000000E+00  0.13193286387E+04  0.13193286387E+04  0.00000000000E+00 0. -1.
         -1   -1    0    0    0  501 -0.00000000000E+00 -0.00000000000E+00 -0.40415513348E+03  0.40415513348E+03  0.00000000000E+00 0.  1.
         24    2    1    2    0    0 -0.83383206347E+02  0.38576497599E+03  0.53719638794E+03  0.67128355839E+03  0.79210357590E+02 0.  0.
        254    2    1    2    0    0  0.83383206347E+02 -0.38576497599E+03  0.37797711723E+03  0.10522002137E+04  0.89916139420E+03 0.  0.
         23    2    4    4    0    0  0.16983891376E+03  0.57639221267E+02 -0.21890433072E+03  0.29776929772E+03  0.92627815467E+02 0.  0.
         23    2    4    4    0    0 -0.86455707416E+02 -0.44340419726E+03  0.59688144795E+03  0.75443091602E+03  0.93897138599E+02 0.  0.
          4    1    3    3  502    0 -0.46858733300E+02  0.21460579394E+03  0.36344169218E+03  0.42466604678E+03  0.00000000000E+00 0. -1.
         -3    1    3    3    0  502 -0.36524473047E+02  0.17115918205E+03  0.17375469577E+03  0.24661751161E+03  0.00000000000E+00 0.  1.
         11    1    5    5    0    0  0.79006988193E+02 -0.16514782873E+02 -0.11862039891E+03  0.14347697123E+03  0.00000000000E+00 0.  1.
        -11    1    5    5    0    0  0.90831925570E+02  0.74154004139E+02 -0.10028393182E+03  0.15429232649E+03  0.00000000000E+00 0. -1.
          4    1    6    6  503    0 -0.69191689476E+00 -0.79213543558E+02  0.16491752819E+03  0.18295643016E+03  0.00000000000E+00 0.  1.
         -4    1    6    6    0  503 -0.85763790522E+02 -0.36419065370E+03  0.43196391976E+03  0.57147448585E+03  0.00000000000E+00 0. -1.
<mgrwt>
<rscale>  0 0.14604293E+04</rscale>
<asrwt>0</asrwt>
<pdfrwt beam="1">  1        2 0.20297364E+00 0.14604293E+04</pdfrwt>
<pdfrwt beam="2">  1       -1 0.62177713E-01 0.14604293E+04</pdfrwt>
<totfact> 0.46680342E+01</totfact>
</mgrwt>
</event>
<event>
12    6  0.1403409E-007  0.1889557E+04  0.7818608E-02  0.8660072E-01
          2   -1    0    0  501    0  0.00000000000E+00  0.00000000000E+00  0.53421418303E+03  0.53421418303E+03  0.00000000000E+00 0. -1.
         -1   -1    0    0    0  501 -0.00000000000E+00 -0.00000000000E+00 -0.16708769418E+04  0.16708769418E+04  0.00000000000E+00 0.  1.
         24    2    1    2    0    0 -0.69408511005E+03  0.15531409023E+03 -0.62897849686E+03  0.95271986031E+03  0.78642075936E+02 0.  0.
        254    2    1    2    0    0  0.69408511005E+03 -0.15531409023E+03 -0.50768426195E+03  0.12523712645E+04  0.89711418883E+03 0.  0.
         23    2    4    4    0    0 -0.99574085239E+02  0.14832380138E+03 -0.31954042491E+03  0.37731921582E+03  0.91371543580E+02 0.  0.
         23    2    4    4    0    0  0.79365919529E+03 -0.30363789160E+03 -0.18814383704E+03  0.87505204872E+03  0.90703346489E+02 0.  0.
          2    1    3    3  502    0 -0.17461241040E+03  0.16361317808E+02 -0.12167758645E+03  0.21345402698E+03  0.00000000000E+00 0. -1.
         -1    1    3    3    0  502 -0.51947269965E+03  0.13895277242E+03 -0.50730091040E+03  0.73926583334E+03  0.00000000000E+00 0.  1.
         11    1    5    5    0    0  0.13602066116E+01  0.30771918389E+02 -0.12435754693E+03  0.12811541907E+03  0.00000000000E+00 0. -1.
        -11    1    5    5    0    0 -0.10093429185E+03  0.11755188299E+03 -0.19518287797E+03  0.24920379676E+03  0.00000000000E+00 0.  1.
          3    1    6    6  503    0  0.25021370827E+03 -0.52502001787E+02 -0.46502245014E+02  0.25985730466E+03  0.00000000000E+00 0. -1.
         -3    1    6    6    0  503  0.54344548702E+03 -0.25113588981E+03 -0.14164159203E+03  0.61519474406E+03  0.00000000000E+00 0.  1.
<mgrwt>
<rscale>  0 0.18895567E+04</rscale>
<asrwt>0</asrwt>
<pdfrwt beam="1">  1        2 0.82186798E-01 0.18895567E+04</pdfrwt>
<pdfrwt beam="2">  1       -1 0.25705799E+00 0.18895567E+04</pdfrwt>
<totfact> 0.38267597E+00</totfact>
</mgrwt>
</event>
<event>
12    6  0.1403409E-007  0.3302225E+04  0.7818608E-02  0.8162329E-01
          2   -1    0    0  501    0  0.00000000000E+00  0.00000000000E+00  0.32925957951E+04  0.32925957951E+04  0.00000000000E+00 0. -1.
         -1   -1    0    0    0  501 -0.00000000000E+00 -0.00000000000E+00 -0.82797054690E+03  0.82797054690E+03  0.00000000000E+00 0.  1.
         24    2    1    2    0    0 -0.13220456150E+04  0.59811450081E+03  0.17385222311E+04  0.22659645028E+04  0.81178911803E+02 0.  0.
        254    2    1    2    0    0  0.13220456150E+04 -0.59811450081E+03  0.72610301715E+03  0.18546018392E+04  0.89820756301E+03 0.  0.
         23    2    4    4    0    0  0.16793250534E+03  0.75407963634E+02 -0.14972915903E+03  0.25417655822E+03  0.91100023894E+02 0.  0.
         23    2    4    4    0    0  0.11541131097E+04 -0.67352246444E+03  0.87583217619E+03  0.16004252810E+04  0.93110145421E+02 0.  0.
          4    1    3    3  502    0 -0.69325843123E+03  0.35806093996E+03  0.93214687246E+03  0.12156120603E+04  0.00000000000E+00 0. -1.
         -3    1    3    3    0  502 -0.62878718379E+03  0.24005356084E+03  0.80637535859E+03  0.10503524425E+04  0.00000000000E+00 0.  1.
         11    1    5    5    0    0  0.69435648259E+02 -0.82694000873E-01 -0.15065011314E+02  0.71051183336E+02  0.00000000000E+00 0. -1.
        -11    1    5    5    0    0  0.98496857078E+02  0.75490657635E+02 -0.13466414772E+03  0.18312537488E+03  0.00000000000E+00 0.  1.
          1    1    6    6  503    0  0.58487090997E+03 -0.39513032952E+03  0.46017718401E+03  0.84259420798E+03  0.00000000000E+00 0. -1.
         -1    1    6    6    0  503  0.56924219972E+03 -0.27839213492E+03  0.41565499217E+03  0.75783107303E+03  0.00000000000E+00 0.  1.
<mgrwt>
<rscale>  0 0.33022249E+04</rscale>
<asrwt>0</asrwt>
<pdfrwt beam="1">  1        2 0.50655319E+00 0.33022249E+04</pdfrwt>
<pdfrwt beam="2">  1       -1 0.12738009E+00 0.33022249E+04</pdfrwt>
<totfact> 0.56964430E-01</totfact>
</mgrwt>
</event>
<event>
12    6  0.1403409E-007  0.1829913E+04  0.7818608E-02  0.8690552E-01
          2   -1    0    0  501    0  0.00000000000E+00  0.00000000000E+00  0.43798090601E+03  0.43798090601E+03  0.00000000000E+00 0. -1.
         -1   -1    0    0    0  501 -0.00000000000E+00 -0.00000000000E+00 -0.19113748439E+04  0.19113748439E+04  0.00000000000E+00 0.  1.
         24    2    1    2    0    0  0.64434738563E+03 -0.24771185426E+03 -0.53837454445E+03  0.87909683122E+03  0.80120986332E+02 0.  0.
        254    2    1    2    0    0 -0.64434738563E+03  0.24771185426E+03 -0.93501939342E+03  0.14702589187E+04  0.90047504449E+03 0.  0.
         23    2    4    4    0    0  0.19062461265E+03 -0.69218924425E+00 -0.37561606861E+03  0.43101976015E+03  0.91391359374E+02 0.  0.
         23    2    4    4    0    0 -0.83497199828E+03  0.24840404350E+03 -0.55940332482E+03  0.10392391585E+04  0.90571198788E+02 0.  0.
          2    1    3    3  502    0  0.15051633102E+02 -0.46364136062E+01  0.38478706175E+00  0.15754239152E+02  0.00000000000E+00 0. -1.
         -1    1    3    3    0  502  0.62929575253E+03 -0.24307544065E+03 -0.53875933151E+03  0.86334259207E+03  0.00000000000E+00 0.  1.
         11    1    5    5    0    0  0.69104770422E+02 -0.98012775123E+01 -0.57733378047E+02  0.90579673640E+02  0.00000000000E+00 0. -1.
        -11    1    5    5    0    0  0.12151984223E+03  0.91090882680E+01 -0.31788269056E+03  0.34044008651E+03  0.00000000000E+00 0.  1.
          4    1    6    6  503    0 -0.42442652183E+03  0.16262694719E+03 -0.32513309027E+03  0.55883532706E+03  0.00000000000E+00 0. -1.
         -4    1    6    6    0  503 -0.41054547646E+03  0.85777096310E+02 -0.23427023455E+03  0.48040383146E+03  0.00000000000E+00 0.  1.
<mgrwt>
<rscale>  0 0.18299133E+04</rscale>
<asrwt>0</asrwt>
<pdfrwt beam="1">  1        2 0.67381679E-01 0.18299133E+04</pdfrwt>
<pdfrwt beam="2">  1       -1 0.29405766E+00 0.18299133E+04</pdfrwt>
<totfact> 0.27895176E+00</totfact>
</mgrwt>
</event>
<event>
12    6  0.1403409E-007  0.2587571E+04  0.7818608E-02  0.8372435E-01
         -1   -1    0    0    0  501 -0.00000000000E+00  0.00000000000E+00  0.11420187919E+04  0.11420187919E+04  0.00000000000E+00 0.  1.
          2   -1    0    0  501    0  0.00000000000E+00 -0.00000000000E+00 -0.14657211604E+04  0.14657211604E+04  0.00000000000E+00 0. -1.
         24    2    1    2    0    0  0.93904179813E+02 -0.12094767297E+02  0.99745242305E+03  0.10052160408E+04  0.81139842216E+02 0.  0.
        254    2    1    2    0    0 -0.93904179813E+02  0.12094767297E+02 -0.13211547916E+04  0.16025239115E+04  0.90203582255E+03 0.  0.
         23    2    4    4    0    0 -0.15614779905E+03  0.31576659201E+03 -0.15996484624E+03  0.39733943087E+03  0.90549409227E+02 0.  0.
         23    2    4    4    0    0  0.62243619237E+02 -0.30367182471E+03 -0.11611899454E+04  0.12051844806E+04  0.89536014414E+02 0.  0.
          2    1    3    3  502    0  0.60467041458E+02  0.15852078708E+02  0.30210640467E+03  0.30850580423E+03  0.00000000000E+00 0. -1.
         -1    1    3    3    0  502  0.33437138355E+02 -0.27946846005E+02  0.69534601838E+03  0.69671023654E+03  0.00000000000E+00 0.  1.
         11    1    5    5    0    0 -0.16246037198E+03  0.30245181596E+03 -0.16608301455E+03  0.38138437456E+03  0.00000000000E+00 0. -1.
        -11    1    5    5    0    0  0.63125729269E+01  0.13314776052E+02  0.61181683065E+01  0.15955056305E+02  0.00000000000E+00 0.  1.
          4    1    6    6  503    0  0.50735779681E+02 -0.97666060231E+02 -0.29788355942E+03  0.31756478652E+03  0.00000000000E+00 0. -1.
         -4    1    6    6    0  503  0.11507839556E+02 -0.20600576448E+03 -0.86330638596E+03  0.88761969413E+03  0.00000000000E+00 0.  1.
<mgrwt>
<rscale>  0 0.25875711E+04</rscale>
<asrwt>0</asrwt>
<pdfrwt beam="1">  1        2 0.22549556E+00 0.25875711E+04</pdfrwt>
<pdfrwt beam="2">  1       -1 0.17569520E+00 0.25875711E+04</pdfrwt>
<totfact> 0.29932311E+00</totfact>
</mgrwt>
</event>
<event>
12    6  0.1403409E-007  0.1753603E+04  0.7818608E-02  0.8731370E-01
          2   -1    0    0  501    0  0.00000000000E+00  0.00000000000E+00  0.41468929053E+04  0.41468929053E+04  0.00000000000E+00 0. -1.
         -1   -1    0    0    0  501 -0.00000000000E+00 -0.00000000000E+00 -0.18538710376E+03  0.18538710376E+03  0.00000000000E+00 0.  1.
         24    2    1    2    0    0  0.39084616241E+03 -0.48156585174E+03  0.10371272555E+04  0.12110194629E+04  0.79175773427E+02 0.  0.
        254    2    1    2    0    0 -0.39084616241E+03  0.48156585174E+03  0.29243785460E+04  0.31212605462E+04  0.89755842399E+03 0.  0.
         23    2    4    4    0    0 -0.35648816430E+03  0.36508449578E+03  0.60355594568E+03  0.79533853352E+03  0.88955623672E+02 0.  0.
         23    2    4    4    0    0 -0.34357998115E+02  0.11648135596E+03  0.23208226003E+04  0.23259220127E+04  0.94590107501E+02 0.  0.
          2    1    3    3  502    0  0.30437741753E+03 -0.39076300338E+03  0.88187482795E+03  0.10114566473E+04  0.00000000000E+00 0. -1.
         -1    1    3    3    0  502  0.86468744882E+02 -0.90802848360E+02  0.15525242756E+03  0.19956281561E+03  0.00000000000E+00 0.  1.
         11    1    5    5    0    0 -0.35305288930E+03  0.36438130579E+03  0.60651749133E+03  0.79074872491E+03  0.00000000000E+00 0.  1.
        -11    1    5    5    0    0 -0.34352749992E+01  0.70318998632E+00 -0.29615456443E+01  0.45898086104E+01  0.00000000000E+00 0. -1.
          3    1    6    6  503    0  0.13720822968E+02  0.67093211558E+02  0.16816503827E+04  0.16830441972E+04  0.00000000000E+00 0.  1.
         -3    1    6    6    0  503 -0.48078821083E+02  0.49388144406E+02  0.63917221765E+03  0.64287781550E+03  0.00000000000E+00 0. -1.
<mgrwt>
<rscale>  0 0.17536025E+04</rscale>
<asrwt>0</asrwt>
<pdfrwt beam="1">  1        2 0.63798345E+00 0.17536025E+04</pdfrwt>
<pdfrwt beam="2">  1       -1 0.28521096E-01 0.17536025E+04</pdfrwt>
<totfact> 0.31637771E+00</totfact>
</mgrwt>
</event>
<event>
12    6  0.1403409E-007  0.2071513E+04  0.7818608E-02  0.8573897E-01
         -1   -1    0    0    0  501 -0.00000000000E+00  0.00000000000E+00  0.34501701810E+03  0.34501701810E+03  0.00000000000E+00 0.  1.
          2   -1    0    0  501    0  0.00000000000E+00 -0.00000000000E+00 -0.31093887166E+04  0.31093887166E+04  0.00000000000E+00 0. -1.
         24    2    1    2    0    0  0.12983595054E+02  0.78412191436E+03 -0.63138091971E+03  0.10098809387E+04  0.78752106772E+02 0.  0.
        254    2    1    2    0    0 -0.12983595054E+02 -0.78412191436E+03 -0.21329907788E+04  0.24445247960E+04  0.90057540794E+03 0.  0.
         23    2    4    4    0    0  0.13235936687E+03 -0.40257936642E+03 -0.19333866269E+04  0.19817760870E+04  0.99314961670E+02 0.  0.
         23    2    4    4    0    0 -0.14534296193E+03 -0.38154254794E+03 -0.19960415189E+03  0.46274870898E+03  0.87150775921E+02 0.  0.
          2    1    3    3  502    0 -0.18266057304E+01  0.44532177380E+03 -0.30944438282E+03  0.54228280885E+03  0.00000000000E+00 0. -1.
         -1    1    3    3    0  502  0.14810200785E+02  0.33880014056E+03 -0.32193653689E+03  0.46759812989E+03  0.00000000000E+00 0.  1.
         11    1    5    5    0    0  0.66897789787E+02 -0.20187226116E+03 -0.11961377869E+04  0.12148964275E+04  0.00000000000E+00 0. -1.
        -11    1    5    5    0    0  0.65461577088E+02 -0.20070710526E+03 -0.73724883995E+03  0.76687965952E+03  0.00000000000E+00 0.  1.
          3    1    6    6  503    0 -0.68335112994E+02 -0.25745526421E+03 -0.16265999740E+03  0.31210763447E+03  0.00000000000E+00 0. -1.
         -3    1    6    6    0  503 -0.77007848935E+02 -0.12408728372E+03 -0.36944154490E+02  0.15064107451E+03  0.00000000000E+00 0.  1.
<mgrwt>
<rscale>  0 0.20715135E+04</rscale>
<asrwt>0</asrwt>
<pdfrwt beam="1">  1        2 0.47836750E+00 0.20715135E+04</pdfrwt>
<pdfrwt beam="2">  1       -1 0.53079540E-01 0.20715135E+04</pdfrwt>
<totfact> 0.55980125E+00</totfact>
</mgrwt>
</event>
<event>
12    6  0.1403409E-007  0.4064056E+04  0.7818608E-02  0.7991748E-01
          2   -1    0    0  501    0  0.00000000000E+00  0.00000000000E+00  0.28307123324E+04  0.28307123324E+04  0.00000000000E+00 0. -1.
         -1   -1    0    0    0  501 -0.00000000000E+00 -0.00000000000E+00 -0.14586923999E+04  0.14586923999E+04  0.00000000000E+00 0.  1.
         24    2    1    2    0    0  0.13471974305E+04  0.11699487902E+04  0.14328282534E+04  0.22898124324E+04  0.80765608464E+02 0.  0.
        254    2    1    2    0    0 -0.13471974305E+04 -0.11699487902E+04 -0.60808320893E+02  0.19995922999E+04  0.90052797045E+03 0.  0.
         23    2    4    4    0    0 -0.10386900855E+04 -0.11941559992E+04  0.18208729806E+03  0.15957646468E+04  0.91778972482E+02 0.  0.
         23    2    4    4    0    0 -0.30850734504E+03  0.24207208951E+02 -0.24289561896E+03  0.40382765316E+03  0.91190574296E+02 0.  0.
          4    1    3    3  502    0  0.40453816962E+03  0.35842200710E+03  0.48165893144E+03  0.72395634681E+03  0.00000000000E+00 0. -1.
         -3    1    3    3    0  502  0.94265926092E+03  0.81152678311E+03  0.95116932195E+03  0.15658560856E+04  0.00000000000E+00 0.  1.
         11    1    5    5    0    0 -0.28365838046E+03 -0.27693904582E+03  0.68960187298E+02  0.40238392033E+03  0.00000000000E+00 0.  1.
        -11    1    5    5    0    0 -0.75503170504E+03 -0.91721695333E+03  0.11312711076E+03  0.11933807265E+04  0.00000000000E+00 0. -1.
          4    1    6    6  503    0 -0.15090042833E+03  0.57262971638E+02 -0.12824970708E+03  0.20615036881E+03  0.00000000000E+00 0. -1.
         -4    1    6    6    0  503 -0.15760691670E+03 -0.33055762687E+02 -0.11464591187E+03  0.19767728435E+03  0.00000000000E+00 0.  1.
<mgrwt>
<rscale>  0 0.40640564E+04</rscale>
<asrwt>0</asrwt>
<pdfrwt beam="1">  1        2 0.43549420E+00 0.40640564E+04</pdfrwt>
<pdfrwt beam="2">  1       -1 0.22441422E+00 0.40640564E+04</pdfrwt>
<totfact> 0.20300636E-01</totfact>
</mgrwt>
</event>
<event>
12    6  0.1403409E-007  0.4696142E+04  0.7818608E-02  0.7877170E-01
         -1   -1    0    0    0  501 -0.00000000000E+00  0.00000000000E+00  0.21284115116E+04  0.21284115116E+04  0.00000000000E+00 0.  1.
          2   -1    0    0  501    0  0.00000000000E+00 -0.00000000000E+00 -0.25903999564E+04  0.25903999564E+04  0.00000000000E+00 0. -1.
         24    2    1    2    0    0  0.15519260072E+04  0.16284200531E+04  0.89092096822E+01  0.22506962089E+04  0.72992119232E+02 0.  0.
        254    2    1    2    0    0 -0.15519260072E+04 -0.16284200531E+04 -0.47089765454E+03  0.24681152591E+04  0.89979004771E+03 0.  0.
         23    2    4    4    0    0 -0.65428170609E+02 -0.41003492795E+03 -0.33076265912E+03  0.53881087576E+03  0.92215701047E+02 0.  0.
         23    2    4    4    0    0 -0.14864978366E+04 -0.12183851252E+04 -0.14013499542E+03  0.19293043833E+04  0.91866507696E+02 0.  0.
          4    1    3    3  502    0  0.14393126380E+04  0.14860768033E+04  0.18978219571E+02  0.20689140408E+04  0.00000000000E+00 0. -1.
         -3    1    3    3    0  502  0.11261336918E+03  0.14234324980E+03 -0.10069009889E+02  0.18178216811E+03  0.00000000000E+00 0.  1.
         11    1    5    5    0    0 -0.66587552157E+02 -0.41325055836E+03 -0.33286477047E+03  0.53479798196E+03  0.00000000000E+00 0.  1.
        -11    1    5    5    0    0  0.11593815479E+01  0.32156304136E+01  0.21021113468E+01  0.40128937993E+01  0.00000000000E+00 0. -1.
          2    1    6    6  503    0 -0.49812526034E+03 -0.35305462710E+03 -0.46256895688E+02  0.61230388298E+03  0.00000000000E+00 0. -1.
         -2    1    6    6    0  503 -0.98837257623E+03 -0.86533049807E+03 -0.93878099729E+02  0.13170005004E+04  0.00000000000E+00 0.  1.
<mgrwt>
<rscale>  0 0.46961419E+04</rscale>
<asrwt>0</asrwt>
<pdfrwt beam="1">  1        2 0.39852307E+00 0.46961419E+04</pdfrwt>
<pdfrwt beam="2">  1       -1 0.32744793E+00 0.46961419E+04</pdfrwt>
<totfact> 0.57201721E-02</totfact>
</mgrwt>
</event>
<event>
12    6  0.1403409E-007  0.1126505E+04  0.7818608E-02  0.9179737E-01
         -1   -1    0    0    0  501 -0.00000000000E+00  0.00000000000E+00  0.42882170509E+03  0.42882170509E+03  0.00000000000E+00 0.  1.
          2   -1    0    0  501    0  0.00000000000E+00 -0.00000000000E+00 -0.73982545728E+03  0.73982545728E+03  0.00000000000E+00 0. -1.
         24    2    1    2    0    0 -0.13366600159E+03  0.11321745046E+03 -0.13146025635E+03  0.23375952867E+03  0.81712466458E+02 0.  0.
        254    2    1    2    0    0  0.13366600159E+03 -0.11321745046E+03 -0.17954349584E+03  0.93488763370E+03  0.90060770021E+03 0.  0.
         23    2    4    4    0    0  0.49360478963E+03 -0.13280315191E+03  0.65184143429E+01  0.51920753865E+03  0.90838389269E+02 0.  0.
         23    2    4    4    0    0 -0.35993878804E+03  0.19585701447E+02 -0.18606191018E+03  0.41568009505E+03  0.90726931839E+02 0.  0.
          2    1    3    3  502    0 -0.87589048231E+02  0.57044347420E+02 -0.12174260043E+03  0.16045921508E+03  0.00000000000E+00 0. -1.
         -1    1    3    3    0  502 -0.46076953359E+02  0.56173103043E+02 -0.97176559120E+01  0.73300313593E+02  0.00000000000E+00 0.  1.
         11    1    5    5    0    0  0.18480284955E+03 -0.95593687897E+02 -0.15014840512E+01  0.20806850031E+03  0.00000000000E+00 0.  1.
        -11    1    5    5    0    0  0.30880194008E+03 -0.37209464014E+02  0.80198983941E+01  0.31113903834E+03  0.00000000000E+00 0. -1.
          2    1    6    6  503    0 -0.87606261439E+02 -0.34135543983E+02 -0.51523358017E+02  0.10721356643E+03  0.00000000000E+00 0. -1.
         -2    1    6    6    0  503 -0.27233252660E+03  0.53721245430E+02 -0.13453855217E+03  0.30846652861E+03  0.00000000000E+00 0.  1.
<mgrwt>
<rscale>  0 0.11265047E+04</rscale>
<asrwt>0</asrwt>
<pdfrwt beam="1">  1        2 0.11381930E+00 0.11265047E+04</pdfrwt>
<pdfrwt beam="2">  1       -1 0.65972571E-01 0.11265047E+04</pdfrwt>
<totfact> 0.10063845E+02</totfact>
</mgrwt>
</event>
<event>
12    6  0.1403409E-007  0.1910387E+04  0.7818608E-02  0.8649703E-01
          4   -1    0    0  501    0  0.00000000000E+00  0.00000000000E+00  0.16030614308E+04  0.16030614308E+04  0.00000000000E+00 0. -1.
         -1   -1    0    0    0  501 -0.00000000000E+00 -0.00000000000E+00 -0.56915757597E+03  0.56915757597E+03  0.00000000000E+00 0.  1.
         24    2    1    2    0    0  0.69919382469E+03 -0.15518744163E+03  0.18764099714E+03  0.74473049053E+03  0.80369230379E+02 0.  0.
        254    2    1    2    0    0 -0.69919382469E+03  0.15518744163E+03  0.84626285773E+03  0.14274885163E+04  0.89922605233E+03 0.  0.
         23    2    4    4    0    0  0.23677407441E+02 -0.25469851995E+03  0.39085574602E+03  0.47573901096E+03  0.90152297077E+02 0.  0.
         23    2    4    4    0    0 -0.72287123213E+03  0.40988596158E+03  0.45540711171E+03  0.95174950531E+03  0.88781550553E+02 0.  0.
          4    1    3    3  502    0  0.37886266435E+03 -0.57494783735E+02  0.68514935960E+02  0.38927736262E+03  0.00000000000E+00 0. -1.
         -3    1    3    3    0  502  0.32033116034E+03 -0.97692657896E+02  0.11912606118E+03  0.35545312791E+03  0.00000000000E+00 0.  1.
         11    1    5    5    0    0  0.21470927978E+02 -0.63031732288E+01  0.40277232152E+02  0.46075874065E+02  0.00000000000E+00 0. -1.
        -11    1    5    5    0    0  0.22064794635E+01 -0.24839534672E+03  0.35057851386E+03  0.42966313690E+03  0.00000000000E+00 0.  1.
          4    1    6    6  503    0 -0.26483423985E+03  0.13623794796E+03  0.21030323779E+03  0.36458936475E+03  0.00000000000E+00 0. -1.
         -4    1    6    6    0  503 -0.45803699228E+03  0.27364801362E+03  0.24510387392E+03  0.58716014056E+03  0.00000000000E+00 0.  1.
<mgrwt>
<rscale>  0 0.19103869E+04</rscale>
<asrwt>0</asrwt>
<pdfrwt beam="1">  1        4 0.24662483E+00 0.19103869E+04</pdfrwt>
<pdfrwt beam="2">  1       -1 0.87562704E-01 0.19103869E+04</pdfrwt>
<totfact> 0.32484796E-01</totfact>
</mgrwt>
</event>
<event>
12    6  0.1403409E-007  0.2181789E+04  0.7818608E-02  0.8526047E-01
         -1   -1    0    0    0  501 -0.00000000000E+00  0.00000000000E+00  0.36039143592E+03  0.36039143592E+03  0.00000000000E+00 0.  1.
          2   -1    0    0  501    0  0.00000000000E+00 -0.00000000000E+00 -0.33021049742E+04  0.33021049742E+04  0.00000000000E+00 0. -1.
         24    2    1    2    0    0  0.75589057197E+03 -0.38644007200E+03 -0.17409298088E+04  0.19389173814E+04  0.88642690483E+02 0.  0.
        254    2    1    2    0    0 -0.75589057197E+03  0.38644007200E+03 -0.12007837294E+04  0.17235790287E+04  0.89896419132E+03 0.  0.
         23    2    4    4    0    0  0.79065390987E+01  0.42213079411E+03 -0.24640026338E+03  0.49731832226E+03  0.91408441454E+02 0.  0.
         23    2    4    4    0    0 -0.76379711107E+03 -0.35690722111E+02 -0.95438346601E+03  0.12262607064E+04  0.90596166379E+02 0.  0.
          4    1    3    3  502    0  0.74271768335E+02 -0.56550929023E+02 -0.24643267536E+03  0.26352109333E+03  0.00000000000E+00 0. -1.
         -1    1    3    3    0  502  0.68161880363E+03 -0.32988914298E+03 -0.14944971335E+04  0.16753962881E+04  0.00000000000E+00 0.  1.
         11    1    5    5    0    0  0.48397365480E+02  0.28184361578E+03 -0.16414538135E+03  0.32972994247E+03  0.00000000000E+00 0.  1.
        -11    1    5    5    0    0 -0.40490826381E+02  0.14028717833E+03 -0.82254882031E+02  0.16758837980E+03  0.00000000000E+00 0. -1.
          4    1    6    6  503    0 -0.10435485913E+03 -0.12771176777E+02 -0.18405438621E+03  0.21196475335E+03  0.00000000000E+00 0. -1.
         -4    1    6    6    0  503 -0.65944225193E+03 -0.22919545333E+02 -0.77032907980E+03  0.10142959531E+04  0.00000000000E+00 0.  1.
<mgrwt>
<rscale>  0 0.21817886E+04</rscale>
<asrwt>0</asrwt>
<pdfrwt beam="1">  1        2 0.50801616E+00 0.21817886E+04</pdfrwt>
<pdfrwt beam="2">  1       -1 0.55444835E-01 0.21817886E+04</pdfrwt>
<totfact> 0.38137254E+00</totfact>
</mgrwt>
</event>
<event>
12    6  0.1403409E-007  0.2153026E+04  0.7818608E-02  0.8538238E-01
          2   -1    0    0  501    0  0.00000000000E+00  0.00000000000E+00  0.10419184001E+04  0.10419184001E+04  0.00000000000E+00 0. -1.
         -1   -1    0    0    0  501 -0.00000000000E+00 -0.00000000000E+00 -0.11122564353E+04  0.11122564353E+04  0.00000000000E+00 0.  1.
         24    2    1    2    0    0  0.85044295679E+03  0.21221000537E+03 -0.16897764247E+03  0.89629599836E+03  0.80664514493E+02 0.  0.
        254    2    1    2    0    0 -0.85044295679E+03 -0.21221000537E+03  0.98639607232E+02  0.12578788370E+04  0.89679601212E+03 0.  0.
         23    2    4    4    0    0 -0.29248064908E+03 -0.70031351394E+02  0.46981969973E+03  0.56717594049E+03  0.10251183814E+03 0.  0.
         23    2    4    4    0    0 -0.55796230770E+03 -0.14217865397E+03 -0.37118009249E+03  0.69070289652E+03  0.88085888366E+02 0.  0.
          4    1    3    3  502    0  0.49609921533E+03  0.10932625746E+03 -0.59832827472E+02  0.51151405579E+03  0.00000000000E+00 0. -1.
         -3    1    3    3    0  502  0.35434374145E+03  0.10288374791E+03 -0.10914481500E+03  0.38478194257E+03  0.00000000000E+00 0.  1.
         11    1    5    5    0    0 -0.17204034759E+03  0.10806296834E+02  0.24270136295E+03  0.29768877847E+03  0.00000000000E+00 0. -1.
        -11    1    5    5    0    0 -0.12044030149E+03 -0.80837648228E+02  0.22711833678E+03  0.26948716202E+03  0.00000000000E+00 0.  1.
          3    1    6    6  503    0 -0.16238978336E+03 -0.79015389205E+02 -0.13712562349E+03  0.22675385352E+03  0.00000000000E+00 0. -1.
         -3    1    6    6    0  503 -0.39557252435E+03 -0.63163264767E+02 -0.23405446901E+03  0.46394904299E+03  0.00000000000E+00 0.  1.
<mgrwt>
<rscale>  0 0.21530262E+04</rscale>
<asrwt>0</asrwt>
<pdfrwt beam="1">  1        2 0.16029514E+00 0.21530262E+04</pdfrwt>
<pdfrwt beam="2">  1       -1 0.17111638E+00 0.21530262E+04</pdfrwt>
<totfact> 0.59844720E+00</totfact>
</mgrwt>
</event>
<event>
12    6  0.1403409E-007  0.2660990E+04  0.7818608E-02  0.8347774E-01
         -1   -1    0    0    0  501 -0.00000000000E+00  0.00000000000E+00  0.92373125795E+03  0.92373125795E+03  0.00000000000E+00 0.  1.
          2   -1    0    0  501    0  0.00000000000E+00 -0.00000000000E+00 -0.19163764041E+04  0.19163764041E+04  0.00000000000E+00 0. -1.
         24    2    1    2    0    0 -0.57517530310E+03  0.96130143993E+03 -0.57579682668E+02  0.11243598186E+04  0.77087574103E+02 0.  0.
        254    2    1    2    0    0  0.57517530310E+03 -0.96130143993E+03 -0.93506546346E+03  0.17157478434E+04  0.90250548675E+03 0.  0.
         23    2    4    4    0    0  0.72241244240E+02  0.16535270946E+03 -0.12349366534E+03  0.23615667447E+03  0.89213079864E+02 0.  0.
         23    2    4    4    0    0  0.50293405885E+03 -0.11266541494E+04 -0.81157179812E+03  0.14795911690E+04  0.90824027107E+02 0.  0.
          4    1    3    3  502    0 -0.26571205476E+03  0.45172447181E+03 -0.65259633637E+02  0.52812566143E+03  0.00000000000E+00 0. -1.
         -3    1    3    3    0  502 -0.30946324834E+03  0.50957696812E+03  0.76799509684E+01  0.59623415715E+03  0.00000000000E+00 0.  1.
         11    1    5    5    0    0  0.95836536333E+01 -0.76730607609E+01 -0.24007458968E+02  0.26964427762E+02  0.00000000000E+00 0. -1.
        -11    1    5    5    0    0  0.62657590607E+02  0.17302577023E+03 -0.99486206376E+02  0.20919224671E+03  0.00000000000E+00 0.  1.
          1    1    6    6  503    0  0.28479948413E+02 -0.26440416617E+02 -0.29371950240E+02  0.48712570794E+02  0.00000000000E+00 0. -1.
         -1    1    6    6    0  503  0.47445411044E+03 -0.11002137328E+04 -0.78219984788E+03  0.14308785982E+04  0.00000000000E+00 0.  1.
<mgrwt>
<rscale>  0 0.26609899E+04</rscale>
<asrwt>0</asrwt>
<pdfrwt beam="1">  1        2 0.29482714E+00 0.26609899E+04</pdfrwt>
<pdfrwt beam="2">  1       -1 0.14211250E+00 0.26609899E+04</pdfrwt>
<totfact> 0.30010550E+00</totfact>
</mgrwt>
</event>
<event>
12    6  0.1403409E-007  0.2647548E+04  0.7818608E-02  0.8352227E-01
          2   -1    0    0  501    0  0.00000000000E+00  0.00000000000E+00  0.83477555375E+03  0.83477555375E+03  0.00000000000E+00 0. -1.
         -1   -1    0    0    0  501 -0.00000000000E+00 -0.00000000000E+00 -0.20992203599E+04  0.20992203599E+04  0.00000000000E+00 0.  1.
         24    2    1    2    0    0  0.89779952881E+03  0.73423819390E+03 -0.72319472689E+03  0.13692368904E+04  0.81543421445E+02 0.  0.
        254    2    1    2    0    0 -0.89779952881E+03 -0.73423819390E+03 -0.54125007921E+03  0.15647590233E+04  0.90020521733E+03 0.  0.
         23    2    4    4    0    0 -0.46702470864E+03  0.10797605594E+03 -0.38710998289E+02  0.48962771761E+03  0.92010071915E+02 0.  0.
         23    2    4    4    0    0 -0.43077482017E+03 -0.84221424984E+03 -0.50253908092E+03  0.10751313056E+04  0.92032647409E+02 0.  0.
          4    1    3    3  502    0  0.22953349342E+03  0.15270199185E+03 -0.14652036512E+03  0.31220464493E+03  0.00000000000E+00 0. -1.
         -3    1    3    3    0  502  0.66826603539E+03  0.58153620205E+03 -0.57667436177E+03  0.10570322454E+04  0.00000000000E+00 0.  1.
         11    1    5    5    0    0 -0.21942914058E+03  0.81062235244E+02 -0.54102413198E+02  0.24009853151E+03  0.00000000000E+00 0. -1.
        -11    1    5    5    0    0 -0.24759556806E+03  0.26913820694E+02  0.15391414909E+02  0.24952918610E+03  0.00000000000E+00 0.  1.
          3    1    6    6  503    0 -0.29026700120E+03 -0.62239355033E+03 -0.32658526436E+03  0.76045157530E+03  0.00000000000E+00 0. -1.
         -3    1    6    6    0  503 -0.14050781897E+03 -0.21982069951E+03 -0.17595381656E+03  0.31467973034E+03  0.00000000000E+00 0.  1.
<mgrwt>
<rscale>  0 0.26475482E+04</rscale>
<asrwt>0</asrwt>
<pdfrwt beam="1">  1        2 0.12842701E+00 0.26475482E+04</pdfrwt>
<pdfrwt beam="2">  1       -1 0.32295697E+00 0.26475482E+04</pdfrwt>
<totfact> 0.76514914E-01</totfact>
</mgrwt>
</event>
<event>
12    6  0.1403409E-007  0.1732327E+04  0.7818608E-02  0.8743139E-01
          2   -1    0    0  501    0  0.00000000000E+00  0.00000000000E+00  0.13986624359E+04  0.13986624359E+04  0.00000000000E+00 0. -1.
         -1   -1    0    0    0  501 -0.00000000000E+00 -0.00000000000E+00 -0.53639734722E+03  0.53639734722E+03  0.00000000000E+00 0.  1.
         24    2    1    2    0    0 -0.57102304104E+03  0.12546874279E+03  0.54397716525E+02  0.59263888833E+03  0.80324476814E+02 0.  0.
        254    2    1    2    0    0  0.57102304104E+03 -0.12546874279E+03  0.80786737218E+03  0.13424208948E+04  0.89868484407E+03 0.  0.
         23    2    4    4    0    0  0.79164995530E+03 -0.15524675059E+03  0.50685124228E+03  0.95720358116E+03  0.92354256538E+02 0.  0.
         23    2    4    4    0    0 -0.22062691426E+03  0.29778007800E+02  0.30101612990E+03  0.38521731364E+03  0.90657063858E+02 0.  0.
          4    1    3    3  502    0 -0.14542062590E+03  0.17432118606E+02  0.45794087233E+02  0.15345401794E+03  0.00000000000E+00 0. -1.
         -3    1    3    3    0  502 -0.42560241514E+03  0.10803662418E+03  0.86036292924E+01  0.43918487039E+03  0.00000000000E+00 0.  1.
         11    1    5    5    0    0  0.59026147527E+03 -0.76132826095E+02  0.38606653414E+03  0.70940269606E+03  0.00000000000E+00 0.  1.
        -11    1    5    5    0    0  0.20138848003E+03 -0.79113924495E+02  0.12078470814E+03  0.24780088510E+03  0.00000000000E+00 0. -1.
          1    1    6    6  503    0 -0.21483532619E+03  0.44422747235E+02  0.25394995895E+03  0.33558632198E+03  0.00000000000E+00 0. -1.
         -1    1    6    6    0  503 -0.57915880707E+01 -0.14644739435E+02  0.47066170952E+02  0.49630991664E+02  0.00000000000E+00 0.  1.
<mgrwt>
<rscale>  0 0.17323266E+04</rscale>
<asrwt>0</asrwt>
<pdfrwt beam="1">  1        2 0.21517883E+00 0.17323266E+04</pdfrwt>
<pdfrwt beam="2">  1       -1 0.82522670E-01 0.17323266E+04</pdfrwt>
<totfact> 0.22887886E+01</totfact>
</mgrwt>
</event>
<event>
12    6  0.1403409E-007  0.1426110E+04  0.7818608E-02  0.8935133E-01
         -1   -1    0    0    0  501 -0.00000000000E+00  0.00000000000E+00  0.77191731943E+03  0.77191731943E+03  0.00000000000E+00 0.  1.
          2   -1    0    0  501    0  0.00000000000E+00 -0.00000000000E+00 -0.65868131031E+03  0.65868131031E+03  0.00000000000E+00 0. -1.
         24    2    1    2    0    0 -0.15617585405E+03 -0.37492965886E+03 -0.88606012548E+02  0.42315329058E+03  0.79022372695E+02 0.  0.
        254    2    1    2    0    0  0.15617585405E+03  0.37492965886E+03  0.20184202167E+03  0.10074453392E+04  0.89957921452E+03 0.  0.
         23    2    4    4    0    0 -0.26099379521E+02 -0.27392039146E+03 -0.25326494690E+02  0.29081806785E+03  0.90665091342E+02 0.  0.
         23    2    4    4    0    0  0.18227523358E+03  0.64885005032E+03  0.22716851636E+03  0.71662727130E+03  0.87854781189E+02 0.  0.
          2    1    3    3  502    0 -0.13211925821E+03 -0.29148694524E+03 -0.10063914048E+03  0.33548230092E+03  0.00000000000E+00 0. -1.
         -1    1    3    3    0  502 -0.24056595841E+02 -0.83442713620E+02  0.12033127929E+02  0.87670989657E+02  0.00000000000E+00 0.  1.
         11    1    5    5    0    0 -0.54251394710E+02 -0.20571224712E+03 -0.37516994706E+02  0.21602839474E+03  0.00000000000E+00 0. -1.
        -11    1    5    5    0    0  0.28152015189E+02 -0.68208144344E+02  0.12190500016E+02  0.74789673116E+02  0.00000000000E+00 0.  1.
          3    1    6    6  503    0  0.15426944298E+03  0.57868054361E+03  0.17207492147E+03  0.62312118500E+03  0.00000000000E+00 0. -1.
         -3    1    6    6    0  503  0.28005790592E+02  0.70169506706E+02  0.55093594896E+02  0.93506086308E+02  0.00000000000E+00 0.  1.
<mgrwt>
<rscale>  0 0.14261101E+04</rscale>
<asrwt>0</asrwt>
<pdfrwt beam="1">  1        2 0.10133559E+00 0.14261101E+04</pdfrwt>
<pdfrwt beam="2">  1       -1 0.11875651E+00 0.14261101E+04</pdfrwt>
<totfact> 0.31183863E+01</totfact>
</mgrwt>
</event>
<event>
12    6  0.1403409E-007  0.1560391E+04  0.7818608E-02  0.8845258E-01
          2   -1    0    0  501    0  0.00000000000E+00  0.00000000000E+00  0.13876172159E+04  0.13876172159E+04  0.00000000000E+00 0. -1.
         -1   -1    0    0    0  501 -0.00000000000E+00 -0.00000000000E+00 -0.43866921546E+03  0.43866921546E+03  0.00000000000E+00 0.  1.
         24    2    1    2    0    0 -0.19040840143E+03 -0.14676279803E+03  0.85273068054E+03  0.88954569615E+03  0.79669654093E+02 0.  0.
        254    2    1    2    0    0  0.19040840143E+03  0.14676279803E+03  0.96217319911E+02  0.93674073522E+03  0.90023927605E+03 0.  0.
         23    2    4    4    0    0  0.16210380311E+03 -0.36297985804E+03  0.94239383995E+02  0.41891435166E+03  0.92607517021E+02 0.  0.
         23    2    4    4    0    0  0.28304598324E+02  0.50974265607E+03  0.19779359156E+01  0.51782638356E+03  0.86611347861E+02 0.  0.
          2    1    3    3  502    0 -0.39540790836E+02 -0.31924240973E+02  0.32153637368E+03  0.32552768069E+03  0.00000000000E+00 0. -1.
         -1    1    3    3    0  502 -0.15086761059E+03 -0.11483855706E+03  0.53119430686E+03  0.56401801546E+03  0.00000000000E+00 0.  1.
         11    1    5    5    0    0  0.96335920190E+02 -0.10812879558E+03  0.39027552757E+02  0.14998531871E+03  0.00000000000E+00 0. -1.
        -11    1    5    5    0    0  0.65767882916E+02 -0.25485106245E+03  0.55211831238E+02  0.26892903295E+03  0.00000000000E+00 0.  1.
          4    1    6    6  503    0 -0.10250830359E+02  0.29970645685E+03  0.34343968561E+02  0.30184192548E+03  0.00000000000E+00 0. -1.
         -4    1    6    6    0  503  0.38555428684E+02  0.21003619922E+03 -0.32366032646E+02  0.21598445808E+03  0.00000000000E+00 0.  1.
<mgrwt>
<rscale>  0 0.15603909E+04</rscale>
<asrwt>0</asrwt>
<pdfrwt beam="1">  1        2 0.21347957E+00 0.15603909E+04</pdfrwt>
<pdfrwt beam="2">  1       -1 0.67487572E-01 0.15603909E+04</pdfrwt>
<totfact> 0.35855207E+01</totfact>
</mgrwt>
</event>
<event>
12    6  0.1403409E-007  0.1721854E+04  0.7818608E-02  0.8748997E-01
          2   -1    0    0  501    0  0.00000000000E+00  0.00000000000E+00  0.91403961427E+03  0.91403961427E+03  0.00000000000E+00 0. -1.
         -1   -1    0    0    0  501 -0.00000000000E+00 -0.00000000000E+00 -0.81090108067E+03  0.81090108067E+03  0.00000000000E+00 0.  1.
         24    2    1    2    0    0  0.16273658536E+02  0.62245965810E+03  0.54289491397E+02  0.63013258067E+03  0.79992889862E+02 0.  0.
        254    2    1    2    0    0 -0.16273658536E+02 -0.62245965810E+03  0.48849042204E+02  0.10948081143E+04  0.89916501279E+03 0.  0.
         23    2    4    4    0    0  0.21877625310E+03 -0.51537691862E+03 -0.30653118493E+03  0.64475740476E+03  0.90963324999E+02 0.  0.
         23    2    4    4    0    0 -0.23504991164E+03 -0.10708273948E+03  0.35538022714E+03  0.45005070951E+03  0.97649174278E+02 0.  0.
          4    1    3    3  502    0 -0.28647942153E+02  0.24826105687E+03  0.39034737371E+02  0.25293866385E+03  0.00000000000E+00 0. -1.
         -3    1    3    3    0  502  0.44921600689E+02  0.37419860123E+03  0.15254754026E+02  0.37719391683E+03  0.00000000000E+00 0.  1.
         11    1    5    5    0    0  0.10776272644E+03 -0.17112646300E+03 -0.14371249035E+03  0.24809343286E+03  0.00000000000E+00 0. -1.
        -11    1    5    5    0    0  0.11101352666E+03 -0.34425045562E+03 -0.16281869458E+03  0.39666397190E+03  0.00000000000E+00 0.  1.
          3    1    6    6  503    0 -0.11111372769E+03 -0.85655545648E+02  0.12658129104E+03  0.18896019746E+03  0.00000000000E+00 0. -1.
         -3    1    6    6    0  503 -0.12393618395E+03 -0.21427193831E+02  0.22879893609E+03  0.26109051205E+03  0.00000000000E+00 0.  1.
<mgrwt>
<rscale>  0 0.17218545E+04</rscale>
<asrwt>0</asrwt>
<pdfrwt beam="1">  1        2 0.14062148E+00 0.17218545E+04</pdfrwt>
<pdfrwt beam="2">  1       -1 0.12475401E+00 0.17218545E+04</pdfrwt>
<totfact> 0.17492719E+01</totfact>
</mgrwt>
</event>
<event>
12    6  0.1403409E-007  0.2036017E+04  0.7818608E-02  0.8589964E-01
          2   -1    0    0  501    0  0.00000000000E+00  0.00000000000E+00  0.15929961875E+04  0.15929961875E+04  0.00000000000E+00 0. -1.
         -1   -1    0    0    0  501 -0.00000000000E+00 -0.00000000000E+00 -0.65056121432E+03  0.65056121432E+03  0.00000000000E+00 0.  1.
         24    2    1    2    0    0 -0.46633778439E+02  0.70596606357E+03  0.82837769494E+03  0.10922588338E+04  0.79100963587E+02 0.  0.
        254    2    1    2    0    0  0.46633778439E+02 -0.70596606357E+03  0.11405727821E+03  0.11512985680E+04  0.90106411406E+03 0.  0.
         23    2    4    4    0    0 -0.26292723086E+03 -0.13837316839E+03  0.33932035309E+03  0.46042309560E+03  0.92591913710E+02 0.  0.
         23    2    4    4    0    0  0.30956100930E+03 -0.56759289518E+03 -0.22526307487E+03  0.69087547235E+03  0.92605357642E+02 0.  0.
          4    1    3    3  502    0 -0.25559877721E+02  0.44078010273E+03  0.57422182796E+03  0.72434184887E+03  0.00000000000E+00 0. -1.
         -3    1    3    3    0  502 -0.21073900718E+02  0.26518596084E+03  0.25415586697E+03  0.36791698498E+03  0.00000000000E+00 0.  1.
         11    1    5    5    0    0 -0.25189366437E+03 -0.99624518029E+02  0.29283897884E+03  0.39891118093E+03  0.00000000000E+00 0.  1.
        -11    1    5    5    0    0 -0.11033566486E+02 -0.38748650361E+02  0.46481374247E+02  0.61511914668E+02  0.00000000000E+00 0. -1.
          4    1    6    6  503    0  0.78395665090E+02 -0.17974480019E+03 -0.11016714679E+03  0.22492415107E+03  0.00000000000E+00 0. -1.
         -4    1    6    6    0  503  0.23116534421E+03 -0.38784809499E+03 -0.11509592808E+03  0.46595132129E+03  0.00000000000E+00 0.  1.
<mgrwt>
<rscale>  0 0.20360172E+04</rscale>
<asrwt>0</asrwt>
<pdfrwt beam="1">  1        2 0.24507634E+00 0.20360172E+04</pdfrwt>
<pdfrwt beam="2">  1       -1 0.10008634E+00 0.20360172E+04</pdfrwt>
<totfact> 0.11295760E+01</totfact>
</mgrwt>
</event>
<event>
12    6  0.1403409E-007  0.2793260E+04  0.7818608E-02  0.8305364E-01
         -1   -1    0    0    0  501 -0.00000000000E+00  0.00000000000E+00  0.11436735952E+04  0.11436735952E+04  0.00000000000E+00 0.  1.
          2   -1    0    0  501    0  0.00000000000E+00 -0.00000000000E+00 -0.17055353767E+04  0.17055353767E+04  0.00000000000E+00 0. -1.
         24    2    1    2    0    0 -0.65485752041E+03 -0.91199617416E+03 -0.81209806379E+03  0.13879762982E+04  0.79997159051E+02 0.  0.
        254    2    1    2    0    0  0.65485752041E+03  0.91199617416E+03  0.25023628237E+03  0.14612326737E+04  0.90111449656E+03 0.  0.
         23    2    4    4    0    0  0.39849386261E+03  0.79633793041E+03 -0.20459068892E+03  0.91792103536E+03  0.88148846869E+02 0.  0.
         23    2    4    4    0    0  0.25636365780E+03  0.11565824374E+03  0.45482697128E+03  0.54331163833E+03  0.96025039197E+02 0.  0.
          2    1    3    3  502    0 -0.31535772590E+03 -0.45940697523E+03 -0.45010308805E+03  0.71630863045E+03  0.00000000000E+00 0. -1.
         -1    1    3    3    0  502 -0.33949979451E+03 -0.45258919892E+03 -0.36199497574E+03  0.67166766776E+03  0.00000000000E+00 0.  1.
         11    1    5    5    0    0  0.18984704184E+03  0.47573881379E+03 -0.11046595286E+03  0.52399622612E+03  0.00000000000E+00 0.  1.
        -11    1    5    5    0    0  0.20864682077E+03  0.32059911662E+03 -0.94124736057E+02  0.39392480924E+03  0.00000000000E+00 0. -1.
          2    1    6    6  503    0  0.32783782092E+02 -0.39249493708E+01  0.16446203439E+02  0.36887114328E+02  0.00000000000E+00 0.  1.
         -2    1    6    6    0  503  0.22357987571E+03  0.11958319311E+03  0.43838076784E+03  0.50642452400E+03  0.00000000000E+00 0. -1.
<mgrwt>
<rscale>  0 0.27932603E+04</rscale>
<asrwt>0</asrwt>
<pdfrwt beam="1">  1        2 0.26239006E+00 0.27932603E+04</pdfrwt>
<pdfrwt beam="2">  1       -1 0.17594978E+00 0.27932603E+04</pdfrwt>
<totfact> 0.21484533E+00</totfact>
</mgrwt>
</event>
<event>
12    6  0.1403409E-007  0.2611242E+04  0.7818608E-02  0.8364393E-01
          2   -1    0    0  501    0  0.00000000000E+00  0.00000000000E+00  0.18381413599E+04  0.18381413599E+04  0.00000000000E+00 0. -1.
         -1   -1    0    0    0  501 -0.00000000000E+00 -0.00000000000E+00 -0.92737459813E+03  0.92737459813E+03  0.00000000000E+00 0.  1.
         24    2    1    2    0    0  0.52219047145E+03  0.95872357334E+03  0.78063448498E+03  0.13446959963E+04  0.83566409090E+02 0.  0.
        254    2    1    2    0    0 -0.52219047145E+03 -0.95872357334E+03  0.13013227674E+03  0.14208199617E+04  0.89997843062E+03 0.  0.
         23    2    4    4    0    0  0.78428743396E+02 -0.25212741964E+03 -0.28672695397E+03  0.40020693085E+03  0.90741048252E+02 0.  0.
         23    2    4    4    0    0 -0.60061921485E+03 -0.70659615370E+03  0.41685923072E+03  0.10206130309E+04  0.88644090972E+02 0.  0.
          2    1    3    3  502    0  0.52508522698E+02  0.11076505841E+03  0.12068707567E+03  0.17202154910E+03  0.00000000000E+00 0. -1.
         -1    1    3    3    0  502  0.46968194875E+03  0.84795851493E+03  0.65994740931E+03  0.11726744472E+04  0.00000000000E+00 0.  1.
         11    1    5    5    0    0  0.22270343989E+02 -0.19077261821E+03 -0.22939774194E+03  0.29918804135E+03  0.00000000000E+00 0.  1.
        -11    1    5    5    0    0  0.56158399407E+02 -0.61354801431E+02 -0.57329212029E+02  0.10101888949E+03  0.00000000000E+00 0. -1.
          2    1    6    6  503    0 -0.85286144162E+02 -0.12993830494E+03  0.40994119023E+02  0.16074267409E+03  0.00000000000E+00 0. -1.
         -2    1    6    6    0  503 -0.51533307068E+03 -0.57665784875E+03  0.37586511169E+03  0.85987035677E+03  0.00000000000E+00 0.  1.
<mgrwt>
<rscale>  0 0.26112415E+04</rscale>
<asrwt>0</asrwt>
<pdfrwt beam="1">  1        2 0.28279098E+00 0.26112415E+04</pdfrwt>
<pdfrwt beam="2">  1       -1 0.14267302E+00 0.26112415E+04</pdfrwt>
<totfact> 0.32965941E+00</totfact>
</mgrwt>
</event>
<event>
12    6  0.1403409E-007  0.2628869E+04  0.7818608E-02  0.8358461E-01
         -1   -1    0    0    0  501 -0.00000000000E+00  0.00000000000E+00  0.12374506691E+04  0.12374506691E+04  0.00000000000E+00 0.  1.
          2   -1    0    0  501    0  0.00000000000E+00 -0.00000000000E+00 -0.13962071240E+04  0.13962071240E+04  0.00000000000E+00 0. -1.
         24    2    1    2    0    0  0.88764242316E+03 -0.38064788991E+03  0.57121708718E+03  0.11249071207E+04  0.79531013694E+02 0.  0.
        254    2    1    2    0    0 -0.88764242316E+03  0.38064788991E+03 -0.72997354209E+03  0.15087506724E+04  0.90036955287E+03 0.  0.
         23    2    4    4    0    0 -0.78904104572E+02  0.19231518095E+03 -0.62682812992E+03  0.66676317644E+03  0.91916497162E+02 0.  0.
         23    2    4    4    0    0 -0.80873831859E+03  0.18833270895E+03 -0.10314541217E+03  0.84198749593E+03  0.93686125080E+02 0.  0.
          2    1    3    3  502    0  0.49332272559E+03 -0.17818044255E+03  0.28039942413E+03  0.59475996734E+03  0.00000000000E+00 0. -1.
         -1    1    3    3    0  502  0.39431969757E+03 -0.20246744735E+03  0.29081766305E+03  0.53014715341E+03  0.00000000000E+00 0.  1.
         11    1    5    5    0    0 -0.33170261565E+02  0.50896487524E+02 -0.32139737453E+03  0.32708865931E+03  0.00000000000E+00 0. -1.
        -11    1    5    5    0    0 -0.45733843007E+02  0.14141869343E+03 -0.30543075539E+03  0.33967451713E+03  0.00000000000E+00 0.  1.
          2    1    6    6  503    0 -0.60960728939E+03  0.17878334625E+03 -0.96035757715E+02  0.64250089411E+03  0.00000000000E+00 0. -1.
         -2    1    6    6    0  503 -0.19913102920E+03  0.95493627010E+01 -0.71096544522E+01  0.19948660182E+03  0.00000000000E+00 0.  1.
<mgrwt>
<rscale>  0 0.26288685E+04</rscale>
<asrwt>0</asrwt>
<pdfrwt beam="1">  1        2 0.21480110E+00 0.26288685E+04</pdfrwt>
<pdfrwt beam="2">  1       -1 0.19037703E+00 0.26288685E+04</pdfrwt>
<totfact> 0.25676190E+00</totfact>
</mgrwt>
</event>
<event>
12    6  0.1403409E-007  0.1165408E+04  0.7818608E-02  0.9143685E-01
          2   -1    0    0  501    0  0.00000000000E+00  0.00000000000E+00  0.25944240585E+04  0.25944240585E+04  0.00000000000E+00 0. -1.
         -1   -1    0    0    0  501 -0.00000000000E+00 -0.00000000000E+00 -0.13087458170E+03  0.13087458170E+03  0.00000000000E+00 0.  1.
         24    2    1    2    0    0  0.12822110313E+03  0.15418972699E+03  0.26647562209E+03  0.34146753309E+03  0.73319136601E+02 0.  0.
        254    2    1    2    0    0 -0.12822110313E+03 -0.15418972699E+03  0.21970738547E+04  0.23838311071E+04  0.90294080699E+03 0.  0.
         23    2    4    4    0    0 -0.18306837530E+03 -0.47504941437E+03  0.17411163321E+04  0.18162901105E+04  0.90761816702E+02 0.  0.
         23    2    4    4    0    0  0.54847272173E+02  0.32085968738E+03  0.45595752258E+03  0.56754099660E+03  0.90809460816E+02 0.  0.
          2    1    3    3  502    0  0.65089417635E+02  0.46497216186E+02  0.15354828268E+03  0.17313491420E+03  0.00000000000E+00 0. -1.
         -1    1    3    3    0  502  0.63131685496E+02  0.10769251081E+03  0.11292733940E+03  0.16833261889E+03  0.00000000000E+00 0.  1.
         11    1    5    5    0    0 -0.18644343042E+03 -0.45918868805E+03  0.17179904318E+04  0.17880454490E+04  0.00000000000E+00 0. -1.
        -11    1    5    5    0    0  0.33750551181E+01 -0.15860726324E+02  0.23125900321E+02  0.28244661482E+02  0.00000000000E+00 0.  1.
          2    1    6    6  503    0  0.54430179040E+02  0.32714002407E+03  0.44808835810E+03  0.55746427366E+03  0.00000000000E+00 0. -1.
         -2    1    6    6    0  503  0.41709313255E+00 -0.62803366914E+01  0.78691644771E+01  0.10076722940E+02  0.00000000000E+00 0.  1.
<mgrwt>
<rscale>  0 0.11654084E+04</rscale>
<asrwt>0</asrwt>
<pdfrwt beam="1">  1        2 0.39914212E+00 0.11654084E+04</pdfrwt>
<pdfrwt beam="2">  1       -1 0.20134553E-01 0.11654084E+04</pdfrwt>
<totfact> 0.70457763E+01</totfact>
</mgrwt>
</event>
<event>
12    6  0.1403409E-007  0.4208265E+04  0.7818608E-02  0.7963802E-01
          2   -1    0    0  501    0  0.00000000000E+00  0.00000000000E+00  0.37230284256E+04  0.37230284256E+04  0.00000000000E+00 0. -1.
         -1   -1    0    0    0  501 -0.00000000000E+00 -0.00000000000E+00 -0.11891859135E+04  0.11891859135E+04  0.00000000000E+00 0.  1.
         24    2    1    2    0    0 -0.15654814785E+02  0.80440276931E+03 -0.93694706381E+03  0.12375405623E+04  0.79548440345E+02 0.  0.
        254    2    1    2    0    0  0.15654814785E+02 -0.80440276931E+03  0.34707895758E+04  0.36746737768E+04  0.89974340657E+03 0.  0.
         23    2    4    4    0    0 -0.38874775733E+03 -0.16590276305E+03  0.10044101699E+04  0.10934989397E+04  0.90838296369E+02 0.  0.
         23    2    4    4    0    0  0.40440257211E+03 -0.63850000627E+03  0.24663794060E+04  0.25811748371E+04  0.90622664785E+02 0.  0.
          4    1    3    3  502    0  0.83701950043E+01  0.46616171152E+03 -0.59573285130E+03  0.75648822302E+03  0.00000000000E+00 0. -1.
         -3    1    3    3    0  502 -0.24025009789E+02  0.33824105779E+03 -0.34121421251E+03  0.48105233924E+03  0.00000000000E+00 0.  1.
         11    1    5    5    0    0 -0.24328565165E+03 -0.14838118677E+03  0.69501972657E+03  0.75117062323E+03  0.00000000000E+00 0. -1.
        -11    1    5    5    0    0 -0.14546210567E+03 -0.17521576275E+02  0.30939044330E+03  0.34232831643E+03  0.00000000000E+00 0.  1.
          1    1    6    6  503    0  0.23603015283E+03 -0.43271292656E+03  0.16978682449E+04  0.17679669926E+04  0.00000000000E+00 0. -1.
         -1    1    6    6    0  503  0.16837241928E+03 -0.20578707971E+03  0.76851116108E+03  0.81320784456E+03  0.00000000000E+00 0.  1.
<mgrwt>
<rscale>  0 0.42082647E+04</rscale>
<asrwt>0</asrwt>
<pdfrwt beam="1">  1        2 0.57277360E+00 0.42082647E+04</pdfrwt>
<pdfrwt beam="2">  1       -1 0.18295168E+00 0.42082647E+04</pdfrwt>
<totfact> 0.97651055E-02</totfact>
</mgrwt>
</event>
<event>
12    6  0.1403409E-007  0.1419394E+04  0.7818608E-02  0.8939898E-01
         -1   -1    0    0    0  501 -0.00000000000E+00  0.00000000000E+00  0.48696478785E+03  0.48696478785E+03  0.00000000000E+00 0.  1.
          2   -1    0    0  501    0  0.00000000000E+00 -0.00000000000E+00 -0.10343046503E+04  0.10343046503E+04  0.00000000000E+00 0. -1.
         24    2    1    2    0    0  0.13174631365E+03  0.35800261010E+03  0.23331706225E+02  0.38956517177E+03  0.75456573870E+02 0.  0.
        254    2    1    2    0    0 -0.13174631365E+03 -0.35800261010E+03 -0.57067156868E+03  0.11317042664E+04  0.89975860499E+03 0.  0.
         23    2    4    4    0    0 -0.13833508600E+03 -0.65034875752E+03 -0.41280253195E+03  0.78805560208E+03  0.92388306352E+02 0.  0.
         23    2    4    4    0    0  0.65887723492E+01  0.29234614743E+03 -0.15786903673E+03  0.34364866430E+03  0.87533364397E+02 0.  0.
          2    1    3    3  502    0  0.12660915239E+02  0.31347706517E+01 -0.54676112416E+01  0.14142854536E+02  0.00000000000E+00 0. -1.
         -1    1    3    3    0  502  0.11908539842E+03  0.35486783944E+03  0.28799317466E+02  0.37542231723E+03  0.00000000000E+00 0.  1.
         11    1    5    5    0    0 -0.51266471529E+02 -0.14067100795E+03 -0.56074415733E+02  0.15987783987E+03  0.00000000000E+00 0. -1.
        -11    1    5    5    0    0 -0.87068614475E+02 -0.50967774957E+03 -0.35672811622E+03  0.62817776221E+03  0.00000000000E+00 0.  1.
          2    1    6    6  503    0 -0.53987198902E+01  0.28859609010E+03 -0.13751219889E+03  0.31972871976E+03  0.00000000000E+00 0.  1.
         -2    1    6    6    0  503  0.11987492239E+02  0.37500573306E+01 -0.20356837838E+02  0.23919944543E+02  0.00000000000E+00 0. -1.
<mgrwt>
<rscale>  0 0.14193942E+04</rscale>
<asrwt>0</asrwt>
<pdfrwt beam="1">  1        2 0.15912379E+00 0.14193942E+04</pdfrwt>
<pdfrwt beam="2">  1       -1 0.74917661E-01 0.14193942E+04</pdfrwt>
<totfact> 0.47594569E+01</totfact>
</mgrwt>
</event>
<event>
12    6  0.1403409E-007  0.3211620E+04  0.7818608E-02  0.8185755E-01
          2   -1    0    0  501    0  0.00000000000E+00  0.00000000000E+00  0.14348855371E+04  0.14348855371E+04  0.00000000000E+00 0. -1.
         -1   -1    0    0    0  501 -0.00000000000E+00 -0.00000000000E+00 -0.17970946938E+04  0.17970946938E+04  0.00000000000E+00 0.  1.
         24    2    1    2    0    0 -0.72359973716E+02  0.14760431069E+04 -0.11756583852E+03  0.14846646046E+04  0.80424141774E+02 0.  0.
        254    2    1    2    0    0  0.72359973716E+02 -0.14760431069E+04 -0.24464331818E+03  0.17473156262E+04  0.89962343522E+03 0.  0.
         23    2    4    4    0    0 -0.22337269558E+03 -0.49231848152E+02  0.66995365547E+02  0.25479946008E+03  0.90084681540E+02 0.  0.
         23    2    4    4    0    0  0.29573266930E+03 -0.14268112588E+04 -0.31163868373E+03  0.14925161661E+04  0.85074421168E+02 0.  0.
          4    1    3    3  502    0 -0.19490345068E+02  0.11314834970E+03 -0.25690634277E+02  0.11765386215E+03  0.00000000000E+00 0. -1.
         -3    1    3    3    0  502 -0.52869628648E+02  0.13628947572E+04 -0.91875204240E+02  0.13670107425E+04  0.00000000000E+00 0.  1.
         11    1    5    5    0    0 -0.12083974838E+02  0.19447072301E+02  0.53682019034E+00  0.22901948496E+02  0.00000000000E+00 0.  1.
        -11    1    5    5    0    0 -0.21128872074E+03 -0.68678920453E+02  0.66458545356E+02  0.23189751158E+03  0.00000000000E+00 0. -1.
          2    1    6    6  503    0  0.18566233648E+03 -0.10230953907E+04 -0.25124711441E+03  0.10697288415E+04  0.00000000000E+00 0. -1.
         -2    1    6    6    0  503  0.11007033282E+03 -0.40371586804E+03 -0.60391569317E+02  0.42278732469E+03  0.00000000000E+00 0.  1.
<mgrwt>
<rscale>  0 0.32116196E+04</rscale>
<asrwt>0</asrwt>
<pdfrwt beam="1">  1        2 0.22075162E+00 0.32116196E+04</pdfrwt>
<pdfrwt beam="2">  1       -1 0.27647611E+00 0.32116196E+04</pdfrwt>
<totfact> 0.62101050E-01</totfact>
</mgrwt>
</event>
<event>
12    6  0.1403409E-007  0.1545123E+04  0.7818608E-02  0.8854989E-01
         -1   -1    0    0    0  501 -0.00000000000E+00  0.00000000000E+00  0.10457951582E+04  0.10457951582E+04  0.00000000000E+00 0.  1.
          2   -1    0    0  501    0  0.00000000000E+00 -0.00000000000E+00 -0.57071535941E+03  0.57071535941E+03  0.00000000000E+00 0. -1.
         24    2    1    2    0    0  0.33062907640E+03 -0.37933847461E+03  0.20889753287E+03  0.55075791288E+03  0.80516053537E+02 0.  0.
        254    2    1    2    0    0 -0.33062907640E+03  0.37933847461E+03  0.26618226595E+03  0.10657526047E+04  0.90097855209E+03 0.  0.
         23    2    4    4    0    0 -0.10361922013E+03 -0.13931588927E+03  0.42758482796E+03  0.47024544134E+03  0.90311296161E+02 0.  0.
         23    2    4    4    0    0 -0.22700985627E+03  0.51865436388E+03 -0.16140256201E+03  0.59550716340E+03  0.89678150176E+02 0.  0.
          2    1    3    3  502    0  0.14856498123E+03 -0.13371443124E+03  0.49304920939E+02  0.20586907975E+03  0.00000000000E+00 0. -1.
         -1    1    3    3    0  502  0.18206409518E+03 -0.24562404338E+03  0.15959261193E+03  0.34488883313E+03  0.00000000000E+00 0.  1.
         11    1    5    5    0    0 -0.49044652423E+02 -0.11846712396E+03  0.35259985625E+03  0.37518861393E+03  0.00000000000E+00 0.  1.
        -11    1    5    5    0    0 -0.54574567711E+02 -0.20848765309E+02  0.74984971709E+02  0.95056827413E+02  0.00000000000E+00 0. -1.
          4    1    6    6  503    0 -0.12655841532E+03  0.34747731743E+03 -0.14182137681E+03  0.39606921307E+03  0.00000000000E+00 0. -1.
         -4    1    6    6    0  503 -0.10045144095E+03  0.17117704645E+03 -0.19581185207E+02  0.19943795034E+03  0.00000000000E+00 0.  1.
<mgrwt>
<rscale>  0 0.15451231E+04</rscale>
<asrwt>0</asrwt>
<pdfrwt beam="1">  1        2 0.87802363E-01 0.15451231E+04</pdfrwt>
<pdfrwt beam="2">  1       -1 0.16089156E+00 0.15451231E+04</pdfrwt>
<totfact> 0.16678758E+01</totfact>
</mgrwt>
</event>
<event>
12    6  0.1403409E-007  0.2250667E+04  0.7818608E-02  0.8497631E-01
          2   -1    0    0  501    0  0.00000000000E+00  0.00000000000E+00  0.27175521230E+04  0.27175521230E+04  0.00000000000E+00 0. -1.
         -1   -1    0    0    0  501 -0.00000000000E+00 -0.00000000000E+00 -0.46599847062E+03  0.46599847062E+03  0.00000000000E+00 0.  1.
         24    2    1    2    0    0  0.63591483767E+02  0.92256184178E+03  0.68060785265E+03  0.11508994397E+04  0.78601797417E+02 0.  0.
        254    2    1    2    0    0 -0.63591483767E+02 -0.92256184178E+03  0.15709457998E+04  0.20326511539E+04  0.89924178005E+03 0.  0.
         23    2    4    4    0    0  0.27015437489E+03 -0.81117178788E+03  0.77442672172E+03  0.11569019111E+04  0.87762342531E+02 0.  0.
         23    2    4    4    0    0 -0.33374585865E+03 -0.11139005391E+03  0.79651907803E+03  0.87574924285E+03  0.93274071487E+02 0.  0.
          4    1    3    3  502    0  0.97223048147E+01  0.33187973094E+03  0.28870689186E+03  0.43998903217E+03  0.00000000000E+00 0. -1.
         -3    1    3    3    0  502  0.53869178953E+02  0.59068211085E+03  0.39190096079E+03  0.71091040757E+03  0.00000000000E+00 0.  1.
         11    1    5    5    0    0  0.19909529861E+03 -0.46100859914E+03  0.45428781769E+03  0.67715972097E+03  0.00000000000E+00 0. -1.
        -11    1    5    5    0    0  0.71059076279E+02 -0.35016318874E+03  0.32013890404E+03  0.47974219008E+03  0.00000000000E+00 0.  1.
          1    1    6    6  503    0 -0.25565850112E+03 -0.10251577717E+03  0.52217751759E+03  0.59037285985E+03  0.00000000000E+00 0. -1.
         -1    1    6    6    0  503 -0.78087357529E+02 -0.88742767399E+01  0.27434156043E+03  0.28537638300E+03  0.00000000000E+00 0.  1.
<mgrwt>
<rscale>  0 0.22506667E+04</rscale>
<asrwt>0</asrwt>
<pdfrwt beam="1">  1        2 0.41808493E+00 0.22506667E+04</pdfrwt>
<pdfrwt beam="2">  1       -1 0.71692074E-01 0.22506667E+04</pdfrwt>
<totfact> 0.52746328E+00</totfact>
</mgrwt>
</event>
<event>
12    6  0.1403409E-007  0.2231063E+04  0.7818608E-02  0.8505609E-01
         -1   -1    0    0    0  501 -0.00000000000E+00  0.00000000000E+00  0.12999478793E+04  0.12999478793E+04  0.00000000000E+00 0.  1.
          2   -1    0    0  501    0  0.00000000000E+00 -0.00000000000E+00 -0.95727758545E+03  0.95727758545E+03  0.00000000000E+00 0. -1.
         24    2    1    2    0    0  0.71539941704E+03  0.58559392617E+03  0.26246354972E+03  0.96443567160E+03  0.80823743196E+02 0.  0.
        254    2    1    2    0    0 -0.71539941704E+03 -0.58559392617E+03  0.80206744112E+02  0.12927897931E+04  0.90008652650E+03 0.  0.
         23    2    4    4    0    0  0.24416432469E+02 -0.33182017579E+03  0.31954077592E+03  0.47016626632E+03  0.90825212793E+02 0.  0.
         23    2    4    4    0    0 -0.73981584951E+03 -0.25377375038E+03 -0.23933403181E+03  0.82262352682E+03  0.87750102729E+02 0.  0.
          4    1    3    3  502    0  0.37710975840E+03  0.34779200855E+03  0.11781182470E+03  0.52635603647E+03  0.00000000000E+00 0. -1.
         -3    1    3    3    0  502  0.33828965864E+03  0.23780191762E+03  0.14465172502E+03  0.43807963513E+03  0.00000000000E+00 0.  1.
         11    1    5    5    0    0 -0.23922956965E+02 -0.23486713686E+03  0.20743045686E+03  0.31426465643E+03  0.00000000000E+00 0.  1.
        -11    1    5    5    0    0  0.48339389434E+02 -0.96953038925E+02  0.11211031906E+03  0.15590160990E+03  0.00000000000E+00 0. -1.
          2    1    6    6  503    0 -0.12217531175E+03 -0.77334503667E+02 -0.48973838936E+02  0.15266259908E+03  0.00000000000E+00 0. -1.
         -2    1    6    6    0  503 -0.61764053775E+03 -0.17643924672E+03 -0.19036019287E+03  0.66996092773E+03  0.00000000000E+00 0.  1.
<mgrwt>
<rscale>  0 0.22310634E+04</rscale>
<asrwt>0</asrwt>
<pdfrwt beam="1">  1        2 0.14727348E+00 0.22310634E+04</pdfrwt>
<pdfrwt beam="2">  1       -1 0.19999198E+00 0.22310634E+04</pdfrwt>
<totfact> 0.42026849E+00</totfact>
</mgrwt>
</event>
<event>
12    6  0.1403409E-007  0.2740096E+04  0.7818608E-02  0.8322111E-01
         -1   -1    0    0    0  501 -0.00000000000E+00  0.00000000000E+00  0.13597054441E+04  0.13597054441E+04  0.00000000000E+00 0.  1.
          2   -1    0    0  501    0  0.00000000000E+00 -0.00000000000E+00 -0.13804688902E+04  0.13804688902E+04  0.00000000000E+00 0. -1.
         24    2    1    2    0    0 -0.29997128673E+03  0.11824851639E+04 -0.11427471476E+02  0.12225655071E+04  0.79258413862E+02 0.  0.
        254    2    1    2    0    0  0.29997128673E+03 -0.11824851639E+04 -0.93359746040E+01  0.15176088272E+04  0.90266021073E+03 0.  0.
         23    2    4    4    0    0  0.48975858456E+03 -0.49541670341E+03  0.26266958117E+03  0.74922109249E+03  0.83879409802E+02 0.  0.
         23    2    4    4    0    0 -0.18978729783E+03 -0.68706846053E+03 -0.27200555577E+03  0.76838773467E+03  0.91380526042E+02 0.  0.
          4    1    3    3  502    0 -0.19328147133E+03  0.61864870988E+03 -0.24052361185E+02  0.64858497475E+03  0.00000000000E+00 0. -1.
         -3    1    3    3    0  502 -0.10668981540E+03  0.56383645407E+03  0.12624889708E+02  0.57398053232E+03  0.00000000000E+00 0.  1.
         11    1    5    5    0    0  0.40626793289E+03 -0.38237593988E+03  0.23793792255E+03  0.60653066508E+03  0.00000000000E+00 0. -1.
        -11    1    5    5    0    0  0.83490651673E+02 -0.11304076353E+03  0.24731658613E+02  0.14269042741E+03  0.00000000000E+00 0.  1.
          3    1    6    6  503    0 -0.15316552068E+03 -0.63352223148E+03 -0.23029653554E+03  0.69126448541E+03  0.00000000000E+00 0. -1.
         -3    1    6    6    0  503 -0.36621777156E+02 -0.53546229050E+02 -0.41709020229E+02  0.77123249257E+02  0.00000000000E+00 0.  1.
<mgrwt>
<rscale>  0 0.27400957E+04</rscale>
<asrwt>0</asrwt>
<pdfrwt beam="1">  1        2 0.21237983E+00 0.27400957E+04</pdfrwt>
<pdfrwt beam="2">  1       -1 0.20918545E+00 0.27400957E+04</pdfrwt>
<totfact> 0.19258538E+00</totfact>
</mgrwt>
</event>
<event>
12    6  0.1403409E-007  0.1643188E+04  0.7818608E-02  0.8794446E-01
          2   -1    0    0  501    0  0.00000000000E+00  0.00000000000E+00  0.80984588242E+03  0.80984588242E+03  0.00000000000E+00 0. -1.
         -1   -1    0    0    0  501 -0.00000000000E+00 -0.00000000000E+00 -0.83351282312E+03  0.83351282312E+03  0.00000000000E+00 0.  1.
         24    2    1    2    0    0 -0.13945051605E+03  0.22506205188E+03 -0.51445713980E+03  0.58411775790E+03  0.80175013417E+02 0.  0.
        254    2    1    2    0    0  0.13945051605E+03 -0.22506205188E+03  0.49079019910E+03  0.10592409476E+04  0.90056481834E+03 0.  0.
         23    2    4    4    0    0 -0.36551941548E+03 -0.10311492820E+02  0.26696965879E+03  0.45993167826E+03  0.80954184432E+02 0.  0.
         23    2    4    4    0    0  0.50496993152E+03 -0.21475055906E+03  0.22382054031E+03  0.59930926939E+03  0.89238622565E+02 0.  0.
          2    1    3    3  502    0 -0.48830408728E+02  0.14709306599E+03 -0.25427779157E+03  0.29778847218E+03  0.00000000000E+00 0. -1.
         -1    1    3    3    0  502 -0.90620107320E+02  0.77968985882E+02 -0.26017934823E+03  0.28632928571E+03  0.00000000000E+00 0.  1.
         11    1    5    5    0    0 -0.29518836416E+03  0.24177438681E+02  0.21247440510E+03  0.36450801321E+03  0.00000000000E+00 0. -1.
        -11    1    5    5    0    0 -0.70331051320E+02 -0.34488931501E+02  0.54495253693E+02  0.95423665046E+02  0.00000000000E+00 0.  1.
          1    1    6    6  503    0  0.32437078324E+03 -0.17535782999E+03  0.17481948660E+03  0.40807919140E+03  0.00000000000E+00 0. -1.
         -1    1    6    6    0  503  0.18059914829E+03 -0.39392729070E+02  0.49001053702E+02  0.19123007799E+03  0.00000000000E+00 0.  1.
<mgrwt>
<rscale>  0 0.16431883E+04</rscale>
<asrwt>0</asrwt>
<pdfrwt beam="1">  1        2 0.12459167E+00 0.16431883E+04</pdfrwt>
<pdfrwt beam="2">  1       -1 0.12823274E+00 0.16431883E+04</pdfrwt>
<totfact> 0.19414113E+01</totfact>
</mgrwt>
</event>
<event>
12    6  0.1403409E-007  0.1733301E+04  0.7818608E-02  0.8742596E-01
         -1   -1    0    0    0  501 -0.00000000000E+00  0.00000000000E+00  0.38024984055E+03  0.38024984055E+03  0.00000000000E+00 0.  1.
          2   -1    0    0  501    0  0.00000000000E+00 -0.00000000000E+00 -0.19752363118E+04  0.19752363118E+04  0.00000000000E+00 0. -1.
         24    2    1    2    0    0  0.60685631541E+02  0.60596079988E+03 -0.36610503226E+03  0.71438938993E+03  0.73811035273E+02 0.  0.
        254    2    1    2    0    0 -0.60685631541E+02 -0.60596079988E+03 -0.12288814390E+04  0.16410967624E+04  0.90120905214E+03 0.  0.
         23    2    4    4    0    0 -0.31244265954E+03 -0.63146283837E+03 -0.51033875698E+03  0.87470475618E+03  0.91088044527E+02 0.  0.
         23    2    4    4    0    0  0.25175702800E+03  0.25502038492E+02 -0.71854268200E+03  0.76639200624E+03  0.83792399753E+02 0.  0.
          2    1    3    3  502    0  0.22342142057E+02  0.36840533400E+03 -0.25964034824E+03  0.45125909615E+03  0.00000000000E+00 0. -1.
         -1    1    3    3    0  502  0.38343489484E+02  0.23755546589E+03 -0.10646468402E+03  0.26313029377E+03  0.00000000000E+00 0.  1.
         11    1    5    5    0    0  0.58619915618E+01 -0.14361862352E+02 -0.16478835485E+02  0.22631351136E+02  0.00000000000E+00 0. -1.
        -11    1    5    5    0    0 -0.31830465110E+03 -0.61710097602E+03 -0.49385992150E+03  0.85207340504E+03  0.00000000000E+00 0.  1.
          4    1    6    6  503    0  0.79306414299E+02 -0.30870639395E+02 -0.23427826943E+03  0.24925651697E+03  0.00000000000E+00 0. -1.
         -4    1    6    6    0  503  0.17245061370E+03  0.56372677887E+02 -0.48426441257E+03  0.51713548926E+03  0.00000000000E+00 0.  1.
<mgrwt>
<rscale>  0 0.17333012E+04</rscale>
<asrwt>0</asrwt>
<pdfrwt beam="1">  1        2 0.30388251E+00 0.17333012E+04</pdfrwt>
<pdfrwt beam="2">  1       -1 0.58499976E-01 0.17333012E+04</pdfrwt>
<totfact> 0.22075074E+01</totfact>
</mgrwt>
</event>
<event>
12    6  0.1403409E-007  0.1697113E+04  0.7818608E-02  0.8763012E-01
          2   -1    0    0  501    0  0.00000000000E+00  0.00000000000E+00  0.70692003514E+03  0.70692003514E+03  0.00000000000E+00 0. -1.
         -1   -1    0    0    0  501 -0.00000000000E+00 -0.00000000000E+00 -0.10185713929E+04  0.10185713929E+04  0.00000000000E+00 0.  1.
         24    2    1    2    0    0 -0.41932500455E+03  0.42435055169E+03 -0.22264158950E+03  0.64134849072E+03  0.76496790922E+02 0.  0.
        254    2    1    2    0    0  0.41932500455E+03 -0.42435055169E+03 -0.89009768241E+02  0.10841429373E+04  0.90085310650E+03 0.  0.
         23    2    4    4    0    0  0.25457216705E+03 -0.61911274556E+03  0.18356197279E+03  0.69991969311E+03  0.89916622476E+02 0.  0.
         23    2    4    4    0    0  0.16475283750E+03  0.19476219387E+03 -0.27257174103E+03  0.38422324419E+03  0.90864392078E+02 0.  0.
          4    1    3    3  502    0 -0.21012099540E+03  0.23411284169E+03 -0.79755774596E+02  0.32453141440E+03  0.00000000000E+00 0. -1.
         -3    1    3    3    0  502 -0.20920400915E+03  0.19023771000E+03 -0.14288581490E+03  0.31681707632E+03  0.00000000000E+00 0.  1.
         11    1    5    5    0    0  0.13767549482E+03 -0.22824510864E+03  0.90190957455E+02  0.28139790386E+03  0.00000000000E+00 0.  1.
        -11    1    5    5    0    0  0.11689667223E+03 -0.39086763692E+03  0.93371015330E+02  0.41852178925E+03  0.00000000000E+00 0. -1.
          3    1    6    6  503    0  0.37335975401E+02  0.41156381381E+02 -0.13482580409E+02  0.57180440379E+02  0.00000000000E+00 0. -1.
         -3    1    6    6    0  503  0.12741686210E+03  0.15360581249E+03 -0.25908916062E+03  0.32704280381E+03  0.00000000000E+00 0.  1.
<mgrwt>
<rscale>  0 0.16971135E+04</rscale>
<asrwt>0</asrwt>
<pdfrwt beam="1">  1        2 0.10875693E+00 0.16971135E+04</pdfrwt>
<pdfrwt beam="2">  1       -1 0.15670329E+00 0.16971135E+04</pdfrwt>
<totfact> 0.13618552E+01</totfact>
</mgrwt>
</event>
<event>
12    6  0.1403409E-007  0.2081633E+04  0.7818608E-02  0.8569378E-01
          2   -1    0    0  501    0  0.00000000000E+00  0.00000000000E+00  0.74193433286E+03  0.74193433286E+03  0.00000000000E+00 0. -1.
         -1   -1    0    0    0  501 -0.00000000000E+00 -0.00000000000E+00 -0.14601008568E+04  0.14601008568E+04  0.00000000000E+00 0.  1.
         24    2    1    2    0    0 -0.11304156594E+03 -0.83037404143E+03 -0.19142930651E+03  0.86329192788E+03  0.79550795312E+02 0.  0.
        254    2    1    2    0    0  0.11304156594E+03  0.83037404143E+03 -0.52673721744E+03  0.13387432618E+04  0.90137782335E+03 0.  0.
         23    2    4    4    0    0  0.40282804116E+03  0.80366170688E+03 -0.49671496796E+03  0.10312325988E+04  0.92586951530E+02 0.  0.
         23    2    4    4    0    0 -0.28978647522E+03  0.26712334551E+02 -0.30022249484E+02  0.30751066298E+03  0.94719176236E+02 0.  0.
          2    1    3    3  502    0 -0.77496799986E+02 -0.43947117926E+03 -0.65269041520E+02  0.45099968868E+03  0.00000000000E+00 0. -1.
         -1    1    3    3    0  502 -0.35544765951E+02 -0.39090286217E+03 -0.12616026499E+03  0.41229223919E+03  0.00000000000E+00 0.  1.
         11    1    5    5    0    0  0.12012428157E+03  0.31151271147E+03 -0.14890154652E+03  0.36557035300E+03  0.00000000000E+00 0.  1.
        -11    1    5    5    0    0  0.28270375959E+03  0.49214899540E+03 -0.34781342143E+03  0.66566224581E+03  0.00000000000E+00 0. -1.
          3    1    6    6  503    0 -0.62491680866E+02  0.43580508915E+02  0.73746274889E+01  0.76543164720E+02  0.00000000000E+00 0. -1.
         -3    1    6    6    0  503 -0.22729479435E+03 -0.16868174364E+02 -0.37396876973E+02  0.23096749826E+03  0.00000000000E+00 0.  1.
<mgrwt>
<rscale>  0 0.20816330E+04</rscale>
<asrwt>0</asrwt>
<pdfrwt beam="1">  1        2 0.11414374E+00 0.20816330E+04</pdfrwt>
<pdfrwt beam="2">  1       -1 0.22463090E+00 0.20816330E+04</pdfrwt>
<totfact> 0.41047109E+00</totfact>
</mgrwt>
</event>
<event>
12    6  0.1403409E-007  0.2364533E+04  0.7818608E-02  0.8452903E-01
          2   -1    0    0  501    0  0.00000000000E+00  0.00000000000E+00  0.55514114438E+03  0.55514114438E+03  0.00000000000E+00 0. -1.
         -1   -1    0    0    0  501 -0.00000000000E+00 -0.00000000000E+00 -0.25178352481E+04  0.25178352481E+04  0.00000000000E+00 0.  1.
         24    2    1    2    0    0 -0.61875197397E+03 -0.79700832685E+03 -0.81861109524E+03  0.13015232833E+04  0.75910825717E+02 0.  0.
        254    2    1    2    0    0  0.61875197397E+03  0.79700832685E+03 -0.11440830085E+04  0.17714531091E+04  0.90057976283E+03 0.  0.
         23    2    4    4    0    0  0.62940092152E+03  0.81864660542E+03 -0.55618025558E+03  0.11760758611E+04  0.86545766645E+02 0.  0.
         23    2    4    4    0    0 -0.10648947549E+02 -0.21638278564E+02 -0.58790275289E+03  0.59537724806E+03  0.90899975076E+02 0.  0.
          2    1    3    3  502    0 -0.67891271553E+02 -0.13046814072E+03 -0.12418504254E+03  0.19249177979E+03  0.00000000000E+00 0. -1.
         -1    1    3    3    0  502 -0.55086070242E+03 -0.66654018613E+03 -0.69442605270E+03  0.11090315036E+04  0.00000000000E+00 0.  1.
         11    1    5    5    0    0  0.21688091152E+03  0.25847817805E+03 -0.22532893814E+03  0.40573566355E+03  0.00000000000E+00 0. -1.
        -11    1    5    5    0    0  0.41252001000E+03  0.56016842737E+03 -0.33085131744E+03  0.77034019752E+03  0.00000000000E+00 0.  1.
          1    1    6    6  503    0 -0.14705853051E+02  0.17301450436E+02 -0.39368017767E+02  0.45447146490E+02  0.00000000000E+00 0. -1.
         -1    1    6    6    0  503  0.40569055020E+01 -0.38939729000E+02 -0.54853473512E+03  0.54993010157E+03  0.00000000000E+00 0.  1.
<mgrwt>
<rscale>  0 0.23645329E+04</rscale>
<asrwt>0</asrwt>
<pdfrwt beam="1">  1        2 0.85406330E-01 0.23645329E+04</pdfrwt>
<pdfrwt beam="2">  1       -1 0.38735927E+00 0.23645329E+04</pdfrwt>
<totfact> 0.48913224E-01</totfact>
</mgrwt>
</event>
<event>
12    6  0.1403409E-007  0.2496317E+04  0.7818608E-02  0.8404299E-01
         -1   -1    0    0    0  501 -0.00000000000E+00  0.00000000000E+00  0.15266314182E+04  0.15266314182E+04  0.00000000000E+00 0.  1.
          2   -1    0    0  501    0  0.00000000000E+00 -0.00000000000E+00 -0.10204815001E+04  0.10204815001E+04  0.00000000000E+00 0. -1.
         24    2    1    2    0    0  0.10706385452E+04 -0.50525744503E+02  0.39648372664E+03  0.11455681928E+04  0.79419100726E+02 0.  0.
        254    2    1    2    0    0 -0.10706385452E+04  0.50525744503E+02  0.10966619146E+03  0.14015447255E+04  0.89637112776E+03 0.  0.
         23    2    4    4    0    0 -0.39647307368E+02  0.20291867444E+03 -0.21128419137E+03  0.30719647441E+03  0.83550984097E+02 0.  0.
         23    2    4    4    0    0 -0.10309912378E+04 -0.15239292994E+03  0.32095038284E+03  0.10943482511E+04  0.91773682677E+02 0.  0.
          2    1    3    3  502    0  0.55163350895E+03 -0.45306005517E+02  0.16759110600E+03  0.57830696100E+03  0.00000000000E+00 0. -1.
         -1    1    3    3    0  502  0.51900503624E+03 -0.52197389861E+01  0.22889262064E+03  0.56726123180E+03  0.00000000000E+00 0.  1.
         11    1    5    5    0    0 -0.10210596752E+02 -0.20496429616E+01  0.12216991778E+01  0.10485698412E+02  0.00000000000E+00 0.  1.
        -11    1    5    5    0    0 -0.29436710615E+02  0.20496831740E+03 -0.21250589055E+03  0.29671077599E+03  0.00000000000E+00 0. -1.
          4    1    6    6  503    0 -0.89302856155E+03 -0.10975935082E+03  0.29995312408E+03  0.94842975675E+03  0.00000000000E+00 0. -1.
         -4    1    6    6    0  503 -0.13796267626E+03 -0.42633579115E+02  0.20997258754E+02  0.14591849432E+03  0.00000000000E+00 0.  1.
<mgrwt>
<rscale>  0 0.24963166E+04</rscale>
<asrwt>0</asrwt>
<pdfrwt beam="1">  1        2 0.15699715E+00 0.24963166E+04</pdfrwt>
<pdfrwt beam="2">  1       -1 0.23486637E+00 0.24963166E+04</pdfrwt>
<totfact> 0.21784247E+00</totfact>
</mgrwt>
</event>
<event>
12    6  0.1403409E-007  0.2118966E+04  0.7818608E-02  0.8552934E-01
         -1   -1    0    0    0  501 -0.00000000000E+00  0.00000000000E+00  0.13932713267E+04  0.13932713267E+04  0.00000000000E+00 0.  1.
          2   -1    0    0  501    0  0.00000000000E+00 -0.00000000000E+00 -0.80566115358E+03  0.80566115358E+03  0.00000000000E+00 0. -1.
         24    2    1    2    0    0  0.55204238360E+03  0.64177921975E+03  0.43090077279E+03  0.95324747042E+03  0.79836731408E+02 0.  0.
        254    2    1    2    0    0 -0.55204238360E+03 -0.64177921975E+03  0.15670940028E+03  0.12456850098E+04  0.90030103152E+03 0.  0.
         23    2    4    4    0    0 -0.10751331190E+03 -0.75249898943E+03  0.55274030755E+02  0.76755159148E+03  0.90919666633E+02 0.  0.
         23    2    4    4    0    0 -0.44452907170E+03  0.11071976968E+03  0.10143536953E+03  0.47813341833E+03  0.91964496149E+02 0.  0.
          2    1    3    3  502    0  0.28374863543E+03  0.32452278858E+03  0.17480975745E+03  0.46517392416E+03  0.00000000000E+00 0. -1.
         -3    1    3    3    0  502  0.26829374817E+03  0.31725643117E+03  0.25609101534E+03  0.48807354626E+03  0.00000000000E+00 0.  1.
         11    1    5    5    0    0 -0.12354138416E+03 -0.67520408907E+03  0.44138502197E+02  0.68783082431E+03  0.00000000000E+00 0. -1.
        -11    1    5    5    0    0  0.16028072257E+02 -0.77294900360E+02  0.11135528558E+02  0.79720767170E+02  0.00000000000E+00 0.  1.
          3    1    6    6  503    0 -0.36146886551E+03  0.12500835159E+03  0.91520596064E+02  0.39327197740E+03  0.00000000000E+00 0. -1.
         -3    1    6    6    0  503 -0.83060206185E+02 -0.14288581911E+02  0.99147734639E+01  0.84861440934E+02  0.00000000000E+00 0.  1.
<mgrwt>
<rscale>  0 0.21189663E+04</rscale>
<asrwt>0</asrwt>
<pdfrwt beam="1">  1        2 0.12394787E+00 0.21189663E+04</pdfrwt>
<pdfrwt beam="2">  1       -1 0.21434943E+00 0.21189663E+04</pdfrwt>
<totfact> 0.43032178E+00</totfact>
</mgrwt>
</event>
<event>
12    6  0.1403409E-007  0.1312661E+04  0.7818608E-02  0.9019585E-01
         -1   -1    0    0    0  501 -0.00000000000E+00  0.00000000000E+00  0.12822697099E+03  0.12822697099E+03  0.00000000000E+00 0.  1.
          2   -1    0    0  501    0  0.00000000000E+00 -0.00000000000E+00 -0.33594301562E+04  0.33594301562E+04  0.00000000000E+00 0. -1.
         24    2    1    2    0    0 -0.29024106598E+03 -0.11815332868E+03 -0.12277243067E+04  0.12695137601E+04  0.78473742414E+02 0.  0.
        254    2    1    2    0    0  0.29024106598E+03  0.11815332868E+03 -0.20034788785E+04  0.22181433671E+04  0.89890616589E+03 0.  0.
         23    2    4    4    0    0  0.44824412068E+03  0.97352946902E+02 -0.43119245644E+03  0.63531082299E+03  0.85396248848E+02 0.  0.
         23    2    4    4    0    0 -0.15800305470E+03  0.20800381776E+02 -0.15722864221E+04  0.15828325441E+04  0.88750485160E+02 0.  0.
          2    1    3    3  502    0 -0.95908530833E+02 -0.77145784873E+02 -0.52726666708E+03  0.54144257001E+03  0.00000000000E+00 0. -1.
         -1    1    3    3    0  502 -0.19433253514E+03 -0.41007543805E+02 -0.70045763965E+03  0.72807119007E+03  0.00000000000E+00 0.  1.
         11    1    5    5    0    0  0.37889333644E+02 -0.92940695553E+01 -0.61249226232E+02  0.72618517246E+02  0.00000000000E+00 0. -1.
        -11    1    5    5    0    0  0.41035478704E+03  0.10664701646E+03 -0.36994323021E+03  0.56269230574E+03  0.00000000000E+00 0.  1.
          3    1    6    6  503    0 -0.68400316449E+02 -0.33571602785E+02 -0.76071432916E+03  0.76452072986E+03  0.00000000000E+00 0. -1.
         -3    1    6    6    0  503 -0.89602738255E+02  0.54371984560E+02 -0.81157209291E+03  0.81831181428E+03  0.00000000000E+00 0.  1.
<mgrwt>
<rscale>  0 0.13126607E+04</rscale>
<asrwt>0</asrwt>
<pdfrwt beam="1">  1        2 0.51683522E+00 0.13126607E+04</pdfrwt>
<pdfrwt beam="2">  1       -1 0.19727233E-01 0.13126607E+04</pdfrwt>
<totfact> 0.24135566E+01</totfact>
</mgrwt>
</event>
<event>
12    6  0.1403409E-007  0.7928178E+04  0.7818608E-02  0.7488617E-01
         -1   -1    0    0    0  501 -0.00000000000E+00  0.00000000000E+00  0.35703837305E+04  0.35703837305E+04  0.00000000000E+00 0.  1.
          2   -1    0    0  501    0  0.00000000000E+00 -0.00000000000E+00 -0.44012082969E+04  0.44012082969E+04  0.00000000000E+00 0. -1.
         24    2    1    2    0    0 -0.13280892071E+04  0.24415564193E+04 -0.31789366362E+04  0.42231273684E+04  0.64404513810E+02 0.  0.
        254    2    1    2    0    0  0.13280892071E+04 -0.24415564193E+04  0.23481120698E+04  0.37484646590E+04  0.90129812864E+03 0.  0.
         23    2    4    4    0    0  0.87952705658E+03 -0.10055833800E+04  0.68576964922E+03  0.15044539023E+04  0.91300354635E+02 0.  0.
         23    2    4    4    0    0  0.44856215053E+03 -0.14359730393E+04  0.16623424206E+04  0.22440107568E+04  0.94738485871E+02 0.  0.
          4    1    3    3  502    0 -0.80119509311E+03  0.14390904520E+04 -0.19249395601E+04  0.25334338784E+04  0.00000000000E+00 0. -1.
         -3    1    3    3    0  502 -0.52689411400E+03  0.10024659673E+04 -0.12539970762E+04  0.16896934900E+04  0.00000000000E+00 0.  1.
         11    1    5    5    0    0  0.59244592068E+03 -0.63399946723E+03  0.40770399504E+03  0.95873356098E+03  0.00000000000E+00 0. -1.
        -11    1    5    5    0    0  0.28708113590E+03 -0.37158391281E+03  0.27806565418E+03  0.54572034128E+03  0.00000000000E+00 0.  1.
          4    1    6    6  503    0  0.42942845589E+02 -0.10830772945E+03  0.95606295112E+02  0.15071567905E+03  0.00000000000E+00 0.  1.
         -4    1    6    6    0  503  0.40561930494E+03 -0.13276653098E+04  0.15667361255E+04  0.20932950777E+04  0.00000000000E+00 0. -1.
<mgrwt>
<rscale>  0 0.79281782E+04</rscale>
<asrwt>0</asrwt>
<pdfrwt beam="1">  1        2 0.67710897E+00 0.79281782E+04</pdfrwt>
<pdfrwt beam="2">  1       -1 0.54928981E+00 0.79281782E+04</pdfrwt>
<totfact> 0.78100029E-05</totfact>
</mgrwt>
</event>
<event>
12    6  0.1403409E-007  0.1713135E+04  0.7818608E-02  0.8753908E-01
         -1   -1    0    0    0  501 -0.00000000000E+00  0.00000000000E+00  0.25822559074E+03  0.25822559074E+03  0.00000000000E+00 0.  1.
          2   -1    0    0  501    0  0.00000000000E+00 -0.00000000000E+00 -0.28413447195E+04  0.28413447195E+04  0.00000000000E+00 0. -1.
         24    2    1    2    0    0  0.36042781297E+03  0.39955020978E+03 -0.14712935283E+04  0.15685528960E+04  0.78134260865E+02 0.  0.
        254    2    1    2    0    0 -0.36042781297E+03 -0.39955020978E+03 -0.11118256005E+04  0.15310174142E+04  0.90460465304E+03 0.  0.
         23    2    4    4    0    0 -0.40492495566E+03 -0.29286714724E+03 -0.11182526737E+03  0.52023656472E+03  0.91683189285E+02 0.  0.
         23    2    4    4    0    0  0.44497142698E+02 -0.10668306253E+03 -0.10000003331E+04  0.10107808495E+04  0.91192038953E+02 0.  0.
          4    1    3    3  502    0  0.11120653998E+03  0.10343998659E+03 -0.51439651814E+03  0.53634923626E+03  0.00000000000E+00 0. -1.
         -3    1    3    3    0  502  0.24922127299E+03  0.29611022318E+03 -0.95689701015E+03  0.10322036598E+04  0.00000000000E+00 0.  1.
         11    1    5    5    0    0 -0.77128376010E+02 -0.81026646638E+02 -0.58744068965E+02  0.12635256028E+03  0.00000000000E+00 0.  1.
        -11    1    5    5    0    0 -0.32779657965E+03 -0.21184050061E+03 -0.53081198409E+02  0.39388400444E+03  0.00000000000E+00 0. -1.
          2    1    6    6  503    0 -0.13805020954E+02 -0.66580655333E+02 -0.32220763956E+03  0.32930430495E+03  0.00000000000E+00 0. -1.
         -2    1    6    6    0  503  0.58302163652E+02 -0.40102407202E+02 -0.67779269355E+03  0.68147654456E+03  0.00000000000E+00 0.  1.
<mgrwt>
<rscale>  0 0.17131350E+04</rscale>
<asrwt>0</asrwt>
<pdfrwt beam="1">  1        2 0.43712994E+00 0.17131350E+04</pdfrwt>
<pdfrwt beam="2">  1       -1 0.39727016E-01 0.17131350E+04</pdfrwt>
<totfact> 0.14620618E+01</totfact>
</mgrwt>
</event>
<event>
12    6  0.1403409E-007  0.1499442E+04  0.7818608E-02  0.8884824E-01
          2   -1    0    0  501    0  0.00000000000E+00  0.00000000000E+00  0.37981605369E+03  0.37981605369E+03  0.00000000000E+00 0. -1.
         -1   -1    0    0    0  501 -0.00000000000E+00 -0.00000000000E+00 -0.14798779277E+04  0.14798779277E+04  0.00000000000E+00 0.  1.
         24    2    1    2    0    0  0.16750637211E+02  0.46780089274E+03 -0.45068683236E+03  0.65465566667E+03  0.79606293391E+02 0.  0.
        254    2    1    2    0    0 -0.16750637211E+02 -0.46780089274E+03 -0.64937504169E+03  0.12050383148E+04  0.90072811446E+03 0.  0.
         23    2    4    4    0    0  0.40335842277E+03 -0.25222303270E+03 -0.51325853979E+03  0.70551969146E+03  0.89494306669E+02 0.  0.
         23    2    4    4    0    0 -0.42010905998E+03 -0.21557786004E+03 -0.13611650190E+03  0.49951862330E+03  0.89586365692E+02 0.  0.
          2    1    3    3  502    0 -0.31767800575E+02  0.14972800855E+03 -0.14710499373E+03  0.21229118888E+03  0.00000000000E+00 0. -1.
         -1    1    3    3    0  502  0.48518437785E+02  0.31807288419E+03 -0.30358183863E+03  0.44236447779E+03  0.00000000000E+00 0.  1.
         11    1    5    5    0    0  0.15422918320E+03 -0.11193058405E+03 -0.26787556841E+03  0.32874369461E+03  0.00000000000E+00 0.  1.
        -11    1    5    5    0    0  0.24912923958E+03 -0.14029244865E+03 -0.24538297138E+03  0.37677599685E+03  0.00000000000E+00 0. -1.
          1    1    6    6  503    0 -0.24347960241E+03 -0.87229479179E+02 -0.10431197853E+03  0.27887683247E+03  0.00000000000E+00 0. -1.
         -1    1    6    6    0  503 -0.17662945758E+03 -0.12834838086E+03 -0.31804523368E+02  0.22064179083E+03  0.00000000000E+00 0.  1.
<mgrwt>
<rscale>  0 0.14994418E+04</rscale>
<asrwt>0</asrwt>
<pdfrwt beam="1">  1        2 0.58433238E-01 0.14994418E+04</pdfrwt>
<pdfrwt beam="2">  1       -1 0.22767353E+00 0.14994418E+04</pdfrwt>
<totfact> 0.91173655E+00</totfact>
</mgrwt>
</event>
<event>
12    6  0.1403409E-007  0.2187213E+04  0.7818608E-02  0.8523769E-01
         -1   -1    0    0    0  501 -0.00000000000E+00  0.00000000000E+00  0.60668840169E+03  0.60668840169E+03  0.00000000000E+00 0.  1.
          2   -1    0    0  501    0  0.00000000000E+00 -0.00000000000E+00 -0.19713162616E+04  0.19713162616E+04  0.00000000000E+00 0. -1.
         24    2    1    2    0    0  0.15755456003E+03 -0.86957198185E+03 -0.33362030012E+03  0.94797894873E+03  0.79891874324E+02 0.  0.
        254    2    1    2    0    0 -0.15755456003E+03  0.86957198185E+03 -0.10310075598E+04  0.16300257145E+04  0.90168085861E+03 0.  0.
         23    2    4    4    0    0  0.28091858810E+03  0.91829634989E+02 -0.49783624116E+03  0.58608141195E+03  0.91118403296E+02 0.  0.
         23    2    4    4    0    0 -0.43847314813E+03  0.77774234686E+03 -0.53317131861E+03  0.10439443026E+04  0.91685288994E+02 0.  0.
          2    1    3    3  502    0  0.11967507166E+03 -0.52719564650E+03 -0.23656249768E+03  0.59010099795E+03  0.00000000000E+00 0. -1.
         -1    1    3    3    0  502  0.37879488365E+02 -0.34237633534E+03 -0.97057802445E+02  0.35787795078E+03  0.00000000000E+00 0.  1.
         11    1    5    5    0    0  0.19949033744E+03  0.32235841531E+02 -0.27312405414E+03  0.33975328278E+03  0.00000000000E+00 0.  1.
        -11    1    5    5    0    0  0.81428250659E+02  0.59593793458E+02 -0.22471218702E+03  0.24632812917E+03  0.00000000000E+00 0. -1.
          1    1    6    6  503    0 -0.18737333038E+02  0.86242614348E+02 -0.61297855699E+02  0.10745372628E+03  0.00000000000E+00 0. -1.
         -1    1    6    6    0  503 -0.41973581509E+03  0.69149973251E+03 -0.47187346291E+03  0.93649057631E+03  0.00000000000E+00 0.  1.
<mgrwt>
<rscale>  0 0.21872126E+04</rscale>
<asrwt>0</asrwt>
<pdfrwt beam="1">  1        2 0.30327943E+00 0.21872126E+04</pdfrwt>
<pdfrwt beam="2">  1       -1 0.93336677E-01 0.21872126E+04</pdfrwt>
<totfact> 0.80419384E+00</totfact>
</mgrwt>
</event>
<event>
12    6  0.1403409E-007  0.2214287E+04  0.7818608E-02  0.8512505E-01
          2   -1    0    0  501    0  0.00000000000E+00  0.00000000000E+00  0.79761948988E+03  0.79761948988E+03  0.00000000000E+00 0. -1.
         -1   -1    0    0    0  501 -0.00000000000E+00 -0.00000000000E+00 -0.15367813518E+04  0.15367813518E+04  0.00000000000E+00 0.  1.
         24    2    1    2    0    0 -0.28629702721E+03  0.54780668537E+03 -0.10305970275E+04  0.12044319843E+04  0.80423997810E+02 0.  0.
        254    2    1    2    0    0  0.28629702721E+03 -0.54780668537E+03  0.29143516565E+03  0.11299688573E+04  0.89990944566E+03 0.  0.
         23    2    4    4    0    0 -0.16984447942E+03 -0.59363332595E+03  0.15446123386E+03  0.64301600271E+03  0.91452906502E+02 0.  0.
         23    2    4    4    0    0  0.45614150663E+03  0.45826640589E+02  0.13697393179E+03  0.48695285459E+03  0.90532146492E+02 0.  0.
          2    1    3    3  502    0 -0.43016876365E+02  0.82177917218E+02 -0.10471827648E+03  0.13989131195E+03  0.00000000000E+00 0. -1.
         -1    1    3    3    0  502 -0.24328015084E+03  0.46562876815E+03 -0.92587875104E+03  0.10645406724E+04  0.00000000000E+00 0.  1.
         11    1    5    5    0    0 -0.11552770332E+03 -0.51554143521E+03  0.11952314339E+03  0.54167832102E+03  0.00000000000E+00 0. -1.
        -11    1    5    5    0    0 -0.54316776106E+02 -0.78091890743E+02  0.34938090468E+02  0.10133768170E+03  0.00000000000E+00 0.  1.
          3    1    6    6  503    0  0.35216531941E+03  0.56220564950E+02  0.13815987891E+03  0.38245171755E+03  0.00000000000E+00 0. -1.
         -3    1    6    6    0  503  0.10397618722E+03 -0.10393924361E+02 -0.11859471188E+01  0.10450113704E+03  0.00000000000E+00 0.  1.
<mgrwt>
<rscale>  0 0.22142870E+04</rscale>
<asrwt>0</asrwt>
<pdfrwt beam="1">  1        2 0.12271069E+00 0.22142870E+04</pdfrwt>
<pdfrwt beam="2">  1       -1 0.23642790E+00 0.22142870E+04</pdfrwt>
<totfact> 0.30829069E+00</totfact>
</mgrwt>
</event>
<event>
12    6  0.1403409E-007  0.1372208E+04  0.7818608E-02  0.8974185E-01
         -1   -1    0    0    0  501 -0.00000000000E+00  0.00000000000E+00  0.28330922493E+03  0.28330922493E+03  0.00000000000E+00 0.  1.
          2   -1    0    0  501    0  0.00000000000E+00 -0.00000000000E+00 -0.16615711011E+04  0.16615711011E+04  0.00000000000E+00 0. -1.
         24    2    1    2    0    0  0.84263911966E+02 -0.16033817579E+03  0.89523396860E+02  0.21529514310E+03  0.74356052754E+02 0.  0.
        254    2    1    2    0    0 -0.84263911966E+02  0.16033817579E+03 -0.14677852731E+04  0.17295851830E+04  0.89680686874E+03 0.  0.
         23    2    4    4    0    0 -0.17159009113E+03 -0.11518973457E+03 -0.14016041451E+04  0.14195872801E+04  0.89565797217E+02 0.  0.
         23    2    4    4    0    0  0.87326179167E+02  0.27552791036E+03 -0.66181127998E+02  0.30999790286E+03  0.90428242924E+02 0.  0.
          2    1    3    3  502    0  0.75436349765E+01 -0.48798253575E+02 -0.58100156139E+01  0.49718530369E+02  0.00000000000E+00 0. -1.
         -1    1    3    3    0  502  0.76720276990E+02 -0.11153992221E+03  0.95333412474E+02  0.16557661273E+03  0.00000000000E+00 0.  1.
         11    1    5    5    0    0 -0.17641393685E+03 -0.93622798048E+02 -0.13208508618E+04  0.13358645532E+04  0.00000000000E+00 0. -1.
        -11    1    5    5    0    0  0.48238457151E+01 -0.21566936522E+02 -0.80753283313E+02  0.83722726928E+02  0.00000000000E+00 0.  1.
          1    1    6    6  503    0  0.99407326710E+02  0.17979840791E+03 -0.33737384826E+02  0.20820061293E+03  0.00000000000E+00 0. -1.
         -1    1    6    6    0  503 -0.12081147543E+02  0.95729502450E+02 -0.32443743172E+02  0.10179728993E+03  0.00000000000E+00 0.  1.
<mgrwt>
<rscale>  0 0.13722076E+04</rscale>
<asrwt>0</asrwt>
<pdfrwt beam="1">  1        2 0.25562633E+00 0.13722076E+04</pdfrwt>
<pdfrwt beam="2">  1       -1 0.43586034E-01 0.13722076E+04</pdfrwt>
<totfact> 0.59495218E+01</totfact>
</mgrwt>
</event>
<event>
12    6  0.1403409E-007  0.2934327E+04  0.7818608E-02  0.8262737E-01
          2   -1    0    0  501    0  0.00000000000E+00  0.00000000000E+00  0.14658375048E+04  0.14658375048E+04  0.00000000000E+00 0. -1.
         -1   -1    0    0    0  501 -0.00000000000E+00 -0.00000000000E+00 -0.14684911069E+04  0.14684911069E+04  0.00000000000E+00 0.  1.
         24    2    1    2    0    0  0.46404888542E+02 -0.11915641495E+04 -0.58463636282E+03  0.13305268959E+04  0.80768855185E+02 0.  0.
        254    2    1    2    0    0 -0.46404888542E+02  0.11915641495E+04  0.58198276077E+03  0.16038017158E+04  0.90083154579E+03 0.  0.
         23    2    4    4    0    0 -0.41179290730E+02 -0.11542920101E+03  0.17444173883E+03  0.23179728658E+03  0.90996853724E+02 0.  0.
         23    2    4    4    0    0 -0.52255978120E+01  0.13069933505E+04  0.40754102194E+03  0.13720044293E+04  0.89708105936E+02 0.  0.
          2    1    3    3  502    0  0.38013139649E+02 -0.65926817968E+03 -0.36609847437E+03  0.75505471620E+03  0.00000000000E+00 0. -1.
         -1    1    3    3    0  502  0.83917488936E+01 -0.53229596979E+03 -0.21853788846E+03  0.57547217969E+03  0.00000000000E+00 0.  1.
         11    1    5    5    0    0 -0.15279175943E+02  0.13637387752E+02  0.30497108709E+02  0.36735612174E+02  0.00000000000E+00 0. -1.
        -11    1    5    5    0    0 -0.25900114788E+02 -0.12906658876E+03  0.14394463013E+03  0.19506167441E+03  0.00000000000E+00 0.  1.
          3    1    6    6  503    0 -0.23774618608E+02  0.48628172455E+03  0.11265568462E+03  0.49972637653E+03  0.00000000000E+00 0. -1.
         -3    1    6    6    0  503  0.18549020796E+02  0.82071162593E+03  0.29488533731E+03  0.87227805273E+03  0.00000000000E+00 0.  1.
<mgrwt>
<rscale>  0 0.29343274E+04</rscale>
<asrwt>0</asrwt>
<pdfrwt beam="1">  1        2 0.22551346E+00 0.29343274E+04</pdfrwt>
<pdfrwt beam="2">  1       -1 0.22592171E+00 0.29343274E+04</pdfrwt>
<totfact> 0.13068830E+00</totfact>
</mgrwt>
</event>
<event>
12    6  0.1403409E-007  0.1753908E+04  0.7818608E-02  0.8731202E-01
          2   -1    0    0  501    0  0.00000000000E+00  0.00000000000E+00  0.26692662176E+04  0.26692662176E+04  0.00000000000E+00 0. -1.
         -1   -1    0    0    0  501 -0.00000000000E+00 -0.00000000000E+00 -0.28811213655E+03  0.28811213655E+03  0.00000000000E+00 0.  1.
         24    2    1    2    0    0  0.24033626606E+03  0.37178198291E+03  0.10382519701E+03  0.46046070755E+03  0.72532944647E+02 0.  0.
        254    2    1    2    0    0 -0.24033626606E+03 -0.37178198291E+03  0.22773288840E+04  0.24969176466E+04  0.92324835458E+03 0.  0.
         23    2    4    4    0    0 -0.20965211231E+02  0.27327636296E+03  0.36641208971E+03  0.46605540429E+03  0.88489037422E+02 0.  0.
         23    2    4    4    0    0 -0.21937105483E+03 -0.64505834588E+03  0.19109167943E+04  0.20308622423E+04  0.92598721007E+02 0.  0.
          2    1    3    3  502    0  0.13409115885E+03  0.14209971196E+03  0.51318574577E+02  0.20200584922E+03  0.00000000000E+00 0. -1.
         -1    1    3    3    0  502  0.10624510721E+03  0.22968227095E+03  0.52506622438E+02  0.25845485833E+03  0.00000000000E+00 0.  1.
         11    1    5    5    0    0 -0.28283194546E+02  0.26942695155E+03  0.36865283178E+03  0.45748850444E+03  0.00000000000E+00 0. -1.
        -11    1    5    5    0    0  0.73179833156E+01  0.38494114169E+01 -0.22407420674E+01  0.85668998521E+01  0.00000000000E+00 0.  1.
          1    1    6    6  503    0 -0.19459061228E+03 -0.44225919084E+03  0.13255341684E+04  0.14108506405E+04  0.00000000000E+00 0. -1.
         -1    1    6    6    0  503 -0.24780442543E+02 -0.20279915504E+03  0.58538262589E+03  0.62001160176E+03  0.00000000000E+00 0.  1.
<mgrwt>
<rscale>  0 0.17539076E+04</rscale>
<asrwt>0</asrwt>
<pdfrwt beam="1">  1        2 0.41065632E+00 0.17539076E+04</pdfrwt>
<pdfrwt beam="2">  1       -1 0.44324946E-01 0.17539076E+04</pdfrwt>
<totfact> 0.15085965E+01</totfact>
</mgrwt>
</event>
<event>
12    6  0.1403409E-007  0.2039319E+04  0.7818608E-02  0.8588455E-01
         -1   -1    0    0    0  501 -0.00000000000E+00  0.00000000000E+00  0.11389701045E+04  0.11389701045E+04  0.00000000000E+00 0.  1.
          2   -1    0    0  501    0  0.00000000000E+00 -0.00000000000E+00 -0.91284667315E+03  0.91284667315E+03  0.00000000000E+00 0. -1.
         24    2    1    2    0    0 -0.56478105141E+03  0.86824635514E+02  0.68120757104E+03  0.89246226865E+03  0.76999952956E+02 0.  0.
        254    2    1    2    0    0  0.56478105141E+03 -0.86824635514E+02 -0.45508413970E+03  0.11593545090E+04  0.90026948740E+03 0.  0.
         23    2    4    4    0    0  0.14934384138E+03 -0.40584219898E+03  0.25515040127E+02  0.44266407727E+03  0.91043915782E+02 0.  0.
         23    2    4    4    0    0  0.41543721002E+03  0.31901756346E+03 -0.48059917983E+03  0.71669043172E+03  0.91155482549E+02 0.  0.
          2    1    3    3  502    0 -0.44025443408E+03  0.99539850680E+02  0.52897647534E+03  0.69537634420E+03  0.00000000000E+00 0. -1.
         -1    1    3    3    0  502 -0.12452661733E+03 -0.12715215166E+02  0.15223109570E+03  0.19708592445E+03  0.00000000000E+00 0.  1.
         11    1    5    5    0    0  0.13564054071E+03 -0.40512541649E+03  0.29857192322E+02  0.42827142247E+03  0.00000000000E+00 0. -1.
        -11    1    5    5    0    0  0.13703300669E+02 -0.71678248381E+00 -0.43421521946E+01  0.14392654794E+02  0.00000000000E+00 0.  1.
          3    1    6    6  503    0  0.23224903354E+03  0.22741793487E+03 -0.32317603903E+03  0.45836806485E+03  0.00000000000E+00 0. -1.
         -3    1    6    6    0  503  0.18318817649E+03  0.91599628597E+02 -0.15742314080E+03  0.25832236687E+03  0.00000000000E+00 0.  1.
<mgrwt>
<rscale>  0 0.20393186E+04</rscale>
<asrwt>0</asrwt>
<pdfrwt beam="1">  1        2 0.14043795E+00 0.20393186E+04</pdfrwt>
<pdfrwt beam="2">  1       -1 0.17522617E+00 0.20393186E+04</pdfrwt>
<totfact> 0.68427963E+00</totfact>
</mgrwt>
</event>
<event>
12    6  0.1403409E-007  0.1387950E+04  0.7818608E-02  0.8962587E-01
          2   -1    0    0  501    0  0.00000000000E+00  0.00000000000E+00  0.27108665633E+04  0.27108665633E+04  0.00000000000E+00 0. -1.
         -1   -1    0    0    0  501 -0.00000000000E+00 -0.00000000000E+00 -0.17765587777E+03  0.17765587777E+03  0.00000000000E+00 0.  1.
         24    2    1    2    0    0  0.33218717945E+03  0.11011503019E+03  0.34854503369E+03  0.50031575608E+03  0.79740662202E+02 0.  0.
        254    2    1    2    0    0 -0.33218717945E+03 -0.11011503019E+03  0.21846656518E+04  0.23882066850E+04  0.89905145449E+03 0.  0.
         23    2    4    4    0    0 -0.30134517037E+03  0.19234574427E+03  0.29513107262E+03  0.47228262241E+03  0.90237067544E+02 0.  0.
         23    2    4    4    0    0 -0.30842009086E+02 -0.30246077447E+03  0.18895345792E+04  0.19159240625E+04  0.89388689987E+02 0.  0.
          2    1    3    3  502    0  0.94909386477E+02 -0.52088326016E+01  0.88272865537E+02  0.12971901313E+03  0.00000000000E+00 0. -1.
         -1    1    3    3    0  502  0.23727779297E+03  0.11532386280E+03  0.26027216815E+03  0.37059674295E+03  0.00000000000E+00 0.  1.
         11    1    5    5    0    0 -0.13288864411E+03  0.69283053817E+02  0.70176139857E+02  0.16548179321E+03  0.00000000000E+00 0.  1.
        -11    1    5    5    0    0 -0.16845652626E+03  0.12306269046E+03  0.22495493276E+03  0.30680082920E+03  0.00000000000E+00 0. -1.
          1    1    6    6  503    0 -0.84342368824E+01  0.37981804327E+01  0.78072277756E+02  0.78618338067E+02  0.00000000000E+00 0. -1.
         -1    1    6    6    0  503 -0.22407772203E+02 -0.30625895490E+03  0.18114623014E+04  0.18373057245E+04  0.00000000000E+00 0.  1.
<mgrwt>
<rscale>  0 0.13879501E+04</rscale>
<asrwt>0</asrwt>
<pdfrwt beam="1">  1        2 0.41705636E+00 0.13879501E+04</pdfrwt>
<pdfrwt beam="2">  1       -1 0.27331675E-01 0.13879501E+04</pdfrwt>
<totfact> 0.35056757E+01</totfact>
</mgrwt>
</event>
<event>
12    6  0.1403409E-007  0.3005441E+04  0.7818608E-02  0.8242179E-01
         -1   -1    0    0    0  501 -0.00000000000E+00  0.00000000000E+00  0.74134475080E+03  0.74134475080E+03  0.00000000000E+00 0.  1.
          2   -1    0    0  501    0  0.00000000000E+00 -0.00000000000E+00 -0.30460451166E+04  0.30460451166E+04  0.00000000000E+00 0. -1.
         24    2    1    2    0    0 -0.10592626602E+04 -0.14025739519E+03  0.24751959798E+02  0.10718492346E+04  0.80861623234E+02 0.  0.
        254    2    1    2    0    0  0.10592626602E+04  0.14025739519E+03 -0.23294523256E+04  0.27155406328E+04  0.89783254063E+03 0.  0.
         23    2    4    4    0    0  0.46079692266E+03  0.31427785088E+03 -0.41758241417E+03  0.70264603954E+03  0.90730440120E+02 0.  0.
         23    2    4    4    0    0  0.59846573750E+03 -0.17402045569E+03 -0.19118699114E+04  0.20128945932E+04  0.89742561779E+02 0.  0.
          2    1    3    3  502    0 -0.87026941820E+03 -0.13821351618E+03  0.41136664550E+02  0.88213607877E+03  0.00000000000E+00 0. -1.
         -1    1    3    3    0  502 -0.18899324196E+03 -0.20438790165E+01 -0.16384704752E+02  0.18971315584E+03  0.00000000000E+00 0.  1.
         11    1    5    5    0    0  0.20402688919E+03  0.19148225184E+03 -0.18992701231E+03  0.33817849471E+03  0.00000000000E+00 0. -1.
        -11    1    5    5    0    0  0.25677003347E+03  0.12279559904E+03 -0.22765540187E+03  0.36446754483E+03  0.00000000000E+00 0.  1.
          2    1    6    6  503    0  0.57844681745E+03 -0.14845339720E+03 -0.18100347299E+04  0.19060075696E+04  0.00000000000E+00 0. -1.
         -2    1    6    6    0  503  0.20018920050E+02 -0.25567058489E+02 -0.10183518148E+03  0.10688702366E+03  0.00000000000E+00 0.  1.
<mgrwt>
<rscale>  0 0.30054414E+04</rscale>
<asrwt>0</asrwt>
<pdfrwt beam="1">  1        2 0.46862233E+00 0.30054414E+04</pdfrwt>
<pdfrwt beam="2">  1       -1 0.11405304E+00 0.30054414E+04</pdfrwt>
<totfact> 0.11078087E+00</totfact>
</mgrwt>
</event>
<event>
12    6  0.1403409E-007  0.1987396E+04  0.7818608E-02  0.8612536E-01
         -1   -1    0    0    0  501 -0.00000000000E+00  0.00000000000E+00  0.49837760941E+03  0.49837760941E+03  0.00000000000E+00 0.  1.
          2   -1    0    0  501    0  0.00000000000E+00 -0.00000000000E+00 -0.19812997613E+04  0.19812997613E+04  0.00000000000E+00 0. -1.
         24    2    1    2    0    0  0.69394622702E+03  0.15485051261E+02 -0.10569906173E+04  0.12670871906E+04  0.80496153108E+02 0.  0.
        254    2    1    2    0    0 -0.69394622702E+03 -0.15485051261E+02 -0.42593153453E+03  0.12125901801E+04  0.89841867741E+03 0.  0.
         23    2    4    4    0    0 -0.71448710846E+03  0.19944126890E+03 -0.56816047884E+03  0.93882033366E+03  0.91151748604E+02 0.  0.
         23    2    4    4    0    0  0.20540881447E+02 -0.21492632016E+03  0.14222894432E+03  0.27376984642E+03  0.90031135153E+02 0.  0.
          4    1    3    3  502    0  0.46541402917E+03  0.22159412826E+02 -0.64166475556E+03  0.79299112015E+03  0.00000000000E+00 0. -1.
         -3    1    3    3    0  502  0.22853219785E+03 -0.66743615651E+01 -0.41532586178E+03  0.47409607045E+03  0.00000000000E+00 0.  1.
         11    1    5    5    0    0 -0.54609996583E+02  0.40855097618E+02 -0.42166134594E+02  0.80183375051E+02  0.00000000000E+00 0. -1.
        -11    1    5    5    0    0 -0.65987711188E+03  0.15858617129E+03 -0.52599434425E+03  0.85863695861E+03  0.00000000000E+00 0.  1.
          3    1    6    6  503    0 -0.76523915964E+01  0.34031761856E+01  0.20655442611E+02  0.22288741884E+02  0.00000000000E+00 0. -1.
         -3    1    6    6    0  503  0.28193273044E+02 -0.21832949635E+03  0.12157350170E+03  0.25148110453E+03  0.00000000000E+00 0.  1.
<mgrwt>
<rscale>  0 0.19873957E+04</rscale>
<asrwt>0</asrwt>
<pdfrwt beam="1">  1        2 0.30481535E+00 0.19873957E+04</pdfrwt>
<pdfrwt beam="2">  1       -1 0.76673477E-01 0.19873957E+04</pdfrwt>
<totfact> 0.12367993E+01</totfact>
</mgrwt>
</event>
<event>
12    6  0.1403409E-007  0.3630638E+04  0.7818608E-02  0.8083509E-01
          2   -1    0    0  501    0  0.00000000000E+00  0.00000000000E+00  0.17741052131E+04  0.17741052131E+04  0.00000000000E+00 0. -1.
         -1   -1    0    0    0  501 -0.00000000000E+00 -0.00000000000E+00 -0.18574905999E+04  0.18574905999E+04  0.00000000000E+00 0.  1.
         24    2    1    2    0    0  0.43989306307E+03  0.13491937643E+04 -0.97982473290E+03  0.17262559346E+04  0.77931533381E+02 0.  0.
        254    2    1    2    0    0 -0.43989306307E+03 -0.13491937643E+04  0.89643934605E+03  0.19053398784E+04  0.90160236825E+03 0.  0.
         23    2    4    4    0    0 -0.39137230460E+02 -0.12101306078E+04  0.48650736650E+03  0.13079511942E+04  0.89994988980E+02 0.  0.
         23    2    4    4    0    0 -0.40075583261E+03 -0.13906315653E+03  0.40993197955E+03  0.59738868418E+03  0.94261409168E+02 0.  0.
          2    1    3    3  502    0  0.79207130039E+02  0.35232702590E+03 -0.24854174184E+03  0.43838464853E+03  0.00000000000E+00 0. -1.
         -1    1    3    3    0  502  0.36068593303E+03  0.99686673845E+03 -0.73128299106E+03  0.12878712861E+04  0.00000000000E+00 0.  1.
         11    1    5    5    0    0  0.99443421640E+01 -0.84185768660E+03  0.31760552073E+03  0.89983138489E+03  0.00000000000E+00 0.  1.
        -11    1    5    5    0    0 -0.49081572624E+02 -0.36827292122E+03  0.16890184577E+03  0.40811980934E+03  0.00000000000E+00 0. -1.
          2    1    6    6  503    0 -0.35198751666E+03 -0.96739193300E+02  0.31266166494E+03  0.48063603707E+03  0.00000000000E+00 0.  1.
         -2    1    6    6    0  503 -0.48768315944E+02 -0.42323963226E+02  0.97270314610E+02  0.11675264711E+03  0.00000000000E+00 0. -1.
<mgrwt>
<rscale>  0 0.36306384E+04</rscale>
<asrwt>0</asrwt>
<pdfrwt beam="1">  1        2 0.27293927E+00 0.36306384E+04</pdfrwt>
<pdfrwt beam="2">  1       -1 0.28576778E+00 0.36306384E+04</pdfrwt>
<totfact> 0.33699360E-01</totfact>
</mgrwt>
</event>
<event>
12    6  0.1403409E-007  0.1906316E+04  0.7818608E-02  0.8651719E-01
          2   -1    0    0  501    0  0.00000000000E+00  0.00000000000E+00  0.18057219435E+04  0.18057219435E+04  0.00000000000E+00 0. -1.
         -1   -1    0    0    0  501 -0.00000000000E+00 -0.00000000000E+00 -0.50312862549E+03  0.50312862549E+03  0.00000000000E+00 0.  1.
         24    2    1    2    0    0 -0.48894080554E+03  0.42571808872E+03  0.69528344966E+02  0.65681258584E+03  0.79180678077E+02 0.  0.
        254    2    1    2    0    0  0.48894080554E+03 -0.42571808872E+03  0.12330649730E+04  0.16520379831E+04  0.88796467700E+03 0.  0.
         23    2    4    4    0    0  0.45329951662E+03 -0.52555631731E+03  0.13154596227E+04  0.14905254060E+04  0.97683532327E+02 0.  0.
         23    2    4    4    0    0  0.35641288928E+02  0.99838228585E+02 -0.82394649688E+02  0.16151257714E+03  0.89774500351E+02 0.  0.
          2    1    3    3  502    0 -0.24532802982E+03  0.26222297295E+03  0.52723565961E+02  0.36294146107E+03  0.00000000000E+00 0. -1.
         -1    1    3    3    0  502 -0.24361277573E+03  0.16349511577E+03  0.16804779005E+02  0.29387112477E+03  0.00000000000E+00 0.  1.
         11    1    5    5    0    0  0.21793595440E+03 -0.18447052813E+03  0.49895740314E+03  0.57487733136E+03  0.00000000000E+00 0.  1.
        -11    1    5    5    0    0  0.23536356222E+03 -0.34108578918E+03  0.81650221957E+03  0.91564807462E+03  0.00000000000E+00 0. -1.
          1    1    6    6  503    0 -0.10066102482E+02  0.88488229144E+02 -0.38123296481E+02  0.96875584389E+02  0.00000000000E+00 0. -1.
         -1    1    6    6    0  503  0.45707391410E+02  0.11349999441E+02 -0.44271353207E+02  0.64636992749E+02  0.00000000000E+00 0.  1.
<mgrwt>
<rscale>  0 0.19063162E+04</rscale>
<asrwt>0</asrwt>
<pdfrwt beam="1">  1        2 0.27780337E+00 0.19063162E+04</pdfrwt>
<pdfrwt beam="2">  1       -1 0.77404405E-01 0.19063162E+04</pdfrwt>
<totfact> 0.15277442E+01</totfact>
</mgrwt>
</event>
<event>
12    6  0.1403409E-007  0.2008551E+04  0.7818608E-02  0.8602633E-01
         -1   -1    0    0    0  501 -0.00000000000E+00  0.00000000000E+00  0.37226257994E+03  0.37226257994E+03  0.00000000000E+00 0.  1.
          2   -1    0    0  501    0  0.00000000000E+00 -0.00000000000E+00 -0.27092960831E+04  0.27092960831E+04  0.00000000000E+00 0. -1.
         24    2    1    2    0    0 -0.42146371326E+02 -0.49343209042E+03 -0.18836550015E+04  0.19493239339E+04  0.80349798619E+02 0.  0.
        254    2    1    2    0    0  0.42146371326E+02  0.49343209042E+03 -0.45337850171E+03  0.11322347292E+04  0.91167531046E+03 0.  0.
         23    2    4    4    0    0 -0.15637399292E+03  0.80289981818E+02  0.23147391544E+03  0.30309245446E+03  0.85939255185E+02 0.  0.
         23    2    4    4    0    0  0.19852036424E+03  0.41314210860E+03 -0.68485241715E+03  0.82914227473E+03  0.91418496787E+02 0.  0.
          4    1    3    3  502    0 -0.15275317142E+02 -0.29091181310E+02 -0.19660885606E+03  0.19933558244E+03  0.00000000000E+00 0. -1.
         -3    1    3    3    0  502 -0.26871054183E+02 -0.46434090911E+03 -0.16870461454E+04  0.17499883514E+04  0.00000000000E+00 0.  1.
         11    1    5    5    0    0 -0.81474649395E+02  0.88517230574E+02  0.14380416918E+03  0.18749148694E+03  0.00000000000E+00 0.  1.
        -11    1    5    5    0    0 -0.74899343521E+02 -0.82272487565E+01  0.87669746262E+02  0.11560096752E+03  0.00000000000E+00 0. -1.
          2    1    6    6  503    0  0.53099779563E+02  0.19478088233E+03 -0.25078585205E+03  0.32195142848E+03  0.00000000000E+00 0. -1.
         -2    1    6    6    0  503  0.14542058468E+03  0.21836122627E+03 -0.43406656510E+03  0.50719084625E+03  0.00000000000E+00 0.  1.
<mgrwt>
<rscale>  0 0.20085513E+04</rscale>
<asrwt>0</asrwt>
<pdfrwt beam="1">  1        2 0.41681479E+00 0.20085513E+04</pdfrwt>
<pdfrwt beam="2">  1       -1 0.57271165E-01 0.20085513E+04</pdfrwt>
<totfact> 0.85637308E+00</totfact>
</mgrwt>
</event>
<event>
12    6  0.1403409E-007  0.2571125E+04  0.7818608E-02  0.8378076E-01
          2   -1    0    0  501    0  0.00000000000E+00  0.00000000000E+00  0.13101144368E+04  0.13101144368E+04  0.00000000000E+00 0. -1.
         -1   -1    0    0    0  501 -0.00000000000E+00 -0.00000000000E+00 -0.12614709318E+04  0.12614709318E+04  0.00000000000E+00 0.  1.
         24    2    1    2    0    0 -0.23874219602E+03  0.10149962440E+04 -0.40446043229E+03  0.11214760691E+04  0.83097056777E+02 0.  0.
        254    2    1    2    0    0  0.23874219602E+03 -0.10149962440E+04  0.45310393731E+03  0.14501092995E+04  0.90016586863E+03 0.  0.
         23    2    4    4    0    0  0.35832705125E+03 -0.87218694569E+03  0.66199080559E+03  0.11559891096E+04  0.94713520456E+02 0.  0.
         23    2    4    4    0    0 -0.11958485523E+03 -0.14280929831E+03 -0.20888686828E+03  0.29412018991E+03  0.90431903023E+02 0.  0.
          2    1    3    3  502    0 -0.11036120146E+03  0.33478843145E+03 -0.11044809539E+03  0.36940718780E+03  0.00000000000E+00 0. -1.
         -1    1    3    3    0  502 -0.12838099456E+03  0.68020781255E+03 -0.29401233691E+03  0.75206888133E+03  0.00000000000E+00 0.  1.
         11    1    5    5    0    0  0.19703719429E+03 -0.56768985902E+03  0.38258383446E+03  0.71236635403E+03  0.00000000000E+00 0. -1.
        -11    1    5    5    0    0  0.16128985696E+03 -0.30449708667E+03  0.27940697113E+03  0.44362275558E+03  0.00000000000E+00 0.  1.
          1    1    6    6  503    0  0.69586060949E+01  0.19118615063E+01  0.31802495975E+01  0.78861524652E+01  0.00000000000E+00 0.  1.
         -1    1    6    6    0  503 -0.12654346133E+03 -0.14472115982E+03 -0.21206711788E+03  0.28623403744E+03  0.00000000000E+00 0. -1.
<mgrwt>
<rscale>  0 0.25711253E+04</rscale>
<asrwt>0</asrwt>
<pdfrwt beam="1">  1        2 0.20155607E+00 0.25711253E+04</pdfrwt>
<pdfrwt beam="2">  1       -1 0.19407245E+00 0.25711253E+04</pdfrwt>
<totfact> 0.27262032E+00</totfact>
</mgrwt>
</event>
<event>
12    6  0.1403409E-007  0.1475668E+04  0.7818608E-02  0.8900797E-01
         -1   -1    0    0    0  501 -0.00000000000E+00  0.00000000000E+00  0.35992758490E+03  0.35992758490E+03  0.00000000000E+00 0.  1.
          2   -1    0    0  501    0  0.00000000000E+00 -0.00000000000E+00 -0.15125235006E+04  0.15125235006E+04  0.00000000000E+00 0. -1.
         24    2    1    2    0    0  0.69269227645E+02  0.43810687270E+03 -0.51257029245E+03  0.68278644645E+03  0.82055889195E+02 0.  0.
        254    2    1    2    0    0 -0.69269227645E+02 -0.43810687270E+03 -0.64002562321E+03  0.11896646390E+04  0.89940719207E+03 0.  0.
         23    2    4    4    0    0 -0.32788628694E+03 -0.79702193242E+02 -0.64911238861E+03  0.73742969251E+03  0.92702759313E+02 0.  0.
         23    2    4    4    0    0  0.25861705929E+03 -0.35840467945E+03  0.90867653969E+01  0.45223494650E+03  0.95379137752E+02 0.  0.
          2    1    3    3  502    0  0.26251051602E+02  0.11442778503E+03 -0.19299479560E+03  0.22589782387E+03  0.00000000000E+00 0. -1.
         -1    1    3    3    0  502  0.43018176043E+02  0.32367908767E+03 -0.31957549684E+03  0.45688862258E+03  0.00000000000E+00 0.  1.
         11    1    5    5    0    0 -0.32023388523E+03 -0.85955637947E+02 -0.58391057112E+03  0.67148318520E+03  0.00000000000E+00 0. -1.
        -11    1    5    5    0    0 -0.76524017083E+01  0.62534447052E+01 -0.65201817486E+02  0.65946507308E+02  0.00000000000E+00 0.  1.
          1    1    6    6  503    0  0.15121569518E+03 -0.15324984909E+03 -0.30056352102E+02  0.21738235213E+03  0.00000000000E+00 0. -1.
         -1    1    6    6    0  503  0.10740136411E+03 -0.20515483037E+03  0.39143117499E+02  0.23485259437E+03  0.00000000000E+00 0.  1.
<mgrwt>
<rscale>  0 0.14756679E+04</rscale>
<asrwt>0</asrwt>
<pdfrwt beam="1">  1        2 0.23269592E+00 0.14756679E+04</pdfrwt>
<pdfrwt beam="2">  1       -1 0.55373475E-01 0.14756679E+04</pdfrwt>
<totfact> 0.45416425E+01</totfact>
</mgrwt>
</event>
<event>
12    6  0.1403409E-007  0.1992321E+04  0.7818608E-02  0.8610219E-01
         -1   -1    0    0    0  501 -0.00000000000E+00  0.00000000000E+00  0.80191732185E+03  0.80191732185E+03  0.00000000000E+00 0.  1.
          2   -1    0    0  501    0  0.00000000000E+00 -0.00000000000E+00 -0.12374539461E+04  0.12374539461E+04  0.00000000000E+00 0. -1.
         24    2    1    2    0    0  0.42830305996E+03  0.47857300097E+03  0.29883383850E+03  0.71269790885E+03  0.78492151276E+02 0.  0.
        254    2    1    2    0    0 -0.42830305996E+03 -0.47857300097E+03 -0.73437046279E+03  0.13266733591E+04  0.89904760541E+03 0.  0.
         23    2    4    4    0    0 -0.32722695564E+03 -0.39272725364E+03 -0.93429480361E+03  0.10695678231E+04  0.98774348875E+02 0.  0.
         23    2    4    4    0    0 -0.10107610432E+03 -0.85845747333E+02  0.19992434083E+03  0.25710553599E+03  0.92453466039E+02 0.  0.
          2    1    3    3  502    0  0.21640827591E+03  0.29371272809E+03  0.18828237219E+03  0.41054836524E+03  0.00000000000E+00 0. -1.
         -1    1    3    3    0  502  0.21189478405E+03  0.18486027288E+03  0.11055146631E+03  0.30214954361E+03  0.00000000000E+00 0.  1.
         11    1    5    5    0    0 -0.33093414964E+03 -0.36532925777E+03 -0.88827421439E+03  0.10158808778E+04  0.00000000000E+00 0.  1.
        -11    1    5    5    0    0  0.37071940028E+01 -0.27397995868E+02 -0.46020589222E+02  0.53686945315E+02  0.00000000000E+00 0. -1.
          3    1    6    6  503    0 -0.78025704961E+02 -0.22387593597E+02  0.15800165491E+03  0.17763371847E+03  0.00000000000E+00 0. -1.
         -3    1    6    6    0  503 -0.23050399362E+02 -0.63458153736E+02  0.41922685914E+02  0.79471817524E+02  0.00000000000E+00 0.  1.
<mgrwt>
<rscale>  0 0.19923210E+04</rscale>
<asrwt>0</asrwt>
<pdfrwt beam="1">  1        2 0.19037753E+00 0.19923210E+04</pdfrwt>
<pdfrwt beam="2">  1       -1 0.12337190E+00 0.19923210E+04</pdfrwt>
<totfact> 0.11026262E+01</totfact>
</mgrwt>
</event>
<event>
12    6  0.1403409E-007  0.2096282E+04  0.7818608E-02  0.8562883E-01
          2   -1    0    0  501    0  0.00000000000E+00  0.00000000000E+00  0.10838791469E+04  0.10838791469E+04  0.00000000000E+00 0. -1.
         -1   -1    0    0    0  501 -0.00000000000E+00 -0.00000000000E+00 -0.10135816706E+04  0.10135816706E+04  0.00000000000E+00 0.  1.
         24    2    1    2    0    0  0.75559994485E+03 -0.39555194911E+03  0.70847532977E+02  0.85949829251E+03  0.79531885340E+02 0.  0.
        254    2    1    2    0    0 -0.75559994485E+03  0.39555194911E+03 -0.55005668811E+00  0.12379625251E+04  0.89730612937E+03 0.  0.
         23    2    4    4    0    0 -0.26317273714E+03 -0.22179315621E+03  0.20940313089E+03  0.41583747930E+03  0.10304874693E+03 0.  0.
         23    2    4    4    0    0 -0.49242720771E+03  0.61734510532E+03 -0.20995318758E+03  0.82212504578E+03  0.90607482889E+02 0.  0.
          4    1    3    3  502    0  0.17240985819E+03 -0.12908637435E+03  0.19739930912E+02  0.21628249147E+03  0.00000000000E+00 0. -1.
         -3    1    3    3    0  502  0.58319008666E+03 -0.26646557476E+03  0.51107602065E+02  0.64321580104E+03  0.00000000000E+00 0.  1.
         11    1    5    5    0    0 -0.16847086090E+00 -0.25121458532E+02 -0.21113296946E+01  0.25210588535E+02  0.00000000000E+00 0.  1.
        -11    1    5    5    0    0 -0.26300426628E+03 -0.19667169768E+03  0.21151446058E+03  0.39062689076E+03  0.00000000000E+00 0. -1.
          1    1    6    6  503    0 -0.31028981210E+03  0.43498085397E+03 -0.10898719691E+03  0.54531304762E+03  0.00000000000E+00 0. -1.
         -1    1    6    6    0  503 -0.18213739561E+03  0.18236425135E+03 -0.10096599067E+03  0.27681199815E+03  0.00000000000E+00 0.  1.
<mgrwt>
<rscale>  0 0.20962825E+04</rscale>
<asrwt>0</asrwt>
<pdfrwt beam="1">  1        2 0.16675064E+00 0.20962825E+04</pdfrwt>
<pdfrwt beam="2">  1       -1 0.15593564E+00 0.20962825E+04</pdfrwt>
<totfact> 0.73563182E+00</totfact>
</mgrwt>
</event>
<event>
12    6  0.1403409E-007  0.2817259E+04  0.7818608E-02  0.8297930E-01
         -1   -1    0    0    0  501 -0.00000000000E+00  0.00000000000E+00  0.17328003635E+04  0.17328003635E+04  0.00000000000E+00 0.  1.
          2   -1    0    0  501    0  0.00000000000E+00 -0.00000000000E+00 -0.11451040443E+04  0.11451040443E+04  0.00000000000E+00 0. -1.
         24    2    1    2    0    0  0.30430327957E+03  0.12230675018E+04  0.18849875364E+03  0.12769860831E+04  0.81652165956E+02 0.  0.
        254    2    1    2    0    0 -0.30430327957E+03 -0.12230675018E+04  0.39919756556E+03  0.16009183247E+04  0.90282123702E+03 0.  0.
         23    2    4    4    0    0 -0.31825895474E+03 -0.13135211525E+04  0.49244342942E+03  0.14414825737E+04  0.93514164222E+02 0.  0.
         23    2    4    4    0    0  0.13955675170E+02  0.90453650671E+02 -0.93245863857E+02  0.15943575095E+03  0.91369271449E+02 0.  0.
          2    1    3    3  502    0  0.13288616884E+03  0.69052353323E+03  0.11992709710E+03  0.71334703507E+03  0.00000000000E+00 0. -1.
         -1    1    3    3    0  502  0.17141711072E+03  0.53254396860E+03  0.68571656538E+02  0.56363904799E+03  0.00000000000E+00 0.  1.
         11    1    5    5    0    0 -0.38218024935E+01 -0.10472455322E+03  0.24027536598E+02  0.10751353745E+03  0.00000000000E+00 0.  1.
        -11    1    5    5    0    0 -0.31443715224E+03 -0.12087965993E+04  0.46841589282E+03  0.13339690363E+04  0.00000000000E+00 0. -1.
          3    1    6    6  503    0  0.34293120474E+02  0.10081581546E+03 -0.77582183467E+02  0.13175295803E+03  0.00000000000E+00 0. -1.
         -3    1    6    6    0  503 -0.20337445304E+02 -0.10362164785E+02 -0.15663680389E+02  0.27682792920E+02  0.00000000000E+00 0.  1.
<mgrwt>
<rscale>  0 0.28172587E+04</rscale>
<asrwt>0</asrwt>
<pdfrwt beam="1">  1        2 0.17616985E+00 0.28172587E+04</pdfrwt>
<pdfrwt beam="2">  1       -1 0.26658467E+00 0.28172587E+04</pdfrwt>
<totfact> 0.11005236E+00</totfact>
</mgrwt>
</event>
<event>
12    6  0.1403409E-007  0.3482661E+04  0.7818608E-02  0.8117911E-01
          2   -1    0    0  501    0  0.00000000000E+00  0.00000000000E+00  0.24204851793E+04  0.24204851793E+04  0.00000000000E+00 0. -1.
         -1   -1    0    0    0  501 -0.00000000000E+00 -0.00000000000E+00 -0.12527373198E+04  0.12527373198E+04  0.00000000000E+00 0.  1.
         24    2    1    2    0    0  0.61797021876E+03  0.14615056104E+04  0.90873478515E+03  0.18302850087E+04  0.79110446071E+02 0.  0.
        254    2    1    2    0    0 -0.61797021876E+03 -0.14615056104E+04  0.25901307436E+03  0.18429374905E+04  0.90080240925E+03 0.  0.
         23    2    4    4    0    0  0.76135840245E+02 -0.64811312043E+03 -0.18115845715E+03  0.68312764887E+03  0.89429944744E+02 0.  0.
         23    2    4    4    0    0 -0.69410605900E+03 -0.81339248998E+03  0.44017153151E+03  0.11598098416E+04  0.89539530828E+02 0.  0.
          2    1    3    3  502    0  0.52774129965E+03  0.13030515500E+04  0.81949823152E+03  0.16272773497E+04  0.00000000000E+00 0. -1.
         -1    1    3    3    0  502  0.90228919104E+02  0.15845406038E+03  0.89236553624E+02  0.20300765896E+03  0.00000000000E+00 0.  1.
         11    1    5    5    0    0  0.23103788562E+02 -0.33624297715E+03 -0.13656781437E+03  0.36365353381E+03  0.00000000000E+00 0. -1.
        -11    1    5    5    0    0  0.53032051682E+02 -0.31187014328E+03 -0.44590642782E+02  0.31947411506E+03  0.00000000000E+00 0.  1.
          4    1    6    6  503    0 -0.28198608465E+03 -0.39503164325E+03  0.18285207035E+03  0.51865309287E+03  0.00000000000E+00 0. -1.
         -4    1    6    6    0  503 -0.41211997435E+03 -0.41836084673E+03  0.25731946115E+03  0.64115674872E+03  0.00000000000E+00 0.  1.
<mgrwt>
<rscale>  0 0.34826611E+04</rscale>
<asrwt>0</asrwt>
<pdfrwt beam="1">  1        2 0.37238234E+00 0.34826611E+04</pdfrwt>
<pdfrwt beam="2">  1       -1 0.19272882E+00 0.34826611E+04</pdfrwt>
<totfact> 0.61182281E-01</totfact>
</mgrwt>
</event>
<event>
12    6  0.1403409E-007  0.2355653E+04  0.7818608E-02  0.8456296E-01
         -1   -1    0    0    0  501 -0.00000000000E+00  0.00000000000E+00  0.43840131770E+03  0.43840131770E+03  0.00000000000E+00 0.  1.
          2   -1    0    0  501    0  0.00000000000E+00 -0.00000000000E+00 -0.31643948850E+04  0.31643948850E+04  0.00000000000E+00 0. -1.
         24    2    1    2    0    0 -0.47511508349E+03 -0.65308062294E+03 -0.20778359494E+04  0.22307582199E+04  0.81433165611E+02 0.  0.
        254    2    1    2    0    0  0.47511508349E+03  0.65308062294E+03 -0.64815761786E+03  0.13720379828E+04  0.90007293366E+03 0.  0.
         23    2    4    4    0    0  0.56085479327E+03  0.39647384125E+03 -0.79238205353E+03  0.10526260300E+04  0.91665884614E+02 0.  0.
         23    2    4    4    0    0 -0.85739709780E+02  0.25660678170E+03  0.14422443568E+03  0.31941195273E+03  0.89582193839E+02 0.  0.
          4    1    3    3  502    0 -0.33989346362E+03 -0.51818246044E+03 -0.15399361643E+04  0.16599530172E+04  0.00000000000E+00 0. -1.
         -3    1    3    3    0  502 -0.13522161986E+03 -0.13489816251E+03 -0.53789978510E+03  0.57080520279E+03  0.00000000000E+00 0.  1.
         11    1    5    5    0    0  0.21003871342E+03  0.10807111886E+03 -0.31506821607E+03  0.39378116848E+03  0.00000000000E+00 0. -1.
        -11    1    5    5    0    0  0.35081607985E+03  0.28840272239E+03 -0.47731383746E+03  0.65884486155E+03  0.00000000000E+00 0.  1.
          1    1    6    6  503    0  0.58745481472E+01  0.68905016487E+02  0.68235999248E+02  0.97152268149E+02  0.00000000000E+00 0. -1.
         -1    1    6    6    0  503 -0.91614257927E+02  0.18770176521E+03  0.75988436429E+02  0.22225968458E+03  0.00000000000E+00 0.  1.
<mgrwt>
<rscale>  0 0.23556527E+04</rscale>
<asrwt>0</asrwt>
<pdfrwt beam="1">  1        2 0.48682998E+00 0.23556527E+04</pdfrwt>
<pdfrwt beam="2">  1       -1 0.67446357E-01 0.23556527E+04</pdfrwt>
<totfact> 0.31296413E+00</totfact>
</mgrwt>
</event>
<event>
12    6  0.1403409E-007  0.1568617E+04  0.7818608E-02  0.8840063E-01
         -1   -1    0    0    0  501 -0.00000000000E+00  0.00000000000E+00  0.57345244419E+03  0.57345244419E+03  0.00000000000E+00 0.  1.
          2   -1    0    0  501    0  0.00000000000E+00 -0.00000000000E+00 -0.10726951140E+04  0.10726951140E+04  0.00000000000E+00 0. -1.
         24    2    1    2    0    0  0.37435052306E+03  0.35565964091E+03 -0.87248220721E+02  0.52982877949E+03  0.80462346931E+02 0.  0.
        254    2    1    2    0    0 -0.37435052306E+03 -0.35565964091E+03 -0.41199444906E+03  0.11163187787E+04  0.89988671248E+03 0.  0.
         23    2    4    4    0    0 -0.40041978429E+03 -0.51810432075E+02 -0.61349009068E+03  0.73958468581E+03  0.87149822723E+02 0.  0.
         23    2    4    4    0    0  0.26069261228E+02 -0.30384920883E+03  0.20149564161E+03  0.37673409287E+03  0.91236697971E+02 0.  0.
          4    1    3    3  502    0  0.10083181861E+03  0.51198093060E+02 -0.12416737292E+02  0.11376500227E+03  0.00000000000E+00 0. -1.
         -3    1    3    3    0  502  0.27351870445E+03  0.30446154785E+03 -0.74831483429E+02  0.41606377722E+03  0.00000000000E+00 0.  1.
         11    1    5    5    0    0 -0.19335148609E+03 -0.14835137953E+02 -0.37064190711E+03  0.41830646875E+03  0.00000000000E+00 0.  1.
        -11    1    5    5    0    0 -0.20706829820E+03 -0.36975294122E+02 -0.24284818357E+03  0.32127821706E+03  0.00000000000E+00 0. -1.
          4    1    6    6  503    0  0.41392690600E+02 -0.59008811782E+02  0.58096701935E+02  0.92577651076E+02  0.00000000000E+00 0. -1.
         -4    1    6    6    0  503 -0.15323429371E+02 -0.24484039705E+03  0.14339893968E+03  0.28415644180E+03  0.00000000000E+00 0.  1.
<mgrwt>
<rscale>  0 0.15686168E+04</rscale>
<asrwt>0</asrwt>
<pdfrwt beam="1">  1        2 0.16503002E+00 0.15686168E+04</pdfrwt>
<pdfrwt beam="2">  1       -1 0.88223453E-01 0.15686168E+04</pdfrwt>
<totfact> 0.31357029E+01</totfact>
</mgrwt>
</event>
<event>
12    6  0.1403409E-007  0.1539250E+04  0.7818608E-02  0.8858764E-01
          4   -1    0    0  501    0  0.00000000000E+00  0.00000000000E+00  0.80694661266E+03  0.80694661266E+03  0.00000000000E+00 0. -1.
         -3   -1    0    0    0  501 -0.00000000000E+00 -0.00000000000E+00 -0.73402923564E+03  0.73402923564E+03  0.00000000000E+00 0.  1.
         24    2    1    2    0    0 -0.41358320065E+03 -0.28527478940E+03  0.35449287238E+02  0.51021666999E+03  0.81434814693E+02 0.  0.
        254    2    1    2    0    0  0.41358320065E+03  0.28527478940E+03  0.37468089781E+02  0.10307591783E+04  0.89923737500E+03 0.  0.
         23    2    4    4    0    0  0.30089159341E+03  0.11228094377E+03  0.44995441622E+03  0.56054957390E+03  0.92812104852E+02 0.  0.
         23    2    4    4    0    0  0.11269160723E+03  0.17299384563E+03 -0.41248632643E+03  0.47020960441E+03  0.91246006059E+02 0.  0.
          4    1    3    3  502    0 -0.24446737191E+03 -0.14363293447E+03  0.54752752245E+02  0.28877773403E+03  0.00000000000E+00 0. -1.
         -3    1    3    3    0  502 -0.16911582874E+03 -0.14164185493E+03 -0.19303465006E+02  0.22143893596E+03  0.00000000000E+00 0.  1.
         11    1    5    5    0    0  0.16156340331E+02  0.27516379484E+02  0.19062916481E+02  0.37169520545E+02  0.00000000000E+00 0. -1.
        -11    1    5    5    0    0  0.28473525308E+03  0.84764564287E+02  0.43089149973E+03  0.52338005336E+03  0.00000000000E+00 0.  1.
          1    1    6    6  503    0  0.73811857189E+02  0.77868194291E+02 -0.12404362893E+03  0.16400752368E+03  0.00000000000E+00 0. -1.
         -1    1    6    6    0  503  0.38879750043E+02  0.95125651337E+02 -0.28844269750E+03  0.30620208074E+03  0.00000000000E+00 0.  1.
<mgrwt>
<rscale>  0 0.15392497E+04</rscale>
<asrwt>0</asrwt>
<pdfrwt beam="1">  1        4 0.12414563E+00 0.15392497E+04</pdfrwt>
<pdfrwt beam="2">  1       -3 0.11292758E+00 0.15392497E+04</pdfrwt>
<totfact> 0.70145154E-01</totfact>
</mgrwt>
</event>
<event>
12    6  0.1403409E-007  0.1591466E+04  0.7818608E-02  0.8825808E-01
         -1   -1    0    0    0  501 -0.00000000000E+00  0.00000000000E+00  0.19401007144E+03  0.19401007144E+03  0.00000000000E+00 0.  1.
          2   -1    0    0  501    0  0.00000000000E+00 -0.00000000000E+00 -0.32637037114E+04  0.32637037114E+04  0.00000000000E+00 0. -1.
         24    2    1    2    0    0  0.37802966554E+03 -0.29378560560E+03 -0.51736936253E+03  0.70953515053E+03  0.80948517355E+02 0.  0.
        254    2    1    2    0    0 -0.37802966554E+03  0.29378560560E+03 -0.25523242774E+04  0.27481786323E+04  0.89939433391E+03 0.  0.
         23    2    4    4    0    0 -0.53642290002E+03  0.86958732537E+02 -0.23287046155E+04  0.23929791043E+04  0.90401653082E+02 0.  0.
         23    2    4    4    0    0  0.15839323448E+03  0.20682687306E+03 -0.22361966196E+03  0.35519952797E+03  0.91077874955E+02 0.  0.
          2    1    3    3  502    0  0.28656322640E+03 -0.25238587043E+03 -0.44126641425E+03  0.58355219018E+03  0.00000000000E+00 0. -1.
         -1    1    3    3    0  502  0.91466439139E+02 -0.41399735165E+02 -0.76102948282E+02  0.12598296035E+03  0.00000000000E+00 0.  1.
         11    1    5    5    0    0 -0.39175458751E+03  0.26051835816E+02 -0.17356935591E+04  0.17795455842E+04  0.00000000000E+00 0.  1.
        -11    1    5    5    0    0 -0.14466831251E+03  0.60906896722E+02 -0.59301105634E+03  0.61343352016E+03  0.00000000000E+00 0. -1.
          3    1    6    6  503    0  0.69712878254E+02  0.31012116941E+02 -0.40899460023E+02  0.86570217869E+02  0.00000000000E+00 0. -1.
         -3    1    6    6    0  503  0.88680356224E+02  0.17581475612E+03 -0.18272020194E+03  0.26862931010E+03  0.00000000000E+00 0.  1.
<mgrwt>
<rscale>  0 0.15914665E+04</rscale>
<asrwt>0</asrwt>
<pdfrwt beam="1">  1        2 0.50210824E+00 0.15914665E+04</pdfrwt>
<pdfrwt beam="2">  1       -1 0.29847705E-01 0.15914665E+04</pdfrwt>
<totfact> 0.13364902E+01</totfact>
</mgrwt>
</event>
<event>
12    6  0.1403409E-007  0.1968371E+04  0.7818608E-02  0.8621553E-01
         -1   -1    0    0    0  501 -0.00000000000E+00  0.00000000000E+00  0.73956223299E+03  0.73956223299E+03  0.00000000000E+00 0.  1.
          2   -1    0    0  501    0  0.00000000000E+00 -0.00000000000E+00 -0.13097226227E+04  0.13097226227E+04  0.00000000000E+00 0. -1.
         24    2    1    2    0    0 -0.75218609367E+03  0.55158307823E+02 -0.31911351655E+02  0.75909982550E+03  0.79924040719E+02 0.  0.
        254    2    1    2    0    0  0.75218609367E+03 -0.55158307823E+02 -0.53824903801E+03  0.12901850301E+04  0.89779676245E+03 0.  0.
         23    2    4    4    0    0  0.55102513817E+03 -0.59921960096E+02  0.13815017820E+03  0.57866099277E+03  0.92432292121E+02 0.  0.
         23    2    4    4    0    0  0.20116095550E+03  0.47636522731E+01 -0.67639921620E+03  0.71152403737E+03  0.90896279785E+02 0.  0.
          2    1    3    3  502    0 -0.36478981721E+03  0.51708379504E+00  0.14800216892E+02  0.36509029641E+03  0.00000000000E+00 0. -1.
         -1    1    3    3    0  502 -0.38739627646E+03  0.54641224028E+02 -0.46711568546E+02  0.39400952909E+03  0.00000000000E+00 0.  1.
         11    1    5    5    0    0  0.27233202817E+03 -0.71688270523E+02  0.49159326300E+02  0.28586811830E+03  0.00000000000E+00 0.  1.
        -11    1    5    5    0    0  0.27869311000E+03  0.11766310427E+02  0.88990851895E+02  0.29279287447E+03  0.00000000000E+00 0. -1.
          2    1    6    6  503    0  0.53614307620E+02 -0.32169381642E+02 -0.12848777016E+03  0.14289321250E+03  0.00000000000E+00 0. -1.
         -2    1    6    6    0  503  0.14754664788E+03  0.36933033915E+02 -0.54791144605E+03  0.56863082488E+03  0.00000000000E+00 0.  1.
<mgrwt>
<rscale>  0 0.19683713E+04</rscale>
<asrwt>0</asrwt>
<pdfrwt beam="1">  1        2 0.20149579E+00 0.19683713E+04</pdfrwt>
<pdfrwt beam="2">  1       -1 0.11377881E+00 0.19683713E+04</pdfrwt>
<totfact> 0.12200582E+01</totfact>
</mgrwt>
</event>
<event>
12    6  0.1403409E-007  0.3413815E+04  0.7818608E-02  0.8134524E-01
          2   -1    0    0  501    0  0.00000000000E+00  0.00000000000E+00  0.43642240827E+04  0.43642240827E+04  0.00000000000E+00 0. -1.
         -1   -1    0    0    0  501 -0.00000000000E+00 -0.00000000000E+00 -0.66759470904E+03  0.66759470904E+03  0.00000000000E+00 0.  1.
         24    2    1    2    0    0 -0.13542068208E+04 -0.70139678970E+03  0.10765533809E+04  0.18684740776E+04  0.79966407782E+02 0.  0.
        254    2    1    2    0    0  0.13542068208E+04  0.70139678970E+03  0.26200759927E+04  0.31633447141E+04  0.90339249651E+03 0.  0.
         23    2    4    4    0    0  0.14653709573E+03  0.38520345934E+03  0.27088891742E+03  0.50154644185E+03  0.91176763679E+02 0.  0.
         23    2    4    4    0    0  0.12076697251E+04  0.31619333037E+03  0.23491870753E+04  0.26617982723E+04  0.89698052618E+02 0.  0.
          2    1    3    3  502    0 -0.77070008070E+03 -0.43549729159E+03  0.59640418980E+03  0.10673961134E+04  0.00000000000E+00 0. -1.
         -1    1    3    3    0  502 -0.58350674015E+03 -0.26589949811E+03  0.48014919115E+03  0.80107796415E+03  0.00000000000E+00 0.  1.
         11    1    5    5    0    0  0.40024441973E+01  0.80344919350E+01  0.31232064427E+02  0.32496376238E+02  0.00000000000E+00 0. -1.
        -11    1    5    5    0    0  0.14253465154E+03  0.37716896740E+03  0.23965685300E+03  0.46905006561E+03  0.00000000000E+00 0.  1.
          4    1    6    6  503    0  0.68867507670E+02  0.24991726980E+02  0.99787002701E+02  0.12379323866E+03  0.00000000000E+00 0. -1.
         -4    1    6    6    0  503  0.11388022174E+04  0.29120160339E+03  0.22494000726E+04  0.25380050336E+04  0.00000000000E+00 0.  1.
<mgrwt>
<rscale>  0 0.34138148E+04</rscale>
<asrwt>0</asrwt>
<pdfrwt beam="1">  1        2 0.67141907E+00 0.34138148E+04</pdfrwt>
<pdfrwt beam="2">  1       -1 0.10270688E+00 0.34138148E+04</pdfrwt>
<totfact> 0.13899008E-01</totfact>
</mgrwt>
</event>
<event>
12    6  0.1403409E-007  0.2987686E+04  0.7818608E-02  0.8247256E-01
         -1   -1    0    0    0  501 -0.00000000000E+00  0.00000000000E+00  0.10252232534E+04  0.10252232534E+04  0.00000000000E+00 0.  1.
          2   -1    0    0  501    0  0.00000000000E+00 -0.00000000000E+00 -0.21766645724E+04  0.21766645724E+04  0.00000000000E+00 0. -1.
         24    2    1    2    0    0 -0.48620373263E+03  0.12443683129E+04 -0.28448691372E+03  0.13681838235E+04  0.78406651106E+02 0.  0.
        254    2    1    2    0    0  0.48620373263E+03 -0.12443683129E+04 -0.86695440531E+03  0.18337040024E+04  0.90885304631E+03 0.  0.
         23    2    4    4    0    0 -0.22723862511E+03 -0.13394793980E+03 -0.24688428496E+03  0.37255018916E+03  0.90897469488E+02 0.  0.
         23    2    4    4    0    0  0.71344235774E+03 -0.11104203731E+04 -0.62007012035E+03  0.14611538132E+04  0.91924474522E+02 0.  0.
          2    1    3    3  502    0 -0.32555413195E+03  0.72827960444E+03 -0.16482016674E+03  0.81458109629E+03  0.00000000000E+00 0. -1.
         -1    1    3    3    0  502 -0.16064960068E+03  0.51608870845E+03 -0.11966674698E+03  0.55360272717E+03  0.00000000000E+00 0.  1.
         11    1    5    5    0    0 -0.18795441580E+03 -0.89319715851E+02 -0.14181727291E+03  0.25182734751E+03  0.00000000000E+00 0. -1.
        -11    1    5    5    0    0 -0.39284209319E+02 -0.44628223952E+02 -0.10506701205E+03  0.12072284165E+03  0.00000000000E+00 0.  1.
          3    1    6    6  503    0  0.36051670852E+03 -0.48320533478E+03 -0.26284461914E+03  0.65768304410E+03  0.00000000000E+00 0. -1.
         -3    1    6    6    0  503  0.35292564922E+03 -0.62721503830E+03 -0.35722550121E+03  0.80347076915E+03  0.00000000000E+00 0.  1.
<mgrwt>
<rscale>  0 0.29876862E+04</rscale>
<asrwt>0</asrwt>
<pdfrwt beam="1">  1        2 0.33487147E+00 0.29876862E+04</pdfrwt>
<pdfrwt beam="2">  1       -1 0.15772666E+00 0.29876862E+04</pdfrwt>
<totfact> 0.15771004E+00</totfact>
</mgrwt>
</event>
<event>
12    6  0.1403409E-007  0.1818314E+04  0.7818608E-02  0.8696620E-01
         -1   -1    0    0    0  501 -0.00000000000E+00  0.00000000000E+00  0.72688254017E+03  0.72688254017E+03  0.00000000000E+00 0.  1.
          2   -1    0    0  501    0  0.00000000000E+00 -0.00000000000E+00 -0.11371393948E+04  0.11371393948E+04  0.00000000000E+00 0. -1.
         24    2    1    2    0    0 -0.17304293545E+03  0.46330867897E+03  0.32880876018E+03  0.59919250912E+03  0.79483788857E+02 0.  0.
        254    2    1    2    0    0  0.17304293545E+03 -0.46330867897E+03 -0.73906561478E+03  0.12648294258E+04  0.89943132254E+03 0.  0.
         23    2    4    4    0    0  0.40967571383E+03 -0.60353551026E+03 -0.53809176181E+03  0.91110365043E+03  0.92075051150E+02 0.  0.
         23    2    4    4    0    0 -0.23663277838E+03  0.14022683129E+03 -0.20097385297E+03  0.35372577540E+03  0.95251239307E+02 0.  0.
          2    1    3    3  502    0 -0.80542764899E+02  0.20536627725E+03  0.10001674906E+03  0.24221022873E+03  0.00000000000E+00 0. -1.
         -1    1    3    3    0  502 -0.92500170554E+02  0.25794240173E+03  0.22879201112E+03  0.35698228039E+03  0.00000000000E+00 0.  1.
         11    1    5    5    0    0  0.96914891879E+02 -0.21526037920E+03 -0.15606616529E+03  0.28299500891E+03  0.00000000000E+00 0. -1.
        -11    1    5    5    0    0  0.31276082195E+03 -0.38827513106E+03 -0.38202559652E+03  0.62810864151E+03  0.00000000000E+00 0.  1.
          1    1    6    6  503    0 -0.57936663342E+02  0.78466384275E+02 -0.40030546780E+02  0.10543279896E+03  0.00000000000E+00 0. -1.
         -1    1    6    6    0  503 -0.17869611504E+03  0.61760447014E+02 -0.16094330619E+03  0.24829297644E+03  0.00000000000E+00 0.  1.
<mgrwt>
<rscale>  0 0.18183144E+04</rscale>
<asrwt>0</asrwt>
<pdfrwt beam="1">  1        2 0.17494452E+00 0.18183144E+04</pdfrwt>
<pdfrwt beam="2">  1       -1 0.11182808E+00 0.18183144E+04</pdfrwt>
<totfact> 0.16311732E+01</totfact>
</mgrwt>
</event>
<event>
12    6  0.1403409E-007  0.1249176E+04  0.7818608E-02  0.9070869E-01
          2   -1    0    0  501    0  0.00000000000E+00  0.00000000000E+00  0.11723825909E+04  0.11723825909E+04  0.00000000000E+00 0. -1.
         -1   -1    0    0    0  501 -0.00000000000E+00 -0.00000000000E+00 -0.33275003781E+03  0.33275003781E+03  0.00000000000E+00 0.  1.
         24    2    1    2    0    0  0.24645720148E+02 -0.87042929952E+01 -0.14643646693E+03  0.16844665626E+03  0.79040881330E+02 0.  0.
        254    2    1    2    0    0 -0.24645720148E+02  0.87042929952E+01  0.98606902005E+03  0.13366859725E+04  0.90206102924E+03 0.  0.
         23    2    4    4    0    0 -0.44999897978E+03  0.61446069419E+02  0.46814716707E+03  0.65837062876E+03  0.89528841913E+02 0.  0.
         23    2    4    4    0    0  0.42535325963E+03 -0.52741776424E+02  0.51792185298E+03  0.67831534371E+03  0.90341403888E+02 0.  0.
          4    1    3    3  502    0  0.20603646201E+02 -0.14008556401E+02 -0.32741131354E+01  0.25129060987E+02  0.00000000000E+00 0. -1.
         -3    1    3    3    0  502  0.40420739468E+01  0.53042634063E+01 -0.14316235379E+03  0.14331759528E+03  0.00000000000E+00 0.  1.
         11    1    5    5    0    0 -0.15347640075E+03 -0.11772317452E+02  0.19655347111E+03  0.24965347995E+03  0.00000000000E+00 0. -1.
        -11    1    5    5    0    0 -0.29652257903E+03  0.73218386871E+02  0.27159369596E+03  0.40871714882E+03  0.00000000000E+00 0.  1.
          1    1    6    6  503    0  0.19590237666E+02  0.49973623437E+01  0.33890381107E+01  0.20499673693E+02  0.00000000000E+00 0. -1.
         -1    1    6    6    0  503  0.40576302197E+03 -0.57739138768E+02  0.51453281487E+03  0.65781567002E+03  0.00000000000E+00 0.  1.
<mgrwt>
<rscale>  0 0.12491763E+04</rscale>
<asrwt>0</asrwt>
<pdfrwt beam="1">  1        2 0.18036655E+00 0.12491763E+04</pdfrwt>
<pdfrwt beam="2">  1       -1 0.51192314E-01 0.12491763E+04</pdfrwt>
<totfact> 0.84654902E+01</totfact>
</mgrwt>
</event>
<event>
12    6  0.1403409E-007  0.1689783E+04  0.7818608E-02  0.8767213E-01
         -1   -1    0    0    0  501 -0.00000000000E+00  0.00000000000E+00  0.51703072713E+03  0.51703072713E+03  0.00000000000E+00 0.  1.
          2   -1    0    0  501    0  0.00000000000E+00 -0.00000000000E+00 -0.13806568239E+04  0.13806568239E+04  0.00000000000E+00 0. -1.
         24    2    1    2    0    0  0.21696558605E+03  0.37256765098E+03 -0.78010623652E+03  0.89486452197E+03  0.79599323696E+02 0.  0.
        254    2    1    2    0    0 -0.21696558605E+03 -0.37256765098E+03 -0.83519860270E+02  0.10028230291E+04  0.90155296046E+03 0.  0.
         23    2    4    4    0    0 -0.26870795510E+02  0.29750876287E+02 -0.42410359446E+03  0.43536981558E+03  0.89865806602E+02 0.  0.
         23    2    4    4    0    0 -0.19009479054E+03 -0.40231852727E+03  0.34058373419E+03  0.56745321351E+03  0.89496607492E+02 0.  0.
          2    1    3    3  502    0  0.11327240256E+03  0.13117852232E+03 -0.35663148580E+03  0.39651539512E+03  0.00000000000E+00 0. -1.
         -1    1    3    3    0  502  0.10369318349E+03  0.24138912866E+03 -0.42347475072E+03  0.49834912685E+03  0.00000000000E+00 0.  1.
         11    1    5    5    0    0 -0.60273456403E+02  0.16797368784E+02 -0.27192158031E+03  0.27902757388E+03  0.00000000000E+00 0. -1.
        -11    1    5    5    0    0  0.33402660893E+02  0.12953507503E+02 -0.15218201415E+03  0.15634224170E+03  0.00000000000E+00 0.  1.
          2    1    6    6  503    0 -0.88928226537E+02 -0.27640138231E+03  0.19290082417E+03  0.34859242904E+03  0.00000000000E+00 0. -1.
         -2    1    6    6    0  503 -0.10116656401E+03 -0.12591714496E+03  0.14768291001E+03  0.21886078447E+03  0.00000000000E+00 0.  1.
<mgrwt>
<rscale>  0 0.16897834E+04</rscale>
<asrwt>0</asrwt>
<pdfrwt beam="1">  1        2 0.21240874E+00 0.16897834E+04</pdfrwt>
<pdfrwt beam="2">  1       -1 0.79543189E-01 0.16897834E+04</pdfrwt>
<totfact> 0.25444860E+01</totfact>
</mgrwt>
</event>
<event>
12    6  0.1403409E-007  0.2359674E+04  0.7818608E-02  0.8454757E-01
         -1   -1    0    0    0  501 -0.00000000000E+00  0.00000000000E+00  0.48524791348E+03  0.48524791348E+03  0.00000000000E+00 0.  1.
          2   -1    0    0  501    0  0.00000000000E+00 -0.00000000000E+00 -0.28686672106E+04  0.28686672106E+04  0.00000000000E+00 0. -1.
         24    2    1    2    0    0  0.99798527140E+03 -0.10865089762E+03 -0.11190840401E+04  0.15055632874E+04  0.81191772843E+02 0.  0.
        254    2    1    2    0    0 -0.99798527140E+03  0.10865089762E+03 -0.12643352570E+04  0.18483518367E+04  0.90004513810E+03 0.  0.
         23    2    4    4    0    0 -0.27036612352E+03 -0.36742089035E+03 -0.53950645705E+03  0.71238372813E+03  0.91254630008E+02 0.  0.
         23    2    4    4    0    0 -0.72761914788E+03  0.47607178796E+03 -0.72482879994E+03  0.11359681086E+04  0.94724773805E+02 0.  0.
          2    1    3    3  502    0  0.66244510366E+03 -0.11016997931E+03 -0.73765854178E+03  0.99755253695E+03  0.00000000000E+00 0. -1.
         -1    1    3    3    0  502  0.33554016773E+03  0.15190816896E+01 -0.38142549835E+03  0.50801075044E+03  0.00000000000E+00 0.  1.
         11    1    5    5    0    0 -0.16704581725E+03 -0.22046137452E+03 -0.25681316945E+03  0.37743943451E+03  0.00000000000E+00 0. -1.
        -11    1    5    5    0    0 -0.10332030627E+03 -0.14695951582E+03 -0.28269328760E+03  0.33494429362E+03  0.00000000000E+00 0.  1.
          4    1    6    6  503    0 -0.38965576589E+03  0.23271351121E+03 -0.32132567799E+03  0.55609116656E+03  0.00000000000E+00 0.  1.
         -4    1    6    6    0  503 -0.33796338198E+03  0.24335827676E+03 -0.40350312196E+03  0.57987694199E+03  0.00000000000E+00 0. -1.
<mgrwt>
<rscale>  0 0.23596735E+04</rscale>
<asrwt>0</asrwt>
<pdfrwt beam="1">  1        2 0.44133342E+00 0.23596735E+04</pdfrwt>
<pdfrwt beam="2">  1       -1 0.74653525E-01 0.23596735E+04</pdfrwt>
<totfact> 0.38924397E+00</totfact>
</mgrwt>
</event>
<event>
12    6  0.1403409E-007  0.2757779E+04  0.7818608E-02  0.8316497E-01
          2   -1    0    0  501    0  0.00000000000E+00  0.00000000000E+00  0.36497982362E+04  0.36497982362E+04  0.00000000000E+00 0. -1.
         -1   -1    0    0    0  501 -0.00000000000E+00 -0.00000000000E+00 -0.52094299285E+03  0.52094299285E+03  0.00000000000E+00 0.  1.
         24    2    1    2    0    0 -0.12068229174E+04 -0.22210711522E+03  0.12572741511E+04  0.17585345128E+04  0.77150611668E+02 0.  0.
        254    2    1    2    0    0  0.12068229174E+04  0.22210711522E+03  0.18715810922E+04  0.24122067163E+04  0.90009573524E+03 0.  0.
         23    2    4    4    0    0  0.47181747816E+03 -0.33799510097E+03  0.62823438051E+03  0.86014836000E+03  0.91237839620E+02 0.  0.
         23    2    4    4    0    0  0.73500543926E+03  0.56010221619E+03  0.12433467117E+04  0.15520583563E+04  0.95008459657E+02 0.  0.
          2    1    3    3  502    0 -0.53894555714E+03 -0.12644879798E+03  0.52748048525E+03  0.76464846458E+03  0.00000000000E+00 0. -1.
         -1    1    3    3    0  502 -0.66787736028E+03 -0.95658317244E+02  0.72979366585E+03  0.99388604817E+03  0.00000000000E+00 0.  1.
         11    1    5    5    0    0  0.18144814913E+03 -0.17578818395E+03  0.23404818791E+03  0.34438854612E+03  0.00000000000E+00 0. -1.
        -11    1    5    5    0    0  0.29036932903E+03 -0.16220691702E+03  0.39418619260E+03  0.51575981388E+03  0.00000000000E+00 0.  1.
          3    1    6    6  503    0  0.16834062359E+03  0.80691374200E+02  0.24510318653E+03  0.30809939219E+03  0.00000000000E+00 0. -1.
         -3    1    6    6    0  503  0.56666481568E+03  0.47941084199E+03  0.99824352517E+03  0.12439589641E+04  0.00000000000E+00 0.  1.
<mgrwt>
<rscale>  0 0.27577794E+04</rscale>
<asrwt>0</asrwt>
<pdfrwt beam="1">  1        2 0.56150740E+00 0.27577794E+04</pdfrwt>
<pdfrwt beam="2">  1       -1 0.80145078E-01 0.27577794E+04</pdfrwt>
<totfact> 0.98009237E-01</totfact>
</mgrwt>
</event>
<event>
12    6  0.1403409E-007  0.1566550E+04  0.7818608E-02  0.8841365E-01
         -1   -1    0    0    0  501 -0.00000000000E+00  0.00000000000E+00  0.14204947788E+04  0.14204947788E+04  0.00000000000E+00 0.  1.
          2   -1    0    0  501    0  0.00000000000E+00 -0.00000000000E+00 -0.43190578588E+03  0.43190578588E+03  0.00000000000E+00 0. -1.
         24    2    1    2    0    0  0.42973272415E+03 -0.15413610196E+03  0.61810682906E+03  0.77499668555E+03  0.10067600677E+03 0.  0.
        254    2    1    2    0    0 -0.42973272415E+03  0.15413610196E+03  0.37048216385E+03  0.10774038791E+04  0.90283660366E+03 0.  0.
         23    2    4    4    0    0 -0.36457746254E+03 -0.10879276499E+03  0.59779086677E+03  0.71441053023E+03  0.90971937456E+02 0.  0.
         23    2    4    4    0    0 -0.65155261610E+02  0.26292886696E+03 -0.22730870292E+03  0.36299334890E+03  0.81964185667E+02 0.  0.
          4    1    3    3  502    0  0.12711509532E+03 -0.96056767602E+02  0.20586375194E+03  0.26031718043E+03  0.00000000000E+00 0. -1.
         -3    1    3    3    0  502  0.30261762883E+03 -0.58079334360E+02  0.41224307712E+03  0.51467950512E+03  0.00000000000E+00 0.  1.
         11    1    5    5    0    0 -0.17238645130E+03 -0.73705355461E+02  0.21965307019E+03  0.28878545542E+03  0.00000000000E+00 0. -1.
        -11    1    5    5    0    0 -0.19219101124E+03 -0.35087409532E+02  0.37813779658E+03  0.42562507482E+03  0.00000000000E+00 0.  1.
          3    1    6    6  503    0 -0.40154440033E+02  0.25111426991E+03 -0.19496461218E+03  0.32044025279E+03  0.00000000000E+00 0. -1.
         -3    1    6    6    0  503 -0.25000821577E+02  0.11814597043E+02 -0.32344090742E+02  0.42553096112E+02  0.00000000000E+00 0.  1.
<mgrwt>
<rscale>  0 0.15665502E+04</rscale>
<asrwt>0</asrwt>
<pdfrwt beam="1">  1        2 0.66447045E-01 0.15665502E+04</pdfrwt>
<pdfrwt beam="2">  1       -1 0.21853766E+00 0.15665502E+04</pdfrwt>
<totfact> 0.90201744E+00</totfact>
</mgrwt>
</event>
<event>
12    6  0.1403409E-007  0.2110841E+04  0.7818608E-02  0.8556483E-01
          2   -1    0    0  501    0  0.00000000000E+00  0.00000000000E+00  0.10268070465E+04  0.10268070465E+04  0.00000000000E+00 0. -1.
         -1   -1    0    0    0  501 -0.00000000000E+00 -0.00000000000E+00 -0.10848317113E+04  0.10848317113E+04  0.00000000000E+00 0.  1.
         24    2    1    2    0    0 -0.45877279235E+03 -0.34233763077E+03  0.62054672291E+03  0.84804079966E+03  0.80171280006E+02 0.  0.
        254    2    1    2    0    0  0.45877279235E+03  0.34233763077E+03 -0.67857138772E+03  0.12635979581E+04  0.89919583127E+03 0.  0.
         23    2    4    4    0    0  0.26066567684E+03  0.45564481540E+03 -0.82013179635E+03  0.97806915320E+03  0.91892938658E+02 0.  0.
         23    2    4    4    0    0  0.19810711551E+03 -0.11330718464E+03  0.14156040863E+03  0.28552880488E+03  0.96965982778E+02 0.  0.
          4    1    3    3  502    0 -0.33152782860E+03 -0.26467733828E+03  0.50430116455E+03  0.65900262450E+03  0.00000000000E+00 0. -1.
         -3    1    3    3    0  502 -0.12724496375E+03 -0.77660292486E+02  0.11624555836E+03  0.18903817516E+03  0.00000000000E+00 0.  1.
         11    1    5    5    0    0  0.16577907978E+03  0.20761281996E+03 -0.37138733792E+03  0.45663370558E+03  0.00000000000E+00 0. -1.
        -11    1    5    5    0    0  0.94886597055E+02  0.24803199544E+03 -0.44874445843E+03  0.52143544762E+03  0.00000000000E+00 0.  1.
          3    1    6    6  503    0 -0.78319599827E+01 -0.19567017286E+02  0.66901233422E+01  0.22112564595E+02  0.00000000000E+00 0. -1.
         -3    1    6    6    0  503  0.20593907550E+03 -0.93740167354E+02  0.13487028528E+03  0.26341624028E+03  0.00000000000E+00 0.  1.
<mgrwt>
<rscale>  0 0.21108414E+04</rscale>
<asrwt>0</asrwt>
<pdfrwt beam="1">  1        2 0.15797032E+00 0.21108414E+04</pdfrwt>
<pdfrwt beam="2">  1       -1 0.16689719E+00 0.21108414E+04</pdfrwt>
<totfact> 0.65959814E+00</totfact>
</mgrwt>
</event>
<event>
12    6  0.1403409E-007  0.1955147E+04  0.7818608E-02  0.8627883E-01
         -1   -1    0    0    0  501 -0.00000000000E+00  0.00000000000E+00  0.44038129039E+03  0.44038129039E+03  0.00000000000E+00 0.  1.
          2   -1    0    0  501    0  0.00000000000E+00 -0.00000000000E+00 -0.21700515908E+04  0.21700515908E+04  0.00000000000E+00 0. -1.
         24    2    1    2    0    0  0.58189362523E+03 -0.36245893753E+03 -0.11457100642E+04  0.13375593212E+04  0.80229135037E+02 0.  0.
        254    2    1    2    0    0 -0.58189362523E+03  0.36245893753E+03 -0.58396023627E+03  0.12728735600E+04  0.89956704573E+03 0.  0.
         23    2    4    4    0    0  0.71667005831E+02 -0.13694565371E+03 -0.38090770643E+03  0.42070268761E+03  0.89497479025E+02 0.  0.
         23    2    4    4    0    0 -0.65356063106E+03  0.49940459123E+03 -0.20305252984E+03  0.85217087240E+03  0.91751957365E+02 0.  0.
          2    1    3    3  502    0  0.10260714758E+03 -0.68248001866E+02 -0.27035833684E+03  0.29711891019E+03  0.00000000000E+00 0. -1.
         -1    1    3    3    0  502  0.47928647766E+03 -0.29421093566E+03 -0.87535172732E+03  0.10404404110E+04  0.00000000000E+00 0.  1.
         11    1    5    5    0    0  0.28550568638E+02  0.26374777638E+01 -0.10064472463E+03  0.10464918468E+03  0.00000000000E+00 0. -1.
        -11    1    5    5    0    0  0.43116437193E+02 -0.13958313147E+03 -0.28026298180E+03  0.31605350293E+03  0.00000000000E+00 0.  1.
          2    1    6    6  503    0 -0.30820687018E+03  0.19673264500E+03 -0.55501081881E+02  0.36983182465E+03  0.00000000000E+00 0. -1.
         -2    1    6    6    0  503 -0.34535376088E+03  0.30267194624E+03 -0.14755144795E+03  0.48233904775E+03  0.00000000000E+00 0.  1.
<mgrwt>
<rscale>  0 0.19551472E+04</rscale>
<asrwt>0</asrwt>
<pdfrwt beam="1">  1        2 0.33385410E+00 0.19551472E+04</pdfrwt>
<pdfrwt beam="2">  1       -1 0.67750966E-01 0.19551472E+04</pdfrwt>
<totfact> 0.12571946E+01</totfact>
</mgrwt>
</event>
<event>
12    6  0.1403409E-007  0.2165515E+04  0.7818608E-02  0.8532920E-01
         -1   -1    0    0    0  501 -0.00000000000E+00  0.00000000000E+00  0.89979449388E+03  0.89979449388E+03  0.00000000000E+00 0.  1.
          2   -1    0    0  501    0  0.00000000000E+00 -0.00000000000E+00 -0.13029244665E+04  0.13029244665E+04  0.00000000000E+00 0. -1.
         24    2    1    2    0    0  0.22221856417E+03 -0.82282508069E+03 -0.44963306947E+03  0.96727355082E+03  0.83821365265E+02 0.  0.
        254    2    1    2    0    0 -0.22221856417E+03  0.82282508069E+03  0.46503096897E+02  0.12354454095E+04  0.89316326514E+03 0.  0.
         23    2    4    4    0    0 -0.25766633526E+02  0.90110620416E+03 -0.16729433242E+03  0.92043828402E+03  0.81011915415E+02 0.  0.
         23    2    4    4    0    0 -0.19645193064E+03 -0.78281123471E+02  0.21379742932E+03  0.31500712550E+03  0.93802201396E+02 0.  0.
          2    1    3    3  502    0  0.47494243718E+02 -0.80192708782E+02 -0.57109870718E+02  0.10930741540E+03  0.00000000000E+00 0. -1.
         -1    1    3    3    0  502  0.17472432045E+03 -0.74263237191E+03 -0.39252319876E+03  0.85796613542E+03  0.00000000000E+00 0.  1.
         11    1    5    5    0    0 -0.51708785717E+02  0.40015322186E+03 -0.73458868802E+02  0.41011291725E+03  0.00000000000E+00 0.  1.
        -11    1    5    5    0    0  0.25942152190E+02  0.50095298230E+03 -0.93835463622E+02  0.51032536677E+03  0.00000000000E+00 0. -1.
          2    1    6    6  503    0 -0.16738715126E+03 -0.57105000813E+02  0.11781275949E+03  0.21250714299E+03  0.00000000000E+00 0. -1.
         -2    1    6    6    0  503 -0.29064779384E+02 -0.21176122658E+02  0.95984669832E+02  0.10249998251E+03  0.00000000000E+00 0.  1.
<mgrwt>
<rscale>  0 0.21655154E+04</rscale>
<asrwt>0</asrwt>
<pdfrwt beam="1">  1        2 0.20044992E+00 0.21655154E+04</pdfrwt>
<pdfrwt beam="2">  1       -1 0.13842992E+00 0.21655154E+04</pdfrwt>
<totfact> 0.74270235E+00</totfact>
</mgrwt>
</event>
<event>
12    6  0.1403409E-007  0.1762310E+04  0.7818608E-02  0.8726603E-01
         -1   -1    0    0    0  501 -0.00000000000E+00  0.00000000000E+00  0.30461727982E+04  0.30461727982E+04  0.00000000000E+00 0.  1.
          2   -1    0    0  501    0  0.00000000000E+00 -0.00000000000E+00 -0.25488852710E+03  0.25488852710E+03  0.00000000000E+00 0. -1.
         24    2    1    2    0    0 -0.60276090995E+02 -0.97056168949E+02  0.22304883079E+04  0.22350178293E+04  0.84696508042E+02 0.  0.
        254    2    1    2    0    0  0.60276090995E+02  0.97056168949E+02  0.56079596321E+03  0.10660434960E+04  0.89939063593E+03 0.  0.
         23    2    4    4    0    0  0.18359764026E+03  0.29266175889E+03  0.69690442041E+03  0.78271371566E+03  0.87212332121E+02 0.  0.
         23    2    4    4    0    0 -0.12332154926E+03 -0.19560558994E+03 -0.13610845720E+03  0.28332978037E+03  0.90997258177E+02 0.  0.
          4    1    3    3  502    0 -0.11005133196E+02 -0.91541001249E+02  0.13644929115E+04  0.13676043922E+04  0.00000000000E+00 0. -1.
         -3    1    3    3    0  502 -0.49270957799E+02 -0.55151677004E+01  0.86599539639E+03  0.86741343713E+03  0.00000000000E+00 0.  1.
         11    1    5    5    0    0  0.17579542783E+03  0.23366569997E+03  0.61980633021E+03  0.68532005570E+03  0.00000000000E+00 0. -1.
        -11    1    5    5    0    0  0.78022124328E+01  0.58996058920E+02  0.77098090204E+02  0.97393659958E+02  0.00000000000E+00 0.  1.
          3    1    6    6  503    0 -0.85936225560E+02 -0.76861268877E+02 -0.10277988167E+03  0.15445515075E+03  0.00000000000E+00 0. -1.
         -3    1    6    6    0  503 -0.37385323703E+02 -0.11874432106E+03 -0.33328575525E+02  0.12887462962E+03  0.00000000000E+00 0.  1.
<mgrwt>
<rscale>  0 0.17623104E+04</rscale>
<asrwt>0</asrwt>
<pdfrwt beam="1">  1        2 0.39213622E-01 0.17623104E+04</pdfrwt>
<pdfrwt beam="2">  1       -1 0.46864194E+00 0.17623104E+04</pdfrwt>
<totfact> 0.34451197E-01</totfact>
</mgrwt>
</event>
<event>
12    6  0.1403409E-007  0.3165347E+04  0.7818608E-02  0.8198029E-01
         -1   -1    0    0    0  501 -0.00000000000E+00  0.00000000000E+00  0.10556880416E+04  0.10556880416E+04  0.00000000000E+00 0.  1.
          2   -1    0    0  501    0  0.00000000000E+00 -0.00000000000E+00 -0.23727233753E+04  0.23727233753E+04  0.00000000000E+00 0. -1.
         24    2    1    2    0    0 -0.10164689699E+04 -0.96057882058E+03 -0.17720923627E+03  0.14119025261E+04  0.78388726868E+02 0.  0.
        254    2    1    2    0    0  0.10164689699E+04  0.96057882058E+03 -0.11398260974E+04  0.20165088909E+04  0.90065739177E+03 0.  0.
         23    2    4    4    0    0  0.59049246096E+03  0.10344263868E+04 -0.98215422461E+03  0.15464909083E+04  0.91037971300E+02 0.  0.
         23    2    4    4    0    0  0.42597650890E+03 -0.73847566230E+02 -0.15767187281E+03  0.47001798262E+03  0.95640134519E+02 0.  0.
          4    1    3    3  502    0 -0.51321405172E+03 -0.50877607388E+03 -0.12696698098E+03  0.73373181101E+03  0.00000000000E+00 0. -1.
         -3    1    3    3    0  502 -0.50325491814E+03 -0.45180274670E+03 -0.50242255293E+02  0.67817071507E+03  0.00000000000E+00 0.  1.
         11    1    5    5    0    0  0.28766621430E+03  0.59494205033E+03 -0.53870399754E+03  0.85259010730E+03  0.00000000000E+00 0.  1.
        -11    1    5    5    0    0  0.30282624666E+03  0.43948433647E+03 -0.44345022706E+03  0.69390080095E+03  0.00000000000E+00 0. -1.
          3    1    6    6  503    0  0.12060092472E+03 -0.44275416097E+02 -0.81805464869E+01  0.12873156899E+03  0.00000000000E+00 0. -1.
         -3    1    6    6    0  503  0.30537558418E+03 -0.29572150133E+02 -0.14949132633E+03  0.34128641362E+03  0.00000000000E+00 0.  1.
<mgrwt>
<rscale>  0 0.31653472E+04</rscale>
<asrwt>0</asrwt>
<pdfrwt beam="1">  1        2 0.36503436E+00 0.31653472E+04</pdfrwt>
<pdfrwt beam="2">  1       -1 0.16241355E+00 0.31653472E+04</pdfrwt>
<totfact> 0.11083785E+00</totfact>
</mgrwt>
</event>
<event>
12    6  0.1403409E-007  0.1512643E+04  0.7818608E-02  0.8876089E-01
          2   -1    0    0  501    0  0.00000000000E+00  0.00000000000E+00  0.66959037596E+03  0.66959037596E+03  0.00000000000E+00 0. -1.
         -1   -1    0    0    0  501 -0.00000000000E+00 -0.00000000000E+00 -0.85428716343E+03  0.85428716343E+03  0.00000000000E+00 0.  1.
         24    2    1    2    0    0  0.48183378928E+03  0.31642358113E+02 -0.28982434274E+02  0.48950175561E+03  0.74879556156E+02 0.  0.
        254    2    1    2    0    0 -0.48183378928E+03 -0.31642358113E+02 -0.15571435319E+03  0.10343757838E+04  0.90139961336E+03 0.  0.
         23    2    4    4    0    0  0.23978662863E+03 -0.54154911261E+01  0.79849247745E+02  0.26882351405E+03  0.91450667186E+02 0.  0.
         23    2    4    4    0    0 -0.72162041790E+03 -0.26226866987E+02 -0.23556360094E+03  0.76555226973E+03  0.95687990450E+02 0.  0.
          2    1    3    3  502    0  0.17948539326E+03  0.41557460776E+02 -0.31909925274E+02  0.18697666237E+03  0.00000000000E+00 0. -1.
         -1    1    3    3    0  502  0.30234839602E+03 -0.99151026634E+01  0.29274909995E+01  0.30252509324E+03  0.00000000000E+00 0.  1.
         11    1    5    5    0    0  0.14146128378E+03  0.28323656218E+02  0.79804730201E+02  0.16487061374E+03  0.00000000000E+00 0.  1.
        -11    1    5    5    0    0  0.98325344843E+02 -0.33739147344E+02  0.44517543596E-01  0.10395290031E+03  0.00000000000E+00 0. -1.
          1    1    6    6  503    0 -0.10466329168E+02 -0.85374219783E+01 -0.16267547390E+02  0.21143904994E+02  0.00000000000E+00 0. -1.
         -1    1    6    6    0  503 -0.71115408874E+03 -0.17689445009E+02 -0.21929605355E+03  0.74440836474E+03  0.00000000000E+00 0.  1.
<mgrwt>
<rscale>  0 0.15126433E+04</rscale>
<asrwt>0</asrwt>
<pdfrwt beam="1">  1        2 0.10301390E+00 0.15126433E+04</pdfrwt>
<pdfrwt beam="2">  1       -1 0.13142879E+00 0.15126433E+04</pdfrwt>
<totfact> 0.23573399E+01</totfact>
</mgrwt>
</event>
<event>
12    6  0.1403409E-007  0.1490316E+04  0.7818608E-02  0.8890918E-01
         -1   -1    0    0    0  501 -0.00000000000E+00  0.00000000000E+00  0.49417685079E+03  0.49417685079E+03  0.00000000000E+00 0.  1.
          2   -1    0    0  501    0  0.00000000000E+00 -0.00000000000E+00 -0.11236073672E+04  0.11236073672E+04  0.00000000000E+00 0. -1.
         24    2    1    2    0    0 -0.42059690130E+03 -0.11436457258E+03 -0.99514910866E+01  0.44324365869E+03  0.79905568973E+02 0.  0.
        254    2    1    2    0    0  0.42059690130E+03  0.11436457258E+03 -0.61947902528E+03  0.11745405592E+04  0.89766934542E+03 0.  0.
         23    2    4    4    0    0 -0.75405023303E+02  0.36457012827E+02  0.18461371963E+03  0.22241822050E+03  0.91501956328E+02 0.  0.
         23    2    4    4    0    0  0.49600192461E+03  0.77907559749E+02 -0.80409274491E+03  0.95212233875E+03  0.88793628392E+02 0.  0.
          2    1    3    3  502    0 -0.13516590215E+03 -0.30748704064E+01 -0.20260876246E+02  0.13671056667E+03  0.00000000000E+00 0. -1.
         -1    1    3    3    0  502 -0.28543099915E+03 -0.11128970217E+03  0.10309385159E+02  0.30653309203E+03  0.00000000000E+00 0.  1.
         11    1    5    5    0    0 -0.58410903442E+02 -0.44589672368E+00  0.36604536364E+02  0.68934204480E+02  0.00000000000E+00 0.  1.
        -11    1    5    5    0    0 -0.16994119861E+02  0.36902909551E+02  0.14800918327E+03  0.15348401602E+03  0.00000000000E+00 0. -1.
          3    1    6    6  503    0  0.46370078921E+03  0.84751510100E+02 -0.77952515469E+03  0.91096690783E+03  0.00000000000E+00 0. -1.
         -3    1    6    6    0  503  0.32301135393E+02 -0.68439503509E+01 -0.24567590224E+02  0.41155430911E+02  0.00000000000E+00 0.  1.
<mgrwt>
<rscale>  0 0.14903164E+04</rscale>
<asrwt>0</asrwt>
<pdfrwt beam="1">  1        2 0.17286267E+00 0.14903164E+04</pdfrwt>
<pdfrwt beam="2">  1       -1 0.76027209E-01 0.14903164E+04</pdfrwt>
<totfact> 0.40376362E+01</totfact>
</mgrwt>
</event>
<event>
12    6  0.1403409E-007  0.1371036E+04  0.7818608E-02  0.8975055E-01
          2   -1    0    0  501    0  0.00000000000E+00  0.00000000000E+00  0.23990798501E+04  0.23990798501E+04  0.00000000000E+00 0. -1.
         -1   -1    0    0    0  501 -0.00000000000E+00 -0.00000000000E+00 -0.19588144403E+03  0.19588144403E+03  0.00000000000E+00 0.  1.
         24    2    1    2    0    0  0.32235631449E+02 -0.24256126078E+03  0.71987986330E+02  0.26702735896E+03  0.79033151845E+02 0.  0.
        254    2    1    2    0    0 -0.32235631449E+02  0.24256126078E+03  0.21312104197E+04  0.23279339352E+04  0.90407049072E+03 0.  0.
         23    2    4    4    0    0 -0.89660016881E+02  0.95103272419E+02  0.21390481170E+04  0.21449464431E+04  0.90470138115E+02 0.  0.
         23    2    4    4    0    0  0.57424385432E+02  0.14745798836E+03 -0.78376972681E+01  0.18298749207E+03  0.91550938732E+02 0.  0.
          2    1    3    3  502    0 -0.19587759887E+02 -0.69911408781E+02  0.43197982144E+02  0.84482844865E+02  0.00000000000E+00 0. -1.
         -1    1    3    3    0  502  0.51823391336E+02 -0.17264985200E+03  0.28790004186E+02  0.18254451409E+03  0.00000000000E+00 0.  1.
         11    1    5    5    0    0 -0.29930219866E+02 -0.27052083909E+01  0.92833112557E+03  0.92881742819E+03  0.00000000000E+00 0. -1.
        -11    1    5    5    0    0 -0.59729797015E+02  0.97808480810E+02  0.12107169914E+04  0.12161290149E+04  0.00000000000E+00 0.  1.
          3    1    6    6  503    0  0.26864411516E+02  0.14895888770E+03 -0.13153175416E+02  0.15193239567E+03  0.00000000000E+00 0. -1.
         -3    1    6    6    0  503  0.30559973916E+02 -0.15008993389E+01  0.53154781480E+01  0.31055096401E+02  0.00000000000E+00 0.  1.
<mgrwt>
<rscale>  0 0.13710364E+04</rscale>
<asrwt>0</asrwt>
<pdfrwt beam="1">  1        2 0.36908919E+00 0.13710364E+04</pdfrwt>
<pdfrwt beam="2">  1       -1 0.30135609E-01 0.13710364E+04</pdfrwt>
<totfact> 0.44899500E+01</totfact>
</mgrwt>
</event>
<event>
12    6  0.1403409E-007  0.3418370E+04  0.7818608E-02  0.8133412E-01
          2   -1    0    0  501    0  0.00000000000E+00  0.00000000000E+00  0.29745602103E+04  0.29745602103E+04  0.00000000000E+00 0. -1.
         -1   -1    0    0    0  501 -0.00000000000E+00 -0.00000000000E+00 -0.98209905399E+03  0.98209905399E+03  0.00000000000E+00 0.  1.
         24    2    1    2    0    0  0.82810103728E+03  0.13525619594E+04  0.80526326126E+03  0.17804524068E+04  0.79916650257E+02 0.  0.
        254    2    1    2    0    0 -0.82810103728E+03 -0.13525619594E+04  0.11871978951E+04  0.21762068575E+04  0.90070098394E+03 0.  0.
         23    2    4    4    0    0 -0.25099099605E+03 -0.48999463469E+03 -0.48982669242E+02  0.55973426073E+03  0.88385058827E+02 0.  0.
         23    2    4    4    0    0 -0.57711004123E+03 -0.86256732474E+03  0.12361805643E+04  0.16164725967E+04  0.88107202300E+02 0.  0.
          2    1    3    3  502    0  0.53991507562E+03  0.94170556604E+03  0.57310379956E+03  0.12275038196E+04  0.00000000000E+00 0. -1.
         -1    1    3    3    0  502  0.28818596166E+03  0.41085639339E+03  0.23215946170E+03  0.55294858725E+03  0.00000000000E+00 0.  1.
         11    1    5    5    0    0 -0.25438453577E+03 -0.46434949847E+03 -0.35729021336E+02  0.53066798635E+03  0.00000000000E+00 0. -1.
        -11    1    5    5    0    0  0.33935397200E+01 -0.25645136213E+02 -0.13253647906E+02  0.29066274374E+02  0.00000000000E+00 0.  1.
          1    1    6    6  503    0 -0.25256163132E+03 -0.45156773334E+03  0.63858247457E+03  0.82188099640E+03  0.00000000000E+00 0. -1.
         -1    1    6    6    0  503 -0.32454840991E+03 -0.41099959140E+03  0.59759808973E+03  0.79459160035E+03  0.00000000000E+00 0.  1.
<mgrwt>
<rscale>  0 0.34183697E+04</rscale>
<asrwt>0</asrwt>
<pdfrwt beam="1">  1        2 0.45762464E+00 0.34183697E+04</pdfrwt>
<pdfrwt beam="2">  1       -1 0.15109216E+00 0.34183697E+04</pdfrwt>
<totfact> 0.58011784E-01</totfact>
</mgrwt>
</event>
<event>
12    6  0.1403409E-007  0.2701710E+04  0.7818608E-02  0.8334450E-01
          2   -1    0    0  501    0  0.00000000000E+00  0.00000000000E+00  0.25088673248E+04  0.25088673248E+04  0.00000000000E+00 0. -1.
         -1   -1    0    0    0  501 -0.00000000000E+00 -0.00000000000E+00 -0.72734364081E+03  0.72734364081E+03  0.00000000000E+00 0.  1.
         24    2    1    2    0    0  0.90242405843E+03  0.78993891058E+03  0.84015825105E+03  0.14663497692E+04  0.77091472768E+02 0.  0.
        254    2    1    2    0    0 -0.90242405843E+03 -0.78993891058E+03  0.94136543291E+03  0.17698611964E+04  0.89881428142E+03 0.  0.
         23    2    4    4    0    0  0.15179657959E+03 -0.20320571134E+03  0.69694148981E+02  0.27828940374E+03  0.90845776663E+02 0.  0.
         23    2    4    4    0    0 -0.10542206380E+04 -0.58673319924E+03  0.87167128393E+03  0.14915717926E+04  0.96636352665E+02 0.  0.
          4    1    3    3  502    0  0.35969068009E+03  0.35644930920E+03  0.32789081596E+03  0.60327927410E+03  0.00000000000E+00 0. -1.
         -3    1    3    3    0  502  0.54273337834E+03  0.43348960138E+03  0.51226743509E+03  0.86307049511E+03  0.00000000000E+00 0.  1.
         11    1    5    5    0    0  0.86231374970E+02 -0.14490465296E+03  0.85627666460E+02  0.18911717463E+03  0.00000000000E+00 0.  1.
        -11    1    5    5    0    0  0.65565204615E+02 -0.58301058382E+02 -0.15933517479E+02  0.89172229107E+02  0.00000000000E+00 0. -1.
          3    1    6    6  503    0 -0.44024244660E+03 -0.29854557889E+03  0.37006165646E+03  0.64798804313E+03  0.00000000000E+00 0. -1.
         -3    1    6    6    0  503 -0.61397819141E+03 -0.28818762036E+03  0.50160962747E+03  0.84358374950E+03  0.00000000000E+00 0.  1.
<mgrwt>
<rscale>  0 0.27017096E+04</rscale>
<asrwt>0</asrwt>
<pdfrwt beam="1">  1        2 0.38597958E+00 0.27017096E+04</pdfrwt>
<pdfrwt beam="2">  1       -1 0.11189902E+00 0.27017096E+04</pdfrwt>
<totfact> 0.25135071E+00</totfact>
</mgrwt>
</event>
<event>
12    6  0.1403409E-007  0.3954446E+04  0.7818608E-02  0.8013800E-01
         -1   -1    0    0    0  501 -0.00000000000E+00  0.00000000000E+00  0.22721403311E+04  0.22721403311E+04  0.00000000000E+00 0.  1.
          2   -1    0    0  501    0  0.00000000000E+00 -0.00000000000E+00 -0.17205848495E+04  0.17205848495E+04  0.00000000000E+00 0. -1.
         24    2    1    2    0    0 -0.35338438097E+03 -0.14589570247E+04 -0.87089512962E+03  0.17373551549E+04  0.80675193934E+02 0.  0.
        254    2    1    2    0    0  0.35338438097E+03  0.14589570247E+04  0.14224506113E+04  0.22553700257E+04  0.89994004843E+03 0.  0.
         23    2    4    4    0    0 -0.18831426194E+03  0.26392259968E+02  0.12292450820E+03  0.24464532581E+03  0.92639560057E+02 0.  0.
         23    2    4    4    0    0  0.54169864291E+03  0.14325647647E+04  0.12995261030E+04  0.20107246999E+04  0.92555396214E+02 0.  0.
          4    1    3    3  502    0 -0.17448705902E+03 -0.74722409829E+03 -0.49115432591E+03  0.91105551900E+03  0.00000000000E+00 0. -1.
         -3    1    3    3    0  502 -0.17889732195E+03 -0.71173292642E+03 -0.37974080371E+03  0.82629963594E+03  0.00000000000E+00 0.  1.
         11    1    5    5    0    0 -0.82008355083E+01  0.14661794054E+02  0.45025928464E+02  0.48057841628E+02  0.00000000000E+00 0.  1.
        -11    1    5    5    0    0 -0.18011342643E+03  0.11730465914E+02  0.77898579741E+02  0.19658748419E+03  0.00000000000E+00 0. -1.
          3    1    6    6  503    0  0.13747232296E+03  0.43059721250E+03  0.33820428825E+03  0.56453054796E+03  0.00000000000E+00 0. -1.
         -3    1    6    6    0  503  0.40422631996E+03  0.10019675522E+04  0.96132181479E+03  0.14461941519E+04  0.00000000000E+00 0.  1.
<mgrwt>
<rscale>  0 0.39544457E+04</rscale>
<asrwt>0</asrwt>
<pdfrwt beam="1">  1        2 0.26470536E+00 0.39544457E+04</pdfrwt>
<pdfrwt beam="2">  1       -1 0.34956005E+00 0.39544457E+04</pdfrwt>
<totfact> 0.13462205E-01</totfact>
</mgrwt>
</event>
<event>
12    6  0.1403409E-007  0.1349430E+04  0.7818608E-02  0.8991259E-01
         -1   -1    0    0    0  501 -0.00000000000E+00  0.00000000000E+00  0.98960967669E+02  0.98960967669E+02  0.00000000000E+00 0.  1.
          2   -1    0    0  501    0  0.00000000000E+00 -0.00000000000E+00 -0.46002041165E+04  0.46002041165E+04  0.00000000000E+00 0. -1.
         24    2    1    2    0    0  0.55293617527E+02  0.35444826983E+03 -0.15321962684E+04  0.15756563032E+04  0.79852493507E+02 0.  0.
        254    2    1    2    0    0 -0.55293617527E+02 -0.35444826983E+03 -0.29690468804E+04  0.31235087810E+04  0.90131945870E+03 0.  0.
         23    2    4    4    0    0  0.35390331432E+03 -0.25167583541E+03 -0.82904865096E+03  0.94038483887E+03  0.91726209351E+02 0.  0.
         23    2    4    4    0    0 -0.40919693185E+03 -0.10277243441E+03 -0.21399982295E+04  0.21831239421E+04  0.91833666257E+02 0.  0.
          2    1    3    3  502    0  0.48835309063E+01  0.23470648051E+03 -0.10765987326E+04  0.11018964616E+04  0.00000000000E+00 0. -1.
         -1    1    3    3    0  502  0.50410086621E+02  0.11974178931E+03 -0.45559753574E+03  0.47375984160E+03  0.00000000000E+00 0.  1.
         11    1    5    5    0    0  0.44786899247E+02 -0.76061492852E+02 -0.17127824668E+03  0.19268485884E+03  0.00000000000E+00 0.  1.
        -11    1    5    5    0    0  0.30911641508E+03 -0.17561434256E+03 -0.65777040428E+03  0.74769998003E+03  0.00000000000E+00 0. -1.
          4    1    6    6  503    0 -0.35554793671E+03 -0.98264679547E+02 -0.16821057554E+04  0.17220772500E+04  0.00000000000E+00 0. -1.
         -4    1    6    6    0  503 -0.53648995138E+02 -0.45077548662E+01 -0.45789247409E+03  0.46104669218E+03  0.00000000000E+00 0.  1.
<mgrwt>
<rscale>  0 0.13494305E+04</rscale>
<asrwt>0</asrwt>
<pdfrwt beam="1">  1        2 0.70772361E+00 0.13494305E+04</pdfrwt>
<pdfrwt beam="2">  1       -1 0.15224766E-01 0.13494305E+04</pdfrwt>
<totfact> 0.36639905E+00</totfact>
</mgrwt>
</event>
<event>
12    6  0.1403409E-007  0.1961771E+04  0.7818608E-02  0.8624706E-01
         -1   -1    0    0    0  501 -0.00000000000E+00  0.00000000000E+00  0.78037344693E+03  0.78037344693E+03  0.00000000000E+00 0.  1.
          2   -1    0    0  501    0  0.00000000000E+00 -0.00000000000E+00 -0.12329175032E+04  0.12329175032E+04  0.00000000000E+00 0. -1.
         24    2    1    2    0    0  0.62665676217E+03  0.42664258500E+03 -0.32606755512E+03  0.82930182767E+03  0.81846673529E+02 0.  0.
        254    2    1    2    0    0 -0.62665676217E+03 -0.42664258500E+03 -0.12647650118E+03  0.11839891225E+04  0.90061720166E+03 0.  0.
         23    2    4    4    0    0 -0.51473343266E+03 -0.69069612840E+03 -0.16499397587E+02  0.86621470717E+03  0.89688574009E+02 0.  0.
         23    2    4    4    0    0 -0.11192332950E+03  0.26405354339E+03 -0.10997710360E+03  0.31777441533E+03  0.81452503068E+02 0.  0.
          4    1    3    3  502    0  0.17344634968E+03  0.89591940178E+02 -0.11354442215E+03  0.22583774654E+03  0.00000000000E+00 0. -1.
         -3    1    3    3    0  502  0.45321041249E+03  0.33705064483E+03 -0.21252313297E+03  0.60346408113E+03  0.00000000000E+00 0.  1.
         11    1    5    5    0    0 -0.22495526813E+03 -0.23425191180E+03  0.97116414686E+01  0.32492021608E+03  0.00000000000E+00 0. -1.
        -11    1    5    5    0    0 -0.28977816453E+03 -0.45644421660E+03 -0.26211039056E+02  0.54129449108E+03  0.00000000000E+00 0.  1.
          2    1    6    6  503    0 -0.17552969119E+02  0.71700271367E+02 -0.66067701890E+02  0.99065518078E+02  0.00000000000E+00 0. -1.
         -2    1    6    6    0  503 -0.94370360385E+02  0.19235327203E+03 -0.43909401707E+02  0.21870889725E+03  0.00000000000E+00 0.  1.
<mgrwt>
<rscale>  0 0.19617707E+04</rscale>
<asrwt>0</asrwt>
<pdfrwt beam="1">  1        2 0.18967961E+00 0.19617707E+04</pdfrwt>
<pdfrwt beam="2">  1       -1 0.12005745E+00 0.19617707E+04</pdfrwt>
<totfact> 0.11895528E+01</totfact>
</mgrwt>
</event>
<event>
12    6  0.1403409E-007  0.2355858E+04  0.7818608E-02  0.8456217E-01
         -1   -1    0    0    0  501 -0.00000000000E+00  0.00000000000E+00  0.60173854446E+03  0.60173854446E+03  0.00000000000E+00 0.  1.
          2   -1    0    0  501    0  0.00000000000E+00 -0.00000000000E+00 -0.23058464648E+04  0.23058464648E+04  0.00000000000E+00 0. -1.
         24    2    1    2    0    0  0.44100778500E+03  0.37065149334E+03  0.28518106162E+03  0.64968935250E+03  0.94327201278E+02 0.  0.
        254    2    1    2    0    0 -0.44100778500E+03 -0.37065149334E+03 -0.19892889819E+04  0.22578956567E+04  0.89941744874E+03 0.  0.
         23    2    4    4    0    0 -0.68739817984E+03 -0.39729797442E+03 -0.13811249733E+04  0.15956658771E+04  0.91002535737E+02 0.  0.
         23    2    4    4    0    0  0.24639039484E+03  0.26646481081E+02 -0.60816400864E+03  0.66222977958E+03  0.85244107959E+02 0.  0.
          4    1    3    3  502    0  0.15171926824E+03  0.14595104839E+03  0.56909079302E+02  0.21808046265E+03  0.00000000000E+00 0. -1.
         -3    1    3    3    0  502  0.28928851676E+03  0.22470044495E+03  0.22827198231E+03  0.43160888985E+03  0.00000000000E+00 0.  1.
         11    1    5    5    0    0 -0.37012067945E+03 -0.20273610501E+03 -0.82194177373E+03  0.92394779345E+03  0.00000000000E+00 0. -1.
        -11    1    5    5    0    0 -0.31727750039E+03 -0.19456186942E+03 -0.55918319956E+03  0.67171808369E+03  0.00000000000E+00 0.  1.
          3    1    6    6  503    0  0.14378848354E+03  0.46945846456E+02 -0.28632750289E+03  0.32382476652E+03  0.00000000000E+00 0. -1.
         -3    1    6    6    0  503  0.10260191130E+03 -0.20299365375E+02 -0.32183650574E+03  0.33840501306E+03  0.00000000000E+00 0.  1.
<mgrwt>
<rscale>  0 0.23558580E+04</rscale>
<asrwt>0</asrwt>
<pdfrwt beam="1">  1        2 0.35474561E+00 0.23558580E+04</pdfrwt>
<pdfrwt beam="2">  1       -1 0.92575161E-01 0.23558580E+04</pdfrwt>
<totfact> 0.52407745E+00</totfact>
</mgrwt>
</event>
<event>
12    6  0.1403409E-007  0.1394203E+04  0.7818608E-02  0.8958025E-01
         -3   -1    0    0    0  501 -0.00000000000E+00  0.00000000000E+00  0.56752673845E+03  0.56752673845E+03  0.00000000000E+00 0.  1.
          2   -1    0    0  501    0  0.00000000000E+00 -0.00000000000E+00 -0.85626066182E+03  0.85626066182E+03  0.00000000000E+00 0. -1.
         24    2    1    2    0    0 -0.36643925583E+03  0.13201784324E+03 -0.18050344752E+03  0.43640346758E+03  0.78486003883E+02 0.  0.
        254    2    1    2    0    0  0.36643925583E+03 -0.13201784324E+03 -0.10823047585E+03  0.98738393269E+03  0.90083669746E+03 0.  0.
         23    2    4    4    0    0  0.20825268323E+03 -0.44955403525E+03  0.16339418519E+03  0.53070839274E+03  0.97394700487E+02 0.  0.
         23    2    4    4    0    0  0.15818657260E+03  0.31753619202E+03 -0.27162466104E+03  0.45667553995E+03  0.94447696187E+02 0.  0.
          4    1    3    3  502    0 -0.47735545117E+02  0.35688159570E+02 -0.53397148302E+02  0.80022387167E+02  0.00000000000E+00 0. -1.
         -3    1    3    3    0  502 -0.31870371071E+03  0.96329683669E+02 -0.12710629922E+03  0.35638108041E+03  0.00000000000E+00 0.  1.
         11    1    5    5    0    0  0.23156553494E+02 -0.15438121843E+03  0.60542453796E+02  0.16743707859E+03  0.00000000000E+00 0. -1.
        -11    1    5    5    0    0  0.18509612973E+03 -0.29517281682E+03  0.10285173139E+03  0.36327131415E+03  0.00000000000E+00 0.  1.
          1    1    6    6  503    0  0.14655045565E+03  0.20157403030E+03 -0.16645564103E+03  0.29969418775E+03  0.00000000000E+00 0. -1.
         -1    1    6    6    0  503  0.11636116943E+02  0.11596216172E+03 -0.10516902001E+03  0.15698135220E+03  0.00000000000E+00 0.  1.
<mgrwt>
<rscale>  0 0.13942035E+04</rscale>
<asrwt>0</asrwt>
<pdfrwt beam="1">  1        2 0.13173241E+00 0.13942035E+04</pdfrwt>
<pdfrwt beam="2">  1       -3 0.87311806E-01 0.13942035E+04</pdfrwt>
<totfact> 0.23157978E+01</totfact>
</mgrwt>
</event>
<event>
12    6  0.1403409E-007  0.1884751E+04  0.7818608E-02  0.8662484E-01
          2   -1    0    0  501    0  0.00000000000E+00  0.00000000000E+00  0.82549809965E+03  0.82549809965E+03  0.00000000000E+00 0. -1.
         -1   -1    0    0    0  501 -0.00000000000E+00 -0.00000000000E+00 -0.10758012098E+04  0.10758012098E+04  0.00000000000E+00 0.  1.
         24    2    1    2    0    0 -0.25758420454E+02 -0.69071076920E+03  0.13159161491E+03  0.70817773219E+03  0.80339805418E+02 0.  0.
        254    2    1    2    0    0  0.25758420454E+02  0.69071076920E+03 -0.38189472509E+03  0.11931215773E+04  0.89439960546E+03 0.  0.
         23    2    4    4    0    0  0.25499054023E+03  0.76058345579E+03 -0.45455529912E+03  0.92647830023E+03  0.90742228389E+02 0.  0.
         23    2    4    4    0    0 -0.22923211978E+03 -0.69872686590E+02  0.72660574025E+02  0.26664327706E+03  0.91594329062E+02 0.  0.
          2    1    3    3  502    0 -0.13629015847E+02 -0.17863516306E+03  0.69690428456E+02  0.19223170231E+03  0.00000000000E+00 0. -1.
         -1    1    3    3    0  502 -0.12129404607E+02 -0.51207560614E+03  0.61901186459E+02  0.51594602988E+03  0.00000000000E+00 0.  1.
         11    1    5    5    0    0  0.16917260096E+03  0.61142518253E+03 -0.34014842389E+03  0.71983405937E+03  0.00000000000E+00 0. -1.
        -11    1    5    5    0    0  0.85817939278E+02  0.14915827326E+03 -0.11440687523E+03  0.20664424087E+03  0.00000000000E+00 0.  1.
          2    1    6    6  503    0 -0.87710402360E+02 -0.73404598525E+02  0.23331530721E+02  0.11672921696E+03  0.00000000000E+00 0. -1.
         -2    1    6    6    0  503 -0.14152171742E+03  0.35319119347E+01  0.49329043304E+02  0.14991406010E+03  0.00000000000E+00 0.  1.
<mgrwt>
<rscale>  0 0.18847513E+04</rscale>
<asrwt>0</asrwt>
<pdfrwt beam="1">  1        2 0.12699971E+00 0.18847513E+04</pdfrwt>
<pdfrwt beam="2">  1       -1 0.16550788E+00 0.18847513E+04</pdfrwt>
<totfact> 0.93896750E+00</totfact>
</mgrwt>
</event>
<event>
12    6  0.1403409E-007  0.1261370E+04  0.7818608E-02  0.9060773E-01
          2   -1    0    0  501    0  0.00000000000E+00  0.00000000000E+00  0.12406095424E+04  0.12406095424E+04  0.00000000000E+00 0. -1.
         -1   -1    0    0    0  501 -0.00000000000E+00 -0.00000000000E+00 -0.32061945860E+03  0.32061945860E+03  0.00000000000E+00 0.  1.
         24    2    1    2    0    0  0.37033474948E+02 -0.93596908541E+02 -0.12423979884E+03  0.17888407712E+03  0.80200535385E+02 0.  0.
        254    2    1    2    0    0 -0.37033474948E+02  0.93596908541E+02  0.10442298826E+04  0.13823449238E+04  0.90018308205E+03 0.  0.
         23    2    4    4    0    0  0.28423819156E+03 -0.23105045221E+03  0.72863594188E+03  0.81980962297E+03  0.83676885192E+02 0.  0.
         23    2    4    4    0    0 -0.32127166650E+03  0.32464736075E+03  0.31559394071E+03  0.56253530087E+03  0.90747103374E+02 0.  0.
          4    1    3    3  502    0  0.24364714393E+02 -0.81053740622E+02 -0.41533573744E+02  0.94278236748E+02  0.00000000000E+00 0. -1.
         -1    1    3    3    0  502  0.12668760555E+02 -0.12543167918E+02 -0.82706225096E+02  0.84605840372E+02  0.00000000000E+00 0.  1.
         11    1    5    5    0    0  0.19563682117E+03 -0.20214378540E+03  0.51746298417E+03  0.58898541218E+03  0.00000000000E+00 0.  1.
        -11    1    5    5    0    0  0.88601370383E+02 -0.28906666801E+02  0.21117295771E+03  0.23082421079E+03  0.00000000000E+00 0. -1.
          4    1    6    6  503    0 -0.10619975436E+03  0.74882057251E+02  0.13208683067E+03  0.18529069367E+03  0.00000000000E+00 0. -1.
         -4    1    6    6    0  503 -0.21507191214E+03  0.24976530349E+03  0.18350711004E+03  0.37724460719E+03  0.00000000000E+00 0.  1.
<mgrwt>
<rscale>  0 0.12613700E+04</rscale>
<asrwt>0</asrwt>
<pdfrwt beam="1">  1        2 0.19086300E+00 0.12613700E+04</pdfrwt>
<pdfrwt beam="2">  1       -1 0.49326071E-01 0.12613700E+04</pdfrwt>
<totfact> 0.82646068E+01</totfact>
</mgrwt>
</event>
<event>
12    6  0.1403409E-007  0.1810943E+04  0.7818608E-02  0.8700502E-01
         -1   -1    0    0    0  501 -0.00000000000E+00  0.00000000000E+00  0.19032790014E+04  0.19032790014E+04  0.00000000000E+00 0.  1.
          2   -1    0    0  501    0  0.00000000000E+00 -0.00000000000E+00 -0.43077149027E+03  0.43077149027E+03  0.00000000000E+00 0. -1.
         24    2    1    2    0    0 -0.51876689800E+03 -0.41676538177E+03  0.39165231505E+03  0.77627405367E+03  0.79983702262E+02 0.  0.
        254    2    1    2    0    0  0.51876689800E+03  0.41676538177E+03  0.10808551961E+04  0.15577764380E+04  0.90310962677E+03 0.  0.
         23    2    4    4    0    0  0.67962219463E+03  0.48177575249E+03  0.10751432863E+04  0.13629435869E+04  0.87680853378E+02 0.  0.
         23    2    4    4    0    0 -0.16085529663E+03 -0.65010370722E+02  0.57119098031E+01  0.19483285105E+03  0.88467164401E+02 0.  0.
          4    1    3    3  502    0 -0.12710079954E+03 -0.99348801576E+02  0.56652904936E+02  0.17098055228E+03  0.00000000000E+00 0. -1.
         -3    1    3    3    0  502 -0.39166609845E+03 -0.31741658019E+03  0.33499941011E+03  0.60529350140E+03  0.00000000000E+00 0.  1.
         11    1    5    5    0    0  0.57062287016E+03  0.41290312919E+03  0.95552123728E+03  0.11870637257E+04  0.00000000000E+00 0.  1.
        -11    1    5    5    0    0  0.10899932447E+03  0.68872623297E+02  0.11962204897E+03  0.17587986120E+03  0.00000000000E+00 0. -1.
          2    1    6    6  503    0  0.18695232185E+01 -0.27643729952E+02 -0.11644482340E+01  0.27731333585E+02  0.00000000000E+00 0. -1.
         -2    1    6    6    0  503 -0.16272481985E+03 -0.37366640770E+02  0.68763580371E+01  0.16710151746E+03  0.00000000000E+00 0.  1.
<mgrwt>
<rscale>  0 0.18109427E+04</rscale>
<asrwt>0</asrwt>
<pdfrwt beam="1">  1        2 0.66272538E-01 0.18109427E+04</pdfrwt>
<pdfrwt beam="2">  1       -1 0.29281215E+00 0.18109427E+04</pdfrwt>
<totfact> 0.29008424E+00</totfact>
</mgrwt>
</event>
<event>
12    6  0.1403409E-007  0.1600843E+04  0.7818608E-02  0.8820030E-01
         -1   -1    0    0    0  501 -0.00000000000E+00  0.00000000000E+00  0.14676838549E+03  0.14676838549E+03  0.00000000000E+00 0.  1.
          2   -1    0    0  501    0  0.00000000000E+00 -0.00000000000E+00 -0.43652087086E+04  0.43652087086E+04  0.00000000000E+00 0. -1.
         24    2    1    2    0    0  0.12517257864E+03 -0.52415036058E+03 -0.15791421209E+04  0.16704674186E+04  0.79810923363E+02 0.  0.
        254    2    1    2    0    0 -0.12517257864E+03  0.52415036058E+03 -0.26392982022E+04  0.28415096755E+04  0.90436743695E+03 0.  0.
         23    2    4    4    0    0  0.13883087607E+03 -0.70189337415E+02 -0.78348588710E+02  0.19774629294E+03  0.93619120799E+02 0.  0.
         23    2    4    4    0    0 -0.26400345471E+03  0.59433969800E+03 -0.25609496135E+04  0.26437633826E+04  0.89913289110E+02 0.  0.
          2    1    3    3  502    0  0.13294119042E+03 -0.43728808167E+03 -0.13516101361E+04  0.14267950752E+04  0.00000000000E+00 0. -1.
         -1    1    3    3    0  502 -0.77686117824E+01 -0.86862278912E+02 -0.22753198477E+03  0.24367234336E+03  0.00000000000E+00 0.  1.
         11    1    5    5    0    0  0.51061028861E+02  0.10363574752E+02  0.50167039764E+01  0.52343095713E+02  0.00000000000E+00 0. -1.
        -11    1    5    5    0    0  0.87769847211E+02 -0.80552912167E+02 -0.83365292686E+02  0.14540319722E+03  0.00000000000E+00 0.  1.
          4    1    6    6  503    0 -0.14557550130E+03  0.30323062515E+03 -0.11467222857E+04  0.11950368359E+04  0.00000000000E+00 0.  1.
         -4    1    6    6    0  503 -0.11842795341E+03  0.29110907285E+03 -0.14142273278E+04  0.14487265467E+04  0.00000000000E+00 0. -1.
<mgrwt>
<rscale>  0 0.16008431E+04</rscale>
<asrwt>0</asrwt>
<pdfrwt beam="1">  1        2 0.67157056E+00 0.16008431E+04</pdfrwt>
<pdfrwt beam="2">  1       -1 0.22579752E-01 0.16008431E+04</pdfrwt>
<totfact> 0.30936393E+00</totfact>
</mgrwt>
</event>
<event>
12    6  0.1403409E-007  0.1899759E+04  0.7818608E-02  0.8654976E-01
          2   -1    0    0  501    0  0.00000000000E+00  0.00000000000E+00  0.88318034413E+03  0.88318034413E+03  0.00000000000E+00 0. -1.
         -1   -1    0    0    0  501 -0.00000000000E+00 -0.00000000000E+00 -0.10216155749E+04  0.10216155749E+04  0.00000000000E+00 0.  1.
         24    2    1    2    0    0  0.42823281865E+03  0.57013730603E+03 -0.23081837657E+03  0.75320428673E+03  0.74831008847E+02 0.  0.
        254    2    1    2    0    0 -0.42823281865E+03 -0.57013730603E+03  0.92383145822E+02  0.11515916323E+04  0.89954919109E+03 0.  0.
         23    2    4    4    0    0 -0.64925974007E+03 -0.16393886933E+03  0.74325356332E+02  0.67988359365E+03  0.91122331888E+02 0.  0.
         23    2    4    4    0    0  0.22102692142E+03 -0.40619843670E+03  0.18057789490E+02  0.47170803863E+03  0.91281542364E+02 0.  0.
          2    1    3    3  502    0  0.17651065335E+03  0.26684339179E+03 -0.69973948090E+02  0.32750230518E+03  0.00000000000E+00 0. -1.
         -1    1    3    3    0  502  0.25172216530E+03  0.30329391424E+03 -0.16084442848E+03  0.42570198154E+03  0.00000000000E+00 0.  1.
         11    1    5    5    0    0 -0.13537255229E+03 -0.42922734999E+02 -0.20515114420E+02  0.14348853269E+03  0.00000000000E+00 0.  1.
        -11    1    5    5    0    0 -0.51388718777E+03 -0.12101613433E+03  0.94840470752E+02  0.53639506096E+03  0.00000000000E+00 0. -1.
          1    1    6    6  503    0  0.11001341747E+03 -0.18584646373E+03 -0.36451789299E+02  0.21902190084E+03  0.00000000000E+00 0. -1.
         -1    1    6    6    0  503  0.11101350394E+03 -0.22035197297E+03  0.54509578790E+02  0.25268613778E+03  0.00000000000E+00 0.  1.
<mgrwt>
<rscale>  0 0.18997587E+04</rscale>
<asrwt>0</asrwt>
<pdfrwt beam="1">  1        2 0.13587390E+00 0.18997587E+04</pdfrwt>
<pdfrwt beam="2">  1       -1 0.15717163E+00 0.18997587E+04</pdfrwt>
<totfact> 0.98815470E+00</totfact>
</mgrwt>
</event>
<event>
12    6  0.1403409E-007  0.1681325E+04  0.7818608E-02  0.8772088E-01
         -1   -1    0    0    0  501 -0.00000000000E+00  0.00000000000E+00  0.39494496618E+03  0.39494496618E+03  0.00000000000E+00 0.  1.
          2   -1    0    0  501    0  0.00000000000E+00 -0.00000000000E+00 -0.17893968365E+04  0.17893968365E+04  0.00000000000E+00 0. -1.
         24    2    1    2    0    0 -0.53897924644E+03 -0.14181214396E+03 -0.77201497249E+03  0.95556166943E+03  0.80508844638E+02 0.  0.
        254    2    1    2    0    0  0.53897924644E+03  0.14181214396E+03 -0.62243689785E+03  0.12287801333E+04  0.90103474507E+03 0.  0.
         23    2    4    4    0    0  0.12205098127E+03  0.48218930382E+03 -0.37846466855E+03  0.63133117309E+03  0.89109921041E+02 0.  0.
         23    2    4    4    0    0  0.41692826517E+03 -0.34037715986E+03 -0.24397222930E+03  0.59744896017E+03  0.87960343841E+02 0.  0.
          2    1    3    3  502    0 -0.21518315175E+03 -0.89445965234E+02 -0.36150885019E+03  0.43010814717E+03  0.00000000000E+00 0. -1.
         -1    1    3    3    0  502 -0.32379609469E+03 -0.52366178721E+02 -0.41050612230E+03  0.52545352226E+03  0.00000000000E+00 0.  1.
         11    1    5    5    0    0  0.42254851143E+02  0.22253851158E+03 -0.11981713260E+03  0.25625184262E+03  0.00000000000E+00 0.  1.
        -11    1    5    5    0    0  0.79796130131E+02  0.25965079224E+03 -0.25864753594E+03  0.37507933047E+03  0.00000000000E+00 0. -1.
          1    1    6    6  503    0  0.17981645787E+03 -0.13739763536E+03 -0.56127426292E+02  0.23315736468E+03  0.00000000000E+00 0. -1.
         -1    1    6    6    0  503  0.23711180730E+03 -0.20297952450E+03 -0.18784480300E+03  0.36429159549E+03  0.00000000000E+00 0.  1.
<mgrwt>
<rscale>  0 0.16813248E+04</rscale>
<asrwt>0</asrwt>
<pdfrwt beam="1">  1        2 0.27529182E+00 0.16813248E+04</pdfrwt>
<pdfrwt beam="2">  1       -1 0.60760764E-01 0.16813248E+04</pdfrwt>
<totfact> 0.26079458E+01</totfact>
</mgrwt>
</event>
<event>
12    6  0.1403409E-007  0.2393321E+04  0.7818608E-02  0.8442008E-01
          2   -1    0    0  501    0  0.00000000000E+00  0.00000000000E+00  0.16537850173E+04  0.16537850173E+04  0.00000000000E+00 0. -1.
         -1   -1    0    0    0  501 -0.00000000000E+00 -0.00000000000E+00 -0.86588997850E+03  0.86588997850E+03  0.00000000000E+00 0.  1.
         24    2    1    2    0    0 -0.94651349190E+03  0.29887285190E+03  0.59308313647E+03  0.11590015611E+04  0.79525089490E+02 0.  0.
        254    2    1    2    0    0  0.94651349190E+03 -0.29887285190E+03  0.19481190234E+03  0.13606734347E+04  0.91009216386E+03 0.  0.
         23    2    4    4    0    0  0.29877669226E+03  0.28990890845E+03  0.22163483569E+03  0.48053825043E+03  0.92088667590E+02 0.  0.
         23    2    4    4    0    0  0.64773679965E+03 -0.58878176035E+03 -0.26822933354E+02  0.88013518430E+03  0.87701482017E+02 0.  0.
          4    1    3    3  502    0 -0.58155976407E+03  0.16044666530E+03  0.39699303922E+03  0.72218997832E+03  0.00000000000E+00 0. -1.
         -1    1    3    3    0  502 -0.36495372783E+03  0.13842618659E+03  0.19609009725E+03  0.43681158276E+03  0.00000000000E+00 0.  1.
         11    1    5    5    0    0  0.25485424582E+03  0.19528748523E+03  0.15298525747E+03  0.35565766898E+03  0.00000000000E+00 0. -1.
        -11    1    5    5    0    0  0.43922446434E+02  0.94621423221E+02  0.68649578221E+02  0.12488058145E+03  0.00000000000E+00 0.  1.
          2    1    6    6  503    0  0.18711454047E+03 -0.13674100787E+03 -0.36925850423E+02  0.23467738050E+03  0.00000000000E+00 0. -1.
         -2    1    6    6    0  503  0.46062225918E+03 -0.45204075248E+03  0.10102917069E+02  0.64545780380E+03  0.00000000000E+00 0.  1.
<mgrwt>
<rscale>  0 0.23933206E+04</rscale>
<asrwt>0</asrwt>
<pdfrwt beam="1">  1        2 0.25442846E+00 0.23933206E+04</pdfrwt>
<pdfrwt beam="2">  1       -1 0.13321384E+00 0.23933206E+04</pdfrwt>
<totfact> 0.50814927E+00</totfact>
</mgrwt>
</event>
<event>
12    6  0.1403409E-007  0.1920072E+04  0.7818608E-02  0.8644929E-01
          2   -1    0    0  501    0  0.00000000000E+00  0.00000000000E+00  0.21610701391E+04  0.21610701391E+04  0.00000000000E+00 0. -1.
         -1   -1    0    0    0  501 -0.00000000000E+00 -0.00000000000E+00 -0.42648741282E+03  0.42648741282E+03  0.00000000000E+00 0.  1.
         24    2    1    2    0    0 -0.91030878344E+02 -0.47550561272E+02  0.16738466804E+04  0.16789067553E+04  0.80109342611E+02 0.  0.
        254    2    1    2    0    0  0.91030878344E+02  0.47550561272E+02  0.60736045798E+02  0.90865079656E+03  0.90078284072E+03 0.  0.
         23    2    4    4    0    0 -0.84181622548E+01 -0.34971050380E+03  0.26014200895E+03  0.44419772195E+03  0.85261066368E+02 0.  0.
         23    2    4    4    0    0  0.99449040599E+02  0.39726106508E+03 -0.19940596315E+03  0.46445307461E+03  0.90815499067E+02 0.  0.
          4    1    3    3  502    0  0.72204005604E+01 -0.19774203290E+02  0.55846161514E+03  0.55885823684E+03  0.00000000000E+00 0. -1.
         -3    1    3    3    0  502 -0.98251278904E+02 -0.27776357983E+02  0.11153850653E+04  0.11200485185E+04  0.00000000000E+00 0.  1.
         11    1    5    5    0    0 -0.33054132957E+02 -0.14454467163E+03  0.72399004666E+02  0.16500713220E+03  0.00000000000E+00 0. -1.
        -11    1    5    5    0    0  0.24635970702E+02 -0.20516583218E+03  0.18774300429E+03  0.27919058975E+03  0.00000000000E+00 0.  1.
          2    1    6    6  503    0  0.83973430494E+02  0.38049328008E+03 -0.20593163916E+03  0.44072044793E+03  0.00000000000E+00 0.  1.
         -2    1    6    6    0  503  0.15475610105E+02  0.16767784999E+02  0.65256760077E+01  0.23732626683E+02  0.00000000000E+00 0. -1.
<mgrwt>
<rscale>  0 0.19200721E+04</rscale>
<asrwt>0</asrwt>
<pdfrwt beam="1">  1        2 0.33247232E+00 0.19200721E+04</pdfrwt>
<pdfrwt beam="2">  1       -1 0.65613449E-01 0.19200721E+04</pdfrwt>
<totfact> 0.13614399E+01</totfact>
</mgrwt>
</event>
<event>
12    6  0.1403409E-007  0.3490526E+04  0.7818608E-02  0.8116039E-01
          2   -1    0    0  501    0  0.00000000000E+00  0.00000000000E+00  0.25238998726E+04  0.25238998726E+04  0.00000000000E+00 0. -1.
         -1   -1    0    0    0  501 -0.00000000000E+00 -0.00000000000E+00 -0.12068396182E+04  0.12068396182E+04  0.00000000000E+00 0.  1.
         24    2    1    2    0    0  0.15189101271E+04  0.13922787992E+02 -0.77976541815E+01  0.15210759124E+04  0.79556958032E+02 0.  0.
        254    2    1    2    0    0 -0.15189101271E+04 -0.13922787992E+02  0.13248579087E+04  0.22096635784E+04  0.90558424966E+03 0.  0.
         23    2    4    4    0    0 -0.25085468291E+03 -0.35883124657E+03  0.39986354825E+03  0.60003937251E+03  0.92024213616E+02 0.  0.
         23    2    4    4    0    0 -0.12680554442E+04  0.34490845858E+03  0.92499436041E+03  0.16096242059E+04  0.91373207045E+02 0.  0.
          2    1    3    3  502    0  0.93954152726E+03  0.11352014741E+02  0.33729112694E+02  0.94021529594E+03  0.00000000000E+00 0. -1.
         -1    1    3    3    0  502  0.57936859987E+03  0.25707732511E+01 -0.41526766876E+02  0.58086061647E+03  0.00000000000E+00 0.  1.
         11    1    5    5    0    0 -0.64496475967E+02 -0.17024970144E+03  0.17173391882E+03  0.25027443961E+03  0.00000000000E+00 0. -1.
        -11    1    5    5    0    0 -0.18635820694E+03 -0.18858154514E+03  0.22812962943E+03  0.34976493290E+03  0.00000000000E+00 0.  1.
          2    1    6    6  503    0 -0.28101971801E+03  0.74971898362E+02  0.25233010862E+03  0.38504980349E+03  0.00000000000E+00 0. -1.
         -2    1    6    6    0  503 -0.98703572621E+03  0.26993656022E+03  0.67266425179E+03  0.12245744024E+04  0.00000000000E+00 0.  1.
<mgrwt>
<rscale>  0 0.34905257E+04</rscale>
<asrwt>0</asrwt>
<pdfrwt beam="1">  1        2 0.38829229E+00 0.34905257E+04</pdfrwt>
<pdfrwt beam="2">  1       -1 0.18566763E+00 0.34905257E+04</pdfrwt>
<totfact> 0.59725777E-01</totfact>
</mgrwt>
</event>
<event>
12    6  0.1403409E-007  0.3210514E+04  0.7818608E-02  0.8186046E-01
         -1   -1    0    0    0  501 -0.00000000000E+00  0.00000000000E+00  0.21067895725E+04  0.21067895725E+04  0.00000000000E+00 0.  1.
          2   -1    0    0  501    0  0.00000000000E+00 -0.00000000000E+00 -0.12231170486E+04  0.12231170486E+04  0.00000000000E+00 0. -1.
         24    2    1    2    0    0  0.27892865533E+03  0.14468487179E+03  0.19054938645E+04  0.19328586130E+04  0.79376591681E+02 0.  0.
        254    2    1    2    0    0 -0.27892865533E+03 -0.14468487179E+03 -0.10218213405E+04  0.13970480081E+04  0.89938277622E+03 0.  0.
         23    2    4    4    0    0 -0.21581684944E+03 -0.34256010218E+03 -0.72581086145E+02  0.42133163047E+03  0.91257836183E+02 0.  0.
         23    2    4    4    0    0 -0.63111805888E+02  0.19787523039E+03 -0.94924025438E+03  0.97571637765E+03  0.88474189630E+02 0.  0.
          2    1    3    3  502    0  0.92943292301E+02  0.91558544137E+02  0.73436428721E+03  0.74586347874E+03  0.00000000000E+00 0. -1.
         -1    1    3    3    0  502  0.18598536302E+03  0.53126327651E+02  0.11711295773E+04  0.11869951343E+04  0.00000000000E+00 0.  1.
         11    1    5    5    0    0 -0.77693801464E+02 -0.20866145379E+03 -0.37926182700E+02  0.22586350838E+03  0.00000000000E+00 0. -1.
        -11    1    5    5    0    0 -0.13812304797E+03 -0.13389864839E+03 -0.34654903445E+02  0.19546812210E+03  0.00000000000E+00 0.  1.
          3    1    6    6  503    0 -0.46860258804E+02  0.51551768865E+02 -0.44510317952E+03  0.45052226265E+03  0.00000000000E+00 0. -1.
         -3    1    6    6    0  503 -0.16251547084E+02  0.14632346153E+03 -0.50413707486E+03  0.52519411499E+03  0.00000000000E+00 0.  1.
<mgrwt>
<rscale>  0 0.32105141E+04</rscale>
<asrwt>0</asrwt>
<pdfrwt beam="1">  1        2 0.18817185E+00 0.32105141E+04</pdfrwt>
<pdfrwt beam="2">  1       -1 0.32412147E+00 0.32105141E+04</pdfrwt>
<totfact> 0.40441367E-01</totfact>
</mgrwt>
</event>
<event>
12    6  0.1403409E-007  0.2643000E+04  0.7818608E-02  0.8353740E-01
          2   -1    0    0  501    0  0.00000000000E+00  0.00000000000E+00  0.10109047274E+04  0.10109047274E+04  0.00000000000E+00 0. -1.
         -1   -1    0    0    0  501 -0.00000000000E+00 -0.00000000000E+00 -0.17275242202E+04  0.17275242202E+04  0.00000000000E+00 0.  1.
         24    2    1    2    0    0  0.69179638951E+03  0.81813254489E+03  0.14468210645E+03  0.10840566697E+04  0.79516323360E+02 0.  0.
        254    2    1    2    0    0 -0.69179638951E+03 -0.81813254489E+03 -0.86130159927E+03  0.16543722780E+04  0.92042603377E+03 0.  0.
         23    2    4    4    0    0 -0.34962106360E+02 -0.73636614566E+03 -0.49804679566E+03  0.89429144051E+03  0.90824669262E+02 0.  0.
         23    2    4    4    0    0 -0.65683428315E+03 -0.81766399223E+02 -0.36325480361E+03  0.76008083745E+03  0.87474610859E+02 0.  0.
          4    1    3    3  502    0  0.27903330884E+03  0.33628517896E+03  0.98298631103E+02  0.44789499875E+03  0.00000000000E+00 0. -1.
         -3    1    3    3    0  502  0.41276308067E+03  0.48184736593E+03  0.46383475347E+02  0.63616167096E+03  0.00000000000E+00 0.  1.
         11    1    5    5    0    0  0.16426092010E+02 -0.12785416225E+03 -0.56704931205E+02  0.14082596539E+03  0.00000000000E+00 0. -1.
        -11    1    5    5    0    0 -0.51388198370E+02 -0.60851198341E+03 -0.44134186446E+03  0.75346547512E+03  0.00000000000E+00 0.  1.
          1    1    6    6  503    0 -0.28493996805E+03 -0.75510184047E+02 -0.14067300988E+03  0.32662129293E+03  0.00000000000E+00 0. -1.
         -1    1    6    6    0  503 -0.37189431510E+03 -0.62562151759E+01 -0.22258179372E+03  0.43345954451E+03  0.00000000000E+00 0.  1.
<mgrwt>
<rscale>  0 0.26430001E+04</rscale>
<asrwt>0</asrwt>
<pdfrwt beam="1">  1        2 0.15552381E+00 0.26430001E+04</pdfrwt>
<pdfrwt beam="2">  1       -1 0.26577295E+00 0.26430001E+04</pdfrwt>
<totfact> 0.13706040E+00</totfact>
</mgrwt>
</event>
<event>
12    6  0.1403409E-007  0.2017138E+04  0.7818608E-02  0.8598650E-01
         -1   -1    0    0    0  501 -0.00000000000E+00  0.00000000000E+00  0.10702294307E+04  0.10702294307E+04  0.00000000000E+00 0.  1.
          2   -1    0    0  501    0  0.00000000000E+00 -0.00000000000E+00 -0.95046088568E+03  0.95046088568E+03  0.00000000000E+00 0. -1.
         24    2    1    2    0    0 -0.38710729210E+03  0.38106294253E+03 -0.54554391392E+03  0.77417174271E+03  0.81625384629E+02 0.  0.
        254    2    1    2    0    0  0.38710729210E+03 -0.38106294253E+03  0.66531245890E+03  0.12465185736E+04  0.90338633190E+03 0.  0.
         23    2    4    4    0    0  0.46325764724E+03 -0.32676724182E+03  0.60722606693E+01  0.57448810356E+03  0.92818267263E+02 0.  0.
         23    2    4    4    0    0 -0.76150355137E+02 -0.54295700715E+02  0.65924019823E+03  0.67203047006E+03  0.90996780306E+02 0.  0.
          2    1    3    3  502    0 -0.27291267725E+03  0.25424789484E+03 -0.42369288517E+03  0.56448116211E+03  0.00000000000E+00 0. -1.
         -1    1    3    3    0  502 -0.11419461485E+03  0.12681504769E+03 -0.12185102876E+03  0.20969058060E+03  0.00000000000E+00 0.  1.
         11    1    5    5    0    0  0.82839844725E+02 -0.10628017741E+03  0.27920990129E+01  0.13478023520E+03  0.00000000000E+00 0. -1.
        -11    1    5    5    0    0  0.38041780251E+03 -0.22048706441E+03  0.32801616565E+01  0.43970786837E+03  0.00000000000E+00 0.  1.
          3    1    6    6  503    0 -0.26817592118E+02 -0.60734373807E+01  0.46661685620E+03  0.46742631546E+03  0.00000000000E+00 0. -1.
         -3    1    6    6    0  503 -0.49332763019E+02 -0.48222263335E+02  0.19262334203E+03  0.20460415461E+03  0.00000000000E+00 0.  1.
<mgrwt>
<rscale>  0 0.20171378E+04</rscale>
<asrwt>0</asrwt>
<pdfrwt beam="1">  1        2 0.14622475E+00 0.20171378E+04</pdfrwt>
<pdfrwt beam="2">  1       -1 0.16465068E+00 0.20171378E+04</pdfrwt>
<totfact> 0.77419798E+00</totfact>
</mgrwt>
</event>
<event>
12    6  0.1403409E-007  0.2177391E+04  0.7818608E-02  0.8527898E-01
         -1   -1    0    0    0  501 -0.00000000000E+00  0.00000000000E+00  0.28310901459E+04  0.28310901459E+04  0.00000000000E+00 0.  1.
          2   -1    0    0  501    0  0.00000000000E+00 -0.00000000000E+00 -0.41865795088E+03  0.41865795088E+03  0.00000000000E+00 0. -1.
         24    2    1    2    0    0  0.37574646743E+03 -0.72103411972E+03  0.15831120702E+04  0.17814454169E+04  0.78919813846E+02 0.  0.
        254    2    1    2    0    0 -0.37574646743E+03  0.72103411972E+03  0.82932012478E+03  0.14683026798E+04  0.89836812093E+03 0.  0.
         23    2    4    4    0    0 -0.36187598957E+03 -0.34662040714E+02  0.53007174897E+03  0.65038681777E+03  0.99354238883E+02 0.  0.
         23    2    4    4    0    0 -0.13870477859E+02  0.75569616043E+03  0.29924837581E+03  0.81791586208E+03  0.90375272944E+02 0.  0.
          2    1    3    3  502    0  0.26824678928E+03 -0.57326721475E+03  0.11863417793E+04  0.13446183313E+04  0.00000000000E+00 0. -1.
         -1    1    3    3    0  502  0.10749967815E+03 -0.14776690497E+03  0.39677029095E+03  0.43682708569E+03  0.00000000000E+00 0.  1.
         11    1    5    5    0    0 -0.30923937104E+03 -0.92217038964E+01  0.49005363489E+03  0.57953998438E+03  0.00000000000E+00 0. -1.
        -11    1    5    5    0    0 -0.52636618528E+02 -0.25440336818E+02  0.40018114079E+02  0.70846833393E+02  0.00000000000E+00 0.  1.
          4    1    6    6  503    0 -0.52433868706E+02  0.40142520821E+03  0.16109624669E+03  0.43571034997E+03  0.00000000000E+00 0. -1.
         -4    1    6    6    0  503  0.38563390847E+02  0.35427095222E+03  0.13815212912E+03  0.38220551210E+03  0.00000000000E+00 0.  1.
<mgrwt>
<rscale>  0 0.21773915E+04</rscale>
<asrwt>0</asrwt>
<pdfrwt beam="1">  1        2 0.64408917E-01 0.21773915E+04</pdfrwt>
<pdfrwt beam="2">  1       -1 0.43555232E+00 0.21773915E+04</pdfrwt>
<totfact> 0.32177072E-01</totfact>
</mgrwt>
</event>
<event>
12    6  0.1403409E-007  0.1568749E+04  0.7818608E-02  0.8839980E-01
          2   -1    0    0  501    0  0.00000000000E+00  0.00000000000E+00  0.21915432579E+04  0.21915432579E+04  0.00000000000E+00 0. -1.
         -1   -1    0    0    0  501 -0.00000000000E+00 -0.00000000000E+00 -0.28073506906E+03  0.28073506906E+03  0.00000000000E+00 0.  1.
         24    2    1    2    0    0 -0.33115079725E+03 -0.68132426524E+02  0.12745831619E+04  0.13210728131E+04  0.79801397528E+02 0.  0.
        254    2    1    2    0    0  0.33115079725E+03  0.68132426524E+02  0.63622502694E+03  0.11512055138E+04  0.89788026597E+03 0.  0.
         23    2    4    4    0    0  0.39094326557E+03  0.42548096196E+03  0.40363886919E+03  0.71091336022E+03  0.92751189359E+02 0.  0.
         23    2    4    4    0    0 -0.59792468324E+02 -0.35734853544E+03  0.23258615775E+03  0.44029215358E+03  0.92128956780E+02 0.  0.
          4    1    3    3  502    0 -0.12410179425E+03 -0.49791574617E+02  0.62097312197E+03  0.63520711146E+03  0.00000000000E+00 0. -1.
         -3    1    3    3    0  502 -0.20704900300E+03 -0.18340851907E+02  0.65361003989E+03  0.68586570168E+03  0.00000000000E+00 0.  1.
         11    1    5    5    0    0  0.21835703842E+03  0.20877364055E+03  0.15933791985E+03  0.34154765688E+03  0.00000000000E+00 0.  1.
        -11    1    5    5    0    0  0.17258622715E+03  0.21670732141E+03  0.24430094934E+03  0.36936570334E+03  0.00000000000E+00 0. -1.
          2    1    6    6  503    0  0.18790087884E+02 -0.14731472388E+03  0.76388453441E+02  0.16700266792E+03  0.00000000000E+00 0. -1.
         -2    1    6    6    0  503 -0.78582556208E+02 -0.21003381156E+03  0.15619770431E+03  0.27328948565E+03  0.00000000000E+00 0.  1.
<mgrwt>
<rscale>  0 0.15687486E+04</rscale>
<asrwt>0</asrwt>
<pdfrwt beam="1">  1        2 0.33716049E+00 0.15687486E+04</pdfrwt>
<pdfrwt beam="2">  1       -1 0.43190012E-01 0.15687486E+04</pdfrwt>
<totfact> 0.30241616E+01</totfact>
</mgrwt>
</event>
<event>
12    6  0.1403409E-007  0.1936143E+04  0.7818608E-02  0.8637072E-01
         -1   -1    0    0    0  501 -0.00000000000E+00  0.00000000000E+00  0.40079275401E+03  0.40079275401E+03  0.00000000000E+00 0.  1.
          2   -1    0    0  501    0  0.00000000000E+00 -0.00000000000E+00 -0.23382709821E+04  0.23382709821E+04  0.00000000000E+00 0. -1.
         24    2    1    2    0    0 -0.40055992563E+03 -0.34987749696E+03 -0.15152517466E+04  0.16078509450E+04  0.79588245458E+02 0.  0.
        254    2    1    2    0    0  0.40055992563E+03  0.34987749696E+03 -0.42222648145E+03  0.11312127911E+04  0.90471247376E+03 0.  0.
         23    2    4    4    0    0  0.62919081379E+03  0.18691203319E+02 -0.23662428624E+03  0.67843765553E+03  0.89756104876E+02 0.  0.
         23    2    4    4    0    0 -0.22863088816E+03  0.33118629364E+03 -0.18560219521E+03  0.45277513556E+03  0.92739982720E+02 0.  0.
          4    1    3    3  502    0 -0.32289006222E+03 -0.30686974019E+03 -0.13256955865E+04  0.13985334525E+04  0.00000000000E+00 0. -1.
         -3    1    3    3    0  502 -0.77669863410E+02 -0.43007756774E+02 -0.18955616013E+03  0.20931749250E+03  0.00000000000E+00 0.  1.
         11    1    5    5    0    0  0.54126250821E+03  0.40602491016E+02 -0.22297714636E+03  0.58679849426E+03  0.00000000000E+00 0. -1.
        -11    1    5    5    0    0  0.87928305579E+02 -0.21911287697E+02 -0.13647139880E+02  0.91639161265E+02  0.00000000000E+00 0.  1.
          4    1    6    6  503    0 -0.19340244214E+03  0.31134725215E+03 -0.18865685467E+03  0.41222933527E+03  0.00000000000E+00 0.  1.
         -4    1    6    6    0  503 -0.35228446023E+02  0.19839041490E+02  0.30546594524E+01  0.40545800286E+02  0.00000000000E+00 0. -1.
<mgrwt>
<rscale>  0 0.19361426E+04</rscale>
<asrwt>0</asrwt>
<pdfrwt beam="1">  1        2 0.35973399E+00 0.19361426E+04</pdfrwt>
<pdfrwt beam="2">  1       -1 0.61660425E-01 0.19361426E+04</pdfrwt>
<totfact> 0.12233801E+01</totfact>
</mgrwt>
</event>
<event>
12    6  0.1403409E-007  0.1212873E+04  0.7818608E-02  0.9101663E-01
          2   -1    0    0  501    0  0.00000000000E+00  0.00000000000E+00  0.73018207724E+03  0.73018207724E+03  0.00000000000E+00 0. -1.
         -1   -1    0    0    0  501 -0.00000000000E+00 -0.00000000000E+00 -0.50366259067E+03  0.50366259067E+03  0.00000000000E+00 0.  1.
         24    2    1    2    0    0 -0.15052022115E+03  0.21388967204E+03  0.53107745688E+02  0.27876899588E+03  0.80539379383E+02 0.  0.
        254    2    1    2    0    0  0.15052022115E+03 -0.21388967204E+03  0.17341174088E+03  0.95507567203E+03  0.90204921077E+03 0.  0.
         23    2    4    4    0    0 -0.60541832871E+02 -0.17874604432E+03  0.50706638346E+03  0.54810729562E+03  0.87691666555E+02 0.  0.
         23    2    4    4    0    0  0.21106205402E+03 -0.35143627715E+02 -0.33365464258E+03  0.40696837642E+03  0.92279866010E+02 0.  0.
          4    1    3    3  502    0 -0.73140133718E+02  0.16257757541E+03  0.52780097810E+02  0.18592118198E+03  0.00000000000E+00 0. -1.
         -3    1    3    3    0  502 -0.77380087433E+02  0.51312096629E+02  0.32764787804E+00  0.92847813893E+02  0.00000000000E+00 0.  1.
         11    1    5    5    0    0 -0.18217532884E+02 -0.84430003665E+01  0.13791218625E+03  0.13936618627E+03  0.00000000000E+00 0. -1.
        -11    1    5    5    0    0 -0.42324299987E+02 -0.17030304396E+03  0.36915419721E+03  0.40874110934E+03  0.00000000000E+00 0.  1.
          2    1    6    6  503    0  0.48687072001E+01 -0.25320652188E+02 -0.27256058240E+02  0.37519760764E+02  0.00000000000E+00 0. -1.
         -2    1    6    6    0  503  0.20619334682E+03 -0.98229755273E+01 -0.30639858434E+03  0.36944861565E+03  0.00000000000E+00 0.  1.
<mgrwt>
<rscale>  0 0.12128733E+04</rscale>
<asrwt>0</asrwt>
<pdfrwt beam="1">  1        2 0.11233571E+00 0.12128733E+04</pdfrwt>
<pdfrwt beam="2">  1       -1 0.77486552E-01 0.12128733E+04</pdfrwt>
<totfact> 0.72998734E+01</totfact>
</mgrwt>
</event>
<event>
12    6  0.1403409E-007  0.1339451E+04  0.7818608E-02  0.8998852E-01
         -1   -1    0    0    0  501 -0.00000000000E+00  0.00000000000E+00  0.39945462890E+03  0.39945462890E+03  0.00000000000E+00 0.  1.
          2   -1    0    0  501    0  0.00000000000E+00 -0.00000000000E+00 -0.11228615149E+04  0.11228615149E+04  0.00000000000E+00 0. -1.
         24    2    1    2    0    0  0.15602382959E+03  0.32287547227E+03 -0.15911603309E+03  0.40096432945E+03  0.82840059785E+02 0.  0.
        254    2    1    2    0    0 -0.15602382959E+03 -0.32287547227E+03 -0.56429085291E+03  0.11213518144E+04  0.90022981448E+03 0.  0.
         23    2    4    4    0    0 -0.10556127004E+03 -0.49106204983E+03  0.13894487567E+02  0.51076372251E+03  0.91659178132E+02 0.  0.
         23    2    4    4    0    0 -0.50462559543E+02  0.16818657755E+03 -0.57818534048E+03  0.61058809184E+03  0.87671746739E+02 0.  0.
          4    1    3    3  502    0  0.41950901692E+02  0.17497780289E+03 -0.95084941918E+02  0.20351475582E+03  0.00000000000E+00 0. -1.
         -3    1    3    3    0  502  0.11407292789E+03  0.14789766939E+03 -0.64031091172E+02  0.19744957363E+03  0.00000000000E+00 0.  1.
         11    1    5    5    0    0  0.12552580319E+02 -0.71687452785E+02 -0.14270852153E+02  0.74164111137E+02  0.00000000000E+00 0. -1.
        -11    1    5    5    0    0 -0.11811385036E+03 -0.41937459704E+03  0.28165339720E+02  0.43659961137E+03  0.00000000000E+00 0.  1.
          1    1    6    6  503    0 -0.27526590971E+02  0.53575459522E+02 -0.87862562677E+02  0.10652639576E+03  0.00000000000E+00 0. -1.
         -1    1    6    6    0  503 -0.22935968571E+02  0.11461111803E+03 -0.49032277780E+03  0.50406169608E+03  0.00000000000E+00 0.  1.
<mgrwt>
<rscale>  0 0.13394510E+04</rscale>
<asrwt>0</asrwt>
<pdfrwt beam="1">  1        2 0.17274792E+00 0.13394510E+04</pdfrwt>
<pdfrwt beam="2">  1       -1 0.61454559E-01 0.13394510E+04</pdfrwt>
<totfact> 0.63142455E+01</totfact>
</mgrwt>
</event>
<event>
12    6  0.1403409E-007  0.1903699E+04  0.7818608E-02  0.8653017E-01
         -1   -1    0    0    0  501 -0.00000000000E+00  0.00000000000E+00  0.36373517739E+03  0.36373517739E+03  0.00000000000E+00 0.  1.
          2   -1    0    0  501    0  0.00000000000E+00 -0.00000000000E+00 -0.24908708988E+04  0.24908708988E+04  0.00000000000E+00 0. -1.
         24    2    1    2    0    0 -0.52845170182E+03  0.15652540496E+03 -0.94442966509E+02  0.56478094803E+03  0.79351381722E+02 0.  0.
        254    2    1    2    0    0  0.52845170182E+03 -0.15652540496E+03 -0.20326927549E+04  0.22898251282E+04  0.89872013341E+03 0.  0.
         23    2    4    4    0    0  0.26664001698E+03 -0.11561105362E+03 -0.76967073511E+02  0.31414823586E+03  0.91117338139E+02 0.  0.
         23    2    4    4    0    0  0.26181168484E+03 -0.40914351341E+02 -0.19557256814E+04  0.19756768923E+04  0.90647115254E+02 0.  0.
          2    1    3    3  502    0 -0.47708796903E+03  0.11500959496E+03 -0.81340887739E+02  0.49744997452E+03  0.00000000000E+00 0. -1.
         -1    1    3    3    0  502 -0.51363732785E+02  0.41515810008E+02 -0.13102078770E+02  0.67330973514E+02  0.00000000000E+00 0.  1.
         11    1    5    5    0    0  0.57657748598E+02  0.62114653049E+01 -0.37480789097E+02  0.69049314450E+02  0.00000000000E+00 0. -1.
        -11    1    5    5    0    0  0.20898226839E+03 -0.12182251893E+03 -0.39486284414E+02  0.24509892141E+03  0.00000000000E+00 0.  1.
          2    1    6    6  503    0  0.27566551306E+02  0.47490615205E+01 -0.47673481580E+03  0.47755476433E+03  0.00000000000E+00 0. -1.
         -2    1    6    6    0  503  0.23424513353E+03 -0.45663412861E+02 -0.14789908656E+04  0.14981221280E+04  0.00000000000E+00 0.  1.
<mgrwt>
<rscale>  0 0.19036989E+04</rscale>
<asrwt>0</asrwt>
<pdfrwt beam="1">  1        2 0.38321090E+00 0.19036989E+04</pdfrwt>
<pdfrwt beam="2">  1       -1 0.55959260E-01 0.19036989E+04</pdfrwt>
<totfact> 0.12143722E+01</totfact>
</mgrwt>
</event>
<event>
12    6  0.1403409E-007  0.2248737E+04  0.7818608E-02  0.8498412E-01
         -1   -1    0    0    0  501 -0.00000000000E+00  0.00000000000E+00  0.55133842093E+03  0.55133842093E+03  0.00000000000E+00 0.  1.
          2   -1    0    0  501    0  0.00000000000E+00 -0.00000000000E+00 -0.22929735136E+04  0.22929735136E+04  0.00000000000E+00 0. -1.
         24    2    1    2    0    0  0.95076931866E+02 -0.87043173729E+03 -0.29289758316E+03  0.92668257454E+03  0.79123747939E+02 0.  0.
        254    2    1    2    0    0 -0.95076931866E+02  0.87043173729E+03 -0.14487375095E+04  0.19176293600E+04  0.90098332868E+03 0.  0.
         23    2    4    4    0    0 -0.24708640400E+03  0.81498981202E+03 -0.59253817963E+03  0.10414308763E+04  0.90645965549E+02 0.  0.
         23    2    4    4    0    0  0.15200947214E+03  0.55441925266E+02 -0.85619932984E+03  0.87619848364E+03  0.92009801777E+02 0.  0.
          2    1    3    3  502    0  0.95175778424E+02 -0.79892375746E+03 -0.28957548917E+03  0.85509739969E+03  0.00000000000E+00 0. -1.
         -1    1    3    3    0  502 -0.98846557847E-01 -0.71507979830E+02 -0.33220939886E+01  0.71585174851E+02  0.00000000000E+00 0.  1.
         11    1    5    5    0    0 -0.11054577465E+03  0.26314426780E+03 -0.16092633920E+03  0.32766226609E+03  0.00000000000E+00 0. -1.
        -11    1    5    5    0    0 -0.13654062936E+03  0.55184554422E+03 -0.43161184043E+03  0.71376861023E+03  0.00000000000E+00 0.  1.
          3    1    6    6  503    0  0.93829448212E+02  0.42837364458E+02 -0.30878286379E+03  0.32555469912E+03  0.00000000000E+00 0. -1.
         -3    1    6    6    0  503  0.58180023927E+02  0.12604560808E+02 -0.54741646604E+03  0.55064378452E+03  0.00000000000E+00 0.  1.
<mgrwt>
<rscale>  0 0.22487369E+04</rscale>
<asrwt>0</asrwt>
<pdfrwt beam="1">  1        2 0.35276515E+00 0.22487369E+04</pdfrwt>
<pdfrwt beam="2">  1       -1 0.84821296E-01 0.22487369E+04</pdfrwt>
<totfact> 0.65187454E+00</totfact>
</mgrwt>
</event>
<event>
12    6  0.1403409E-007  0.1894821E+04  0.7818608E-02  0.8657439E-01
         -1   -1    0    0    0  501 -0.00000000000E+00  0.00000000000E+00  0.53091241616E+03  0.53091241616E+03  0.00000000000E+00 0.  1.
          2   -1    0    0  501    0  0.00000000000E+00 -0.00000000000E+00 -0.16906494817E+04  0.16906494817E+04  0.00000000000E+00 0. -1.
         24    2    1    2    0    0 -0.57525585833E+03 -0.42324592205E+03 -0.62935350565E+03  0.95535311474E+03  0.80977315896E+02 0.  0.
        254    2    1    2    0    0  0.57525585833E+03  0.42324592205E+03 -0.53038355989E+03  0.12662087831E+04  0.90106689474E+03 0.  0.
         23    2    4    4    0    0  0.54348861375E+03  0.75408648154E+02  0.75030079665E+02  0.56136062256E+03  0.91814477131E+02 0.  0.
         23    2    4    4    0    0  0.31767244582E+02  0.34783727390E+03 -0.60541363956E+03  0.70484816057E+03  0.91023774712E+02 0.  0.
          4    1    3    3  502    0 -0.29959561178E+03 -0.25408904624E+03 -0.30533238012E+03  0.49754058766E+03  0.00000000000E+00 0. -1.
         -3    1    3    3    0  502 -0.27566024655E+03 -0.16915687581E+03 -0.32402112553E+03  0.45781252708E+03  0.00000000000E+00 0.  1.
         11    1    5    5    0    0  0.45181185864E+03  0.35821707625E+02  0.84551982958E+02  0.46104900843E+03  0.00000000000E+00 0.  1.
        -11    1    5    5    0    0  0.91676755106E+02  0.39586940529E+02 -0.95219032934E+01  0.10031161413E+03  0.00000000000E+00 0. -1.
          4    1    6    6  503    0  0.87337744043E+01  0.14270810420E+02 -0.47482822391E+01  0.17391981762E+02  0.00000000000E+00 0. -1.
         -4    1    6    6    0  503  0.23033470177E+02  0.33356646348E+03 -0.60066535732E+03  0.68745617881E+03  0.00000000000E+00 0.  1.
<mgrwt>
<rscale>  0 0.18948212E+04</rscale>
<asrwt>0</asrwt>
<pdfrwt beam="1">  1        2 0.26009993E+00 0.18948212E+04</pdfrwt>
<pdfrwt beam="2">  1       -1 0.81678832E-01 0.18948212E+04</pdfrwt>
<totfact> 0.15804471E+01</totfact>
</mgrwt>
</event>
<event>
12    6  0.1403409E-007  0.1864073E+04  0.7818608E-02  0.8672949E-01
         -1   -1    0    0    0  501 -0.00000000000E+00  0.00000000000E+00  0.74571342088E+03  0.74571342088E+03  0.00000000000E+00 0.  1.
          2   -1    0    0  501    0  0.00000000000E+00 -0.00000000000E+00 -0.11649145096E+04  0.11649145096E+04  0.00000000000E+00 0. -1.
         24    2    1    2    0    0 -0.71074575977E+03  0.16676882483E+02 -0.12899310457E+03  0.72693880017E+03  0.79769321880E+02 0.  0.
        254    2    1    2    0    0  0.71074575977E+03 -0.16676882483E+02 -0.29020798417E+03  0.11836891303E+04  0.90081165054E+03 0.  0.
         23    2    4    4    0    0  0.49999368003E+03  0.30667624222E+03  0.12830613175E+03  0.60711640086E+03  0.89910306069E+02 0.  0.
         23    2    4    4    0    0  0.21075207975E+03 -0.32335312470E+03 -0.41851411593E+03  0.57657272947E+03  0.91150231860E+02 0.  0.
          4    1    3    3  502    0 -0.49042023336E+03  0.26694444974E+02 -0.12295599228E+03  0.50630304633E+03  0.00000000000E+00 0. -1.
         -3    1    3    3    0  502 -0.22032552641E+03 -0.10017562491E+02 -0.60371122948E+01  0.22063575384E+03  0.00000000000E+00 0.  1.
         11    1    5    5    0    0  0.17615007633E+03  0.11821269757E+03  0.90109018915E+02  0.23048367957E+03  0.00000000000E+00 0.  1.
        -11    1    5    5    0    0  0.32384360369E+03  0.18846354465E+03  0.38197112839E+02  0.37663272129E+03  0.00000000000E+00 0. -1.
          3    1    6    6  503    0  0.88135236923E+02 -0.17497544282E+03 -0.15277224810E+03  0.24844231799E+03  0.00000000000E+00 0. -1.
         -3    1    6    6    0  503  0.12261684283E+03 -0.14837768188E+03 -0.26574186783E+03  0.32813041148E+03  0.00000000000E+00 0.  1.
<mgrwt>
<rscale>  0 0.18640734E+04</rscale>
<asrwt>0</asrwt>
<pdfrwt beam="1">  1        2 0.17921762E+00 0.18640734E+04</pdfrwt>
<pdfrwt beam="2">  1       -1 0.11472514E+00 0.18640734E+04</pdfrwt>
<totfact> 0.14704279E+01</totfact>
</mgrwt>
</event>
<event>
12    6  0.1403409E-007  0.2882727E+04  0.7818608E-02  0.8278035E-01
          2   -1    0    0  501    0  0.00000000000E+00  0.00000000000E+00  0.17263668590E+04  0.17263668590E+04  0.00000000000E+00 0. -1.
         -1   -1    0    0    0  501 -0.00000000000E+00 -0.00000000000E+00 -0.12034113388E+04  0.12034113388E+04  0.00000000000E+00 0.  1.
         24    2    1    2    0    0  0.10853123839E+04 -0.32292630782E+03  0.88458539141E+03  0.14391714814E+04  0.80863262989E+02 0.  0.
        254    2    1    2    0    0 -0.10853123839E+04  0.32292630782E+03 -0.36162987119E+03  0.14906067164E+04  0.89941528133E+03 0.  0.
         23    2    4    4    0    0 -0.55307858963E+03  0.61524824380E+03 -0.19150198017E+03  0.85402790100E+03  0.90908302509E+02 0.  0.
         23    2    4    4    0    0 -0.53223379431E+03 -0.29232193598E+03 -0.17012789102E+03  0.63657881542E+03  0.86972196033E+02 0.  0.
          4    1    3    3  502    0  0.52481934769E+03 -0.11713591157E+03  0.43846829930E+03  0.69383760274E+03  0.00000000000E+00 0. -1.
         -3    1    3    3    0  502  0.56049303625E+03 -0.20579039624E+03  0.44611709211E+03  0.74533387870E+03  0.00000000000E+00 0.  1.
         11    1    5    5    0    0 -0.45704876903E+03  0.54218299643E+03 -0.13990205096E+03  0.72279219887E+03  0.00000000000E+00 0. -1.
        -11    1    5    5    0    0 -0.96029820596E+02  0.73065247375E+02 -0.51599929207E+02  0.13123570212E+03  0.00000000000E+00 0.  1.
          3    1    6    6  503    0 -0.41673350353E+03 -0.26713280698E+03 -0.14382332714E+03  0.51547250068E+03  0.00000000000E+00 0. -1.
         -3    1    6    6    0  503 -0.11550029078E+03 -0.25189129007E+02 -0.26304563880E+02  0.12110631474E+03  0.00000000000E+00 0.  1.
<mgrwt>
<rscale>  0 0.28827275E+04</rscale>
<asrwt>0</asrwt>
<pdfrwt beam="1">  1        2 0.26559490E+00 0.28827275E+04</pdfrwt>
<pdfrwt beam="2">  1       -1 0.18514020E+00 0.28827275E+04</pdfrwt>
<totfact> 0.17836833E+00</totfact>
</mgrwt>
</event>
<event>
12    6  0.1403409E-007  0.1979972E+04  0.7818608E-02  0.8616042E-01
         -1   -1    0    0    0  501 -0.00000000000E+00  0.00000000000E+00  0.91231708587E+03  0.91231708587E+03  0.00000000000E+00 0.  1.
          2   -1    0    0  501    0  0.00000000000E+00 -0.00000000000E+00 -0.10742667923E+04  0.10742667923E+04  0.00000000000E+00 0. -1.
         24    2    1    2    0    0 -0.72141736474E+03 -0.46533250824E+02  0.23639034044E+03  0.76468413924E+03  0.79076432483E+02 0.  0.
        254    2    1    2    0    0  0.72141736474E+03  0.46533250824E+02 -0.39834004687E+03  0.12218997389E+04  0.90097492833E+03 0.  0.
         23    2    4    4    0    0 -0.73690502880E+02 -0.51530106458E+02  0.18681681590E+03  0.22564989719E+03  0.89060155569E+02 0.  0.
         23    2    4    4    0    0  0.79510786762E+03  0.98063357282E+02 -0.58515686277E+03  0.99624984174E+03  0.91061791812E+02 0.  0.
          2    1    3    3  502    0 -0.68368657634E+03 -0.61345336216E+02  0.21842479302E+03  0.72034712128E+03  0.00000000000E+00 0. -1.
         -1    1    3    3    0  502 -0.37730788404E+02  0.14812085392E+02  0.17965547416E+02  0.44337017956E+02  0.00000000000E+00 0.  1.
         11    1    5    5    0    0 -0.52417392195E+02  0.12763971458E+02  0.11450619166E+03  0.12657871030E+03  0.00000000000E+00 0. -1.
        -11    1    5    5    0    0 -0.21273110685E+02 -0.64294077916E+02  0.72310624241E+02  0.99071186888E+02  0.00000000000E+00 0.  1.
          3    1    6    6  503    0  0.50786843909E+03  0.20723769135E+02 -0.35158637686E+03  0.61803948614E+03  0.00000000000E+00 0. -1.
         -3    1    6    6    0  503  0.28723942853E+03  0.77339588147E+02 -0.23357048591E+03  0.37821035560E+03  0.00000000000E+00 0.  1.
<mgrwt>
<rscale>  0 0.19799717E+04</rscale>
<asrwt>0</asrwt>
<pdfrwt beam="1">  1        2 0.16527181E+00 0.19799717E+04</pdfrwt>
<pdfrwt beam="2">  1       -1 0.14035647E+00 0.19799717E+04</pdfrwt>
<totfact> 0.99891324E+00</totfact>
</mgrwt>
</event>
<event>
12    6  0.1403409E-007  0.2063265E+04  0.7818608E-02  0.8577600E-01
          2   -1    0    0  501    0  0.00000000000E+00  0.00000000000E+00  0.12719420077E+04  0.12719420077E+04  0.00000000000E+00 0. -1.
         -1   -1    0    0    0  501 -0.00000000000E+00 -0.00000000000E+00 -0.83672468991E+03  0.83672468991E+03  0.00000000000E+00 0.  1.
         24    2    1    2    0    0 -0.44745991994E+03 -0.69955979247E+03  0.24624083463E+03  0.87010294079E+03  0.82706080393E+02 0.  0.
        254    2    1    2    0    0  0.44745991994E+03  0.69955979247E+03  0.18897648314E+03  0.12385637568E+04  0.89929071235E+03 0.  0.
         23    2    4    4    0    0  0.34327465409E+02  0.20770774870E+03  0.47654683431E+03  0.52886405181E+03  0.90991297660E+02 0.  0.
         23    2    4    4    0    0  0.41313245453E+03  0.49185204377E+03 -0.28757035117E+03  0.70969970501E+03  0.91542921419E+02 0.  0.
          2    1    3    3  502    0 -0.12497755423E+03 -0.19334018604E+03  0.10743220132E+03  0.25405018103E+03  0.00000000000E+00 0. -1.
         -1    1    3    3    0  502 -0.32248236571E+03 -0.50621960643E+03  0.13880863332E+03  0.61605275976E+03  0.00000000000E+00 0.  1.
         11    1    5    5    0    0 -0.82359237612E+01  0.11792942325E+03  0.34021487408E+03  0.36016848815E+03  0.00000000000E+00 0.  1.
        -11    1    5    5    0    0  0.42563389171E+02  0.89778325448E+02  0.13633196023E+03  0.16869556366E+03  0.00000000000E+00 0. -1.
          4    1    6    6  503    0  0.19095790381E+03  0.25130459421E+03 -0.18832114836E+03  0.36753744709E+03  0.00000000000E+00 0. -1.
         -4    1    6    6    0  503  0.22217455072E+03  0.24054744957E+03 -0.99249202811E+02  0.34216225791E+03  0.00000000000E+00 0.  1.
<mgrwt>
<rscale>  0 0.20632647E+04</rscale>
<asrwt>0</asrwt>
<pdfrwt beam="1">  1        2 0.19568339E+00 0.20632647E+04</pdfrwt>
<pdfrwt beam="2">  1       -1 0.12872688E+00 0.20632647E+04</pdfrwt>
<totfact> 0.94056884E+00</totfact>
</mgrwt>
</event>
<event>
12    6  0.1403409E-007  0.1830736E+04  0.7818608E-02  0.8690123E-01
          2   -1    0    0  501    0  0.00000000000E+00  0.00000000000E+00  0.18728829383E+04  0.18728829383E+04  0.00000000000E+00 0. -1.
         -1   -1    0    0    0  501 -0.00000000000E+00 -0.00000000000E+00 -0.44738442970E+03  0.44738442970E+03  0.00000000000E+00 0.  1.
         24    2    1    2    0    0  0.32985982005E+03  0.24937197772E+03 -0.15936882976E+03  0.45064424717E+03  0.81779761858E+02 0.  0.
        254    2    1    2    0    0 -0.32985982005E+03 -0.24937197772E+03  0.15848673383E+04  0.18696231208E+04  0.90149445343E+03 0.  0.
         23    2    4    4    0    0 -0.53483471413E+03 -0.39622646243E+03  0.13700267883E+04  0.15259518650E+04  0.92261110653E+02 0.  0.
         23    2    4    4    0    0  0.20497489407E+03  0.14685448471E+03  0.21484055003E+03  0.34367125584E+03  0.91501493299E+02 0.  0.
          2    1    3    3  502    0  0.20712830914E+02  0.57943830828E+01  0.80159798342E+01  0.22953260607E+02  0.00000000000E+00 0. -1.
         -1    1    3    3    0  502  0.30914698914E+03  0.24357759464E+03 -0.16738480960E+03  0.42769098656E+03  0.00000000000E+00 0.  1.
         11    1    5    5    0    0 -0.22675100060E+03 -0.17930541969E+03  0.69819775980E+03  0.75567622802E+03  0.00000000000E+00 0.  1.
        -11    1    5    5    0    0 -0.30808371352E+03 -0.21692104275E+03  0.67182902850E+03  0.77027563693E+03  0.00000000000E+00 0. -1.
          2    1    6    6  503    0  0.17874158893E+03  0.78892980594E+02  0.15490398402E+03  0.24933491987E+03  0.00000000000E+00 0. -1.
         -2    1    6    6    0  503  0.26233305146E+02  0.67961504116E+02  0.59936566007E+02  0.94336335975E+02  0.00000000000E+00 0.  1.
<mgrwt>
<rscale>  0 0.18307361E+04</rscale>
<asrwt>0</asrwt>
<pdfrwt beam="1">  1        2 0.28813583E+00 0.18307361E+04</pdfrwt>
<pdfrwt beam="2">  1       -1 0.68828375E-01 0.18307361E+04</pdfrwt>
<totfact> 0.18008736E+01</totfact>
</mgrwt>
</event>
<event>
12    6  0.1403409E-007  0.2496095E+04  0.7818608E-02  0.8404378E-01
          2   -1    0    0  501    0  0.00000000000E+00  0.00000000000E+00  0.33317831525E+04  0.33317831525E+04  0.00000000000E+00 0. -1.
         -1   -1    0    0    0  501 -0.00000000000E+00 -0.00000000000E+00 -0.46750405316E+03  0.46750405316E+03  0.00000000000E+00 0.  1.
         24    2    1    2    0    0 -0.27505941551E+02 -0.10719820514E+04  0.10106745275E+04  0.14757371015E+04  0.80217809643E+02 0.  0.
        254    2    1    2    0    0  0.27505941551E+02  0.10719820514E+04  0.18536045718E+04  0.23235501041E+04  0.90173892140E+03 0.  0.
         23    2    4    4    0    0  0.36348368229E+03  0.35255226610E+03  0.35190652229E+03  0.62240381524E+03  0.84467870593E+02 0.  0.
         23    2    4    4    0    0 -0.33597774074E+03  0.71942978529E+03  0.15016980495E+04  0.17011462889E+04  0.91331298015E+02 0.  0.
          2    1    3    3  502    0 -0.52974187203E+02 -0.78907181638E+03  0.76177987371E+03  0.10980661054E+04  0.00000000000E+00 0. -1.
         -1    1    3    3    0  502  0.25468245651E+02 -0.28291023500E+03  0.24889465381E+03  0.37767099611E+03  0.00000000000E+00 0.  1.
         11    1    5    5    0    0  0.11418031826E+03  0.96464067377E+02  0.60464281413E+02  0.16124016466E+03  0.00000000000E+00 0.  1.
        -11    1    5    5    0    0  0.24930336404E+03  0.25608819872E+03  0.29144224088E+03  0.46116365058E+03  0.00000000000E+00 0. -1.
          1    1    6    6  503    0 -0.28668342455E+02  0.11927927849E+03  0.18731293522E+03  0.22390970465E+03  0.00000000000E+00 0. -1.
         -1    1    6    6    0  503 -0.30730939829E+03  0.60015050680E+03  0.13143851143E+04  0.14772365842E+04  0.00000000000E+00 0.  1.
<mgrwt>
<rscale>  0 0.24960947E+04</rscale>
<asrwt>0</asrwt>
<pdfrwt beam="1">  1        2 0.51258201E+00 0.24960947E+04</pdfrwt>
<pdfrwt beam="2">  1       -1 0.71923702E-01 0.24960947E+04</pdfrwt>
<totfact> 0.21010045E+00</totfact>
</mgrwt>
</event>
<event>
12    6  0.1403409E-007  0.2215391E+04  0.7818608E-02  0.8512049E-01
         -1   -1    0    0    0  501 -0.00000000000E+00  0.00000000000E+00  0.43096871928E+03  0.43096871928E+03  0.00000000000E+00 0.  1.
          2   -1    0    0  501    0  0.00000000000E+00 -0.00000000000E+00 -0.28470504110E+04  0.28470504110E+04  0.00000000000E+00 0. -1.
         24    2    1    2    0    0 -0.80070744340E+03  0.42824048902E+03 -0.12408138047E+04  0.15402562098E+04  0.90818321889E+02 0.  0.
        254    2    1    2    0    0  0.80070744340E+03 -0.42824048902E+03 -0.11752678870E+04  0.17377629205E+04  0.90224333479E+03 0.  0.
         23    2    4    4    0    0  0.22559316846E+03 -0.14369821440E+03 -0.10372147950E+04  0.10750503516E+04  0.91527444346E+02 0.  0.
         23    2    4    4    0    0  0.57511427494E+03 -0.28454227462E+03 -0.13805309208E+03  0.66271256891E+03  0.91698186857E+02 0.  0.
          4    1    3    3  502    0 -0.15566885491E+03  0.44160626880E+02 -0.21583898162E+03  0.26975807558E+03  0.00000000000E+00 0. -1.
         -3    1    3    3    0  502 -0.64503858849E+03  0.38407986214E+03 -0.10249748231E+04  0.12704981342E+04  0.00000000000E+00 0.  1.
         11    1    5    5    0    0  0.78036561915E+02 -0.63068827079E+02 -0.23707717738E+03  0.25743537048E+03  0.00000000000E+00 0.  1.
        -11    1    5    5    0    0  0.14755660654E+03 -0.80629387325E+02 -0.80013761758E+03  0.81761498109E+03  0.00000000000E+00 0. -1.
          1    1    6    6  503    0  0.55749962588E+03 -0.25886094559E+03 -0.14325519768E+03  0.63113934569E+03  0.00000000000E+00 0. -1.
         -1    1    6    6    0  503  0.17614649056E+02 -0.25681329025E+02  0.52021056002E+01  0.31573223221E+02  0.00000000000E+00 0.  1.
<mgrwt>
<rscale>  0 0.22153913E+04</rscale>
<asrwt>0</asrwt>
<pdfrwt beam="1">  1        2 0.43800776E+00 0.22153913E+04</pdfrwt>
<pdfrwt beam="2">  1       -1 0.66302879E-01 0.22153913E+04</pdfrwt>
<totfact> 0.51877187E+00</totfact>
</mgrwt>
</event>
<event>
12    6  0.1403409E-007  0.3402731E+04  0.7818608E-02  0.8137236E-01
         -1   -1    0    0    0  501 -0.00000000000E+00  0.00000000000E+00  0.14968487100E+04  0.14968487100E+04  0.00000000000E+00 0.  1.
          2   -1    0    0  501    0  0.00000000000E+00 -0.00000000000E+00 -0.19338256597E+04  0.19338256597E+04  0.00000000000E+00 0. -1.
         24    2    1    2    0    0  0.31965060159E+03  0.14585937496E+04 -0.73011361064E+03  0.16641356605E+04  0.81298085375E+02 0.  0.
        254    2    1    2    0    0 -0.31965060159E+03 -0.14585937496E+04  0.29313666092E+03  0.17665387091E+04  0.89725006300E+03 0.  0.
         23    2    4    4    0    0  0.40257596443E+02 -0.12091933234E+04  0.44578204294E+03  0.12926010376E+04  0.91250453350E+02 0.  0.
         23    2    4    4    0    0 -0.35990819803E+03 -0.24940042621E+03 -0.15264538203E+03  0.47393767156E+03  0.97886772660E+02 0.  0.
          2    1    3    3  502    0  0.20817527085E+03  0.10043319557E+04 -0.54099314092E+03  0.11596090717E+04  0.00000000000E+00 0. -1.
         -1    1    3    3    0  502  0.11147533074E+03  0.45426179386E+03 -0.18912046972E+03  0.50452658878E+03  0.00000000000E+00 0.  1.
         11    1    5    5    0    0  0.74003496847E+01 -0.20752337694E+03  0.11407051975E+03  0.23692361771E+03  0.00000000000E+00 0. -1.
        -11    1    5    5    0    0  0.32857246758E+02 -0.10016699464E+04  0.33171152319E+03  0.10556774199E+04  0.00000000000E+00 0.  1.
          4    1    6    6  503    0 -0.10344532211E+03 -0.11165239864E+03 -0.18250002894E+02  0.15329793017E+03  0.00000000000E+00 0. -1.
         -4    1    6    6    0  503 -0.25646287592E+03 -0.13774802758E+03 -0.13439537913E+03  0.32063974139E+03  0.00000000000E+00 0.  1.
<mgrwt>
<rscale>  0 0.34027309E+04</rscale>
<asrwt>0</asrwt>
<pdfrwt beam="1">  1        2 0.29751164E+00 0.34027309E+04</pdfrwt>
<pdfrwt beam="2">  1       -1 0.23028442E+00 0.34027309E+04</pdfrwt>
<totfact> 0.64397159E-01</totfact>
</mgrwt>
</event>
<event>
12    6  0.1403409E-007  0.3621595E+04  0.7818608E-02  0.8085563E-01
          2   -1    0    0  501    0  0.00000000000E+00  0.00000000000E+00  0.20326170590E+04  0.20326170590E+04  0.00000000000E+00 0. -1.
         -1   -1    0    0    0  501 -0.00000000000E+00 -0.00000000000E+00 -0.16131847270E+04  0.16131847270E+04  0.00000000000E+00 0.  1.
         24    2    1    2    0    0  0.25296453465E+03  0.14341954364E+04 -0.68347545697E+03  0.16103649880E+04  0.72312437004E+02 0.  0.
        254    2    1    2    0    0 -0.25296453465E+03 -0.14341954364E+04  0.11029077890E+04  0.20354367980E+04  0.89760222928E+03 0.  0.
         23    2    4    4    0    0 -0.20619653512E+03 -0.12345546723E+04  0.43063527753E+03  0.13268449833E+04  0.91807503313E+02 0.  0.
         23    2    4    4    0    0 -0.46767999525E+02 -0.19964076418E+03  0.67227251147E+03  0.70859181468E+03  0.90046375023E+02 0.  0.
          4    1    3    3  502    0  0.17730175418E+03  0.11682322847E+04 -0.55300094484E+03  0.13046120604E+04  0.00000000000E+00 0. -1.
         -3    1    3    3    0  502  0.75662780472E+02  0.26596315170E+03 -0.13047451214E+03  0.30575292759E+03  0.00000000000E+00 0.  1.
         11    1    5    5    0    0 -0.12286872607E+03 -0.63588332009E+03  0.17742955135E+03  0.67150991528E+03  0.00000000000E+00 0.  1.
        -11    1    5    5    0    0 -0.83327809054E+02 -0.59867135216E+03  0.25320572618E+03  0.65533506806E+03  0.00000000000E+00 0. -1.
          3    1    6    6  503    0 -0.67255995552E+02 -0.98095928613E+02  0.39873431171E+03  0.41609521925E+03  0.00000000000E+00 0. -1.
         -3    1    6    6    0  503  0.20487996026E+02 -0.10154483557E+03  0.27353819976E+03  0.29249659543E+03  0.00000000000E+00 0.  1.
<mgrwt>
<rscale>  0 0.36215946E+04</rscale>
<asrwt>0</asrwt>
<pdfrwt beam="1">  1        2 0.31271032E+00 0.36215946E+04</pdfrwt>
<pdfrwt beam="2">  1       -1 0.24818226E+00 0.36215946E+04</pdfrwt>
<totfact> 0.42489157E-01</totfact>
</mgrwt>
</event>
<event>
12    6  0.1403409E-007  0.1392896E+04  0.7818608E-02  0.8958977E-01
         -1   -1    0    0    0  501 -0.00000000000E+00  0.00000000000E+00  0.65150051443E+03  0.65150051443E+03  0.00000000000E+00 0.  1.
          2   -1    0    0  501    0  0.00000000000E+00 -0.00000000000E+00 -0.74449624705E+03  0.74449624705E+03  0.00000000000E+00 0. -1.
         24    2    1    2    0    0  0.21830261682E+03 -0.38409532301E+02 -0.35791922457E+03  0.43080273684E+03  0.91397494884E+02 0.  0.
        254    2    1    2    0    0 -0.21830261682E+03  0.38409532301E+02  0.26492349196E+03  0.96519402464E+03  0.90126784251E+03 0.  0.
         23    2    4    4    0    0  0.23446539217E+03  0.19149529757E+03  0.34965566750E+03  0.47123251002E+03  0.90313473882E+02 0.  0.
         23    2    4    4    0    0 -0.45276800898E+03 -0.15308576527E+03 -0.84732175549E+02  0.49396151463E+03  0.91565904528E+02 0.  0.
          4    1    3    3  502    0  0.80433656828E+02 -0.19088330449E+02 -0.60587143466E+02  0.10249263126E+03  0.00000000000E+00 0. -1.
         -1    1    3    3    0  502  0.13786895999E+03 -0.19321201852E+02 -0.29733208110E+03  0.32831010558E+03  0.00000000000E+00 0.  1.
         11    1    5    5    0    0  0.29192841235E+02  0.82800141249E+01  0.58827228554E+01  0.30909335831E+02  0.00000000000E+00 0. -1.
        -11    1    5    5    0    0  0.20527255093E+03  0.18321528345E+03  0.34377294465E+03  0.44032317419E+03  0.00000000000E+00 0.  1.
          3    1    6    6  503    0 -0.35577669000E+02 -0.15999589971E+02  0.18010302895E+02  0.42966596573E+02  0.00000000000E+00 0. -1.
         -3    1    6    6    0  503 -0.41719033998E+03 -0.13708617530E+03 -0.10274247844E+03  0.45099491805E+03  0.00000000000E+00 0.  1.
<mgrwt>
<rscale>  0 0.13928958E+04</rscale>
<asrwt>0</asrwt>
<pdfrwt beam="1">  1        2 0.11453788E+00 0.13928958E+04</pdfrwt>
<pdfrwt beam="2">  1       -1 0.10023085E+00 0.13928958E+04</pdfrwt>
<totfact> 0.39935333E+01</totfact>
</mgrwt>
</event>
<event>
12    6  0.1403409E-007  0.2801742E+04  0.7818608E-02  0.8302728E-01
         -1   -1    0    0    0  501 -0.00000000000E+00  0.00000000000E+00  0.12164024040E+04  0.12164024040E+04  0.00000000000E+00 0.  1.
          2   -1    0    0  501    0  0.00000000000E+00 -0.00000000000E+00 -0.16133145233E+04  0.16133145233E+04  0.00000000000E+00 0. -1.
         24    2    1    2    0    0  0.33004140140E+03  0.90160189949E+03 -0.99483352844E+03  0.13849638243E+04  0.81349452488E+02 0.  0.
        254    2    1    2    0    0 -0.33004140140E+03 -0.90160189949E+03  0.59792140911E+03  0.14447531030E+04  0.89888164144E+03 0.  0.
         23    2    4    4    0    0 -0.61372951178E+03 -0.55474119288E+03  0.24608889069E+03  0.86789101707E+03  0.90958071039E+02 0.  0.
         23    2    4    4    0    0  0.28368811038E+03 -0.34686070661E+03  0.35183251842E+03  0.57686208591E+03  0.90512161540E+02 0.  0.
          4    1    3    3  502    0  0.51905570914E+02  0.10025649278E+03 -0.15040973100E+03  0.18806552001E+03  0.00000000000E+00 0. -1.
         -3    1    3    3    0  502  0.27813583049E+03  0.80134540671E+03 -0.84442379744E+03  0.11968983043E+04  0.00000000000E+00 0.  1.
         11    1    5    5    0    0 -0.16157081203E+03 -0.16484312607E+03  0.10920549206E+03  0.25535117585E+03  0.00000000000E+00 0.  1.
        -11    1    5    5    0    0 -0.45215869976E+03 -0.38989806681E+03  0.13688339862E+03  0.61253984122E+03  0.00000000000E+00 0. -1.
          2    1    6    6  503    0  0.11328372819E+03 -0.20889270781E+03  0.19269170941E+03  0.30594029046E+03  0.00000000000E+00 0. -1.
         -2    1    6    6    0  503  0.17040438219E+03 -0.13796799880E+03  0.15914080901E+03  0.27092179546E+03  0.00000000000E+00 0.  1.
<mgrwt>
<rscale>  0 0.28017421E+04</rscale>
<asrwt>0</asrwt>
<pdfrwt beam="1">  1        2 0.24820223E+00 0.28017421E+04</pdfrwt>
<pdfrwt beam="2">  1       -1 0.18713883E+00 0.28017421E+04</pdfrwt>
<totfact> 0.20099632E+00</totfact>
</mgrwt>
</event>
<event>
12    6  0.1403409E-007  0.2665356E+04  0.7818608E-02  0.8346334E-01
          2   -1    0    0  501    0  0.00000000000E+00  0.00000000000E+00  0.15927804192E+04  0.15927804192E+04  0.00000000000E+00 0. -1.
         -1   -1    0    0    0  501 -0.00000000000E+00 -0.00000000000E+00 -0.11150505688E+04  0.11150505688E+04  0.00000000000E+00 0.  1.
         24    2    1    2    0    0  0.45833856549E+03 -0.10797926900E+04  0.83562423575E+02  0.11788694713E+04  0.82000351521E+02 0.  0.
        254    2    1    2    0    0 -0.45833856549E+03  0.10797926900E+04  0.39416742684E+03  0.15289615167E+04  0.89795816455E+03 0.  0.
         23    2    4    4    0    0 -0.10961442308E+03  0.62752925477E+03 -0.22478943584E+03  0.68171944606E+03  0.91666926086E+02 0.  0.
         23    2    4    4    0    0 -0.34872414241E+03  0.45226343522E+03  0.61895686268E+03  0.84724207067E+03  0.92524516306E+02 0.  0.
          4    1    3    3  502    0  0.32005216853E+03 -0.68578664376E+03  0.82706221174E+02  0.76129956677E+03  0.00000000000E+00 0. -1.
         -3    1    3    3    0  502  0.13828639696E+03 -0.39400604623E+03  0.85620240097E+00  0.41756990449E+03  0.00000000000E+00 0.  1.
         11    1    5    5    0    0 -0.10278240690E+03  0.34032535530E+03 -0.10740264644E+03  0.37137703092E+03  0.00000000000E+00 0. -1.
        -11    1    5    5    0    0 -0.68320161824E+01  0.28720389947E+03 -0.11738678940E+03  0.31034241515E+03  0.00000000000E+00 0.  1.
          1    1    6    6  503    0 -0.22110789408E+03  0.34216730050E+03  0.47326215751E+03  0.62445514818E+03  0.00000000000E+00 0. -1.
         -1    1    6    6    0  503 -0.12761624833E+03  0.11009613472E+03  0.14569470517E+03  0.22278692249E+03  0.00000000000E+00 0.  1.
<mgrwt>
<rscale>  0 0.26653560E+04</rscale>
<asrwt>0</asrwt>
<pdfrwt beam="1">  1        2 0.24504314E+00 0.26653560E+04</pdfrwt>
<pdfrwt beam="2">  1       -1 0.17154624E+00 0.26653560E+04</pdfrwt>
<totfact> 0.27031886E+00</totfact>
</mgrwt>
</event>
<event>
12    6  0.1403409E-007  0.1845204E+04  0.7818608E-02  0.8682623E-01
          2   -1    0    0  501    0  0.00000000000E+00  0.00000000000E+00  0.54505701492E+03  0.54505701492E+03  0.00000000000E+00 0. -1.
         -1   -1    0    0    0  501 -0.00000000000E+00 -0.00000000000E+00 -0.15616615799E+04  0.15616615799E+04  0.00000000000E+00 0.  1.
         24    2    1    2    0    0  0.66883306963E+03 -0.17974586155E+03 -0.50933329899E+03  0.86344069070E+03  0.80393825102E+02 0.  0.
        254    2    1    2    0    0 -0.66883306963E+03  0.17974586155E+03 -0.50727126603E+03  0.12432779042E+04  0.89931616235E+03 0.  0.
         23    2    4    4    0    0  0.25124558188E+02 -0.69541463000E+02  0.19331024812E+03  0.22244064944E+03  0.81509091481E+02 0.  0.
         23    2    4    4    0    0 -0.69395762782E+03  0.24928732455E+03 -0.70058151415E+03  0.10208372547E+04  0.87022314744E+02 0.  0.
          4    1    3    3  502    0  0.11425094764E+03 -0.56692570342E+02 -0.71456596035E+02  0.14619634635E+03  0.00000000000E+00 0. -1.
         -3    1    3    3    0  502  0.55458212199E+03 -0.12305329120E+03 -0.43787670295E+03  0.71724434435E+03  0.00000000000E+00 0.  1.
         11    1    5    5    0    0  0.49218636696E+02 -0.22665527198E+02  0.12436764676E+03  0.13565954402E+03  0.00000000000E+00 0. -1.
        -11    1    5    5    0    0 -0.24094078507E+02 -0.46875935802E+02  0.68942601359E+02  0.86781105424E+02  0.00000000000E+00 0.  1.
          3    1    6    6  503    0 -0.56297348775E+03  0.18127504853E+03 -0.59819190326E+03  0.84120945326E+03  0.00000000000E+00 0. -1.
         -3    1    6    6    0  503 -0.13098414007E+03  0.68012276015E+02 -0.10238961090E+03  0.17962780146E+03  0.00000000000E+00 0.  1.
<mgrwt>
<rscale>  0 0.18452042E+04</rscale>
<asrwt>0</asrwt>
<pdfrwt beam="1">  1        2 0.83854926E-01 0.18452042E+04</pdfrwt>
<pdfrwt beam="2">  1       -1 0.24025563E+00 0.18452042E+04</pdfrwt>
<totfact> 0.48292473E+00</totfact>
</mgrwt>
</event>
<event>
12    6  0.1403409E-007  0.2277705E+04  0.7818608E-02  0.8486764E-01
          2   -1    0    0  501    0  0.00000000000E+00  0.00000000000E+00  0.22576196538E+04  0.22576196538E+04  0.00000000000E+00 0. -1.
         -1   -1    0    0    0  501 -0.00000000000E+00 -0.00000000000E+00 -0.57449247331E+03  0.57449247331E+03  0.00000000000E+00 0.  1.
         24    2    1    2    0    0 -0.66332039753E+02 -0.60767785136E+03 -0.20703511394E+03  0.65047960458E+03  0.81165676470E+02 0.  0.
        254    2    1    2    0    0  0.66332039753E+02  0.60767785136E+03  0.18901622945E+04  0.21816325226E+04  0.90173979262E+03 0.  0.
         23    2    4    4    0    0 -0.35060711453E+03  0.53155352546E+03  0.12894665993E+04  0.14409766515E+04  0.90637190654E+02 0.  0.
         23    2    4    4    0    0  0.41693915428E+03  0.76124325898E+02  0.60069569516E+03  0.74065587105E+03  0.90014608639E+02 0.  0.
          2    1    3    3  502    0 -0.23303427720E+02 -0.42423107270E+02 -0.49836731272E+01  0.48658059679E+02  0.00000000000E+00 0. -1.
         -1    1    3    3    0  502 -0.43028612033E+02 -0.56525474409E+03 -0.20205144081E+03  0.60182154490E+03  0.00000000000E+00 0.  1.
         11    1    5    5    0    0 -0.30507923196E+03  0.40514627178E+03  0.97524865750E+03  0.10992391838E+04  0.00000000000E+00 0. -1.
        -11    1    5    5    0    0 -0.45527882563E+02  0.12640725369E+03  0.31421794181E+03  0.34173746770E+03  0.00000000000E+00 0.  1.
          4    1    6    6  503    0  0.36565573027E+03  0.35051536976E+02  0.51833163979E+03  0.63529553133E+03  0.00000000000E+00 0. -1.
         -4    1    6    6    0  503  0.51283424015E+02  0.41072788922E+02  0.82364055373E+02  0.10536033972E+03  0.00000000000E+00 0.  1.
<mgrwt>
<rscale>  0 0.22777054E+04</rscale>
<asrwt>0</asrwt>
<pdfrwt beam="1">  1        2 0.34732609E+00 0.22777054E+04</pdfrwt>
<pdfrwt beam="2">  1       -1 0.88383459E-01 0.22777054E+04</pdfrwt>
<totfact> 0.62248193E+00</totfact>
</mgrwt>
</event>
<event>
12    6  0.1403409E-007  0.2755657E+04  0.7818608E-02  0.8317169E-01
          2   -1    0    0  501    0  0.00000000000E+00  0.00000000000E+00  0.15266884353E+04  0.15266884353E+04  0.00000000000E+00 0. -1.
         -1   -1    0    0    0  501 -0.00000000000E+00 -0.00000000000E+00 -0.12434832431E+04  0.12434832431E+04  0.00000000000E+00 0.  1.
         24    2    1    2    0    0  0.59695120425E+03  0.10530514224E+04 -0.89511252069E+02  0.12164130477E+04  0.79877405070E+02 0.  0.
        254    2    1    2    0    0 -0.59695120425E+03 -0.10530514224E+04  0.37271644428E+03  0.15537586307E+04  0.89998905330E+03 0.  0.
         23    2    4    4    0    0  0.20717587243E+03 -0.20078999125E+03  0.20866831564E+03  0.36701718878E+03  0.88998248353E+02 0.  0.
         23    2    4    4    0    0 -0.80412707667E+03 -0.85226143114E+03  0.16404812864E+03  0.11867414419E+04  0.92051935887E+02 0.  0.
          4    1    3    3  502    0  0.28611075856E+03  0.46435796791E+03 -0.58316754958E+01  0.54545549495E+03  0.00000000000E+00 0. -1.
         -3    1    3    3    0  502  0.31084044569E+03  0.58869345447E+03 -0.83679576573E+02  0.67095755272E+03  0.00000000000E+00 0.  1.
         11    1    5    5    0    0  0.59957779370E+02 -0.12977301164E+02  0.60294908437E+02  0.86016403296E+02  0.00000000000E+00 0. -1.
        -11    1    5    5    0    0  0.14721809306E+03 -0.18781269009E+03  0.14837340720E+03  0.28100078549E+03  0.00000000000E+00 0.  1.
          1    1    6    6  503    0 -0.35709534038E+03 -0.39606161795E+03  0.11933762563E+03  0.54646441442E+03  0.00000000000E+00 0. -1.
         -1    1    6    6    0  503 -0.44703173630E+03 -0.45619981318E+03  0.44710503016E+02  0.64027702745E+03  0.00000000000E+00 0.  1.
<mgrwt>
<rscale>  0 0.27556571E+04</rscale>
<asrwt>0</asrwt>
<pdfrwt beam="1">  1        2 0.23487514E+00 0.27556571E+04</pdfrwt>
<pdfrwt beam="2">  1       -1 0.19130511E+00 0.27556571E+04</pdfrwt>
<totfact> 0.21096950E+00</totfact>
</mgrwt>
</event>
<event>
12    6  0.1403409E-007  0.1219457E+04  0.7818608E-02  0.9095994E-01
          2   -1    0    0  501    0  0.00000000000E+00  0.00000000000E+00  0.71002684664E+03  0.71002684664E+03  0.00000000000E+00 0. -1.
         -1   -1    0    0    0  501 -0.00000000000E+00 -0.00000000000E+00 -0.52359833329E+03  0.52359833329E+03  0.00000000000E+00 0.  1.
         24    2    1    2    0    0  0.22012456887E+03  0.16062056162E+02 -0.11346068040E+03  0.25905531082E+03  0.74320337732E+02 0.  0.
        254    2    1    2    0    0 -0.22012456887E+03 -0.16062056162E+02  0.29988919376E+03  0.97456986910E+03  0.90063315826E+03 0.  0.
         23    2    4    4    0    0 -0.18212952044E+03 -0.23146212250E+03 -0.23656524744E+03  0.38799059250E+03  0.88474330763E+02 0.  0.
         23    2    4    4    0    0 -0.37995048431E+02  0.21540006634E+03  0.53645444120E+03  0.58657927660E+03  0.91929690398E+02 0.  0.
          2    1    3    3  502    0  0.42409603065E+02 -0.26150387405E+02 -0.18167591565E+02  0.53032806609E+02  0.00000000000E+00 0. -1.
         -1    1    3    3    0  502  0.17771496580E+03  0.42212443567E+02 -0.95293088839E+02  0.20602250422E+03  0.00000000000E+00 0.  1.
         11    1    5    5    0    0 -0.24057527194E+02 -0.80098888695E+02 -0.35712585288E+02  0.90939459712E+02  0.00000000000E+00 0. -1.
        -11    1    5    5    0    0 -0.15807199324E+03 -0.15136323380E+03 -0.20085266215E+03  0.29705113279E+03  0.00000000000E+00 0.  1.
          4    1    6    6  503    0 -0.12212820014E+02 -0.49056662850E+01  0.53967398695E+02  0.55549065306E+02  0.00000000000E+00 0. -1.
         -4    1    6    6    0  503 -0.25782228417E+02  0.22030573262E+03  0.48248704250E+03  0.53103021130E+03  0.00000000000E+00 0.  1.
<mgrwt>
<rscale>  0 0.12194570E+04</rscale>
<asrwt>0</asrwt>
<pdfrwt beam="1">  1        2 0.10923490E+00 0.12194570E+04</pdfrwt>
<pdfrwt beam="2">  1       -1 0.80553590E-01 0.12194570E+04</pdfrwt>
<totfact> 0.69650981E+01</totfact>
</mgrwt>
</event>
<event>
12    6  0.1403409E-007  0.1804783E+04  0.7818608E-02  0.8703760E-01
         -1   -1    0    0    0  501 -0.00000000000E+00  0.00000000000E+00  0.53002829373E+03  0.53002829373E+03  0.00000000000E+00 0.  1.
          2   -1    0    0  501    0  0.00000000000E+00 -0.00000000000E+00 -0.15363521467E+04  0.15363521467E+04  0.00000000000E+00 0. -1.
         24    2    1    2    0    0 -0.59650357755E+03 -0.31248836406E+03 -0.35085248487E+03  0.76351331702E+03  0.79935120080E+02 0.  0.
        254    2    1    2    0    0  0.59650357755E+03  0.31248836406E+03 -0.65547136813E+03  0.13028671234E+04  0.90241594134E+03 0.  0.
         23    2    4    4    0    0  0.44886906677E+03  0.61297191220E+03 -0.54211936563E+03  0.93774067000E+03  0.90808333026E+02 0.  0.
         23    2    4    4    0    0  0.14763451078E+03 -0.30048354814E+03 -0.11335200250E+03  0.36512645343E+03  0.91555114801E+02 0.  0.
          4    1    3    3  502    0 -0.13494653139E+03 -0.36753440177E+02 -0.85799941462E+02  0.16408233193E+03  0.00000000000E+00 0. -1.
         -3    1    3    3    0  502 -0.46155704616E+03 -0.27573492388E+03 -0.26505254341E+03  0.59943098508E+03  0.00000000000E+00 0.  1.
         11    1    5    5    0    0  0.19488159662E+03  0.28876114686E+03 -0.30169241047E+03  0.46084720588E+03  0.00000000000E+00 0.  1.
        -11    1    5    5    0    0  0.25398747015E+03  0.32421076534E+03 -0.24042695516E+03  0.47689346412E+03  0.00000000000E+00 0. -1.
          1    1    6    6  503    0  0.33647633660E+02 -0.16245471609E+03 -0.34170625058E+02  0.16938515179E+03  0.00000000000E+00 0. -1.
         -1    1    6    6    0  503  0.11398687712E+03 -0.13802883205E+03 -0.79181377445E+02  0.19574130164E+03  0.00000000000E+00 0.  1.
<mgrwt>
<rscale>  0 0.18047827E+04</rscale>
<asrwt>0</asrwt>
<pdfrwt beam="1">  1        2 0.23636187E+00 0.18047827E+04</pdfrwt>
<pdfrwt beam="2">  1       -1 0.81542814E-01 0.18047827E+04</pdfrwt>
<totfact> 0.19495808E+01</totfact>
</mgrwt>
</event>
<event>
12    6  0.1403409E-007  0.1518688E+04  0.7818608E-02  0.8872120E-01
         -1   -1    0    0    0  501 -0.00000000000E+00  0.00000000000E+00  0.55338326147E+03  0.55338326147E+03  0.00000000000E+00 0.  1.
          2   -1    0    0  501    0  0.00000000000E+00 -0.00000000000E+00 -0.10419603456E+04  0.10419603456E+04  0.00000000000E+00 0. -1.
         24    2    1    2    0    0  0.30624267711E+03  0.32438230566E+03  0.48013852016E+02  0.45564240918E+03  0.79348708552E+02 0.  0.
        254    2    1    2    0    0 -0.30624267711E+03 -0.32438230566E+03 -0.53659093619E+03  0.11397011979E+04  0.90109962284E+03 0.  0.
         23    2    4    4    0    0 -0.36566881616E+03 -0.36006442587E+03 -0.74049471561E+03  0.90568080295E+03  0.92548468962E+02 0.  0.
         23    2    4    4    0    0  0.59426139053E+02  0.35682120206E+02  0.20390377942E+03  0.23402039499E+03  0.91564809319E+02 0.  0.
          2    1    3    3  502    0  0.41869279382E+02  0.78938672841E+02 -0.11259427101E+02  0.90061786150E+02  0.00000000000E+00 0. -1.
         -1    1    3    3    0  502  0.26437339772E+03  0.24544363282E+03  0.59273279118E+02  0.36558062303E+03  0.00000000000E+00 0.  1.
         11    1    5    5    0    0 -0.75512825645E+02 -0.12292484853E+03 -0.24683003944E+03  0.28589818746E+03  0.00000000000E+00 0.  1.
        -11    1    5    5    0    0 -0.29015599051E+03 -0.23713957733E+03 -0.49366467617E+03  0.61978261549E+03  0.00000000000E+00 0. -1.
          2    1    6    6  503    0  0.28775658225E+02  0.22408625159E+02  0.19643794037E+03  0.19979501846E+03  0.00000000000E+00 0. -1.
         -2    1    6    6    0  503  0.30650480828E+02  0.13273495047E+02  0.74658390543E+01  0.34225376529E+02  0.00000000000E+00 0.  1.
<mgrwt>
<rscale>  0 0.15186881E+04</rscale>
<asrwt>0</asrwt>
<pdfrwt beam="1">  1        2 0.16030159E+00 0.15186881E+04</pdfrwt>
<pdfrwt beam="2">  1       -1 0.85135887E-01 0.15186881E+04</pdfrwt>
<totfact> 0.35572657E+01</totfact>
</mgrwt>
</event>
<event>
12    6  0.1403409E-007  0.4683543E+04  0.7818608E-02  0.7879269E-01
          2   -1    0    0  501    0  0.00000000000E+00  0.00000000000E+00  0.31798760829E+04  0.31798760829E+04  0.00000000000E+00 0. -1.
         -1   -1    0    0    0  501 -0.00000000000E+00 -0.00000000000E+00 -0.17245622948E+04  0.17245622948E+04  0.00000000000E+00 0.  1.
         24    2    1    2    0    0 -0.67914795713E+03  0.19066106154E+04 -0.33780944436E+03  0.20534929112E+04  0.79447652321E+02 0.  0.
        254    2    1    2    0    0  0.67914795713E+03 -0.19066106154E+04  0.17931232324E+04  0.28509454664E+04  0.90343408156E+03 0.  0.
         23    2    4    4    0    0  0.31817324275E+03 -0.10925205105E+03  0.48420815222E+03  0.59656174505E+03  0.90874407342E+02 0.  0.
         23    2    4    4    0    0  0.36097471437E+03 -0.17973585643E+04  0.13089150802E+04  0.22543837214E+04  0.90480511652E+02 0.  0.
          4    1    3    3  502    0 -0.35203898563E+03  0.90323245680E+03 -0.13378564361E+03  0.97860048889E+03  0.00000000000E+00 0. -1.
         -3    1    3    3    0  502 -0.32710897150E+03  0.10033781586E+04 -0.20402380075E+03  0.10748924224E+04  0.00000000000E+00 0.  1.
         11    1    5    5    0    0  0.28840449139E+03 -0.72783782907E+02  0.38296394999E+03  0.48490825597E+03  0.00000000000E+00 0. -1.
        -11    1    5    5    0    0  0.29768751365E+02 -0.36468268138E+02  0.10124420223E+03  0.11165348908E+03  0.00000000000E+00 0.  1.
          3    1    6    6  503    0  0.30851487619E+03 -0.16549562850E+04  0.11901722414E+04  0.20616914653E+04  0.00000000000E+00 0. -1.
         -3    1    6    6    0  503  0.52459838184E+02 -0.14240227936E+03  0.11874283876E+03  0.19269225606E+03  0.00000000000E+00 0.  1.
<mgrwt>
<rscale>  0 0.46835433E+04</rscale>
<asrwt>0</asrwt>
<pdfrwt beam="1">  1        2 0.48921170E+00 0.46835433E+04</pdfrwt>
<pdfrwt beam="2">  1       -1 0.26531728E+00 0.46835433E+04</pdfrwt>
<totfact> 0.62750824E-02</totfact>
</mgrwt>
</event>
<event>
12    6  0.1403409E-007  0.1575601E+04  0.7818608E-02  0.8835679E-01
         -1   -1    0    0    0  501 -0.00000000000E+00  0.00000000000E+00  0.28926844867E+03  0.28926844867E+03  0.00000000000E+00 0.  1.
          2   -1    0    0  501    0  0.00000000000E+00 -0.00000000000E+00 -0.21455134620E+04  0.21455134620E+04  0.00000000000E+00 0. -1.
         24    2    1    2    0    0 -0.41536348863E+02 -0.35275107448E+03 -0.12268391584E+04  0.12795389651E+04  0.76987360829E+02 0.  0.
        254    2    1    2    0    0  0.41536348863E+02  0.35275107448E+03 -0.62940585492E+03  0.11552429456E+04  0.90126352656E+03 0.  0.
         23    2    4    4    0    0  0.37686083211E+03  0.43570858935E+03 -0.25138660828E+03  0.63524908462E+03  0.92087518584E+02 0.  0.
         23    2    4    4    0    0 -0.33532448325E+03 -0.82957514873E+02 -0.37801924664E+03  0.51999386096E+03  0.90391405956E+02 0.  0.
          2    1    3    3  502    0  0.22653784432E+02 -0.74053386823E+02 -0.26047098805E+03  0.27173927516E+03  0.00000000000E+00 0. -1.
         -1    1    3    3    0  502 -0.64190133294E+02 -0.27869768766E+03 -0.96636817040E+03  0.10077996900E+04  0.00000000000E+00 0.  1.
         11    1    5    5    0    0  0.21212158632E+03  0.27146721323E+03 -0.19506061791E+03  0.39590233632E+03  0.00000000000E+00 0.  1.
        -11    1    5    5    0    0  0.16473924579E+03  0.16424137612E+03 -0.56325990372E+02  0.23934674831E+03  0.00000000000E+00 0. -1.
          3    1    6    6  503    0 -0.56666484169E+02 -0.34779562781E+02 -0.11996452570E+03  0.13715755846E+03  0.00000000000E+00 0. -1.
         -3    1    6    6    0  503 -0.27865799908E+03 -0.48177952091E+02 -0.25805472094E+03  0.38283630251E+03  0.00000000000E+00 0.  1.
<mgrwt>
<rscale>  0 0.15756006E+04</rscale>
<asrwt>0</asrwt>
<pdfrwt beam="1">  1        2 0.33007899E+00 0.15756006E+04</pdfrwt>
<pdfrwt beam="2">  1       -1 0.44502839E-01 0.15756006E+04</pdfrwt>
<totfact> 0.30335648E+01</totfact>
</mgrwt>
</event>
<event>
12    6  0.1403409E-007  0.2367635E+04  0.7818608E-02  0.8451721E-01
          2   -1    0    0  501    0  0.00000000000E+00  0.00000000000E+00  0.82771684692E+03  0.82771684692E+03  0.00000000000E+00 0. -1.
         -1   -1    0    0    0  501 -0.00000000000E+00 -0.00000000000E+00 -0.16931203458E+04  0.16931203458E+04  0.00000000000E+00 0.  1.
         24    2    1    2    0    0  0.16566391328E+03  0.25992129889E+03  0.65444602519E+03  0.72783928770E+03  0.80292060930E+02 0.  0.
        254    2    1    2    0    0 -0.16566391328E+03 -0.25992129889E+03 -0.15198495241E+04  0.17929979051E+04  0.89994183026E+03 0.  0.
         23    2    4    4    0    0  0.12576985231E+03 -0.17542970605E+03  0.82118615352E+01  0.23261871779E+03  0.86315674592E+02 0.  0.
         23    2    4    4    0    0 -0.29143376558E+03 -0.84491592843E+02 -0.15280613856E+04  0.15603791873E+04  0.87972386624E+02 0.  0.
          2    1    3    3  502    0  0.39049905129E+02  0.13456594528E+03  0.30170288035E+03  0.33265224594E+03  0.00000000000E+00 0. -1.
         -1    1    3    3    0  502  0.12661400815E+03  0.12535535361E+03  0.35274314485E+03  0.39518704176E+03  0.00000000000E+00 0.  1.
         11    1    5    5    0    0  0.23099419422E+02 -0.49046414136E+02 -0.34523680998E+02  0.64272999517E+02  0.00000000000E+00 0.  1.
        -11    1    5    5    0    0  0.10267043289E+03 -0.12638329191E+03  0.42735542533E+02  0.16834571827E+03  0.00000000000E+00 0. -1.
          3    1    6    6  503    0 -0.27730175432E+02 -0.38483744198E+02 -0.27274739150E+03  0.27684129166E+03  0.00000000000E+00 0. -1.
         -3    1    6    6    0  503 -0.26370359015E+03 -0.46007848644E+02 -0.12553139941E+04  0.12835378956E+04  0.00000000000E+00 0.  1.
<mgrwt>
<rscale>  0 0.23676353E+04</rscale>
<asrwt>0</asrwt>
<pdfrwt beam="1">  1        2 0.12734105E+00 0.23676353E+04</pdfrwt>
<pdfrwt beam="2">  1       -1 0.26048005E+00 0.23676353E+04</pdfrwt>
<totfact> 0.20160212E+00</totfact>
</mgrwt>
</event>
<event>
12    6  0.1403409E-007  0.1311178E+04  0.7818608E-02  0.9020747E-01
          2   -1    0    0  501    0  0.00000000000E+00  0.00000000000E+00  0.15633362484E+04  0.15633362484E+04  0.00000000000E+00 0. -1.
         -1   -1    0    0    0  501 -0.00000000000E+00 -0.00000000000E+00 -0.27492296199E+03  0.27492296199E+03  0.00000000000E+00 0.  1.
         24    2    1    2    0    0  0.74464363089E+01  0.77448258892E+02 -0.12226372137E+03  0.16505542185E+03  0.79001218344E+02 0.  0.
        254    2    1    2    0    0 -0.74464363089E+01 -0.77448258892E+02  0.14106770078E+04  0.16732037886E+04  0.89640817463E+03 0.  0.
         23    2    4    4    0    0 -0.40338918348E+03  0.13806645113E+03  0.76263304217E+03  0.87861146223E+03  0.92540619629E+02 0.  0.
         23    2    4    4    0    0  0.39594274717E+03 -0.21551471002E+03  0.64804396564E+03  0.79459232635E+03  0.90546863161E+02 0.  0.
          4    1    3    3  502    0 -0.19970790128E+02  0.71353511310E+02 -0.55351452696E+02  0.92487509158E+02  0.00000000000E+00 0. -1.
         -3    1    3    3    0  502  0.27417226437E+02  0.60947475824E+01 -0.66912268671E+02  0.72567912691E+02  0.00000000000E+00 0.  1.
         11    1    5    5    0    0 -0.20695576276E+02  0.19827275940E+02  0.20335127111E+02  0.35141786284E+02  0.00000000000E+00 0. -1.
        -11    1    5    5    0    0 -0.38269360720E+03  0.11823917519E+03  0.74229791506E+03  0.84346967595E+03  0.00000000000E+00 0.  1.
          1    1    6    6  503    0  0.39633567956E+02 -0.11747437564E+02  0.24424298574E+02  0.48014251624E+02  0.00000000000E+00 0. -1.
         -1    1    6    6    0  503  0.35630917921E+03 -0.20376727245E+03  0.62361966707E+03  0.74657807473E+03  0.00000000000E+00 0.  1.
<mgrwt>
<rscale>  0 0.13111781E+04</rscale>
<asrwt>0</asrwt>
<pdfrwt beam="1">  1        2 0.24051326E+00 0.13111781E+04</pdfrwt>
<pdfrwt beam="2">  1       -1 0.42295841E-01 0.13111781E+04</pdfrwt>
<totfact> 0.71694561E+01</totfact>
</mgrwt>
</event>
<event>
12    6  0.1403409E-007  0.3503087E+04  0.7818608E-02  0.8113059E-01
          2   -1    0    0  501    0  0.00000000000E+00  0.00000000000E+00  0.22680323311E+04  0.22680323311E+04  0.00000000000E+00 0. -1.
         -1   -1    0    0    0  501 -0.00000000000E+00 -0.00000000000E+00 -0.13526725196E+04  0.13526725196E+04  0.00000000000E+00 0.  1.
         24    2    1    2    0    0  0.56780424999E+03 -0.12265238086E+04 -0.52327776661E+03  0.14516685844E+04  0.82217628778E+02 0.  0.
        254    2    1    2    0    0 -0.56780424999E+03  0.12265238086E+04  0.14386375782E+04  0.21690362663E+04  0.89904278206E+03 0.  0.
         23    2    4    4    0    0 -0.53374811047E+03  0.23980379927E+03  0.31585241199E+03  0.67104060070E+03  0.90221028896E+02 0.  0.
         23    2    4    4    0    0 -0.34056139517E+02  0.98672000930E+03  0.11227851662E+04  0.14979956656E+04  0.92565044186E+02 0.  0.
          4    1    3    3  502    0  0.30234310805E+03 -0.69998507810E+03 -0.33325530633E+03  0.83213554410E+03  0.00000000000E+00 0. -1.
         -3    1    3    3    0  502  0.26546114194E+03 -0.52653873046E+03 -0.19002246028E+03  0.61953304026E+03  0.00000000000E+00 0.  1.
         11    1    5    5    0    0 -0.27621881464E+03  0.13271743346E+03  0.11489962539E+03  0.32728072754E+03  0.00000000000E+00 0.  1.
        -11    1    5    5    0    0 -0.25752929583E+03  0.10708636581E+03  0.20095278660E+03  0.34375987316E+03  0.00000000000E+00 0. -1.
          1    1    6    6  503    0  0.94275684803E+00  0.82038071596E+03  0.90047103596E+03  0.12181434622E+04  0.00000000000E+00 0. -1.
         -1    1    6    6    0  503 -0.34998896365E+02  0.16633929334E+03  0.22231413024E+03  0.27985220343E+03  0.00000000000E+00 0.  1.
<mgrwt>
<rscale>  0 0.35030872E+04</rscale>
<asrwt>0</asrwt>
<pdfrwt beam="1">  1        2 0.34892805E+00 0.35030872E+04</pdfrwt>
<pdfrwt beam="2">  1       -1 0.20810347E+00 0.35030872E+04</pdfrwt>
<totfact> 0.58463627E-01</totfact>
</mgrwt>
</event>
<event>
12    6  0.1403409E-007  0.1001571E+04  0.7818608E-02  0.9306824E-01
          2   -1    0    0  501    0  0.00000000000E+00  0.00000000000E+00  0.23544549968E+04  0.23544549968E+04  0.00000000000E+00 0. -1.
         -1   -1    0    0    0  501 -0.00000000000E+00 -0.00000000000E+00 -0.10651553656E+03  0.10651553656E+03  0.00000000000E+00 0.  1.
         24    2    1    2    0    0 -0.33773040722E+01 -0.13105750723E+00  0.82617569980E+02  0.11620663009E+03  0.81651054173E+02 0.  0.
        254    2    1    2    0    0  0.33773040722E+01  0.13105750723E+00  0.21653218903E+04  0.23447639033E+04  0.89960405194E+03 0.  0.
         23    2    4    4    0    0 -0.13854978774E+03  0.36925213359E+03  0.15904300645E+04  0.16412516717E+04  0.93252764491E+02 0.  0.
         23    2    4    4    0    0  0.14192709181E+03 -0.36912107608E+03  0.57489182584E+03  0.70351223160E+03  0.89639167760E+02 0.  0.
          2    1    3    3  502    0  0.45615196132E+01 -0.16005779144E+02  0.93775956137E+02  0.95241390039E+02  0.00000000000E+00 0. -1.
         -1    1    3    3    0  502 -0.79388236854E+01  0.15874721637E+02 -0.11158386157E+02  0.20965240046E+02  0.00000000000E+00 0.  1.
         11    1    5    5    0    0  0.93804652622E+01  0.41796494204E+02  0.24233705271E+03  0.24609385846E+03  0.00000000000E+00 0.  1.
        -11    1    5    5    0    0 -0.14793025300E+03  0.32745563939E+03  0.13480930118E+04  0.13951578132E+04  0.00000000000E+00 0. -1.
          1    1    6    6  503    0  0.12962945124E+03 -0.25134784423E+03  0.35616391111E+03  0.45478815398E+03  0.00000000000E+00 0. -1.
         -1    1    6    6    0  503  0.12297640574E+02 -0.11777323186E+03  0.21872791473E+03  0.24872407762E+03  0.00000000000E+00 0.  1.
<mgrwt>
<rscale>  0 0.10015708E+04</rscale>
<asrwt>0</asrwt>
<pdfrwt beam="1">  1        2 0.36222381E+00 0.10015708E+04</pdfrwt>
<pdfrwt beam="2">  1       -1 0.16387007E-01 0.10015708E+04</pdfrwt>
<totfact> 0.13795710E+02</totfact>
</mgrwt>
</event>
<event>
12    6  0.1403409E-007  0.2839476E+04  0.7818608E-02  0.8291116E-01
          2   -1    0    0  501    0  0.00000000000E+00  0.00000000000E+00  0.20760715556E+04  0.20760715556E+04  0.00000000000E+00 0. -1.
         -1   -1    0    0    0  501 -0.00000000000E+00 -0.00000000000E+00 -0.97089898006E+03  0.97089898006E+03  0.00000000000E+00 0.  1.
         24    2    1    2    0    0  0.29247579154E+03 -0.50513716427E+03  0.17117907126E+04  0.18103988357E+04  0.81307179109E+02 0.  0.
        254    2    1    2    0    0 -0.29247579154E+03  0.50513716427E+03 -0.60661813704E+03  0.12365716999E+04  0.90576948585E+03 0.  0.
         23    2    4    4    0    0 -0.53152984537E+03  0.34044946237E+02 -0.31494251761E+03  0.62545998392E+03  0.91259888247E+02 0.  0.
         23    2    4    4    0    0  0.23905405382E+03  0.47109221803E+03 -0.29167561943E+03  0.61111171601E+03  0.96478722686E+02 0.  0.
          2    1    3    3  502    0  0.15577803564E+03 -0.30690119385E+03  0.11131695463E+04  0.11651616102E+04  0.00000000000E+00 0. -1.
         -1    1    3    3    0  502  0.13669775590E+03 -0.19823597042E+03  0.59862116630E+03  0.64523722551E+03  0.00000000000E+00 0.  1.
         11    1    5    5    0    0 -0.89081777936E+02  0.28395630175E+02 -0.87004635261E+02  0.12771719356E+03  0.00000000000E+00 0. -1.
        -11    1    5    5    0    0 -0.44244806743E+03  0.56493160623E+01 -0.22793788235E+03  0.49774279036E+03  0.00000000000E+00 0.  1.
          2    1    6    6  503    0  0.49857968349E+02  0.13673931706E+03 -0.36942687558E+02  0.15016064732E+03  0.00000000000E+00 0. -1.
         -2    1    6    6    0  503  0.18919608547E+03  0.33435290097E+03 -0.25473293188E+03  0.46095106869E+03  0.00000000000E+00 0.  1.
<mgrwt>
<rscale>  0 0.28394758E+04</rscale>
<asrwt>0</asrwt>
<pdfrwt beam="1">  1        2 0.31939562E+00 0.28394758E+04</pdfrwt>
<pdfrwt beam="2">  1       -1 0.14936907E+00 0.28394758E+04</pdfrwt>
<totfact> 0.21095763E+00</totfact>
</mgrwt>
</event>
<event>
12    6  0.1403409E-007  0.1905054E+04  0.7818608E-02  0.8652345E-01
          2   -1    0    0  501    0  0.00000000000E+00  0.00000000000E+00  0.11413680965E+04  0.11413680965E+04  0.00000000000E+00 0. -1.
         -1   -1    0    0    0  501 -0.00000000000E+00 -0.00000000000E+00 -0.79493006300E+03  0.79493006300E+03  0.00000000000E+00 0.  1.
         24    2    1    2    0    0 -0.63686833853E+03 -0.34613264715E+03  0.26987089603E+03  0.77754835586E+03  0.79637021131E+02 0.  0.
        254    2    1    2    0    0  0.63686833853E+03  0.34613264715E+03  0.76567137434E+02  0.11587498036E+04  0.90079381147E+03 0.  0.
         23    2    4    4    0    0  0.10440039897E+03  0.83371163568E+02 -0.37410645556E+03  0.40775043218E+03  0.91948793527E+02 0.  0.
         23    2    4    4    0    0  0.53246793956E+03  0.26276148358E+03  0.45067359299E+03  0.75099937142E+03  0.91256038410E+02 0.  0.
          2    1    3    3  502    0 -0.28653479593E+03 -0.20100552903E+03  0.13024463816E+03  0.37345559007E+03  0.00000000000E+00 0. -1.
         -1    1    3    3    0  502 -0.35033354260E+03 -0.14512711812E+03  0.13962625786E+03  0.40409276579E+03  0.00000000000E+00 0.  1.
         11    1    5    5    0    0  0.45149497877E+02  0.83311325032E+02 -0.16357060492E+03  0.18903596703E+03  0.00000000000E+00 0. -1.
        -11    1    5    5    0    0  0.59250901095E+02  0.59838536877E-01 -0.21053585064E+03  0.21871446515E+03  0.00000000000E+00 0.  1.
          4    1    6    6  503    0  0.74159132795E+02  0.27832469990E+02  0.10161981194E+03  0.12884412886E+03  0.00000000000E+00 0. -1.
         -4    1    6    6    0  503  0.45830880676E+03  0.23492901359E+03  0.34905378105E+03  0.62215524257E+03  0.00000000000E+00 0.  1.
<mgrwt>
<rscale>  0 0.19050541E+04</rscale>
<asrwt>0</asrwt>
<pdfrwt beam="1">  1        2 0.17559509E+00 0.19050541E+04</pdfrwt>
<pdfrwt beam="2">  1       -1 0.12229693E+00 0.19050541E+04</pdfrwt>
<totfact> 0.12963506E+01</totfact>
</mgrwt>
</event>
<event>
12    6  0.1403409E-007  0.1439131E+04  0.7818608E-02  0.8925971E-01
         -1   -1    0    0    0  501 -0.00000000000E+00  0.00000000000E+00  0.33772489907E+03  0.33772489907E+03  0.00000000000E+00 0.  1.
          2   -1    0    0  501    0  0.00000000000E+00 -0.00000000000E+00 -0.15331246093E+04  0.15331246093E+04  0.00000000000E+00 0. -1.
         24    2    1    2    0    0 -0.39447952346E+03 -0.16105222759E+03 -0.44439131764E+03  0.62065279143E+03  0.78576904184E+02 0.  0.
        254    2    1    2    0    0  0.39447952346E+03  0.16105222759E+03 -0.75100839259E+03  0.12501967169E+04  0.90411631488E+03 0.  0.
         23    2    4    4    0    0  0.66739853450E+03  0.86337332486E+02 -0.64281053797E+03  0.93497960164E+03  0.90036264533E+02 0.  0.
         23    2    4    4    0    0 -0.27291901103E+03  0.74714895108E+02 -0.10819785462E+03  0.31521711529E+03  0.87108850826E+02 0.  0.
          4    1    3    3  502    0 -0.10371610597E+03 -0.39356073630E+02 -0.16863735003E+03  0.20185263682E+03  0.00000000000E+00 0. -1.
         -3    1    3    3    0  502 -0.29076341750E+03 -0.12169615396E+03 -0.27575396761E+03  0.41880015460E+03  0.00000000000E+00 0.  1.
         11    1    5    5    0    0  0.28257262133E+03  0.68954957681E+01 -0.31528663840E+03  0.42343889588E+03  0.00000000000E+00 0. -1.
        -11    1    5    5    0    0  0.38482591316E+03  0.79441836718E+02 -0.32752389957E+03  0.51154070576E+03  0.00000000000E+00 0.  1.
          4    1    6    6  503    0 -0.14846052578E+01  0.18812936449E+02 -0.85131114935E+01  0.20702746144E+02  0.00000000000E+00 0. -1.
         -4    1    6    6    0  503 -0.27143440578E+03  0.55901958660E+02 -0.99684743125E+02  0.29451436915E+03  0.00000000000E+00 0.  1.
<mgrwt>
<rscale>  0 0.14391308E+04</rscale>
<asrwt>0</asrwt>
<pdfrwt beam="1">  1        2 0.23586532E+00 0.14391308E+04</pdfrwt>
<pdfrwt beam="2">  1       -1 0.51957678E-01 0.14391308E+04</pdfrwt>
<totfact> 0.50142932E+01</totfact>
</mgrwt>
</event>
<event>
12    6  0.1403409E-007  0.2076888E+04  0.7818608E-02  0.8571493E-01
         -1   -1    0    0    0  501 -0.00000000000E+00  0.00000000000E+00  0.10490290289E+04  0.10490290289E+04  0.00000000000E+00 0.  1.
          2   -1    0    0  501    0  0.00000000000E+00 -0.00000000000E+00 -0.10279656629E+04  0.10279656629E+04  0.00000000000E+00 0. -1.
         24    2    1    2    0    0 -0.60767984072E+03 -0.58088239678E+03  0.78303554991E+02  0.84844966366E+03  0.83882282585E+02 0.  0.
        254    2    1    2    0    0  0.60767984072E+03  0.58088239678E+03 -0.57240189027E+02  0.12285450281E+04  0.89406224566E+03 0.  0.
         23    2    4    4    0    0 -0.18410966894E+02  0.46634288470E+03 -0.27468960730E+03  0.54950571000E+03  0.93206733422E+02 0.  0.
         23    2    4    4    0    0  0.62609080762E+03  0.11453951208E+03  0.21744941827E+03  0.67903931809E+03  0.93279937811E+02 0.  0.
          4    1    3    3  502    0 -0.15027703657E+02 -0.38966352117E+02  0.42985146576E+01  0.41984350689E+02  0.00000000000E+00 0. -1.
         -3    1    3    3    0  502 -0.59265213706E+03 -0.54191604466E+03  0.74005040333E+02  0.80646531297E+03  0.00000000000E+00 0.  1.
         11    1    5    5    0    0  0.27830839455E+01  0.41458939479E+03 -0.26680292961E+03  0.49302729648E+03  0.00000000000E+00 0. -1.
        -11    1    5    5    0    0 -0.21194050840E+02  0.51753489907E+02 -0.78866776910E+01  0.56478413519E+02  0.00000000000E+00 0.  1.
          3    1    6    6  503    0  0.19432338108E+02  0.15804361089E+02 -0.46997020826E+01  0.25484913056E+02  0.00000000000E+00 0.  1.
         -3    1    6    6    0  503  0.60665846951E+03  0.98735150988E+02  0.22214912035E+03  0.65355440503E+03  0.00000000000E+00 0. -1.
<mgrwt>
<rscale>  0 0.20768879E+04</rscale>
<asrwt>0</asrwt>
<pdfrwt beam="1">  1        2 0.15814856E+00 0.20768879E+04</pdfrwt>
<pdfrwt beam="2">  1       -1 0.16138908E+00 0.20768879E+04</pdfrwt>
<totfact> 0.72611559E+00</totfact>
</mgrwt>
</event>
<event>
12    6  0.1403409E-007  0.2761385E+04  0.7818608E-02  0.8315358E-01
          2   -1    0    0  501    0  0.00000000000E+00  0.00000000000E+00  0.51780812940E+03  0.51780812940E+03  0.00000000000E+00 0. -1.
         -1   -1    0    0    0  501 -0.00000000000E+00 -0.00000000000E+00 -0.36815020198E+04  0.36815020198E+04  0.00000000000E+00 0.  1.
         24    2    1    2    0    0  0.10290243137E+04 -0.47879110233E+03 -0.68315648183E+03  0.13271713725E+04  0.80926605609E+02 0.  0.
        254    2    1    2    0    0 -0.10290243137E+04  0.47879110233E+03 -0.24805374086E+04  0.28721387767E+04  0.89887894596E+03 0.  0.
         23    2    4    4    0    0 -0.47317398200E+03  0.36496485472E+03 -0.20936896296E+04  0.21793313694E+04  0.94106270582E+02 0.  0.
         23    2    4    4    0    0 -0.55585033168E+03  0.11382624760E+03 -0.38684777902E+03  0.69280740733E+03  0.91678207074E+02 0.  0.
          2    1    3    3  502    0  0.26279904545E+03 -0.16065077551E+03 -0.17450922853E+03  0.35401339071E+03  0.00000000000E+00 0. -1.
         -1    1    3    3    0  502  0.76622526823E+03 -0.31814032682E+03 -0.50864725330E+03  0.97315798179E+03  0.00000000000E+00 0.  1.
         11    1    5    5    0    0 -0.18874975786E+03  0.10673517618E+03 -0.87846273426E+03  0.90482906917E+03  0.00000000000E+00 0. -1.
        -11    1    5    5    0    0 -0.28442422414E+03  0.25822967855E+03 -0.12152268953E+04  0.12745023002E+04  0.00000000000E+00 0.  1.
          1    1    6    6  503    0 -0.52861613589E+03  0.11638044405E+03 -0.34197573893E+03  0.64025528728E+03  0.00000000000E+00 0. -1.
         -1    1    6    6    0  503 -0.27234195792E+02 -0.25541964509E+01 -0.44872040087E+02  0.52552120048E+02  0.00000000000E+00 0.  1.
<mgrwt>
<rscale>  0 0.27613849E+04</rscale>
<asrwt>0</asrwt>
<pdfrwt beam="1">  1        2 0.79662792E-01 0.27613849E+04</pdfrwt>
<pdfrwt beam="2">  1       -1 0.56638491E+00 0.27613849E+04</pdfrwt>
<totfact> 0.36079751E-02</totfact>
</mgrwt>
</event>
<event>
12    6  0.1403409E-007  0.2013604E+04  0.7818608E-02  0.8600287E-01
         -1   -1    0    0    0  501 -0.00000000000E+00  0.00000000000E+00  0.33062313134E+03  0.33062313134E+03  0.00000000000E+00 0.  1.
          2   -1    0    0  501    0  0.00000000000E+00 -0.00000000000E+00 -0.30658767891E+04  0.30658767891E+04  0.00000000000E+00 0. -1.
         24    2    1    2    0    0  0.64184206648E+03 -0.45447932746E+03 -0.13679593255E+04  0.15799630310E+04  0.80360224119E+02 0.  0.
        254    2    1    2    0    0 -0.64184206648E+03  0.45447932746E+03 -0.13672943322E+04  0.18165368894E+04  0.90099932429E+03 0.  0.
         23    2    4    4    0    0 -0.42703570669E+03  0.71571166558E+03 -0.86930088378E+03  0.12077055250E+04  0.90917135075E+02 0.  0.
         23    2    4    4    0    0 -0.21480635979E+03 -0.26123233812E+03 -0.49799344846E+03  0.60883136449E+03  0.91071669520E+02 0.  0.
          2    1    3    3  502    0  0.92812298312E+02 -0.10202035547E+03 -0.25251934812E+03  0.28772955501E+03  0.00000000000E+00 0. -1.
         -1    1    3    3    0  502  0.54902976817E+03 -0.35245897199E+03 -0.11154399774E+04  0.12922334760E+04  0.00000000000E+00 0.  1.
         11    1    5    5    0    0 -0.10699700390E+02  0.30951796024E+02 -0.13971421923E+02  0.35604745415E+02  0.00000000000E+00 0. -1.
        -11    1    5    5    0    0 -0.41633600630E+03  0.68475986955E+03 -0.85532946186E+03  0.11721007795E+04  0.00000000000E+00 0.  1.
          4    1    6    6  503    0 -0.68706527270E+02 -0.27277017195E+02 -0.92319299890E+02  0.11826865895E+03  0.00000000000E+00 0. -1.
         -4    1    6    6    0  503 -0.14609983252E+03 -0.23395532092E+03 -0.40567414857E+03  0.49056270554E+03  0.00000000000E+00 0.  1.
<mgrwt>
<rscale>  0 0.20136035E+04</rscale>
<asrwt>0</asrwt>
<pdfrwt beam="1">  1        2 0.47167337E+00 0.20136035E+04</pdfrwt>
<pdfrwt beam="2">  1       -1 0.50865095E-01 0.20136035E+04</pdfrwt>
<totfact> 0.65089671E+00</totfact>
</mgrwt>
</event>
<event>
12    6  0.1403409E-007  0.1331740E+04  0.7818608E-02  0.9004767E-01
         -1   -1    0    0    0  501 -0.00000000000E+00  0.00000000000E+00  0.33340552570E+03  0.33340552570E+03  0.00000000000E+00 0.  1.
          2   -1    0    0  501    0  0.00000000000E+00 -0.00000000000E+00 -0.13298601648E+04  0.13298601648E+04  0.00000000000E+00 0. -1.
         24    2    1    2    0    0 -0.32337813205E+03 -0.13778494693E+03 -0.33533954761E+03  0.49237145658E+03  0.80118232432E+02 0.  0.
        254    2    1    2    0    0  0.32337813205E+03  0.13778494693E+03 -0.66111509153E+03  0.11708942340E+04  0.90020110807E+03 0.  0.
         23    2    4    4    0    0  0.55282860790E+02  0.26675448277E+03 -0.78528941601E+03  0.83622942895E+03  0.91575335998E+02 0.  0.
         23    2    4    4    0    0  0.26809527126E+03 -0.12896953584E+03  0.12417432448E+03  0.33466480501E+03  0.89850170857E+02 0.  0.
          2    1    3    3  502    0 -0.29992266253E+03 -0.10458803862E+03 -0.31323063055E+03  0.44610053713E+03  0.00000000000E+00 0. -1.
         -1    1    3    3    0  502 -0.23455469527E+02 -0.33196908313E+02 -0.22108917067E+02  0.46270919444E+02  0.00000000000E+00 0.  1.
         11    1    5    5    0    0  0.73162055563E+02  0.15578425513E+03 -0.53127401895E+03  0.55845635795E+03  0.00000000000E+00 0.  1.
        -11    1    5    5    0    0 -0.17879194773E+02  0.11097022764E+03 -0.25401539706E+03  0.27777307100E+03  0.00000000000E+00 0. -1.
          1    1    6    6  503    0  0.18710273356E+03 -0.10817969266E+03  0.47650426596E+02  0.22131615839E+03  0.00000000000E+00 0. -1.
         -1    1    6    6    0  503  0.80992537701E+02 -0.20789843184E+02  0.76523897886E+02  0.11334864662E+03  0.00000000000E+00 0.  1.
<mgrwt>
<rscale>  0 0.13317398E+04</rscale>
<asrwt>0</asrwt>
<pdfrwt beam="1">  1        2 0.20459387E+00 0.13317398E+04</pdfrwt>
<pdfrwt beam="2">  1       -1 0.51293158E-01 0.13317398E+04</pdfrwt>
<totfact> 0.67669223E+01</totfact>
</mgrwt>
</event>
<event>
12    6  0.1403409E-007  0.2358662E+04  0.7818608E-02  0.8455144E-01
          2   -1    0    0  501    0  0.00000000000E+00  0.00000000000E+00  0.33590197673E+04  0.33590197673E+04  0.00000000000E+00 0. -1.
         -1   -1    0    0    0  501 -0.00000000000E+00 -0.00000000000E+00 -0.41405573968E+03  0.41405573968E+03  0.00000000000E+00 0.  1.
         24    2    1    2    0    0 -0.56621740741E+03  0.57713802086E+03  0.22179998123E+04  0.23621034249E+04  0.79491980616E+02 0.  0.
        254    2    1    2    0    0  0.56621740741E+03 -0.57713802086E+03  0.72696421534E+03  0.14109720821E+04  0.89926347559E+03 0.  0.
         23    2    4    4    0    0 -0.23751348542E+03 -0.14884036020E+03  0.18607820929E+03  0.34773762040E+03  0.87921806676E+02 0.  0.
         23    2    4    4    0    0  0.80373089282E+03 -0.42829766066E+03  0.54088600604E+03  0.10632344617E+04  0.92128251974E+02 0.  0.
          4    1    3    3  502    0 -0.21470305121E+03  0.23141444587E+03  0.75815523852E+03  0.82124869050E+03  0.00000000000E+00 0. -1.
         -3    1    3    3    0  502 -0.35151435619E+03  0.34572357499E+03  0.14598445738E+04  0.15408547344E+04  0.00000000000E+00 0.  1.
         11    1    5    5    0    0 -0.19829580323E+03 -0.78901022709E+02  0.14035053767E+03  0.25543075458E+03  0.00000000000E+00 0. -1.
        -11    1    5    5    0    0 -0.39217682190E+02 -0.69939337495E+02  0.45727671620E+02  0.92306865819E+02  0.00000000000E+00 0.  1.
          1    1    6    6  503    0  0.49527033196E+03 -0.21902171662E+03  0.29483056368E+03  0.61659409286E+03  0.00000000000E+00 0. -1.
         -1    1    6    6    0  503  0.30846056086E+03 -0.20927594404E+03  0.24605544236E+03  0.44664036884E+03  0.00000000000E+00 0.  1.
<mgrwt>
<rscale>  0 0.23586618E+04</rscale>
<asrwt>0</asrwt>
<pdfrwt beam="1">  1        2 0.51677225E+00 0.23586618E+04</pdfrwt>
<pdfrwt beam="2">  1       -1 0.63700885E-01 0.23586618E+04</pdfrwt>
<totfact> 0.26122121E+00</totfact>
</mgrwt>
</event>
<event>
12    6  0.1403409E-007  0.2052598E+04  0.7818608E-02  0.8582417E-01
          2   -1    0    0  501    0  0.00000000000E+00  0.00000000000E+00  0.86522826100E+03  0.86522826100E+03  0.00000000000E+00 0. -1.
         -1   -1    0    0    0  501 -0.00000000000E+00 -0.00000000000E+00 -0.12173548655E+04  0.12173548655E+04  0.00000000000E+00 0.  1.
         24    2    1    2    0    0 -0.66027038756E+03 -0.40231825525E+03 -0.44207416955E+03  0.89416714525E+03  0.79299111381E+02 0.  0.
        254    2    1    2    0    0  0.66027038756E+03  0.40231825525E+03  0.89947565099E+02  0.11884159812E+04  0.89801170189E+03 0.  0.
         23    2    4    4    0    0  0.19222098352E+03 -0.10660273286E+03  0.36753663395E+03  0.43794361379E+03  0.91642688779E+02 0.  0.
         23    2    4    4    0    0  0.46804940404E+03  0.50892098811E+03 -0.27758906885E+03  0.75047236742E+03  0.89901425763E+02 0.  0.
          2    1    3    3  502    0 -0.34000506777E+02 -0.43092725570E+01 -0.10969763569E+02  0.35985274819E+02  0.00000000000E+00 0. -1.
         -1    1    3    3    0  502 -0.62626988078E+03 -0.39800898270E+03 -0.43110440599E+03  0.85818187043E+03  0.00000000000E+00 0.  1.
         11    1    5    5    0    0 -0.26365847821E+01 -0.25978006960E+02  0.55446016798E+02  0.61286778376E+02  0.00000000000E+00 0. -1.
        -11    1    5    5    0    0  0.19485756830E+03 -0.80624725900E+02  0.31209061715E+03  0.37665683541E+03  0.00000000000E+00 0.  1.
          3    1    6    6  503    0  0.15511220488E+03  0.18242624019E+03 -0.51806192414E+02  0.24499594035E+03  0.00000000000E+00 0. -1.
         -3    1    6    6    0  503  0.31293719916E+03  0.32649474792E+03 -0.22578287643E+03  0.50547642707E+03  0.00000000000E+00 0.  1.
<mgrwt>
<rscale>  0 0.20525982E+04</rscale>
<asrwt>0</asrwt>
<pdfrwt beam="1">  1        2 0.13311204E+00 0.20525982E+04</pdfrwt>
<pdfrwt beam="2">  1       -1 0.18728536E+00 0.20525982E+04</pdfrwt>
<totfact> 0.60369470E+00</totfact>
</mgrwt>
</event>
<event>
12    6  0.1403409E-007  0.1675226E+04  0.7818608E-02  0.8775621E-01
          2   -1    0    0  501    0  0.00000000000E+00  0.00000000000E+00  0.65506861667E+03  0.65506861667E+03  0.00000000000E+00 0. -1.
         -1   -1    0    0    0  501 -0.00000000000E+00 -0.00000000000E+00 -0.10710260132E+04  0.10710260132E+04  0.00000000000E+00 0.  1.
         24    2    1    2    0    0  0.21356583478E+03  0.33916997152E+03  0.30068914147E+03  0.50728698566E+03  0.79243237292E+02 0.  0.
        254    2    1    2    0    0 -0.21356583478E+03 -0.33916997152E+03 -0.71664653798E+03  0.12188076442E+04  0.90070149204E+03 0.  0.
         23    2    4    4    0    0 -0.25217144582E+03  0.20082616932E+03 -0.26124008934E+02  0.33643624274E+03  0.92656857350E+02 0.  0.
         23    2    4    4    0    0  0.38605611039E+02 -0.53999614084E+03 -0.69052252905E+03  0.88237140144E+03  0.93121971833E+02 0.  0.
          2    1    3    3  502    0  0.11339526010E+03  0.23652886022E+03  0.22235029511E+03  0.34386631190E+03  0.00000000000E+00 0. -1.
         -1    1    3    3    0  502  0.10017057468E+03  0.10264111130E+03  0.78338846365E+02  0.16342067375E+03  0.00000000000E+00 0.  1.
         11    1    5    5    0    0 -0.14936556373E+03  0.16866763768E+03  0.12241090806E+01  0.22530055941E+03  0.00000000000E+00 0.  1.
        -11    1    5    5    0    0 -0.10280588209E+03  0.32158531649E+02 -0.27348118015E+02  0.11113568333E+03  0.00000000000E+00 0. -1.
          1    1    6    6  503    0  0.47339762206E+02 -0.30721419912E+03 -0.45558878856E+03  0.55152766158E+03  0.00000000000E+00 0. -1.
         -1    1    6    6    0  503 -0.87341511670E+01 -0.23278194172E+03 -0.23493374049E+03  0.33084373986E+03  0.00000000000E+00 0.  1.
<mgrwt>
<rscale>  0 0.16752260E+04</rscale>
<asrwt>0</asrwt>
<pdfrwt beam="1">  1        2 0.10077979E+00 0.16752260E+04</pdfrwt>
<pdfrwt beam="2">  1       -1 0.16477323E+00 0.16752260E+04</pdfrwt>
<totfact> 0.13045723E+01</totfact>
</mgrwt>
</event>
<event>
12    6  0.1403409E-007  0.5077125E+04  0.7818608E-02  0.7816719E-01
          2   -1    0    0  501    0  0.00000000000E+00  0.00000000000E+00  0.20390896611E+04  0.20390896611E+04  0.00000000000E+00 0. -1.
         -1   -1    0    0    0  501 -0.00000000000E+00 -0.00000000000E+00 -0.31603805629E+04  0.31603805629E+04  0.00000000000E+00 0.  1.
         24    2    1    2    0    0 -0.30141695587E+02 -0.23401557504E+04  0.22664982038E+03  0.23525653510E+04  0.77175980258E+02 0.  0.
        254    2    1    2    0    0  0.30141695587E+02  0.23401557504E+04 -0.13479407222E+04  0.28469048730E+04  0.90038086820E+03 0.  0.
         23    2    4    4    0    0 -0.14802287430E+03  0.22099192006E+04 -0.13760222661E+04  0.26090897745E+04  0.90876455224E+02 0.  0.
         23    2    4    4    0    0  0.17816456989E+03  0.13023654976E+03  0.28081543933E+02  0.23781509852E+03  0.84043293124E+02 0.  0.
          4    1    3    3  502    0 -0.19597812280E+02 -0.15613871038E+04  0.18771736907E+03  0.15727528645E+04  0.00000000000E+00 0. -1.
         -3    1    3    3    0  502 -0.10543883307E+02 -0.77876864653E+03  0.38932451305E+02  0.77981248648E+03  0.00000000000E+00 0.  1.
         11    1    5    5    0    0 -0.15139692008E+03  0.21992637935E+04 -0.13743424224E+04  0.25977873960E+04  0.00000000000E+00 0.  1.
        -11    1    5    5    0    0  0.33740457789E+01  0.10655407065E+02 -0.16798437415E+01  0.11302378494E+02  0.00000000000E+00 0. -1.
          3    1    6    6  503    0  0.34874293662E+01  0.14418285370E+02 -0.17897299696E+02  0.23245697516E+02  0.00000000000E+00 0. -1.
         -3    1    6    6    0  503  0.17467714052E+03  0.11581826439E+03  0.45978843629E+02  0.21456940101E+03  0.00000000000E+00 0.  1.
<mgrwt>
<rscale>  0 0.50771249E+04</rscale>
<asrwt>0</asrwt>
<pdfrwt beam="1">  1        2 0.31370610E+00 0.50771249E+04</pdfrwt>
<pdfrwt beam="2">  1       -1 0.48621240E+00 0.50771249E+04</pdfrwt>
<totfact> 0.96631452E-03</totfact>
</mgrwt>
</event>
<event>
12    6  0.1403409E-007  0.1191046E+04  0.7818608E-02  0.9120730E-01
         -1   -1    0    0    0  501 -0.00000000000E+00  0.00000000000E+00  0.41076157164E+03  0.41076157164E+03  0.00000000000E+00 0.  1.
          2   -1    0    0  501    0  0.00000000000E+00 -0.00000000000E+00 -0.86339039144E+03  0.86339039144E+03  0.00000000000E+00 0. -1.
         24    2    1    2    0    0 -0.17795614718E+03 -0.13582740566E+03 -0.20816665916E+03  0.31558534712E+03  0.78379071699E+02 0.  0.
        254    2    1    2    0    0  0.17795614718E+03  0.13582740566E+03 -0.24446216064E+03  0.95856661596E+03  0.89942800424E+03 0.  0.
         23    2    4    4    0    0  0.41573819507E+03 -0.12685943363E+03 -0.36330985609E+03  0.57381379270E+03  0.91305281449E+02 0.  0.
         23    2    4    4    0    0 -0.23778204789E+03  0.26268683930E+03  0.11884769545E+03  0.38475282326E+03  0.91461918053E+02 0.  0.
          2    1    3    3  502    0 -0.23035752896E+02 -0.36853830885E+01 -0.58190794407E+02  0.62692874505E+02  0.00000000000E+00 0. -1.
         -3    1    3    3    0  502 -0.15492039428E+03 -0.13214202258E+03 -0.14997586476E+03  0.25289247261E+03  0.00000000000E+00 0.  1.
         11    1    5    5    0    0  0.36431535154E+03 -0.81215646971E+02 -0.32604000552E+03  0.49560442076E+03  0.00000000000E+00 0. -1.
        -11    1    5    5    0    0  0.51422843532E+02 -0.45643786660E+02 -0.37269850569E+02  0.78209371938E+02  0.00000000000E+00 0.  1.
          2    1    6    6  503    0 -0.14963713668E+03  0.11677889201E+03  0.96171504326E+02  0.21278519811E+03  0.00000000000E+00 0. -1.
         -2    1    6    6    0  503 -0.88144911216E+02  0.14590794729E+03  0.22676191123E+02  0.17196762515E+03  0.00000000000E+00 0.  1.
<mgrwt>
<rscale>  0 0.11910459E+04</rscale>
<asrwt>0</asrwt>
<pdfrwt beam="1">  1        2 0.13282929E+00 0.11910459E+04</pdfrwt>
<pdfrwt beam="2">  1       -1 0.63194089E-01 0.11910459E+04</pdfrwt>
<totfact> 0.88914491E+01</totfact>
</mgrwt>
</event>
<event>
12    6  0.1403409E-007  0.2555324E+04  0.7818608E-02  0.8383537E-01
         -1   -1    0    0    0  501 -0.00000000000E+00  0.00000000000E+00  0.85239314367E+03  0.85239314367E+03  0.00000000000E+00 0.  1.
          2   -1    0    0  501    0  0.00000000000E+00 -0.00000000000E+00 -0.19151022850E+04  0.19151022850E+04  0.00000000000E+00 0. -1.
         24    2    1    2    0    0 -0.17773450796E+03 -0.10187872812E+04 -0.24509783399E+02  0.10375364985E+04  0.79775790646E+02 0.  0.
        254    2    1    2    0    0  0.17773450796E+03  0.10187872812E+04 -0.10381993579E+04  0.17299589301E+04  0.91944706946E+03 0.  0.
         23    2    4    4    0    0  0.40863896792E+03  0.10471078236E+04 -0.78429655341E+03  0.13735725494E+04  0.90331968319E+02 0.  0.
         23    2    4    4    0    0 -0.23090445996E+03 -0.28320542446E+02 -0.25390280450E+03  0.35638638068E+03  0.91791587037E+02 0.  0.
          4    1    3    3  502    0 -0.25167040343E+02 -0.26650968692E+03 -0.34283023313E+02  0.26988167561E+03  0.00000000000E+00 0. -1.
         -3    1    3    3    0  502 -0.15256746762E+03 -0.75227759423E+03  0.97732399136E+01  0.76765482293E+03  0.00000000000E+00 0.  1.
         11    1    5    5    0    0  0.13353223596E+03  0.27117024415E+03 -0.17401727336E+03  0.34877811109E+03  0.00000000000E+00 0.  1.
        -11    1    5    5    0    0  0.27510673196E+03  0.77593757945E+03 -0.61027928005E+03  0.10247944383E+04  0.00000000000E+00 0. -1.
          4    1    6    6  503    0 -0.13454168244E+02 -0.11381874137E+02 -0.66594879572E+02  0.68887151830E+02  0.00000000000E+00 0. -1.
         -4    1    6    6    0  503 -0.21745029171E+03 -0.16938668309E+02 -0.18730792493E+03  0.28749922885E+03  0.00000000000E+00 0.  1.
<mgrwt>
<rscale>  0 0.25553239E+04</rscale>
<asrwt>0</asrwt>
<pdfrwt beam="1">  1        2 0.29463112E+00 0.25553239E+04</pdfrwt>
<pdfrwt beam="2">  1       -1 0.13113741E+00 0.25553239E+04</pdfrwt>
<totfact> 0.37329796E+00</totfact>
</mgrwt>
</event>
<event>
12    6  0.1403409E-007  0.2766839E+04  0.7818608E-02  0.8313638E-01
         -1   -1    0    0    0  501 -0.00000000000E+00  0.00000000000E+00  0.11376935027E+04  0.11376935027E+04  0.00000000000E+00 0.  1.
          2   -1    0    0  501    0  0.00000000000E+00 -0.00000000000E+00 -0.16822193828E+04  0.16822193828E+04  0.00000000000E+00 0. -1.
         24    2    1    2    0    0 -0.53675527761E+03 -0.11113539353E+04 -0.18008706063E+03  0.12494071158E+04  0.73300709387E+02 0.  0.
        254    2    1    2    0    0  0.53675527761E+03  0.11113539353E+04 -0.36443881949E+03  0.15705057698E+04  0.90025492066E+03 0.  0.
         23    2    4    4    0    0  0.30254515740E+02  0.98005270748E+03 -0.32867569348E+03  0.10380603172E+04  0.90126941151E+02 0.  0.
         23    2    4    4    0    0  0.50650076187E+03  0.13130122784E+03 -0.35763126008E+02  0.53244545257E+03  0.91848378190E+02 0.  0.
          4    1    3    3  502    0 -0.32079205996E+02 -0.11626481132E+03 -0.17430067616E+02  0.12186217242E+03  0.00000000000E+00 0. -1.
         -3    1    3    3    0  502 -0.50467607161E+03 -0.99508912400E+03 -0.16265699301E+03  0.11275449434E+04  0.00000000000E+00 0.  1.
         11    1    5    5    0    0  0.48240427005E+02  0.91065260100E+03 -0.31680412282E+03  0.96539119052E+03  0.00000000000E+00 0.  1.
        -11    1    5    5    0    0 -0.17985911265E+02  0.69400106481E+02 -0.11871570661E+02  0.72669126688E+02  0.00000000000E+00 0. -1.
          4    1    6    6  503    0  0.50468805336E+03  0.13476018250E+03 -0.43088646714E+02  0.52414403504E+03  0.00000000000E+00 0.  1.
         -4    1    6    6    0  503  0.18127085143E+01 -0.34589546619E+01  0.73255207057E+01  0.83014175368E+01  0.00000000000E+00 0. -1.
<mgrwt>
<rscale>  0 0.27668394E+04</rscale>
<asrwt>0</asrwt>
<pdfrwt beam="1">  1        2 0.25880298E+00 0.27668394E+04</pdfrwt>
<pdfrwt beam="2">  1       -1 0.17502977E+00 0.27668394E+04</pdfrwt>
<totfact> 0.22530216E+00</totfact>
</mgrwt>
</event>
<event>
12    6  0.1403409E-007  0.1725856E+04  0.7818608E-02  0.8746753E-01
         -1   -1    0    0    0  501 -0.00000000000E+00  0.00000000000E+00  0.55272301973E+03  0.55272301973E+03  0.00000000000E+00 0.  1.
          2   -1    0    0  501    0  0.00000000000E+00 -0.00000000000E+00 -0.13472298608E+04  0.13472298608E+04  0.00000000000E+00 0. -1.
         24    2    1    2    0    0 -0.24743772615E+03 -0.55293142109E+03 -0.12112720958E+03  0.62289738592E+03  0.79817089234E+02 0.  0.
        254    2    1    2    0    0  0.24743772615E+03  0.55293142109E+03 -0.67337963144E+03  0.12770554946E+04  0.90026219704E+03 0.  0.
         23    2    4    4    0    0 -0.30406598692E+03  0.20409341591E+03 -0.43769813353E+03  0.57746958190E+03  0.88211196026E+02 0.  0.
         23    2    4    4    0    0  0.55150371306E+03  0.34883800518E+03 -0.23568149791E+03  0.69958591267E+03  0.89612395174E+02 0.  0.
          2    1    3    3  502    0 -0.19486557827E+03 -0.38510880026E+03 -0.11616640000E+03  0.44696310152E+03  0.00000000000E+00 0. -1.
         -1    1    3    3    0  502 -0.52572147878E+02 -0.16782262083E+03 -0.49608095791E+01  0.17593428440E+03  0.00000000000E+00 0.  1.
         11    1    5    5    0    0 -0.16751926714E+03  0.15813623658E+03 -0.23806210670E+03  0.33127532481E+03  0.00000000000E+00 0.  1.
        -11    1    5    5    0    0 -0.13654671978E+03  0.45957179328E+02 -0.19963602683E+03  0.24619425708E+03  0.00000000000E+00 0. -1.
          3    1    6    6  503    0  0.12537997184E+03  0.12120559441E+03 -0.81286625608E+02  0.19240179042E+03  0.00000000000E+00 0. -1.
         -3    1    6    6    0  503  0.42612374123E+03  0.22763241077E+03 -0.15439487230E+03  0.50718412225E+03  0.00000000000E+00 0.  1.
<mgrwt>
<rscale>  0 0.17258563E+04</rscale>
<asrwt>0</asrwt>
<pdfrwt beam="1">  1        2 0.20726613E+00 0.17258563E+04</pdfrwt>
<pdfrwt beam="2">  1       -1 0.85034312E-01 0.17258563E+04</pdfrwt>
<totfact> 0.22979578E+01</totfact>
</mgrwt>
</event>
<event>
12    6  0.1403409E-007  0.3380750E+04  0.7818608E-02  0.8142647E-01
         -1   -1    0    0    0  501 -0.00000000000E+00  0.00000000000E+00  0.13296646514E+04  0.13296646514E+04  0.00000000000E+00 0.  1.
          2   -1    0    0  501    0  0.00000000000E+00 -0.00000000000E+00 -0.21489381104E+04  0.21489381104E+04  0.00000000000E+00 0. -1.
         24    2    1    2    0    0 -0.44346352095E+03  0.10107593569E+04  0.76697865505E+03  0.13464267758E+04  0.79463407948E+02 0.  0.
        254    2    1    2    0    0  0.44346352095E+03 -0.10107593569E+04 -0.15862521140E+04  0.21321759861E+04  0.90093523316E+03 0.  0.
         23    2    4    4    0    0  0.17772804384E+03 -0.79726242249E+03 -0.43921969159E+03  0.93211296995E+03  0.93306073675E+02 0.  0.
         23    2    4    4    0    0  0.26573547711E+03 -0.21349693440E+03 -0.11470324224E+04  0.12000630161E+04  0.90948225607E+02 0.  0.
          4    1    3    3  502    0 -0.30666313666E+03  0.66937005889E+03  0.46766601850E+03  0.87224426624E+03  0.00000000000E+00 0. -1.
         -3    1    3    3    0  502 -0.13680038429E+03  0.34138929801E+03  0.29931263655E+03  0.47418250952E+03  0.00000000000E+00 0.  1.
         11    1    5    5    0    0  0.15377156478E+03 -0.74400851606E+03 -0.38202528667E+03  0.85037502654E+03  0.00000000000E+00 0.  1.
        -11    1    5    5    0    0  0.23956479058E+02 -0.53253906431E+02 -0.57194404917E+02  0.81737943409E+02  0.00000000000E+00 0. -1.
          3    1    6    6  503    0  0.12428776939E+02 -0.10917582723E+02 -0.14493696749E+02  0.21993984499E+02  0.00000000000E+00 0. -1.
         -3    1    6    6    0  503  0.25330670017E+03 -0.20257935168E+03 -0.11325387257E+04  0.11780690316E+04  0.00000000000E+00 0.  1.
<mgrwt>
<rscale>  0 0.33807496E+04</rscale>
<asrwt>0</asrwt>
<pdfrwt beam="1">  1        2 0.33060586E+00 0.33807496E+04</pdfrwt>
<pdfrwt beam="2">  1       -1 0.20456379E+00 0.33807496E+04</pdfrwt>
<totfact> 0.72875089E-01</totfact>
</mgrwt>
</event>
<event>
12    6  0.1403409E-007  0.2255598E+04  0.7818608E-02  0.8495637E-01
          2   -1    0    0  501    0  0.00000000000E+00  0.00000000000E+00  0.14695531138E+04  0.14695531138E+04  0.00000000000E+00 0. -1.
         -1   -1    0    0    0  501 -0.00000000000E+00 -0.00000000000E+00 -0.86552207863E+03  0.86552207863E+03  0.00000000000E+00 0.  1.
         24    2    1    2    0    0 -0.93202009768E+03 -0.33882869215E+02  0.42120628437E+03  0.10265363183E+04  0.80947930880E+02 0.  0.
        254    2    1    2    0    0  0.93202009768E+03  0.33882869215E+02  0.18282475075E+03  0.13085388741E+04  0.89946627740E+03 0.  0.
         23    2    4    4    0    0  0.77722359231E+03  0.39657095620E+03  0.21299676116E+03  0.90308154420E+03  0.94040520380E+02 0.  0.
         23    2    4    4    0    0  0.15479650537E+03 -0.36268808698E+03 -0.30172010403E+02  0.40545732988E+03  0.89334705607E+02 0.  0.
          4    1    3    3  502    0 -0.89693274311E+03 -0.17286573646E+02  0.40817030646E+03  0.98559127957E+03  0.00000000000E+00 0. -1.
         -3    1    3    3    0  502 -0.35087354567E+02 -0.16596295570E+02  0.13035977911E+02  0.40945038738E+02  0.00000000000E+00 0.  1.
         11    1    5    5    0    0  0.77128502166E+02  0.35744418363E+02 -0.70784364328E+01  0.85302834378E+02  0.00000000000E+00 0. -1.
        -11    1    5    5    0    0  0.70009509014E+03  0.36082653783E+03  0.22007519759E+03  0.81777870982E+03  0.00000000000E+00 0.  1.
          2    1    6    6  503    0 -0.77512260786E+01 -0.32363504491E+02  0.10906394309E+02  0.35020384999E+02  0.00000000000E+00 0. -1.
         -2    1    6    6    0  503  0.16254773145E+03 -0.33032458249E+03 -0.41078404712E+02  0.37043694488E+03  0.00000000000E+00 0.  1.
<mgrwt>
<rscale>  0 0.22555981E+04</rscale>
<asrwt>0</asrwt>
<pdfrwt beam="1">  1        2 0.22608509E+00 0.22555981E+04</pdfrwt>
<pdfrwt beam="2">  1       -1 0.13315724E+00 0.22555981E+04</pdfrwt>
<totfact> 0.65330185E+00</totfact>
</mgrwt>
</event>
<event>
12    6  0.1403409E-007  0.2772108E+04  0.7818608E-02  0.8311980E-01
          2   -1    0    0  501    0  0.00000000000E+00  0.00000000000E+00  0.20909670327E+04  0.20909670327E+04  0.00000000000E+00 0. -1.
         -1   -1    0    0    0  501 -0.00000000000E+00 -0.00000000000E+00 -0.91878310184E+03  0.91878310184E+03  0.00000000000E+00 0.  1.
         24    2    1    2    0    0 -0.31690454829E+03  0.11620804451E+04  0.83775337548E+03  0.14694038697E+04  0.80358949144E+02 0.  0.
        254    2    1    2    0    0  0.31690454829E+03 -0.11620804451E+04  0.33443055540E+03  0.15403462648E+04  0.89997964738E+03 0.  0.
         23    2    4    4    0    0  0.52781664473E+03 -0.32745057896E+03  0.22967571035E+03  0.66823251144E+03  0.89271861789E+02 0.  0.
         23    2    4    4    0    0 -0.21091209644E+03 -0.83462986610E+03  0.10475484504E+03  0.87211375340E+03  0.92292445479E+02 0.  0.
          4    1    3    3  502    0 -0.16481371772E+02  0.13407283629E+03  0.11428178918E+03  0.17693922229E+03  0.00000000000E+00 0. -1.
         -3    1    3    3    0  502 -0.30042317652E+03  0.10280076088E+04  0.72347158630E+03  0.12924646474E+04  0.00000000000E+00 0.  1.
         11    1    5    5    0    0  0.19050772616E+03 -0.77090851796E+02  0.51030222162E+02  0.21175522835E+03  0.00000000000E+00 0. -1.
        -11    1    5    5    0    0  0.33730891856E+03 -0.25035972717E+03  0.17864548819E+03  0.45647728309E+03  0.00000000000E+00 0.  1.
          3    1    6    6  503    0 -0.46437924937E+02 -0.36615544898E+03  0.35326295895E+02  0.37077518912E+03  0.00000000000E+00 0. -1.
         -3    1    6    6    0  503 -0.16447417150E+03 -0.46847441712E+03  0.69428549150E+02  0.50133856427E+03  0.00000000000E+00 0.  1.
<mgrwt>
<rscale>  0 0.27721076E+04</rscale>
<asrwt>0</asrwt>
<pdfrwt beam="1">  1        2 0.32168723E+00 0.27721076E+04</pdfrwt>
<pdfrwt beam="2">  1       -1 0.14135125E+00 0.27721076E+04</pdfrwt>
<totfact> 0.24102214E+00</totfact>
</mgrwt>
</event>
<event>
12    6  0.1403409E-007  0.1400741E+04  0.7818608E-02  0.8953282E-01
         -1   -1    0    0    0  501 -0.00000000000E+00  0.00000000000E+00  0.43251731591E+03  0.43251731591E+03  0.00000000000E+00 0.  1.
          2   -1    0    0  501    0  0.00000000000E+00 -0.00000000000E+00 -0.11341029327E+04  0.11341029327E+04  0.00000000000E+00 0. -1.
         24    2    1    2    0    0  0.25711150986E+03 -0.80430187841E+02  0.13051932752E+03  0.31110957818E+03  0.84726212969E+02 0.  0.
        254    2    1    2    0    0 -0.25711150986E+03  0.80430187841E+02 -0.83210494433E+03  0.12555106704E+04  0.90074028532E+03 0.  0.
         23    2    4    4    0    0  0.32988239597E+03  0.21825795903E+02 -0.31018539752E+03  0.46240574969E+03  0.91133616022E+02 0.  0.
         23    2    4    4    0    0 -0.58699390583E+03  0.58604391938E+02 -0.52191954682E+03  0.79310492076E+03  0.92839009823E+02 0.  0.
          2    1    3    3  502    0  0.15046468897E+01 -0.11409581156E+02 -0.62634998192E+01  0.13102440017E+02  0.00000000000E+00 0. -1.
         -1    1    3    3    0  502  0.25560686297E+03 -0.69020606685E+02  0.13678282733E+03  0.29800713817E+03  0.00000000000E+00 0.  1.
         11    1    5    5    0    0  0.22692097177E+03  0.27363329833E+00 -0.26227525440E+03  0.34681625016E+03  0.00000000000E+00 0.  1.
        -11    1    5    5    0    0  0.10296142420E+03  0.21552162605E+02 -0.47910143114E+02  0.11558949952E+03  0.00000000000E+00 0. -1.
          3    1    6    6  503    0 -0.37489986046E+03  0.49419126772E+02 -0.27555639682E+03  0.46789259803E+03  0.00000000000E+00 0.  1.
         -3    1    6    6    0  503 -0.21209404537E+03  0.91852651658E+01 -0.24636314999E+03  0.32521232273E+03  0.00000000000E+00 0. -1.
<mgrwt>
<rscale>  0 0.14007415E+04</rscale>
<asrwt>0</asrwt>
<pdfrwt beam="1">  1        2 0.17447737E+00 0.14007415E+04</pdfrwt>
<pdfrwt beam="2">  1       -1 0.66541126E-01 0.14007415E+04</pdfrwt>
<totfact> 0.52734126E+01</totfact>
</mgrwt>
</event>
<event>
12    6  0.1403409E-007  0.2529293E+04  0.7818608E-02  0.8392623E-01
         -1   -1    0    0    0  501 -0.00000000000E+00  0.00000000000E+00  0.16837792543E+04  0.16837792543E+04  0.00000000000E+00 0.  1.
          2   -1    0    0  501    0  0.00000000000E+00 -0.00000000000E+00 -0.94984606989E+03  0.94984606989E+03  0.00000000000E+00 0. -1.
         24    2    1    2    0    0  0.47609439020E+03  0.36707199715E+03  0.12827506999E+04  0.14186511293E+04  0.75590668130E+02 0.  0.
        254    2    1    2    0    0 -0.47609439020E+03 -0.36707199715E+03 -0.54881751551E+03  0.12149741949E+04  0.90197223317E+03 0.  0.
         23    2    4    4    0    0  0.35200305661E+02  0.13945417182E+03  0.13563419361E+03  0.21769776142E+03  0.91154557176E+02 0.  0.
         23    2    4    4    0    0 -0.51129469586E+03 -0.50652616896E+03 -0.68445170912E+03  0.99727643346E+03  0.89972866756E+02 0.  0.
          2    1    3    3  502    0  0.58919574767E+02  0.48562584572E+02  0.11107300247E+03  0.13478520983E+03  0.00000000000E+00 0. -1.
         -1    1    3    3    0  502  0.41717481543E+03  0.31850941257E+03  0.11716776974E+04  0.12838659195E+04  0.00000000000E+00 0.  1.
         11    1    5    5    0    0  0.10770825134E+01 -0.72790758333E+01  0.36785484032E+02  0.37514222465E+02  0.00000000000E+00 0.  1.
        -11    1    5    5    0    0  0.34123223148E+02  0.14673324765E+03  0.98848709581E+02  0.18018353895E+03  0.00000000000E+00 0. -1.
          2    1    6    6  503    0 -0.27423801202E+03 -0.23512389816E+03 -0.29213238188E+03  0.46457621901E+03  0.00000000000E+00 0. -1.
         -2    1    6    6    0  503 -0.23705668384E+03 -0.27140227081E+03 -0.39231932724E+03  0.53270021445E+03  0.00000000000E+00 0.  1.
<mgrwt>
<rscale>  0 0.25292933E+04</rscale>
<asrwt>0</asrwt>
<pdfrwt beam="1">  1        2 0.14613016E+00 0.25292933E+04</pdfrwt>
<pdfrwt beam="2">  1       -1 0.25904296E+00 0.25292933E+04</pdfrwt>
<totfact> 0.16767697E+00</totfact>
</mgrwt>
</event>
<event>
12    6  0.1403409E-007  0.1103726E+04  0.7818608E-02  0.9201567E-01
         -1   -1    0    0    0  501 -0.00000000000E+00  0.00000000000E+00  0.88161157963E+02  0.88161157963E+02  0.00000000000E+00 0.  1.
          2   -1    0    0  501    0  0.00000000000E+00 -0.00000000000E+00 -0.34545034673E+04  0.34545034673E+04  0.00000000000E+00 0. -1.
         24    2    1    2    0    0  0.12638662905E+03 -0.54086575630E+02 -0.25054536542E+03  0.29662590858E+03  0.79467048790E+02 0.  0.
        254    2    1    2    0    0 -0.12638662905E+03  0.54086575630E+02 -0.31157969439E+04  0.32460387167E+04  0.89982099153E+03 0.  0.
         23    2    4    4    0    0  0.29430950173E+03 -0.92182729710E+02 -0.52950640682E+03  0.61980644384E+03  0.93098090750E+02 0.  0.
         23    2    4    4    0    0 -0.42069613078E+03  0.14626930534E+03 -0.25862905371E+04  0.26262322729E+04  0.99082109765E+02 0.  0.
          2    1    3    3  502    0  0.67941046419E+02 -0.44544362849E+02 -0.20914522774E+03  0.22437003440E+03  0.00000000000E+00 0. -1.
         -1    1    3    3    0  502  0.58445582631E+02 -0.95422127811E+01 -0.41400137675E+02  0.72255874179E+02  0.00000000000E+00 0.  1.
         11    1    5    5    0    0  0.29516668235E+03 -0.97153946682E+02 -0.49168240778E+03  0.58164753059E+03  0.00000000000E+00 0.  1.
        -11    1    5    5    0    0 -0.85718062634E+00  0.49712169715E+01 -0.37823999039E+02  0.38158913246E+02  0.00000000000E+00 0. -1.
          1    1    6    6  503    0 -0.11293955120E+02 -0.11072734580E+02 -0.55166346759E+02  0.57388889936E+02  0.00000000000E+00 0. -1.
         -1    1    6    6    0  503 -0.40940217566E+03  0.15734203992E+03 -0.25311241904E+04  0.25688433829E+04  0.00000000000E+00 0.  1.
<mgrwt>
<rscale>  0 0.11037265E+04</rscale>
<asrwt>0</asrwt>
<pdfrwt beam="1">  1        2 0.53146199E+00 0.11037265E+04</pdfrwt>
<pdfrwt beam="2">  1       -1 0.13563257E-01 0.11037265E+04</pdfrwt>
<totfact> 0.39488377E+01</totfact>
</mgrwt>
</event>
<event>
12    6  0.1403409E-007  0.1771282E+04  0.7818608E-02  0.8721722E-01
          2   -1    0    0  501    0  0.00000000000E+00  0.00000000000E+00  0.13384353785E+04  0.13384353785E+04  0.00000000000E+00 0. -1.
         -1   -1    0    0    0  501 -0.00000000000E+00 -0.00000000000E+00 -0.58602736067E+03  0.58602736067E+03  0.00000000000E+00 0.  1.
         24    2    1    2    0    0  0.52103466402E+02 -0.61341929716E+03  0.41190393166E+02  0.62261401312E+03  0.83387981782E+02 0.  0.
        254    2    1    2    0    0 -0.52103466402E+02  0.61341929716E+03  0.71121762466E+03  0.13018487260E+04  0.89998977247E+03 0.  0.
         23    2    4    4    0    0  0.31157645310E+02  0.72151639326E+03  0.18536387978E+03  0.75101337551E+03  0.90025650042E+02 0.  0.
         23    2    4    4    0    0 -0.83261111712E+02 -0.10809709610E+03  0.52585374488E+03  0.55083535054E+03  0.90994656362E+02 0.  0.
          4    1    3    3  502    0 -0.11285668405E+01 -0.39815950496E+03  0.46060649378E+02  0.40081647729E+03  0.00000000000E+00 0. -1.
         -3    1    3    3    0  502  0.53232033242E+02 -0.21525979220E+03 -0.48702562126E+01  0.22179753582E+03  0.00000000000E+00 0.  1.
         11    1    5    5    0    0 -0.21769103860E+02  0.47237216902E+03  0.12887510311E+03  0.49012054859E+03  0.00000000000E+00 0. -1.
        -11    1    5    5    0    0  0.52926749170E+02  0.24914422424E+03  0.56488776670E+02  0.26089282692E+03  0.00000000000E+00 0.  1.
          4    1    6    6  503    0 -0.24359411250E+02 -0.86984432331E+02  0.40259144590E+03  0.41260095091E+03  0.00000000000E+00 0. -1.
         -4    1    6    6    0  503 -0.58901700461E+02 -0.21112663771E+02  0.12326229899E+03  0.13823439963E+03  0.00000000000E+00 0.  1.
<mgrwt>
<rscale>  0 0.17712817E+04</rscale>
<asrwt>0</asrwt>
<pdfrwt beam="1">  1        2 0.20591313E+00 0.17712817E+04</pdfrwt>
<pdfrwt beam="2">  1       -1 0.90158056E-01 0.17712817E+04</pdfrwt>
<totfact> 0.20379518E+01</totfact>
</mgrwt>
</event>
<event>
12    6  0.1403409E-007  0.2295579E+04  0.7818608E-02  0.8479666E-01
         -1   -1    0    0    0  501 -0.00000000000E+00  0.00000000000E+00  0.13842146586E+04  0.13842146586E+04  0.00000000000E+00 0.  1.
          2   -1    0    0  501    0  0.00000000000E+00 -0.00000000000E+00 -0.95174637533E+03  0.95174637533E+03  0.00000000000E+00 0. -1.
         24    2    1    2    0    0  0.58403753746E+02  0.77083201497E+03  0.77796124807E+03  0.10998085268E+04  0.82231978753E+02 0.  0.
        254    2    1    2    0    0 -0.58403753746E+02 -0.77083201497E+03 -0.34549296480E+03  0.12361525071E+04  0.90061903068E+03 0.  0.
         23    2    4    4    0    0 -0.20447686213E+03 -0.42009572160E+03  0.23953604248E+03  0.53273409976E+03  0.90204783383E+02 0.  0.
         23    2    4    4    0    0  0.14607310839E+03 -0.35073629337E+03 -0.58502900728E+03  0.70341840738E+03  0.90472183587E+02 0.  0.
          4    1    3    3  502    0 -0.52927640080E+00  0.35485680992E+03  0.31325140695E+03  0.47333928596E+03  0.00000000000E+00 0. -1.
         -3    1    3    3    0  502  0.58933030147E+02  0.41597520505E+03  0.46470984112E+03  0.62646924082E+03  0.00000000000E+00 0.  1.
         11    1    5    5    0    0 -0.79007504031E+02 -0.21208397644E+03  0.15982972259E+03  0.27706919529E+03  0.00000000000E+00 0.  1.
        -11    1    5    5    0    0 -0.12546935810E+03 -0.20801174516E+03  0.79706319892E+02  0.25566490447E+03  0.00000000000E+00 0. -1.
          2    1    6    6  503    0 -0.95349574798E+01 -0.41386647789E+01 -0.19923739484E+02  0.22472190710E+02  0.00000000000E+00 0. -1.
         -2    1    6    6    0  503  0.15560806587E+03 -0.34659762859E+03 -0.56510526779E+03  0.68094621667E+03  0.00000000000E+00 0.  1.
<mgrwt>
<rscale>  0 0.22955795E+04</rscale>
<asrwt>0</asrwt>
<pdfrwt beam="1">  1        2 0.14642252E+00 0.22955795E+04</pdfrwt>
<pdfrwt beam="2">  1       -1 0.21295610E+00 0.22955795E+04</pdfrwt>
<totfact> 0.34379571E+00</totfact>
</mgrwt>
</event>
<event>
12    6  0.1403409E-007  0.2170486E+04  0.7818608E-02  0.8530814E-01
          2   -1    0    0  501    0  0.00000000000E+00  0.00000000000E+00  0.24088974359E+04  0.24088974359E+04  0.00000000000E+00 0. -1.
         -1   -1    0    0    0  501 -0.00000000000E+00 -0.00000000000E+00 -0.48891753339E+03  0.48891753339E+03  0.00000000000E+00 0.  1.
         24    2    1    2    0    0 -0.39706575233E+03 -0.71674057693E+03  0.30812357775E+03  0.87843673068E+03  0.73025230879E+02 0.  0.
        254    2    1    2    0    0  0.39706575233E+03  0.71674057693E+03  0.16118563248E+04  0.20193782386E+04  0.89912701696E+03 0.  0.
         23    2    4    4    0    0  0.66015330755E+03  0.47327097299E+03  0.12985072132E+04  0.15346660686E+04  0.96390642903E+02 0.  0.
         23    2    4    4    0    0 -0.26308755522E+03  0.24346960394E+03  0.31334911159E+03  0.48471217003E+03  0.90915962784E+02 0.  0.
          4    1    3    3  502    0 -0.36902511818E+03 -0.65375635879E+03  0.30212557685E+03  0.80923221556E+03  0.00000000000E+00 0. -1.
         -3    1    3    3    0  502 -0.28040634141E+02 -0.62984218141E+02  0.59980008996E+01  0.69204515117E+02  0.00000000000E+00 0.  1.
         11    1    5    5    0    0  0.57353438606E+03  0.37792794515E+03  0.11330061642E+04  0.13249430900E+04  0.00000000000E+00 0. -1.
        -11    1    5    5    0    0  0.86618921491E+02  0.95343027843E+02  0.16550104899E+03  0.20972297856E+03  0.00000000000E+00 0.  1.
          3    1    6    6  503    0 -0.26207057523E+03  0.22153202387E+03  0.27196166774E+03  0.43785907861E+03  0.00000000000E+00 0. -1.
         -3    1    6    6    0  503 -0.10169799929E+01  0.21937580072E+02  0.41387443846E+02  0.46853091423E+02  0.00000000000E+00 0.  1.
<mgrwt>
<rscale>  0 0.21704858E+04</rscale>
<asrwt>0</asrwt>
<pdfrwt beam="1">  1        2 0.37059960E+00 0.21704858E+04</pdfrwt>
<pdfrwt beam="2">  1       -1 0.75218084E-01 0.21704858E+04</pdfrwt>
<totfact> 0.72809521E+00</totfact>
</mgrwt>
</event>
<event>
12    6  0.1403409E-007  0.2949262E+04  0.7818608E-02  0.8258370E-01
          2   -1    0    0  501    0  0.00000000000E+00  0.00000000000E+00  0.25142142887E+04  0.25142142887E+04  0.00000000000E+00 0. -1.
         -1   -1    0    0    0  501 -0.00000000000E+00 -0.00000000000E+00 -0.86489680098E+03  0.86489680098E+03  0.00000000000E+00 0.  1.
         24    2    1    2    0    0 -0.98261930897E+03 -0.46374319796E+03  0.16391129011E+04  0.19681545532E+04  0.79641587759E+02 0.  0.
        254    2    1    2    0    0  0.98261930897E+03  0.46374319796E+03  0.10204586568E+02  0.14109565365E+04  0.90005319523E+03 0.  0.
         23    2    4    4    0    0  0.41826650941E+03  0.39836846300E+03  0.40685693731E+03  0.71237610188E+03  0.91119909348E+02 0.  0.
         23    2    4    4    0    0  0.56435279956E+03  0.65374734958E+02 -0.39665235074E+03  0.69858043461E+03  0.88958405575E+02 0.  0.
          4    1    3    3  502    0 -0.32633529202E+03 -0.19140023753E+03  0.53877877014E+03  0.65833983390E+03  0.00000000000E+00 0. -1.
         -3    1    3    3    0  502 -0.65628401695E+03 -0.27234296043E+03  0.11003341310E+04  0.13098147193E+04  0.00000000000E+00 0.  1.
         11    1    5    5    0    0  0.28860713141E+03  0.32365831084E+03  0.32406563173E+03  0.54135691752E+03  0.00000000000E+00 0. -1.
        -11    1    5    5    0    0  0.12965937800E+03  0.74710152167E+02  0.82791305579E+02  0.17101918436E+03  0.00000000000E+00 0.  1.
          2    1    6    6  503    0  0.51506046916E+03  0.53474018922E+02 -0.38817497165E+03  0.64716811279E+03  0.00000000000E+00 0. -1.
         -2    1    6    6    0  503  0.49292330401E+02  0.11900716036E+02 -0.84773790875E+01  0.51412321818E+02  0.00000000000E+00 0.  1.
<mgrwt>
<rscale>  0 0.29492615E+04</rscale>
<asrwt>0</asrwt>
<pdfrwt beam="1">  1        2 0.38680219E+00 0.29492615E+04</pdfrwt>
<pdfrwt beam="2">  1       -1 0.13306105E+00 0.29492615E+04</pdfrwt>
<totfact> 0.15948752E+00</totfact>
</mgrwt>
</event>
<event>
12    6  0.1403409E-007  0.1741041E+04  0.7818608E-02  0.8738297E-01
          2   -1    0    0  501    0  0.00000000000E+00  0.00000000000E+00  0.29077864816E+04  0.29077864816E+04  0.00000000000E+00 0. -1.
         -1   -1    0    0    0  501 -0.00000000000E+00 -0.00000000000E+00 -0.26061251321E+03  0.26061251321E+03  0.00000000000E+00 0.  1.
         24    2    1    2    0    0  0.20861640537E+03 -0.59960899331E+03  0.96925944659E+03  0.11615253597E+04  0.81397401529E+02 0.  0.
        254    2    1    2    0    0 -0.20861640537E+03  0.59960899331E+03  0.16779145218E+04  0.20068736351E+04  0.89949591183E+03 0.  0.
         23    2    4    4    0    0 -0.30921033625E+03 -0.13538968197E+03  0.60745911267E+03  0.70134667888E+03  0.94547302383E+02 0.  0.
         23    2    4    4    0    0  0.10059393087E+03  0.73499867528E+03  0.10704554092E+04  0.13055269563E+04  0.90463577857E+02 0.  0.
          4    1    3    3  502    0  0.11740970006E+03 -0.31008609204E+03  0.57763904381E+03  0.66603700128E+03  0.00000000000E+00 0. -1.
         -3    1    3    3    0  502  0.91206705315E+02 -0.28952290127E+03  0.39162040278E+03  0.49548835842E+03  0.00000000000E+00 0.  1.
         11    1    5    5    0    0 -0.12573411755E+03 -0.71720672031E+02  0.35079743164E+03  0.37948881559E+03  0.00000000000E+00 0. -1.
        -11    1    5    5    0    0 -0.18347621870E+03 -0.63669009935E+02  0.25666168103E+03  0.32185786329E+03  0.00000000000E+00 0.  1.
          2    1    6    6  503    0  0.27809654547E+02  0.39319147055E+03  0.50231259202E+03  0.63850673411E+03  0.00000000000E+00 0. -1.
         -2    1    6    6    0  503  0.72784276327E+02  0.34180720473E+03  0.56814281714E+03  0.66702022215E+03  0.00000000000E+00 0.  1.
<mgrwt>
<rscale>  0 0.17410405E+04</rscale>
<asrwt>0</asrwt>
<pdfrwt beam="1">  1        2 0.44735174E+00 0.17410405E+04</pdfrwt>
<pdfrwt beam="2">  1       -1 0.40094235E-01 0.17410405E+04</pdfrwt>
<totfact> 0.13062411E+01</totfact>
</mgrwt>
</event>
<event>
12    6  0.1403409E-007  0.1221500E+04  0.7818608E-02  0.9094243E-01
          2   -1    0    0  501    0  0.00000000000E+00  0.00000000000E+00  0.15945551639E+04  0.15945551639E+04  0.00000000000E+00 0. -1.
         -1   -1    0    0    0  501 -0.00000000000E+00 -0.00000000000E+00 -0.23393081157E+03  0.23393081157E+03  0.00000000000E+00 0.  1.
         24    2    1    2    0    0  0.22864767685E+03  0.18430847298E+02  0.52975257609E+03  0.58249916583E+03  0.77769081694E+02 0.  0.
        254    2    1    2    0    0 -0.22864767685E+03 -0.18430847298E+02  0.83087177625E+03  0.12459868096E+04  0.89973094033E+03 0.  0.
         23    2    4    4    0    0  0.86044905108E+02 -0.24176364713E+03 -0.53383382460E+02  0.27743474693E+03  0.90922310327E+02 0.  0.
         23    2    4    4    0    0 -0.31469258195E+03  0.22333279983E+03  0.88425515871E+03  0.96855206272E+03  0.85305051840E+02 0.  0.
          4    1    3    3  502    0  0.18126010005E+02  0.23613768950E+02  0.44691274323E+02  0.53697973177E+02  0.00000000000E+00 0. -1.
         -3    1    3    3    0  502  0.21052166684E+03 -0.51829216522E+01  0.48506130176E+03  0.52880119266E+03  0.00000000000E+00 0.  1.
         11    1    5    5    0    0  0.66477451486E+02 -0.20510293749E+03 -0.77826031338E+02  0.22922337943E+03  0.00000000000E+00 0. -1.
        -11    1    5    5    0    0  0.19567453623E+02 -0.36660709636E+02  0.24442648877E+02  0.48211367503E+02  0.00000000000E+00 0.  1.
          4    1    6    6  503    0 -0.22148606950E+03  0.11203543630E+03  0.60172570052E+03  0.65090847025E+03  0.00000000000E+00 0. -1.
         -4    1    6    6    0  503 -0.93206512450E+02  0.11129736353E+03  0.28252945819E+03  0.31764359247E+03  0.00000000000E+00 0.  1.
<mgrwt>
<rscale>  0 0.12215000E+04</rscale>
<asrwt>0</asrwt>
<pdfrwt beam="1">  1        2 0.24531617E+00 0.12215000E+04</pdfrwt>
<pdfrwt beam="2">  1       -1 0.35989357E-01 0.12215000E+04</pdfrwt>
<totfact> 0.93019495E+01</totfact>
</mgrwt>
</event>
<event>
12    6  0.1403409E-007  0.2751234E+04  0.7818608E-02  0.8318570E-01
         -1   -1    0    0    0  501 -0.00000000000E+00  0.00000000000E+00  0.13658078313E+04  0.13658078313E+04  0.00000000000E+00 0.  1.
          2   -1    0    0  501    0  0.00000000000E+00 -0.00000000000E+00 -0.13854965047E+04  0.13854965047E+04  0.00000000000E+00 0. -1.
         24    2    1    2    0    0 -0.10676851275E+04  0.16650049490E+03  0.57292645956E+03  0.12256582113E+04  0.79494507489E+02 0.  0.
        254    2    1    2    0    0  0.10676851275E+04 -0.16650049490E+03 -0.59261513297E+03  0.15256461246E+04  0.89929386487E+03 0.  0.
         23    2    4    4    0    0  0.92213162638E+03 -0.12241002779E+03 -0.81574592936E+03  0.12405346554E+04  0.90409395600E+02 0.  0.
         23    2    4    4    0    0  0.14555350109E+03 -0.44090467113E+02  0.22313079638E+03  0.28511146914E+03  0.91495390987E+02 0.  0.
          2    1    3    3  502    0 -0.77862044526E+03  0.85521579916E+02  0.41691650657E+03  0.88734610601E+03  0.00000000000E+00 0. -1.
         -1    1    3    3    0  502 -0.28906468221E+03  0.80978914984E+02  0.15600995300E+03  0.33831210532E+03  0.00000000000E+00 0.  1.
         11    1    5    5    0    0  0.43286224545E+03 -0.13291254776E+02 -0.39235928088E+03  0.58437332783E+03  0.00000000000E+00 0. -1.
        -11    1    5    5    0    0  0.48926938093E+03 -0.10911877301E+03 -0.42338664848E+03  0.65616132761E+03  0.00000000000E+00 0.  1.
          2    1    6    6  503    0  0.33996080268E+02 -0.32651228407E+02  0.16372229511E+02  0.49898758394E+02  0.00000000000E+00 0. -1.
         -2    1    6    6    0  503  0.11155742082E+03 -0.11439238706E+02  0.20675856687E+03  0.23521271075E+03  0.00000000000E+00 0.  1.
<mgrwt>
<rscale>  0 0.27512339E+04</rscale>
<asrwt>0</asrwt>
<pdfrwt beam="1">  1        2 0.21315331E+00 0.27512339E+04</pdfrwt>
<pdfrwt beam="2">  1       -1 0.21012428E+00 0.27512339E+04</pdfrwt>
<totfact> 0.18834556E+00</totfact>
</mgrwt>
</event>
<event>
12    6  0.1403409E-007  0.2312488E+04  0.7818608E-02  0.8473014E-01
          2   -1    0    0  501    0  0.00000000000E+00  0.00000000000E+00  0.20122227067E+04  0.20122227067E+04  0.00000000000E+00 0. -1.
         -1   -1    0    0    0  501 -0.00000000000E+00 -0.00000000000E+00 -0.66438951819E+03  0.66438951819E+03  0.00000000000E+00 0.  1.
         24    2    1    2    0    0 -0.57786923266E+03 -0.78149557750E+03  0.71031439671E+03  0.12063376788E+04  0.77690831933E+02 0.  0.
        254    2    1    2    0    0  0.57786923266E+03  0.78149557750E+03  0.63751879178E+03  0.14702745461E+04  0.90033818273E+03 0.  0.
         23    2    4    4    0    0  0.71915354921E+02 -0.88131881996E+02 -0.13478070411E+03  0.19856574768E+03  0.91233059001E+02 0.  0.
         23    2    4    4    0    0  0.50595387774E+03  0.86962745949E+03  0.77229949588E+03  0.12717087984E+04  0.92496010095E+02 0.  0.
          2    1    3    3  502    0 -0.27663396290E+03 -0.43712603300E+03  0.38927711111E+03  0.64741191477E+03  0.00000000000E+00 0. -1.
         -1    1    3    3    0  502 -0.30123526976E+03 -0.34436954450E+03  0.32103728560E+03  0.55892576401E+03  0.00000000000E+00 0.  1.
         11    1    5    5    0    0  0.49329842417E+02 -0.17842075843E+02 -0.10793483269E+03  0.12000708784E+03  0.00000000000E+00 0. -1.
        -11    1    5    5    0    0  0.22585512504E+02 -0.70289806153E+02 -0.26845871415E+02  0.78558659841E+02  0.00000000000E+00 0.  1.
          4    1    6    6  503    0  0.15050604690E+03  0.34024992290E+03  0.30678756178E+03  0.48222472795E+03  0.00000000000E+00 0. -1.
         -4    1    6    6    0  503  0.35544783083E+03  0.52937753659E+03  0.46551193411E+03  0.78948407045E+03  0.00000000000E+00 0.  1.
<mgrwt>
<rscale>  0 0.23124876E+04</rscale>
<asrwt>0</asrwt>
<pdfrwt beam="1">  1        2 0.30957272E+00 0.23124876E+04</pdfrwt>
<pdfrwt beam="2">  1       -1 0.10221377E+00 0.23124876E+04</pdfrwt>
<totfact> 0.61434680E+00</totfact>
</mgrwt>
</event>
<event>
12    6  0.1403409E-007  0.4491146E+04  0.7818608E-02  0.7912189E-01
         -1   -1    0    0    0  501 -0.00000000000E+00  0.00000000000E+00  0.19051642972E+04  0.19051642972E+04  0.00000000000E+00 0.  1.
          2   -1    0    0  501    0  0.00000000000E+00 -0.00000000000E+00 -0.26468042610E+04  0.26468042610E+04  0.00000000000E+00 0. -1.
         24    2    1    2    0    0  0.20864763366E+04  0.52252158555E+03 -0.48246041899E+03  0.22058222205E+04  0.80444403172E+02 0.  0.
        254    2    1    2    0    0 -0.20864763366E+04 -0.52252158555E+03 -0.25917954487E+03  0.23461463378E+04  0.90045338103E+03 0.  0.
         23    2    4    4    0    0 -0.18225740777E+04 -0.28920488952E+03  0.79245434540E+02  0.18496132960E+04  0.96818224972E+02 0.  0.
         23    2    4    4    0    0 -0.26390225882E+03 -0.23331669602E+03 -0.33842497941E+03  0.49653304183E+03  0.89064651156E+02 0.  0.
          2    1    3    3  502    0  0.87235796208E+03  0.23128149875E+03 -0.24110767743E+03  0.93414798495E+03  0.00000000000E+00 0. -1.
         -1    1    3    3    0  502  0.12141183745E+04  0.29124008679E+03 -0.24135274156E+03  0.12716742355E+04  0.00000000000E+00 0.  1.
         11    1    5    5    0    0 -0.75460244864E+03 -0.16608572092E+03  0.46766643463E+02  0.77407780043E+03  0.00000000000E+00 0. -1.
        -11    1    5    5    0    0 -0.10679716291E+04 -0.12311916860E+03  0.32478791077E+02  0.10755354955E+04  0.00000000000E+00 0.  1.
          3    1    6    6  503    0 -0.47336945125E+02 -0.10654779804E+02 -0.74649449865E+02  0.89032865120E+02  0.00000000000E+00 0. -1.
         -3    1    6    6    0  503 -0.21656531369E+03 -0.22266191622E+03 -0.26377552955E+03  0.40750017671E+03  0.00000000000E+00 0.  1.
<mgrwt>
<rscale>  0 0.44911455E+04</rscale>
<asrwt>0</asrwt>
<pdfrwt beam="1">  1        2 0.40720065E+00 0.44911455E+04</pdfrwt>
<pdfrwt beam="2">  1       -1 0.29310220E+00 0.44911455E+04</pdfrwt>
<totfact> 0.90105033E-02</totfact>
</mgrwt>
</event>
<event>
12    6  0.1403409E-007  0.2212778E+04  0.7818608E-02  0.8513128E-01
          2   -1    0    0  501    0  0.00000000000E+00  0.00000000000E+00  0.14541906301E+04  0.14541906301E+04  0.00000000000E+00 0. -1.
         -1   -1    0    0    0  501 -0.00000000000E+00 -0.00000000000E+00 -0.84177193313E+03  0.84177193313E+03  0.00000000000E+00 0.  1.
         24    2    1    2    0    0  0.53216140543E+03 -0.67748263615E+03  0.59280497959E+03  0.10488569238E+04  0.80651218658E+02 0.  0.
        254    2    1    2    0    0 -0.53216140543E+03  0.67748263615E+03  0.19613717334E+02  0.12471056394E+04  0.90150390690E+03 0.  0.
         23    2    4    4    0    0 -0.23387724668E+03 -0.19504169700E+03 -0.28771720350E+02  0.31937074707E+03  0.91815206303E+02 0.  0.
         23    2    4    4    0    0 -0.29828415875E+03  0.87252433315E+03  0.48385437684E+02  0.92773489231E+03  0.89881747502E+02 0.  0.
          2    1    3    3  502    0  0.27054874885E+03 -0.35285297915E+03  0.25740708218E+03  0.51377062621E+03  0.00000000000E+00 0. -1.
         -1    1    3    3    0  502  0.26161265658E+03 -0.32462965700E+03  0.33539789741E+03  0.53508629759E+03  0.00000000000E+00 0.  1.
         11    1    5    5    0    0 -0.16289457742E+03 -0.18416560752E+03 -0.15615506454E+02  0.24636448280E+03  0.00000000000E+00 0.  1.
        -11    1    5    5    0    0 -0.70982669260E+02 -0.10876089479E+02 -0.13156213896E+02  0.73006264264E+02  0.00000000000E+00 0. -1.
          2    1    6    6  503    0 -0.22059474599E+02  0.91672780783E+02 -0.20883781494E+02  0.96574590269E+02  0.00000000000E+00 0. -1.
         -2    1    6    6    0  503 -0.27622468415E+03  0.78085155237E+03  0.69269219178E+02  0.83116030204E+03  0.00000000000E+00 0.  1.
<mgrwt>
<rscale>  0 0.22127782E+04</rscale>
<asrwt>0</asrwt>
<pdfrwt beam="1">  1        2 0.22372164E+00 0.22127782E+04</pdfrwt>
<pdfrwt beam="2">  1       -1 0.12950337E+00 0.22127782E+04</pdfrwt>
<totfact> 0.71790938E+00</totfact>
</mgrwt>
</event>
<event>
12    6  0.1403409E-007  0.1231574E+04  0.7818608E-02  0.9085660E-01
         -1   -1    0    0    0  501 -0.00000000000E+00  0.00000000000E+00  0.18275910709E+03  0.18275910709E+03  0.00000000000E+00 0.  1.
          2   -1    0    0  501    0  0.00000000000E+00 -0.00000000000E+00 -0.20748265000E+04  0.20748265000E+04  0.00000000000E+00 0. -1.
         24    2    1    2    0    0  0.73453423805E+02 -0.25824147966E+03 -0.30163756841E+03  0.41148939520E+03  0.79083705007E+02 0.  0.
        254    2    1    2    0    0 -0.73453423805E+02  0.25824147966E+03 -0.15904298245E+04  0.18460962119E+04  0.89806465781E+03 0.  0.
         23    2    4    4    0    0  0.16794279860E+03  0.48727782049E+02  0.23615386652E+02  0.19797112874E+03  0.89753556940E+02 0.  0.
         23    2    4    4    0    0 -0.24139622241E+03  0.20951369761E+03 -0.16140452112E+04  0.16481250832E+04  0.94901108345E+02 0.  0.
          2    1    3    3  502    0  0.65752632390E+02 -0.11882806120E+03 -0.18536094440E+03  0.22978728533E+03  0.00000000000E+00 0. -1.
         -1    1    3    3    0  502  0.77007914148E+01 -0.13941341847E+03 -0.11627662401E+03  0.18170210986E+03  0.00000000000E+00 0.  1.
         11    1    5    5    0    0  0.58600279822E+02 -0.25002106115E+02 -0.14709938039E+01  0.63728030945E+02  0.00000000000E+00 0. -1.
        -11    1    5    5    0    0  0.10934251878E+03  0.73729888164E+02  0.25086380456E+02  0.13424309780E+03  0.00000000000E+00 0.  1.
          2    1    6    6  503    0 -0.16946036149E+03  0.18921099602E+03 -0.11188079666E+04  0.11472789030E+04  0.00000000000E+00 0. -1.
         -2    1    6    6    0  503 -0.71935860920E+02  0.20302701598E+02 -0.49523724457E+03  0.50084618017E+03  0.00000000000E+00 0.  1.
<mgrwt>
<rscale>  0 0.12315737E+04</rscale>
<asrwt>0</asrwt>
<pdfrwt beam="1">  1        2 0.31920408E+00 0.12315737E+04</pdfrwt>
<pdfrwt beam="2">  1       -1 0.28116786E-01 0.12315737E+04</pdfrwt>
<totfact> 0.77946582E+01</totfact>
</mgrwt>
</event>
<event>
12    6  0.1403409E-007  0.1482114E+04  0.7818608E-02  0.8896435E-01
          2   -1    0    0  501    0  0.00000000000E+00  0.00000000000E+00  0.17114644218E+04  0.17114644218E+04  0.00000000000E+00 0. -1.
         -1   -1    0    0    0  501 -0.00000000000E+00 -0.00000000000E+00 -0.32087468742E+03  0.32087468742E+03  0.00000000000E+00 0.  1.
         24    2    1    2    0    0  0.46291367007E+02  0.42338885482E+03  0.19171123736E+03  0.47383977378E+03  0.79811776310E+02 0.  0.
        254    2    1    2    0    0 -0.46291367007E+02 -0.42338885482E+03  0.11988784970E+04  0.15584993354E+04  0.90011638962E+03 0.  0.
         23    2    4    4    0    0 -0.14057596000E+03 -0.58214323008E+03  0.12093848282E+04  0.13524666074E+04  0.88892747349E+02 0.  0.
         23    2    4    4    0    0  0.94284592997E+02  0.15875437526E+03 -0.10506331251E+02  0.20603272799E+03  0.90810604376E+02 0.  0.
          2    1    3    3  502    0  0.31591572219E+02  0.10892051550E+03  0.83931260006E+02  0.14108920064E+03  0.00000000000E+00 0. -1.
         -1    1    3    3    0  502  0.14699794788E+02  0.31446833933E+03  0.10777997735E+03  0.33275057314E+03  0.00000000000E+00 0.  1.
         11    1    5    5    0    0 -0.54814654694E+02 -0.40381670754E+03  0.82136531140E+03  0.91690433221E+03  0.00000000000E+00 0.  1.
        -11    1    5    5    0    0 -0.85761305309E+02 -0.17832652254E+03  0.38801951683E+03  0.43556227519E+03  0.00000000000E+00 0. -1.
          1    1    6    6  503    0  0.33357901772E+02 -0.41713927220E+00  0.88201599676E+01  0.34506794080E+02  0.00000000000E+00 0. -1.
         -1    1    6    6    0  503  0.60926691224E+02  0.15917151453E+03 -0.19326491219E+02  0.17152593391E+03  0.00000000000E+00 0.  1.
<mgrwt>
<rscale>  0 0.14821142E+04</rscale>
<asrwt>0</asrwt>
<pdfrwt beam="1">  1        2 0.26330221E+00 0.14821142E+04</pdfrwt>
<pdfrwt beam="2">  1       -1 0.49365338E-01 0.14821142E+04</pdfrwt>
<totfact> 0.43805193E+01</totfact>
</mgrwt>
</event>
<event>
12    6  0.1403409E-007  0.1930374E+04  0.7818608E-02  0.8639883E-01
         -1   -1    0    0    0  501 -0.00000000000E+00  0.00000000000E+00  0.63291211051E+03  0.63291211051E+03  0.00000000000E+00 0.  1.
          2   -1    0    0  501    0  0.00000000000E+00 -0.00000000000E+00 -0.14719044472E+04  0.14719044472E+04  0.00000000000E+00 0. -1.
         24    2    1    2    0    0 -0.46231025237E+03 -0.10810719354E+03  0.30665204949E+03  0.57225939433E+03  0.89595759941E+02 0.  0.
        254    2    1    2    0    0  0.46231025237E+03  0.10810719354E+03 -0.11456443862E+04  0.15325571634E+04  0.90045125616E+03 0.  0.
         23    2    4    4    0    0  0.44841672527E+03  0.41424218195E+03 -0.44215271428E+03  0.75956339877E+03  0.93612975549E+02 0.  0.
         23    2    4    4    0    0  0.13893527102E+02 -0.30613498841E+03 -0.70349167192E+03  0.77299376464E+03  0.93312198964E+02 0.  0.
          2    1    3    3  502    0 -0.39585817232E+03 -0.12293477979E+03  0.25346253402E+03  0.48585996833E+03  0.00000000000E+00 0. -1.
         -1    1    3    3    0  502 -0.66452080043E+02  0.14827586246E+02  0.53189515473E+02  0.86399425995E+02  0.00000000000E+00 0.  1.
         11    1    5    5    0    0  0.54355012431E+02  0.59961517628E+02 -0.23616802625E+02  0.84306609105E+02  0.00000000000E+00 0. -1.
        -11    1    5    5    0    0  0.39406171283E+03  0.35428066433E+03 -0.41853591165E+03  0.67525678966E+03  0.00000000000E+00 0.  1.
          1    1    6    6  503    0  0.34704483105E+01 -0.31131921742E+02 -0.16831696830E+03  0.17120701616E+03  0.00000000000E+00 0. -1.
         -1    1    6    6    0  503  0.10423078791E+02 -0.27500306667E+03 -0.53517470362E+03  0.60178674848E+03  0.00000000000E+00 0.  1.
<mgrwt>
<rscale>  0 0.19303742E+04</rscale>
<asrwt>0</asrwt>
<pdfrwt beam="1">  1        2 0.22644684E+00 0.19303742E+04</pdfrwt>
<pdfrwt beam="2">  1       -1 0.97371094E-01 0.19303742E+04</pdfrwt>
<totfact> 0.14197328E+01</totfact>
</mgrwt>
</event>
<event>
12    6  0.1403409E-007  0.1905033E+04  0.7818608E-02  0.8652355E-01
         -1   -1    0    0    0  501 -0.00000000000E+00  0.00000000000E+00  0.17360194806E+04  0.17360194806E+04  0.00000000000E+00 0.  1.
          2   -1    0    0  501    0  0.00000000000E+00 -0.00000000000E+00 -0.52262522104E+03  0.52262522104E+03  0.00000000000E+00 0. -1.
         24    2    1    2    0    0  0.36850950033E+03 -0.59175519395E+03  0.75739877610E+03  0.10326235158E+04  0.81761592143E+02 0.  0.
        254    2    1    2    0    0 -0.36850950033E+03  0.59175519395E+03  0.45599548350E+03  0.12260211859E+04  0.89956801069E+03 0.  0.
         23    2    4    4    0    0 -0.32192215802E+03  0.44032724817E+03  0.71672434756E+03  0.90531563303E+03  0.91545855832E+02 0.  0.
         23    2    4    4    0    0 -0.46587342307E+02  0.15142794577E+03 -0.26072886405E+03  0.32070555285E+03  0.98851949181E+02 0.  0.
          2    1    3    3  502    0  0.19001375769E+03 -0.31170312581E+03  0.33650035803E+03  0.49648419684E+03  0.00000000000E+00 0. -1.
         -1    1    3    3    0  502  0.17849574264E+03 -0.28005206814E+03  0.42089841807E+03  0.53613931896E+03  0.00000000000E+00 0.  1.
         11    1    5    5    0    0 -0.15421728065E+03  0.28383604908E+03  0.44108327672E+03  0.54671777858E+03  0.00000000000E+00 0. -1.
        -11    1    5    5    0    0 -0.16770487737E+03  0.15649119910E+03  0.27564107083E+03  0.35859785445E+03  0.00000000000E+00 0.  1.
          4    1    6    6  503    0 -0.37748706229E+02  0.93506474477E+01 -0.28104376273E+02  0.47981823594E+02  0.00000000000E+00 0. -1.
         -4    1    6    6    0  503 -0.88386360785E+01  0.14207729833E+03 -0.23262448778E+03  0.27272372926E+03  0.00000000000E+00 0.  1.
<mgrwt>
<rscale>  0 0.19050329E+04</rscale>
<asrwt>0</asrwt>
<pdfrwt beam="1">  1        2 0.80403881E-01 0.19050329E+04</pdfrwt>
<pdfrwt beam="2">  1       -1 0.26707992E+00 0.19050329E+04</pdfrwt>
<totfact> 0.33763675E+00</totfact>
</mgrwt>
</event>
<event>
12    6  0.1403409E-007  0.1592623E+04  0.7818608E-02  0.8825093E-01
         -1   -1    0    0    0  501 -0.00000000000E+00  0.00000000000E+00  0.58059391559E+03  0.58059391559E+03  0.00000000000E+00 0.  1.
          2   -1    0    0  501    0  0.00000000000E+00 -0.00000000000E+00 -0.10921781539E+04  0.10921781539E+04  0.00000000000E+00 0. -1.
         24    2    1    2    0    0 -0.34287722038E+03 -0.26021937212E+03  0.16282479120E+03  0.46737513300E+03  0.81539514594E+02 0.  0.
        254    2    1    2    0    0  0.34287722038E+03  0.26021937212E+03 -0.67440902948E+03  0.12053969365E+04  0.90159598795E+03 0.  0.
         23    2    4    4    0    0  0.10885678552E+02  0.13488469714E+03 -0.80118844740E+03  0.81742337159E+03  0.89250549837E+02 0.  0.
         23    2    4    4    0    0  0.33199154183E+03  0.12533467498E+03  0.12677941792E+03  0.38797356487E+03  0.92321728937E+02 0.  0.
          4    1    3    3  502    0 -0.31868496588E+03 -0.22283435777E+03  0.12360441209E+03  0.40803591652E+03  0.00000000000E+00 0. -1.
         -3    1    3    3    0  502 -0.24192254496E+02 -0.37385014345E+02  0.39220379107E+02  0.59339216480E+02  0.00000000000E+00 0.  1.
         11    1    5    5    0    0  0.13405130312E+02  0.10711291084E+03 -0.37242635724E+03  0.38775541874E+03  0.00000000000E+00 0. -1.
        -11    1    5    5    0    0 -0.25194517607E+01  0.27771786293E+02 -0.42876209016E+03  0.42966795285E+03  0.00000000000E+00 0.  1.
          4    1    6    6  503    0  0.35444621178E+02 -0.53979422791E+01  0.37356071715E+02  0.51777746622E+02  0.00000000000E+00 0. -1.
         -4    1    6    6    0  503  0.29654692065E+03  0.13073261726E+03  0.89423346203E+02  0.33619581825E+03  0.00000000000E+00 0.  1.
<mgrwt>
<rscale>  0 0.15926230E+04</rscale>
<asrwt>0</asrwt>
<pdfrwt beam="1">  1        2 0.16802741E+00 0.15926230E+04</pdfrwt>
<pdfrwt beam="2">  1       -1 0.89322142E-01 0.15926230E+04</pdfrwt>
<totfact> 0.29618674E+01</totfact>
</mgrwt>
</event>
<event>
12    6  0.1403409E-007  0.2526751E+04  0.7818608E-02  0.8393517E-01
          2   -1    0    0  501    0  0.00000000000E+00  0.00000000000E+00  0.15299964354E+04  0.15299964354E+04  0.00000000000E+00 0. -1.
         -1   -1    0    0    0  501 -0.00000000000E+00 -0.00000000000E+00 -0.10432164916E+04  0.10432164916E+04  0.00000000000E+00 0.  1.
         24    2    1    2    0    0  0.91760395563E+03  0.50150504202E+02 -0.40513577851E+03  0.10079835625E+04  0.85928870634E+02 0.  0.
        254    2    1    2    0    0 -0.91760395563E+03 -0.50150504202E+02  0.89191572231E+03  0.15652293645E+04  0.89995400738E+03 0.  0.
         23    2    4    4    0    0 -0.23513596815E+03  0.29318739010E+03 -0.24143636648E+01  0.38580515846E+03  0.87132209402E+02 0.  0.
         23    2    4    4    0    0 -0.68246798748E+03 -0.34333789430E+03  0.89433008597E+03  0.11794242061E+04  0.87015467308E+02 0.  0.
          2    1    3    3  502    0  0.14609495181E+03 -0.16642303470E+02 -0.43715549025E+02  0.15340062072E+03  0.00000000000E+00 0. -1.
         -1    1    3    3    0  502  0.77150900382E+03  0.66792807672E+02 -0.36142022948E+03  0.85458294180E+03  0.00000000000E+00 0.  1.
         11    1    5    5    0    0 -0.87350422613E+02  0.66120719603E+02  0.28287818196E+02  0.11314701300E+03  0.00000000000E+00 0.  1.
        -11    1    5    5    0    0 -0.14778554554E+03  0.22706667050E+03 -0.30702181861E+02  0.27265814547E+03  0.00000000000E+00 0. -1.
          4    1    6    6  503    0 -0.65815561231E+03 -0.32402011592E+03  0.82827703918E+03  0.11064360348E+04  0.00000000000E+00 0. -1.
         -4    1    6    6    0  503 -0.24312375172E+02 -0.19317778383E+02  0.66053046799E+02  0.72988171230E+02  0.00000000000E+00 0.  1.
<mgrwt>
<rscale>  0 0.25267509E+04</rscale>
<asrwt>0</asrwt>
<pdfrwt beam="1">  1        2 0.23538407E+00 0.25267509E+04</pdfrwt>
<pdfrwt beam="2">  1       -1 0.16049484E+00 0.25267509E+04</pdfrwt>
<totfact> 0.35851630E+00</totfact>
</mgrwt>
</event>
<event>
12    6  0.1403409E-007  0.3764528E+04  0.7818608E-02  0.8053810E-01
         -1   -1    0    0    0  501 -0.00000000000E+00  0.00000000000E+00  0.96811305443E+03  0.96811305443E+03  0.00000000000E+00 0.  1.
          2   -1    0    0  501    0  0.00000000000E+00 -0.00000000000E+00 -0.36596110180E+04  0.36596110180E+04  0.00000000000E+00 0. -1.
         24    2    1    2    0    0  0.13343953484E+04  0.96085277463E+03 -0.45155927719E+03  0.17070624804E+04  0.79419965595E+02 0.  0.
        254    2    1    2    0    0 -0.13343953484E+04 -0.96085277463E+03 -0.22399386864E+04  0.29206615920E+04  0.89949420021E+03 0.  0.
         23    2    4    4    0    0 -0.52780523893E+03 -0.43061758142E+03 -0.16458974171E+04  0.17836701799E+04  0.92147335654E+02 0.  0.
         23    2    4    4    0    0 -0.80659010943E+03 -0.53023519321E+03 -0.59404126926E+03  0.11369914121E+04  0.90152519906E+02 0.  0.
          4    1    3    3  502    0  0.72411500871E+02  0.43388801177E+02 -0.40248522409E+02  0.93519821867E+02  0.00000000000E+00 0. -1.
         -3    1    3    3    0  502  0.12619838475E+04  0.91746397345E+03 -0.41131075478E+03  0.16135426585E+04  0.00000000000E+00 0.  1.
         11    1    5    5    0    0 -0.30953243587E+03 -0.20887985209E+03 -0.81675987088E+03  0.89807450033E+03  0.00000000000E+00 0. -1.
        -11    1    5    5    0    0 -0.21827280306E+03 -0.22173772932E+03 -0.82913754623E+03  0.88559567960E+03  0.00000000000E+00 0.  1.
          4    1    6    6  503    0 -0.32926458192E+03 -0.26668118328E+03 -0.27789612179E+03  0.50671517929E+03  0.00000000000E+00 0. -1.
         -4    1    6    6    0  503 -0.47732552751E+03 -0.26355400993E+03 -0.31614514747E+03  0.63027623280E+03  0.00000000000E+00 0.  1.
<mgrwt>
<rscale>  0 0.37645277E+04</rscale>
<asrwt>0</asrwt>
<pdfrwt beam="1">  1        2 0.56301707E+00 0.37645277E+04</pdfrwt>
<pdfrwt beam="2">  1       -1 0.14894047E+00 0.37645277E+04</pdfrwt>
<totfact> 0.20238289E-01</totfact>
</mgrwt>
</event>
<event>
12    6  0.1403409E-007  0.2892869E+04  0.7818608E-02  0.8275002E-01
          2   -1    0    0  501    0  0.00000000000E+00  0.00000000000E+00  0.39450892511E+04  0.39450892511E+04  0.00000000000E+00 0. -1.
         -1   -1    0    0    0  501 -0.00000000000E+00 -0.00000000000E+00 -0.53032335045E+03  0.53032335045E+03  0.00000000000E+00 0.  1.
         24    2    1    2    0    0  0.55704835616E+03  0.94468063313E+02  0.33632552022E+04  0.34113031599E+04  0.79225043649E+02 0.  0.
        254    2    1    2    0    0 -0.55704835616E+03 -0.94468063313E+02  0.51510698446E+02  0.10641094416E+04  0.90024911311E+03 0.  0.
         23    2    4    4    0    0 -0.62396841516E+02  0.13686176492E+03  0.38092018415E+03  0.41981094204E+03  0.92285057517E+02 0.  0.
         23    2    4    4    0    0 -0.49465151464E+03 -0.23132982823E+03 -0.32940948570E+03  0.64429849960E+03  0.91740595942E+02 0.  0.
          4    1    3    3  502    0  0.22608608510E+03 -0.45644880602E+00  0.12967393774E+04  0.13163009303E+04  0.00000000000E+00 0. -1.
         -3    1    3    3    0  502  0.33096227106E+03  0.94924512119E+02  0.20665158248E+04  0.20950022296E+04  0.00000000000E+00 0.  1.
         11    1    5    5    0    0 -0.20683364190E+02  0.94684567725E+02  0.32173189252E+03  0.33601246939E+03  0.00000000000E+00 0. -1.
        -11    1    5    5    0    0 -0.41713477325E+02  0.42177197197E+02  0.59188291630E+02  0.83798472659E+02  0.00000000000E+00 0.  1.
          1    1    6    6  503    0 -0.30992429060E+03 -0.95187511286E+02 -0.18926249605E+03  0.37541180139E+03  0.00000000000E+00 0. -1.
         -1    1    6    6    0  503 -0.18472722404E+03 -0.13614231695E+03 -0.14014698965E+03  0.26888669821E+03  0.00000000000E+00 0.  1.
<mgrwt>
<rscale>  0 0.28928691E+04</rscale>
<asrwt>0</asrwt>
<pdfrwt beam="1">  1        2 0.60693679E+00 0.28928691E+04</pdfrwt>
<pdfrwt beam="2">  1       -1 0.81588210E-01 0.28928691E+04</pdfrwt>
<totfact> 0.55578882E-01</totfact>
</mgrwt>
</event>
<event>
12    6  0.1403409E-007  0.2801688E+04  0.7818608E-02  0.8302744E-01
          2   -1    0    0  501    0  0.00000000000E+00  0.00000000000E+00  0.30562573070E+04  0.30562573070E+04  0.00000000000E+00 0. -1.
         -1   -1    0    0    0  501 -0.00000000000E+00 -0.00000000000E+00 -0.64208080255E+03  0.64208080255E+03  0.00000000000E+00 0.  1.
         24    2    1    2    0    0 -0.12290620342E+02 -0.34358266977E+03 -0.50951758565E+03  0.61963897826E+03  0.78384838933E+02 0.  0.
        254    2    1    2    0    0  0.12290620342E+02  0.34358266977E+03  0.29236940901E+04  0.30786991313E+04  0.90122200277E+03 0.  0.
         23    2    4    4    0    0 -0.32354506557E+03  0.11833712423E+03  0.46517274682E+03  0.58538970092E+03  0.87237223290E+02 0.  0.
         23    2    4    4    0    0  0.33583568591E+03  0.22524554554E+03  0.24585213433E+04  0.24933094304E+04  0.93506986721E+02 0.  0.
          4    1    3    3  502    0  0.24215881542E+02 -0.18641467441E+03 -0.23170363812E+03  0.29836791998E+03  0.00000000000E+00 0. -1.
         -3    1    3    3    0  502 -0.36506501884E+02 -0.15716799536E+03 -0.27781394753E+03  0.32127105828E+03  0.00000000000E+00 0.  1.
         11    1    5    5    0    0 -0.17833242043E+03  0.69232782591E+02  0.32787469669E+03  0.37960169533E+03  0.00000000000E+00 0. -1.
        -11    1    5    5    0    0 -0.14521264514E+03  0.49104341635E+02  0.13729805013E+03  0.20578800559E+03  0.00000000000E+00 0.  1.
          4    1    6    6  503    0  0.25150813366E+03  0.11625475304E+03  0.16748384165E+04  0.16976027893E+04  0.00000000000E+00 0. -1.
         -4    1    6    6    0  503  0.84327552258E+02  0.10899079250E+03  0.78368292679E+03  0.79570664108E+03  0.00000000000E+00 0.  1.
<mgrwt>
<rscale>  0 0.28016882E+04</rscale>
<asrwt>0</asrwt>
<pdfrwt beam="1">  1        2 0.47019342E+00 0.28016882E+04</pdfrwt>
<pdfrwt beam="2">  1       -1 0.98781664E-01 0.28016882E+04</pdfrwt>
<totfact> 0.15545627E+00</totfact>
</mgrwt>
</event>
<event>
12    6  0.1403409E-007  0.1335360E+04  0.7818608E-02  0.9001985E-01
          2   -1    0    0  501    0  0.00000000000E+00  0.00000000000E+00  0.31235035266E+04  0.31235035266E+04  0.00000000000E+00 0. -1.
         -1   -1    0    0    0  501 -0.00000000000E+00 -0.00000000000E+00 -0.14272335124E+03  0.14272335124E+03  0.00000000000E+00 0.  1.
         24    2    1    2    0    0  0.12752394015E+03 -0.17972010019E+03  0.12935042963E+03  0.26780912123E+03  0.80178064621E+02 0.  0.
        254    2    1    2    0    0 -0.12752394015E+03  0.17972010019E+03  0.28514297458E+04  0.29984177566E+04  0.90071958929E+03 0.  0.
         23    2    4    4    0    0 -0.20691992821E+03  0.43198117792E+03  0.25105460117E+04  0.25572272154E+04  0.84534960132E+02 0.  0.
         23    2    4    4    0    0  0.79395988053E+02 -0.25226107773E+03  0.34088373405E+03  0.44119054124E+03  0.92238816524E+02 0.  0.
          2    1    3    3  502    0  0.55289255292E+02 -0.13093747642E+03  0.10676978623E+03  0.17776757785E+03  0.00000000000E+00 0. -1.
         -1    1    3    3    0  502  0.72234684862E+02 -0.48782623764E+02  0.22580643398E+02  0.90041543382E+02  0.00000000000E+00 0.  1.
         11    1    5    5    0    0 -0.12243089652E+03  0.24584942528E+03  0.16525927494E+04  0.16752594007E+04  0.00000000000E+00 0. -1.
        -11    1    5    5    0    0 -0.84489031689E+02  0.18613175264E+03  0.85795326234E+03  0.88196781471E+03  0.00000000000E+00 0.  1.
          2    1    6    6  503    0  0.87496422881E+02 -0.23785134240E+03  0.34074442735E+03  0.42465945164E+03  0.00000000000E+00 0.  1.
         -2    1    6    6    0  503 -0.81004348278E+01 -0.14409735338E+02  0.13930670674E+00  0.16531089598E+02  0.00000000000E+00 0. -1.
<mgrwt>
<rscale>  0 0.13353605E+04</rscale>
<asrwt>0</asrwt>
<pdfrwt beam="1">  1        2 0.48053895E+00 0.13353605E+04</pdfrwt>
<pdfrwt beam="2">  1       -1 0.21957441E-01 0.13353605E+04</pdfrwt>
<totfact> 0.28644403E+01</totfact>
</mgrwt>
</event>
<event>
12    6  0.1403409E-007  0.2636047E+04  0.7818608E-02  0.8356059E-01
          2   -1    0    0  501    0  0.00000000000E+00  0.00000000000E+00  0.25974771816E+04  0.25974771816E+04  0.00000000000E+00 0. -1.
         -1   -1    0    0    0  501 -0.00000000000E+00 -0.00000000000E+00 -0.66879729673E+03  0.66879729673E+03  0.00000000000E+00 0.  1.
         24    2    1    2    0    0  0.82140942060E+03  0.82293499668E+03  0.82009576752E+03  0.14250170456E+04  0.78619764941E+02 0.  0.
        254    2    1    2    0    0 -0.82140942060E+03 -0.82293499668E+03  0.11085841173E+04  0.18412574327E+04  0.89963033694E+03 0.  0.
         23    2    4    4    0    0 -0.64662262509E+03 -0.60282614629E+03  0.12335575407E+04  0.15204069611E+04  0.91939867135E+02 0.  0.
         23    2    4    4    0    0 -0.17478679551E+03 -0.22010885039E+03 -0.12497342342E+03  0.32085047155E+03  0.91259731688E+02 0.  0.
          2    1    3    3  502    0  0.31168930632E+03  0.30519403107E+03  0.35427468781E+03  0.56196456712E+03  0.00000000000E+00 0. -1.
         -1    1    3    3    0  502  0.50972011428E+03  0.51774096561E+03  0.46582107971E+03  0.86305247852E+03  0.00000000000E+00 0.  1.
         11    1    5    5    0    0 -0.42169676679E+02 -0.44737354913E+02  0.51285267521E+02  0.80061796261E+02  0.00000000000E+00 0. -1.
        -11    1    5    5    0    0 -0.60445294841E+03 -0.55808879138E+03  0.11822722732E+04  0.14403451648E+04  0.00000000000E+00 0.  1.
          1    1    6    6  503    0  0.36424790048E+01 -0.27264833146E+02 -0.31904961073E+02  0.42125589857E+02  0.00000000000E+00 0. -1.
         -1    1    6    6    0  503 -0.17842927451E+03 -0.19284401725E+03 -0.93068462344E+02  0.27872488169E+03  0.00000000000E+00 0.  1.
<mgrwt>
<rscale>  0 0.26360468E+04</rscale>
<asrwt>0</asrwt>
<pdfrwt beam="1">  1        2 0.39961187E+00 0.26360468E+04</pdfrwt>
<pdfrwt beam="2">  1       -1 0.10289189E+00 0.26360468E+04</pdfrwt>
<totfact> 0.27322191E+00</totfact>
</mgrwt>
</event>
<event>
12    6  0.1403409E-007  0.1582757E+04  0.7818608E-02  0.8831212E-01
         -1   -1    0    0    0  501 -0.00000000000E+00  0.00000000000E+00  0.10278450615E+04  0.10278450615E+04  0.00000000000E+00 0.  1.
          2   -1    0    0  501    0  0.00000000000E+00 -0.00000000000E+00 -0.60931334479E+03  0.60931334479E+03  0.00000000000E+00 0. -1.
         24    2    1    2    0    0  0.16276619865E+03  0.34716854198E+03  0.54394652683E+03  0.67022086960E+03  0.79368495214E+02 0.  0.
        254    2    1    2    0    0 -0.16276619865E+03 -0.34716854198E+03 -0.12541481011E+03  0.96693753670E+03  0.87876077138E+03 0.  0.
         23    2    4    4    0    0 -0.21380953157E+03  0.24197547129E+03  0.58789399819E+02  0.34078352536E+03  0.91709176905E+02 0.  0.
         23    2    4    4    0    0  0.51043332926E+02 -0.58914401327E+03 -0.18420420993E+03  0.62615401134E+03  0.91877988395E+02 0.  0.
          4    1    3    3  502    0  0.57924653559E+02  0.11491602992E+03  0.12216781007E+03  0.17744276046E+03  0.00000000000E+00 0. -1.
         -3    1    3    3    0  502  0.10484154509E+03  0.23225251207E+03  0.42177871676E+03  0.49277810914E+03  0.00000000000E+00 0.  1.
         11    1    5    5    0    0 -0.81709417253E+02  0.14843702147E+03  0.26507124720E+01  0.16946092319E+03  0.00000000000E+00 0. -1.
        -11    1    5    5    0    0 -0.13210011432E+03  0.93538449815E+02  0.56138687347E+02  0.17132260217E+03  0.00000000000E+00 0.  1.
          1    1    6    6  503    0  0.23070137755E+02 -0.54903143741E+03 -0.16751578933E+03  0.57448175793E+03  0.00000000000E+00 0. -1.
         -1    1    6    6    0  503  0.27973195171E+02 -0.40112575865E+02 -0.16688420607E+02  0.51672253415E+02  0.00000000000E+00 0.  1.
<mgrwt>
<rscale>  0 0.15827567E+04</rscale>
<asrwt>0</asrwt>
<pdfrwt beam="1">  1        2 0.93740514E-01 0.15827567E+04</pdfrwt>
<pdfrwt beam="2">  1       -1 0.15813001E+00 0.15827567E+04</pdfrwt>
<totfact> 0.16125596E+01</totfact>
</mgrwt>
</event>
<event>
12    6  0.1403409E-007  0.1884917E+04  0.7818608E-02  0.8662401E-01
          2   -1    0    0  501    0  0.00000000000E+00  0.00000000000E+00  0.27245859810E+04  0.27245859810E+04  0.00000000000E+00 0. -1.
         -1   -1    0    0    0  501 -0.00000000000E+00 -0.00000000000E+00 -0.32600465511E+03  0.32600465511E+03  0.00000000000E+00 0.  1.
         24    2    1    2    0    0  0.62437588830E+03  0.23421391814E+03  0.13985352518E+04  0.15514406317E+04  0.79785799533E+02 0.  0.
        254    2    1    2    0    0 -0.62437588830E+03 -0.23421391814E+03  0.10000460741E+04  0.14991500044E+04  0.89591136622E+03 0.  0.
         23    2    4    4    0    0 -0.58461367299E+02 -0.35677025527E+03  0.41331330813E+02  0.37519697666E+03  0.91442582417E+02 0.  0.
         23    2    4    4    0    0 -0.56591452100E+03  0.12255633713E+03  0.95871474329E+03  0.11239530278E+04  0.94112426257E+02 0.  0.
          4    1    3    3  502    0  0.18606890559E+03  0.83637763376E+02  0.51035151628E+03  0.54961403117E+03  0.00000000000E+00 0. -1.
         -3    1    3    3    0  502  0.43830698271E+03  0.15057615476E+03  0.88818373547E+03  0.10018266005E+04  0.00000000000E+00 0.  1.
         11    1    5    5    0    0 -0.10939848612E+02 -0.28175362770E+02  0.30599748439E+02  0.43010184369E+02  0.00000000000E+00 0. -1.
        -11    1    5    5    0    0 -0.47521518687E+02 -0.32859489250E+03  0.10731582374E+02  0.33218679230E+03  0.00000000000E+00 0.  1.
          1    1    6    6  503    0 -0.34422833420E+03  0.40524660350E+02  0.63033933166E+03  0.71934905796E+03  0.00000000000E+00 0. -1.
         -1    1    6    6    0  503 -0.22168618680E+03  0.82031676785E+02  0.32837541164E+03  0.40460396981E+03  0.00000000000E+00 0.  1.
<mgrwt>
<rscale>  0 0.18849167E+04</rscale>
<asrwt>0</asrwt>
<pdfrwt beam="1">  1        2 0.41916706E+00 0.18849167E+04</pdfrwt>
<pdfrwt beam="2">  1       -1 0.50154564E-01 0.18849167E+04</pdfrwt>
<totfact> 0.10954410E+01</totfact>
</mgrwt>
</event>
<event>
12    6  0.1403409E-007  0.2404352E+04  0.7818608E-02  0.8437876E-01
         -1   -1    0    0    0  501 -0.00000000000E+00  0.00000000000E+00  0.57094570531E+03  0.57094570531E+03  0.00000000000E+00 0.  1.
          2   -1    0    0  501    0  0.00000000000E+00 -0.00000000000E+00 -0.25312873474E+04  0.25312873474E+04  0.00000000000E+00 0. -1.
         24    2    1    2    0    0  0.69807337874E+03 -0.52300950599E+03 -0.15588755426E+04  0.17880657367E+04  0.78998330162E+02 0.  0.
        254    2    1    2    0    0 -0.69807337874E+03  0.52300950599E+03 -0.40146609947E+03  0.13141673159E+04  0.89722645957E+03 0.  0.
         23    2    4    4    0    0 -0.51586644425E+02  0.90192548532E+02 -0.50431117171E+03  0.52316188358E+03  0.92588988679E+02 0.  0.
         23    2    4    4    0    0 -0.64648673432E+03  0.43281695746E+03  0.10284507224E+03  0.79100543235E+03  0.99180990109E+02 0.  0.
          2    1    3    3  502    0  0.66487267342E+03 -0.47421856319E+03 -0.14451220214E+04  0.16599146286E+04  0.00000000000E+00 0. -1.
         -1    1    3    3    0  502  0.33200705326E+02 -0.48790942807E+02 -0.11375352117E+03  0.12815110812E+03  0.00000000000E+00 0.  1.
         11    1    5    5    0    0 -0.18529845224E+02  0.75309496662E+02 -0.45712487550E+03  0.46365723035E+03  0.00000000000E+00 0.  1.
        -11    1    5    5    0    0 -0.33056799201E+02  0.14883051870E+02 -0.47186296213E+02  0.59504653236E+02  0.00000000000E+00 0. -1.
          1    1    6    6  503    0 -0.48600443347E+03  0.35594434728E+03  0.11239989194E+03  0.61280537157E+03  0.00000000000E+00 0. -1.
         -1    1    6    6    0  503 -0.16048230085E+03  0.76872610178E+02 -0.95548196955E+01  0.17820006078E+03  0.00000000000E+00 0.  1.
<mgrwt>
<rscale>  0 0.24043524E+04</rscale>
<asrwt>0</asrwt>
<pdfrwt beam="1">  1        2 0.38942883E+00 0.24043524E+04</pdfrwt>
<pdfrwt beam="2">  1       -1 0.87837800E-01 0.24043524E+04</pdfrwt>
<totfact> 0.43498792E+00</totfact>
</mgrwt>
</event>
<event>
12    6  0.1403409E-007  0.2336827E+04  0.7818608E-02  0.8463541E-01
         -1   -1    0    0    0  501 -0.00000000000E+00  0.00000000000E+00  0.12009512994E+04  0.12009512994E+04  0.00000000000E+00 0.  1.
          2   -1    0    0  501    0  0.00000000000E+00 -0.00000000000E+00 -0.11367570354E+04  0.11367570354E+04  0.00000000000E+00 0. -1.
         24    2    1    2    0    0  0.67714751889E+03 -0.70914841431E+03  0.18830830753E+03  0.10018690229E+04  0.82832871124E+02 0.  0.
        254    2    1    2    0    0 -0.67714751889E+03  0.70914841431E+03 -0.12411404357E+03  0.13358393119E+04  0.89868912058E+03 0.  0.
         23    2    4    4    0    0  0.17492721076E+03  0.13484136735E+03  0.13195714875E+03  0.27299230510E+03  0.91270948972E+02 0.  0.
         23    2    4    4    0    0 -0.85207472966E+03  0.57430704696E+03 -0.25607119232E+03  0.10628470068E+04  0.90616638251E+02 0.  0.
          2    1    3    3  502    0  0.15584922669E+03 -0.12491915481E+03  0.17789637890E+02  0.20052493091E+03  0.00000000000E+00 0. -1.
         -1    1    3    3    0  502  0.52129829220E+03 -0.58422925949E+03  0.17051866964E+03  0.80134409201E+03  0.00000000000E+00 0.  1.
         11    1    5    5    0    0 -0.45571699191E+01 -0.80455562618E+01  0.80199831022E+01  0.12240053194E+02  0.00000000000E+00 0. -1.
        -11    1    5    5    0    0  0.17948438068E+03  0.14288692361E+03  0.12393716565E+03  0.26075225191E+03  0.00000000000E+00 0.  1.
          3    1    6    6  503    0 -0.34554178964E+02  0.11596998080E+02 -0.23912550293E+02  0.43592335449E+02  0.00000000000E+00 0. -1.
         -3    1    6    6    0  503 -0.81752055069E+03  0.56271004888E+03 -0.23215864203E+03  0.10192546713E+04  0.00000000000E+00 0.  1.
<mgrwt>
<rscale>  0 0.23368268E+04</rscale>
<asrwt>0</asrwt>
<pdfrwt beam="1">  1        2 0.17488570E+00 0.23368268E+04</pdfrwt>
<pdfrwt beam="2">  1       -1 0.18476174E+00 0.23368268E+04</pdfrwt>
<totfact> 0.41009843E+00</totfact>
</mgrwt>
</event>
<event>
12    6  0.1403409E-007  0.1687958E+04  0.7818608E-02  0.8768263E-01
          2   -1    0    0  501    0  0.00000000000E+00  0.00000000000E+00  0.14103066493E+04  0.14103066493E+04  0.00000000000E+00 0. -1.
         -1   -1    0    0    0  501 -0.00000000000E+00 -0.00000000000E+00 -0.50506758677E+03  0.50506758677E+03  0.00000000000E+00 0.  1.
         24    2    1    2    0    0  0.10787227510E+03 -0.28658480116E+03 -0.26185076123E+03  0.41028350772E+03  0.77456178287E+02 0.  0.
        254    2    1    2    0    0 -0.10787227510E+03  0.28658480116E+03  0.11670898238E+04  0.15050907284E+04  0.89968448239E+03 0.  0.
         23    2    4    4    0    0  0.10946502061E+03  0.51078857752E+03  0.10094057737E+04  0.11403202653E+04  0.92426888263E+02 0.  0.
         23    2    4    4    0    0 -0.21733729571E+03 -0.22420377636E+03  0.15768405005E+03  0.36477046311E+03  0.10339437931E+03 0.  0.
          4    1    3    3  502    0 -0.11707048710E+02 -0.14612810831E+02 -0.14098378823E+02  0.23438291647E+02  0.00000000000E+00 0. -1.
         -3    1    3    3    0  502  0.11957932381E+03 -0.27197199033E+03 -0.24775238240E+03  0.38684521607E+03  0.00000000000E+00 0.  1.
         11    1    5    5    0    0  0.13471235163E+02  0.78918108312E+02  0.93008320193E+02  0.12271955680E+03  0.00000000000E+00 0.  1.
        -11    1    5    5    0    0  0.95993785442E+02  0.43187046921E+03  0.91639745353E+03  0.10176007085E+04  0.00000000000E+00 0. -1.
          3    1    6    6  503    0 -0.22275717954E+03 -0.21387065857E+03  0.13061460396E+03  0.33529329609E+03  0.00000000000E+00 0. -1.
         -3    1    6    6    0  503  0.54198838285E+01 -0.10333117791E+02  0.27069446087E+02  0.29477167019E+02  0.00000000000E+00 0.  1.
<mgrwt>
<rscale>  0 0.16879576E+04</rscale>
<asrwt>0</asrwt>
<pdfrwt beam="1">  1        2 0.21697025E+00 0.16879576E+04</pdfrwt>
<pdfrwt beam="2">  1       -1 0.77702707E-01 0.16879576E+04</pdfrwt>
<totfact> 0.25716031E+01</totfact>
</mgrwt>
</event>
<event>
12    6  0.1403409E-007  0.1394303E+04  0.7818608E-02  0.8957953E-01
          2   -1    0    0  501    0  0.00000000000E+00  0.00000000000E+00  0.11263354813E+04  0.11263354813E+04  0.00000000000E+00 0. -1.
         -1   -1    0    0    0  501 -0.00000000000E+00 -0.00000000000E+00 -0.43150586342E+03  0.43150586342E+03  0.00000000000E+00 0.  1.
         24    2    1    2    0    0  0.10731802043E+03 -0.38438580934E+03  0.20305834328E+03  0.45478593494E+03  0.79548399809E+02 0.  0.
        254    2    1    2    0    0 -0.10731802043E+03  0.38438580934E+03  0.49177127457E+03  0.11030554098E+04  0.90311828825E+03 0.  0.
         23    2    4    4    0    0 -0.26839050694E+03 -0.12109896116E+03  0.47097383101E+03  0.56422831637E+03  0.99190830634E+02 0.  0.
         23    2    4    4    0    0  0.16107248652E+03  0.50548477050E+03  0.20797443557E+02  0.53882709339E+03  0.91885275190E+02 0.  0.
          4    1    3    3  502    0  0.32793253381E+02 -0.61065287660E+02  0.66273127632E+02  0.95898353846E+02  0.00000000000E+00 0. -1.
         -3    1    3    3    0  502  0.74524767044E+02 -0.32332052168E+03  0.13678521565E+03  0.35888758109E+03  0.00000000000E+00 0.  1.
         11    1    5    5    0    0 -0.22401464612E+03 -0.10440199324E+03  0.44775280223E+03  0.51143416953E+03  0.00000000000E+00 0. -1.
        -11    1    5    5    0    0 -0.44375860827E+02 -0.16696967919E+02  0.23221028785E+02  0.52794146832E+02  0.00000000000E+00 0.  1.
          3    1    6    6  503    0  0.14785400146E+03  0.41172042101E+03 -0.14674122303E+02  0.43770976764E+03  0.00000000000E+00 0. -1.
         -3    1    6    6    0  503  0.13218485054E+02  0.93764349486E+02  0.35471565859E+02  0.10111732575E+03  0.00000000000E+00 0.  1.
<mgrwt>
<rscale>  0 0.13943032E+04</rscale>
<asrwt>0</asrwt>
<pdfrwt beam="1">  1        2 0.17328238E+00 0.13943032E+04</pdfrwt>
<pdfrwt beam="2">  1       -1 0.66385518E-01 0.13943032E+04</pdfrwt>
<totfact> 0.53594030E+01</totfact>
</mgrwt>
</event>
<event>
12    6  0.1403409E-007  0.2559705E+04  0.7818608E-02  0.8382019E-01
         -1   -1    0    0    0  501 -0.00000000000E+00  0.00000000000E+00  0.83506788505E+03  0.83506788505E+03  0.00000000000E+00 0.  1.
          2   -1    0    0  501    0  0.00000000000E+00 -0.00000000000E+00 -0.19615438992E+04  0.19615438992E+04  0.00000000000E+00 0. -1.
         24    2    1    2    0    0  0.17523241456E+03 -0.10999344043E+04 -0.61997604820E+03  0.12771637916E+04  0.78835001208E+02 0.  0.
        254    2    1    2    0    0 -0.17523241456E+03  0.10999344043E+04 -0.50649996592E+03  0.15194479926E+04  0.90089838151E+03 0.  0.
         23    2    4    4    0    0  0.21742893987E+03  0.16353983603E+03  0.13259254451E+03  0.31624846796E+03  0.91715259187E+02 0.  0.
         23    2    4    4    0    0 -0.39266135443E+03  0.93639456828E+03 -0.63909251043E+03  0.12031995246E+04  0.90731099386E+02 0.  0.
          4    1    3    3  502    0  0.36412491334E+02 -0.94114016987E+02 -0.47362209421E+02  0.11147419701E+03  0.00000000000E+00 0. -1.
         -3    1    3    3    0  502  0.13881992322E+03 -0.10058203873E+04 -0.57261383878E+03  0.11656895946E+04  0.00000000000E+00 0.  1.
         11    1    5    5    0    0  0.21113023619E+03  0.15052871911E+03  0.95305087471E+02  0.27625700282E+03  0.00000000000E+00 0. -1.
        -11    1    5    5    0    0  0.62987036816E+01  0.13011116917E+02  0.37287457043E+02  0.39991465143E+02  0.00000000000E+00 0.  1.
          3    1    6    6  503    0 -0.19173113236E+03  0.38601790569E+03 -0.22935076405E+03  0.48823398448E+03  0.00000000000E+00 0. -1.
         -3    1    6    6    0  503 -0.20093022206E+03  0.55037666259E+03 -0.40974174639E+03  0.71496554014E+03  0.00000000000E+00 0.  1.
<mgrwt>
<rscale>  0 0.25597049E+04</rscale>
<asrwt>0</asrwt>
<pdfrwt beam="1">  1        2 0.30177599E+00 0.25597049E+04</pdfrwt>
<pdfrwt beam="2">  1       -1 0.12847198E+00 0.25597049E+04</pdfrwt>
<totfact> 0.37033675E+00</totfact>
</mgrwt>
</event>
<event>
12    6  0.1403409E-007  0.3840236E+04  0.7818608E-02  0.8037575E-01
          2   -1    0    0  501    0  0.00000000000E+00  0.00000000000E+00  0.12347686875E+04  0.12347686875E+04  0.00000000000E+00 0. -1.
         -1   -1    0    0    0  501 -0.00000000000E+00 -0.00000000000E+00 -0.29858661736E+04  0.29858661736E+04  0.00000000000E+00 0.  1.
         24    2    1    2    0    0 -0.14939545247E+04 -0.10281036998E+04 -0.75339507861E+03  0.19651767582E+04  0.73608469230E+02 0.  0.
        254    2    1    2    0    0  0.14939545247E+04  0.10281036998E+04 -0.99770240748E+03  0.22554581029E+04  0.89598204244E+03 0.  0.
         23    2    4    4    0    0  0.27799860887E+03  0.60627089778E+03 -0.60892000070E+03  0.90780768872E+03  0.92106484146E+02 0.  0.
         23    2    4    4    0    0  0.12159559159E+04  0.42183280205E+03 -0.38878240678E+03  0.13476504142E+04  0.92293969107E+02 0.  0.
          4    1    3    3  502    0 -0.14378987169E+04 -0.99297383785E+03 -0.71067195440E+03  0.18864263541E+04  0.00000000000E+00 0. -1.
         -3    1    3    3    0  502 -0.56055807816E+02 -0.35129861980E+02 -0.42723124207E+02  0.78750404028E+02  0.00000000000E+00 0.  1.
         11    1    5    5    0    0  0.41627601168E+02  0.11175434741E+03 -0.15862474368E+03  0.19845327070E+03  0.00000000000E+00 0.  1.
        -11    1    5    5    0    0  0.23637100770E+03  0.49451655037E+03 -0.45029525701E+03  0.70935441801E+03  0.00000000000E+00 0. -1.
          3    1    6    6  503    0  0.11680665903E+04  0.41704044639E+03 -0.38785520006E+03  0.12995129663E+04  0.00000000000E+00 0. -1.
         -3    1    6    6    0  503  0.47889325573E+02  0.47923556606E+01 -0.92720671452E+00  0.48137447885E+02  0.00000000000E+00 0.  1.
<mgrwt>
<rscale>  0 0.38402365E+04</rscale>
<asrwt>0</asrwt>
<pdfrwt beam="1">  1        2 0.18996442E+00 0.38402365E+04</pdfrwt>
<pdfrwt beam="2">  1       -1 0.45936402E+00 0.38402365E+04</pdfrwt>
<totfact> 0.45860283E-02</totfact>
</mgrwt>
</event>
<event>
12    6  0.1403409E-007  0.1772698E+04  0.7818608E-02  0.8720955E-01
         -1   -1    0    0    0  501 -0.00000000000E+00  0.00000000000E+00  0.56236996548E+03  0.56236996548E+03  0.00000000000E+00 0.  1.
          2   -1    0    0  501    0  0.00000000000E+00 -0.00000000000E+00 -0.13969710152E+04  0.13969710152E+04  0.00000000000E+00 0. -1.
         24    2    1    2    0    0 -0.45280031136E+03  0.27225038678E+03 -0.73692729497E+03  0.91017851987E+03  0.78833399698E+02 0.  0.
        254    2    1    2    0    0  0.45280031136E+03 -0.27225038678E+03 -0.97673754715E+02  0.10491624608E+04  0.90114000669E+03 0.  0.
         23    2    4    4    0    0  0.37814504678E+02  0.15794639290E+03 -0.34771667899E+03  0.39484867382E+03  0.92852499048E+02 0.  0.
         23    2    4    4    0    0  0.41498580668E+03 -0.43019677967E+03  0.25004292427E+03  0.65431378695E+03  0.91228169045E+02 0.  0.
          2    1    3    3  502    0 -0.26026894764E+03  0.20001187945E+03 -0.43785523974E+03  0.54723111022E+03  0.00000000000E+00 0. -1.
         -1    1    3    3    0  502 -0.19253136372E+03  0.72238507327E+02 -0.29907205523E+03  0.36294740966E+03  0.00000000000E+00 0.  1.
         11    1    5    5    0    0  0.44519614771E+02  0.72245408834E+02 -0.92432504258E+02  0.12547973159E+03  0.00000000000E+00 0. -1.
        -11    1    5    5    0    0 -0.67051100929E+01  0.85700984061E+02 -0.25528417473E+03  0.26936894223E+03  0.00000000000E+00 0.  1.
          4    1    6    6  503    0  0.23788608150E+03 -0.24847295627E+03  0.94679486632E+02  0.35678116957E+03  0.00000000000E+00 0. -1.
         -4    1    6    6    0  503  0.17709972518E+03 -0.18172382340E+03  0.15536343764E+03  0.29753261738E+03  0.00000000000E+00 0.  1.
<mgrwt>
<rscale>  0 0.17726980E+04</rscale>
<asrwt>0</asrwt>
<pdfrwt beam="1">  1        2 0.21491862E+00 0.17726980E+04</pdfrwt>
<pdfrwt beam="2">  1       -1 0.86518457E-01 0.17726980E+04</pdfrwt>
<totfact> 0.20638102E+01</totfact>
</mgrwt>
</event>
<event>
12    6  0.1403409E-007  0.2903710E+04  0.7818608E-02  0.8271774E-01
          2   -1    0    0  501    0  0.00000000000E+00  0.00000000000E+00  0.12862949798E+04  0.12862949798E+04  0.00000000000E+00 0. -1.
         -1   -1    0    0    0  501 -0.00000000000E+00 -0.00000000000E+00 -0.16387247244E+04  0.16387247244E+04  0.00000000000E+00 0.  1.
         24    2    1    2    0    0  0.12620441618E+04  0.21499934510E+03 -0.44052948855E+03  0.13562967696E+04  0.80588537387E+02 0.  0.
        254    2    1    2    0    0 -0.12620441618E+04 -0.21499934510E+03  0.88099743899E+02  0.15687229346E+04  0.90230255233E+03 0.  0.
         23    2    4    4    0    0 -0.13600618364E+04 -0.29303310588E+03  0.15197725893E+03  0.14025285938E+04  0.91393485470E+02 0.  0.
         23    2    4    4    0    0  0.98017674591E+02  0.78033760781E+02 -0.63877515027E+02  0.16619434083E+03  0.88563478042E+02 0.  0.
          2    1    3    3  502    0  0.67815159278E+03  0.80897797964E+02 -0.25711673251E+03  0.72975547318E+03  0.00000000000E+00 0. -1.
         -1    1    3    3    0  502  0.58389256902E+03  0.13410154713E+03 -0.18341275604E+03  0.62654129646E+03  0.00000000000E+00 0.  1.
         11    1    5    5    0    0 -0.42800531079E+03 -0.99194861065E+02  0.90300062912E+02  0.44853346351E+03  0.00000000000E+00 0.  1.
        -11    1    5    5    0    0 -0.93205652559E+03 -0.19383824482E+03  0.61677196014E+02  0.95399513026E+03  0.00000000000E+00 0. -1.
          1    1    6    6  503    0  0.10069911840E+03  0.32431875487E+02 -0.32127789807E+02  0.11056370956E+03  0.00000000000E+00 0. -1.
         -1    1    6    6    0  503 -0.26814438104E+01  0.45601885294E+02 -0.31749725219E+02  0.55630631263E+02  0.00000000000E+00 0.  1.
<mgrwt>
<rscale>  0 0.29037103E+04</rscale>
<asrwt>0</asrwt>
<pdfrwt beam="1">  1        2 0.19789154E+00 0.29037103E+04</pdfrwt>
<pdfrwt beam="2">  1       -1 0.25211149E+00 0.29037103E+04</pdfrwt>
<totfact> 0.11177942E+00</totfact>
</mgrwt>
</event>
<event>
12    6  0.1403409E-007  0.2014373E+04  0.7818608E-02  0.8599930E-01
          2   -1    0    0  501    0  0.00000000000E+00  0.00000000000E+00  0.21322005953E+04  0.21322005953E+04  0.00000000000E+00 0. -1.
         -1   -1    0    0    0  501 -0.00000000000E+00 -0.00000000000E+00 -0.47576406329E+03  0.47576406329E+03  0.00000000000E+00 0.  1.
         24    2    1    2    0    0 -0.37310456124E+03  0.52277213803E+03  0.12915924459E+04  0.14443722755E+04  0.74178852111E+02 0.  0.
        254    2    1    2    0    0  0.37310456124E+03 -0.52277213803E+03  0.36484408614E+03  0.11635923831E+04  0.89907636209E+03 0.  0.
         23    2    4    4    0    0  0.31972094731E+03  0.33106855255E+02 -0.17930439216E+03  0.37871427649E+03  0.89201402210E+02 0.  0.
         23    2    4    4    0    0  0.53383613925E+02 -0.55587899328E+03  0.54414847831E+03  0.78487810659E+03  0.89915573493E+02 0.  0.
          4    1    3    3  502    0 -0.21084476664E+03  0.27753028517E+03  0.77911188460E+03  0.85351854317E+03  0.00000000000E+00 0. -1.
         -3    1    3    3    0  502 -0.16225979460E+03  0.24524185286E+03  0.51248056129E+03  0.59085373236E+03  0.00000000000E+00 0.  1.
         11    1    5    5    0    0  0.28234038291E+03 -0.16406606376E+01 -0.15646857457E+03  0.32280210411E+03  0.00000000000E+00 0.  1.
        -11    1    5    5    0    0  0.37380564405E+02  0.34747515893E+02 -0.22835817593E+02  0.55912172387E+02  0.00000000000E+00 0. -1.
          3    1    6    6  503    0 -0.16897011073E+02 -0.13790015023E+03  0.10172138953E+03  0.17218943493E+03  0.00000000000E+00 0. -1.
         -3    1    6    6    0  503  0.70280624997E+02 -0.41797884305E+03  0.44242708878E+03  0.61268867166E+03  0.00000000000E+00 0.  1.
<mgrwt>
<rscale>  0 0.20143728E+04</rscale>
<asrwt>0</asrwt>
<pdfrwt beam="1">  1        2 0.32803086E+00 0.20143728E+04</pdfrwt>
<pdfrwt beam="2">  1       -1 0.73194472E-01 0.20143728E+04</pdfrwt>
<totfact> 0.11203135E+01</totfact>
</mgrwt>
</event>
<event>
12    6  0.1403409E-007  0.1537128E+04  0.7818608E-02  0.8860132E-01
         -1   -1    0    0    0  501 -0.00000000000E+00  0.00000000000E+00  0.55375760079E+03  0.55375760079E+03  0.00000000000E+00 0.  1.
          2   -1    0    0  501    0  0.00000000000E+00 -0.00000000000E+00 -0.10666948054E+04  0.10666948054E+04  0.00000000000E+00 0. -1.
         24    2    1    2    0    0  0.20575819316E+03 -0.32487269988E+01  0.31063488661E+03  0.38196509140E+03  0.84001845167E+02 0.  0.
        254    2    1    2    0    0 -0.20575819316E+03  0.32487269988E+01 -0.82357209123E+03  0.12384873148E+04  0.90179423995E+03 0.  0.
         23    2    4    4    0    0  0.44748402041E+02 -0.70353888676E+02 -0.93314727305E+03  0.94134783033E+03  0.91759551632E+02 0.  0.
         23    2    4    4    0    0 -0.25050659520E+03  0.73602615675E+02  0.10957518182E+03  0.29713948449E+03  0.90079151279E+02 0.  0.
          4    1    3    3  502    0 -0.21245973254E+01  0.43688936885E+01  0.41621637084E+02  0.41904198112E+02  0.00000000000E+00 0. -1.
         -3    1    3    3    0  502  0.20788279049E+03 -0.76176206873E+01  0.26901324952E+03  0.34006089329E+03  0.00000000000E+00 0.  1.
         11    1    5    5    0    0  0.30912574781E+02 -0.16050556007E+02 -0.72357237795E+03  0.72441023858E+03  0.00000000000E+00 0. -1.
        -11    1    5    5    0    0  0.13835827260E+02 -0.54303332668E+02 -0.20957489510E+03  0.21693759174E+03  0.00000000000E+00 0.  1.
          2    1    6    6  503    0 -0.20626727517E+03  0.22099974534E+02  0.92467600085E+02  0.22712299476E+03  0.00000000000E+00 0. -1.
         -2    1    6    6    0  503 -0.44239320031E+02  0.51502641141E+02  0.17107581735E+02  0.70016489730E+02  0.00000000000E+00 0.  1.
<mgrwt>
<rscale>  0 0.15371277E+04</rscale>
<asrwt>0</asrwt>
<pdfrwt beam="1">  1        2 0.16410689E+00 0.15371277E+04</pdfrwt>
<pdfrwt beam="2">  1       -1 0.85193478E-01 0.15371277E+04</pdfrwt>
<totfact> 0.34220370E+01</totfact>
</mgrwt>
</event>
<event>
12    6  0.1403409E-007  0.1779131E+04  0.7818608E-02  0.8717477E-01
         -1   -1    0    0    0  501 -0.00000000000E+00  0.00000000000E+00  0.54634122696E+03  0.54634122696E+03  0.00000000000E+00 0.  1.
          2   -1    0    0  501    0  0.00000000000E+00 -0.00000000000E+00 -0.14484106666E+04  0.14484106666E+04  0.00000000000E+00 0. -1.
         24    2    1    2    0    0  0.43538894720E+03  0.25797388125E+03 -0.80910588891E+03  0.95753020140E+03  0.78087696655E+02 0.  0.
        254    2    1    2    0    0 -0.43538894720E+03 -0.25797388125E+03 -0.92963550684E+02  0.10372216921E+04  0.90059566848E+03 0.  0.
         23    2    4    4    0    0  0.27199455890E+03 -0.72530943401E+02 -0.18812334816E+02  0.29654484572E+03  0.91340920510E+02 0.  0.
         23    2    4    4    0    0 -0.70738350610E+03 -0.18544293785E+03 -0.74151215868E+02  0.74067684639E+03  0.91232012218E+02 0.  0.
          4    1    3    3  502    0  0.27457897105E+03  0.20193597128E+03 -0.51181792895E+03  0.61492222292E+03  0.00000000000E+00 0. -1.
         -3    1    3    3    0  502  0.16080997615E+03  0.56037909971E+02 -0.29728795996E+03  0.34260797849E+03  0.00000000000E+00 0.  1.
         11    1    5    5    0    0  0.14672814249E+03 -0.54548946883E+02 -0.53324040949E+02  0.16537287791E+03  0.00000000000E+00 0. -1.
        -11    1    5    5    0    0  0.12526641642E+03 -0.17981996518E+02  0.34511706134E+02  0.13117196782E+03  0.00000000000E+00 0.  1.
          1    1    6    6  503    0 -0.53325590760E+03 -0.14537204835E+03 -0.16624640467E+02  0.55296588873E+03  0.00000000000E+00 0. -1.
         -1    1    6    6    0  503 -0.17412759850E+03 -0.40070889501E+02 -0.57526575402E+02  0.18771095766E+03  0.00000000000E+00 0.  1.
<mgrwt>
<rscale>  0 0.17791306E+04</rscale>
<asrwt>0</asrwt>
<pdfrwt beam="1">  1        2 0.22283241E+00 0.17791306E+04</pdfrwt>
<pdfrwt beam="2">  1       -1 0.84052495E-01 0.17791306E+04</pdfrwt>
<totfact> 0.20526521E+01</totfact>
</mgrwt>
</event>
<event>
12    6  0.1403409E-007  0.1617856E+04  0.7818608E-02  0.8809653E-01
          2   -1    0    0  501    0  0.00000000000E+00  0.00000000000E+00  0.26424507866E+04  0.26424507866E+04  0.00000000000E+00 0. -1.
         -1   -1    0    0    0  501 -0.00000000000E+00 -0.00000000000E+00 -0.24763538628E+03  0.24763538628E+03  0.00000000000E+00 0.  1.
         24    2    1    2    0    0  0.42204091881E+03  0.11460848639E+03  0.14413848050E+04  0.15084231479E+04  0.80601457018E+02 0.  0.
        254    2    1    2    0    0 -0.42204091881E+03 -0.11460848639E+03  0.95343059534E+03  0.13816630250E+04  0.89928258745E+03 0.  0.
         23    2    4    4    0    0  0.15908557413E+02 -0.43616671387E+03  0.48263514155E+03  0.65697466715E+03  0.90468496903E+02 0.  0.
         23    2    4    4    0    0 -0.43794947623E+03  0.32155822748E+03  0.47079545379E+03  0.72468835781E+03  0.91243735384E+02 0.  0.
          2    1    3    3  502    0  0.93628053339E+02 -0.37919996981E-01  0.23739756483E+03  0.25519368644E+03  0.00000000000E+00 0. -1.
         -1    1    3    3    0  502  0.32841286548E+03  0.11464640638E+03  0.12039872401E+04  0.12532294615E+04  0.00000000000E+00 0.  1.
         11    1    5    5    0    0 -0.55449242634E+00 -0.87024865058E+00  0.25521046638E+02  0.25541899226E+02  0.00000000000E+00 0.  1.
        -11    1    5    5    0    0  0.16463049840E+02 -0.43529646521E+03  0.45711409491E+03  0.63143276792E+03  0.00000000000E+00 0. -1.
          4    1    6    6  503    0 -0.42379955067E+03  0.28552192300E+03  0.42440293383E+03  0.66426401220E+03  0.00000000000E+00 0. -1.
         -4    1    6    6    0  503 -0.14149925556E+02  0.36036304481E+02  0.46392519959E+02  0.60424345607E+02  0.00000000000E+00 0.  1.
<mgrwt>
<rscale>  0 0.16178558E+04</rscale>
<asrwt>0</asrwt>
<pdfrwt beam="1">  1        2 0.40653087E+00 0.16178558E+04</pdfrwt>
<pdfrwt beam="2">  1       -1 0.38097754E-01 0.16178558E+04</pdfrwt>
<totfact> 0.20917527E+01</totfact>
</mgrwt>
</event>
<event>
12    6  0.1403409E-007  0.3022553E+04  0.7818608E-02  0.8237320E-01
          2   -1    0    0  501    0  0.00000000000E+00  0.00000000000E+00  0.33857973212E+04  0.33857973212E+04  0.00000000000E+00 0. -1.
         -1   -1    0    0    0  501 -0.00000000000E+00 -0.00000000000E+00 -0.67456981198E+03  0.67456981198E+03  0.00000000000E+00 0.  1.
         24    2    1    2    0    0  0.11071005985E+03  0.11741953178E+04  0.21892618935E+04  0.24880382069E+04  0.80468125633E+02 0.  0.
        254    2    1    2    0    0 -0.11071005985E+03 -0.11741953178E+04  0.52196561578E+03  0.15723289263E+04  0.89932129219E+03 0.  0.
         23    2    4    4    0    0  0.14443082228E+03 -0.82811795883E+02  0.39865719083E+03  0.44110227732E+03  0.89025879889E+02 0.  0.
         23    2    4    4    0    0 -0.25514088213E+03 -0.10913835219E+04  0.12330842495E+03  0.11312266490E+04  0.90850987604E+02 0.  0.
          4    1    3    3  502    0  0.94559594706E+02  0.88882814012E+03  0.17254883866E+04  0.19432619875E+04  0.00000000000E+00 0. -1.
         -3    1    3    3    0  502  0.16150465141E+02  0.28536717770E+03  0.46377350686E+03  0.54477621947E+03  0.00000000000E+00 0.  1.
         11    1    5    5    0    0  0.54641491007E+02 -0.18999531687E+02  0.24686212006E+03  0.25354995773E+03  0.00000000000E+00 0. -1.
        -11    1    5    5    0    0  0.89789331272E+02 -0.63812264196E+02  0.15179507078E+03  0.18755231959E+03  0.00000000000E+00 0.  1.
          1    1    6    6  503    0 -0.11758836063E+02 -0.14779395181E+03  0.37838889581E+02  0.15301341112E+03  0.00000000000E+00 0. -1.
         -1    1    6    6    0  503 -0.24338204606E+03 -0.94358957012E+03  0.85469535364E+02  0.97821323783E+03  0.00000000000E+00 0.  1.
<mgrwt>
<rscale>  0 0.30225530E+04</rscale>
<asrwt>0</asrwt>
<pdfrwt beam="1">  1        2 0.52089188E+00 0.30225530E+04</pdfrwt>
<pdfrwt beam="2">  1       -1 0.10377997E+00 0.30225530E+04</pdfrwt>
<totfact> 0.82717013E-01</totfact>
</mgrwt>
</event>
<event>
12    6  0.1403409E-007  0.2638686E+04  0.7818608E-02  0.8355178E-01
         -1   -1    0    0    0  501 -0.00000000000E+00  0.00000000000E+00  0.13206758196E+04  0.13206758196E+04  0.00000000000E+00 0.  1.
          2   -1    0    0  501    0  0.00000000000E+00 -0.00000000000E+00 -0.13180115861E+04  0.13180115861E+04  0.00000000000E+00 0. -1.
         24    2    1    2    0    0  0.58308733638E+03 -0.96920859836E+03  0.27699854783E+03  0.11672788217E+04  0.80346145409E+02 0.  0.
        254    2    1    2    0    0 -0.58308733638E+03  0.96920859836E+03 -0.27433431441E+03  0.14714085840E+04  0.90023761086E+03 0.  0.
         23    2    4    4    0    0 -0.33777811243E+03  0.63715502472E+03  0.27608658891E+03  0.77739656509E+03  0.89783272852E+02 0.  0.
         23    2    4    4    0    0 -0.24530922395E+03  0.33205357364E+03 -0.55042090332E+03  0.69401201890E+03  0.90847787253E+02 0.  0.
          2    1    3    3  502    0  0.24664792069E+03 -0.33557561881E+03  0.10723832967E+03  0.43005377812E+03  0.00000000000E+00 0. -1.
         -1    1    3    3    0  502  0.33643941569E+03 -0.63363297954E+03  0.16976021816E+03  0.73722504357E+03  0.00000000000E+00 0.  1.
         11    1    5    5    0    0 -0.12892422833E+03  0.31545712754E+03  0.98530425674E+02  0.35474342947E+03  0.00000000000E+00 0.  1.
        -11    1    5    5    0    0 -0.20885388410E+03  0.32169789717E+03  0.17755616324E+03  0.42265313562E+03  0.00000000000E+00 0. -1.
          1    1    6    6  503    0 -0.15221387870E+03  0.26681699103E+03 -0.42953247277E+03  0.52807056037E+03  0.00000000000E+00 0. -1.
         -1    1    6    6    0  503 -0.93095345250E+02  0.65236582617E+02 -0.12088843055E+03  0.16594145853E+03  0.00000000000E+00 0.  1.
<mgrwt>
<rscale>  0 0.26386861E+04</rscale>
<asrwt>0</asrwt>
<pdfrwt beam="1">  1        2 0.20277101E+00 0.26386861E+04</pdfrwt>
<pdfrwt beam="2">  1       -1 0.20318090E+00 0.26386861E+04</pdfrwt>
<totfact> 0.23197859E+00</totfact>
</mgrwt>
</event>
<event>
12    6  0.1403409E-007  0.1564885E+04  0.7818608E-02  0.8842416E-01
          2   -1    0    0  501    0  0.00000000000E+00  0.00000000000E+00  0.98810644487E+03  0.98810644487E+03  0.00000000000E+00 0. -1.
         -1   -1    0    0    0  501 -0.00000000000E+00 -0.00000000000E+00 -0.61958511273E+03  0.61958511273E+03  0.00000000000E+00 0.  1.
         24    2    1    2    0    0 -0.12939549768E+03  0.36906032862E+03 -0.22617826421E+03  0.45832256645E+03  0.77163765688E+02 0.  0.
        254    2    1    2    0    0  0.12939549768E+03 -0.36906032862E+03  0.59469959635E+03  0.11493689912E+04  0.90245927718E+03 0.  0.
         23    2    4    4    0    0  0.28949593563E+03 -0.18532459203E+03 -0.12957579312E+03  0.37879642913E+03  0.92432393679E+02 0.  0.
         23    2    4    4    0    0 -0.16010043795E+03 -0.18373573659E+03  0.72427538946E+03  0.77057256203E+03  0.99077053045E+02 0.  0.
          2    1    3    3  502    0 -0.53208408453E+02  0.10592884593E+03 -0.10659679673E+03  0.15942061411E+03  0.00000000000E+00 0. -1.
         -1    1    3    3    0  502 -0.76187089228E+02  0.26313148269E+03 -0.11958146747E+03  0.29890195234E+03  0.00000000000E+00 0.  1.
         11    1    5    5    0    0  0.18387631246E+03 -0.65605788680E+02 -0.56674698742E+02  0.20328954540E+03  0.00000000000E+00 0. -1.
        -11    1    5    5    0    0  0.10561962317E+03 -0.11971880335E+03 -0.72901094376E+02  0.17550688373E+03  0.00000000000E+00 0.  1.
          4    1    6    6  503    0 -0.34008289554E+02 -0.29067246931E+01  0.18247956737E+03  0.18564429783E+03  0.00000000000E+00 0.  1.
         -4    1    6    6    0  503 -0.12609214839E+03 -0.18082901189E+03  0.54179582209E+03  0.58492826420E+03  0.00000000000E+00 0. -1.
<mgrwt>
<rscale>  0 0.15648847E+04</rscale>
<asrwt>0</asrwt>
<pdfrwt beam="1">  1        2 0.15201638E+00 0.15648847E+04</pdfrwt>
<pdfrwt beam="2">  1       -1 0.95320787E-01 0.15648847E+04</pdfrwt>
<totfact> 0.29895071E+01</totfact>
</mgrwt>
</event>
<event>
12    6  0.1403409E-007  0.1401494E+04  0.7818608E-02  0.8952738E-01
          2   -1    0    0  501    0  0.00000000000E+00  0.00000000000E+00  0.11857634155E+04  0.11857634155E+04  0.00000000000E+00 0. -1.
         -1   -1    0    0    0  501 -0.00000000000E+00 -0.00000000000E+00 -0.41411824910E+03  0.41411824910E+03  0.00000000000E+00 0.  1.
         24    2    1    2    0    0 -0.39172877120E+03  0.28203650763E+02  0.10834078847E+03  0.41473702910E+03  0.77602839915E+02 0.  0.
        254    2    1    2    0    0  0.39172877120E+03 -0.28203650763E+02  0.66330437797E+03  0.11851446355E+04  0.90019344211E+03 0.  0.
         23    2    4    4    0    0  0.61125293152E+03  0.16801668733E+03  0.29522482853E+03  0.70488680392E+03  0.88588675607E+02 0.  0.
         23    2    4    4    0    0 -0.21952416032E+03 -0.19622033810E+03  0.36807954944E+03  0.48025783163E+03  0.92042121210E+02 0.  0.
          2    1    3    3  502    0 -0.28773688933E+03  0.10455597432E+02  0.11258626790E+03  0.30915611707E+03  0.00000000000E+00 0. -1.
         -1    1    3    3    0  502 -0.10399188186E+03  0.17748053332E+02 -0.42454794284E+01  0.10558091203E+03  0.00000000000E+00 0.  1.
         11    1    5    5    0    0  0.47464446599E+03  0.15875500463E+03  0.20463062335E+03  0.54070714126E+03  0.00000000000E+00 0.  1.
        -11    1    5    5    0    0  0.13660846552E+03  0.92616827011E+01  0.90594205177E+02  0.16417966266E+03  0.00000000000E+00 0. -1.
          3    1    6    6  503    0 -0.33850041879E+02 -0.30936500418E+02  0.12260091549E+03  0.13089643567E+03  0.00000000000E+00 0. -1.
         -3    1    6    6    0  503 -0.18567411844E+03 -0.16528383768E+03  0.24547863395E+03  0.34936139595E+03  0.00000000000E+00 0.  1.
<mgrwt>
<rscale>  0 0.14014939E+04</rscale>
<asrwt>0</asrwt>
<pdfrwt beam="1">  1        2 0.18242514E+00 0.14014939E+04</pdfrwt>
<pdfrwt beam="2">  1       -1 0.63710500E-01 0.14014939E+04</pdfrwt>
<totfact> 0.53560231E+01</totfact>
</mgrwt>
</event>
<event>
12    6  0.1403409E-007  0.1821040E+04  0.7818608E-02  0.8695190E-01
         -1   -1    0    0    0  501 -0.00000000000E+00  0.00000000000E+00  0.12937676088E+04  0.12937676088E+04  0.00000000000E+00 0.  1.
          2   -1    0    0  501    0  0.00000000000E+00 -0.00000000000E+00 -0.64080059167E+03  0.64080059167E+03  0.00000000000E+00 0. -1.
         24    2    1    2    0    0 -0.58442824430E+03 -0.34427031415E+03  0.14831333743E+03  0.69899223420E+03  0.80714778490E+02 0.  0.
        254    2    1    2    0    0  0.58442824430E+03  0.34427031415E+03  0.50465367974E+03  0.12355759663E+04  0.90105172443E+03 0.  0.
         23    2    4    4    0    0  0.29326909585E+03  0.15114776203E+03  0.73269981720E+03  0.80858250896E+03  0.90023569747E+02 0.  0.
         23    2    4    4    0    0  0.29115914845E+03  0.19312255212E+03 -0.22804613747E+03  0.42699345735E+03  0.90820713185E+02 0.  0.
          2    1    3    3  502    0 -0.21870710075E+03 -0.10269846256E+03  0.20771727411E+02  0.24251027770E+03  0.00000000000E+00 0. -1.
         -1    1    3    3    0  502 -0.36572114355E+03 -0.24157185159E+03  0.12754161002E+03  0.45648195650E+03  0.00000000000E+00 0.  1.
         11    1    5    5    0    0  0.15432654245E+03  0.67036691641E+02  0.47551149514E+03  0.50440240061E+03  0.00000000000E+00 0.  1.
        -11    1    5    5    0    0  0.13894255340E+03  0.84111070387E+02  0.25718832207E+03  0.30418010835E+03  0.00000000000E+00 0. -1.
          4    1    6    6  503    0  0.70318724544E+02  0.59204776995E+02 -0.10905504950E+03  0.14262865232E+03  0.00000000000E+00 0. -1.
         -4    1    6    6    0  503  0.22084042390E+03  0.13391777513E+03 -0.11899108796E+03  0.28436480503E+03  0.00000000000E+00 0.  1.
<mgrwt>
<rscale>  0 0.18210404E+04</rscale>
<asrwt>0</asrwt>
<pdfrwt beam="1">  1        2 0.98584707E-01 0.18210404E+04</pdfrwt>
<pdfrwt beam="2">  1       -1 0.19904117E+00 0.18210404E+04</pdfrwt>
<totfact> 0.75261147E+00</totfact>
</mgrwt>
</event>
<event>
12    6  0.1403409E-007  0.1418256E+04  0.7818608E-02  0.8940709E-01
          2   -1    0    0  501    0  0.00000000000E+00  0.00000000000E+00  0.23176740308E+04  0.23176740308E+04  0.00000000000E+00 0. -1.
         -1   -1    0    0    0  501 -0.00000000000E+00 -0.00000000000E+00 -0.21696863413E+03  0.21696863413E+03  0.00000000000E+00 0.  1.
         24    2    1    2    0    0 -0.10533990374E+03  0.39337392834E+03  0.45900687573E+03  0.61876994820E+03  0.79683084854E+02 0.  0.
        254    2    1    2    0    0  0.10533990374E+03 -0.39337392834E+03  0.16416985210E+04  0.19158727168E+04  0.89975257166E+03 0.  0.
         23    2    4    4    0    0 -0.31922320391E+03 -0.55512683529E+02  0.24675082148E+03  0.41655085909E+03  0.87427331903E+02 0.  0.
         23    2    4    4    0    0  0.42456310764E+03 -0.33786124482E+03  0.13949476995E+04  0.14993218577E+04  0.87652127305E+02 0.  0.
          4    1    3    3  502    0 -0.82770905761E+02  0.15831484341E+03  0.20648424268E+03  0.27303910885E+03  0.00000000000E+00 0. -1.
         -3    1    3    3    0  502 -0.22568997977E+02  0.23505908494E+03  0.25252263305E+03  0.34573083936E+03  0.00000000000E+00 0.  1.
         11    1    5    5    0    0 -0.26056701007E+03 -0.54692400614E+02  0.23824141890E+03  0.35727496288E+03  0.00000000000E+00 0. -1.
        -11    1    5    5    0    0 -0.58656193836E+02 -0.82028291529E+00  0.85094025816E+01  0.59275896211E+02  0.00000000000E+00 0.  1.
          2    1    6    6  503    0  0.17156878449E+03 -0.10753955634E+03  0.42423685927E+03  0.47008245740E+03  0.00000000000E+00 0. -1.
         -2    1    6    6    0  503  0.25299432315E+03 -0.23032168848E+03  0.97071084024E+03  0.10292394003E+04  0.00000000000E+00 0.  1.
<mgrwt>
<rscale>  0 0.14182561E+04</rscale>
<asrwt>0</asrwt>
<pdfrwt beam="1">  1        2 0.35656522E+00 0.14182561E+04</pdfrwt>
<pdfrwt beam="2">  1       -1 0.33379791E-01 0.14182561E+04</pdfrwt>
<totfact> 0.41514960E+01</totfact>
</mgrwt>
</event>
<event>
12    6  0.1403409E-007  0.2481056E+04  0.7818608E-02  0.8409766E-01
         -3   -1    0    0    0  501 -0.00000000000E+00  0.00000000000E+00  0.54605935117E+03  0.54605935117E+03  0.00000000000E+00 0.  1.
          2   -1    0    0  501    0  0.00000000000E+00 -0.00000000000E+00 -0.28182089592E+04  0.28182089592E+04  0.00000000000E+00 0. -1.
         24    2    1    2    0    0 -0.58223467836E+03 -0.90338678793E+03 -0.92508758088E+03  0.14201371987E+04  0.76796624631E+02 0.  0.
        254    2    1    2    0    0  0.58223467836E+03  0.90338678793E+03 -0.13470620271E+04  0.19441311117E+04  0.89998042484E+03 0.  0.
         23    2    4    4    0    0  0.11964030294E+03  0.25917146708E+03 -0.10502385185E+04  0.10926809972E+04  0.97299354799E+02 0.  0.
         23    2    4    4    0    0  0.46259437541E+03  0.64421532085E+03 -0.29682350869E+03  0.85145011452E+03  0.88635018049E+02 0.  0.
          2    1    3    3  502    0 -0.50298327937E+03 -0.74290420412E+03 -0.74394060885E+03  0.11654812162E+04  0.00000000000E+00 0. -1.
         -1    1    3    3    0  502 -0.79251398985E+02 -0.16048258380E+03 -0.18114697203E+03  0.25465598249E+03  0.00000000000E+00 0.  1.
         11    1    5    5    0    0  0.66569825270E+02  0.48601980453E+02 -0.23584881754E+03  0.24983666440E+03  0.00000000000E+00 0.  1.
        -11    1    5    5    0    0  0.53070477674E+02  0.21056948663E+03 -0.81438970092E+03  0.84284433276E+03  0.00000000000E+00 0. -1.
          1    1    6    6  503    0  0.85208418084E+02  0.12142800892E+03 -0.93641990543E+02  0.17542536377E+03  0.00000000000E+00 0. -1.
         -1    1    6    6    0  503  0.37738595733E+03  0.52278731193E+03 -0.20318151814E+03  0.67602475075E+03  0.00000000000E+00 0.  1.
<mgrwt>
<rscale>  0 0.24810557E+04</rscale>
<asrwt>0</asrwt>
<pdfrwt beam="1">  1        2 0.43357061E+00 0.24810557E+04</pdfrwt>
<pdfrwt beam="2">  1       -3 0.84009131E-01 0.24810557E+04</pdfrwt>
<totfact> 0.16823611E+00</totfact>
</mgrwt>
</event>
<event>
12    6  0.1403409E-007  0.3210272E+04  0.7818608E-02  0.8186110E-01
         -1   -1    0    0    0  501 -0.00000000000E+00  0.00000000000E+00  0.84385365453E+03  0.84385365453E+03  0.00000000000E+00 0.  1.
          2   -1    0    0  501    0  0.00000000000E+00 -0.00000000000E+00 -0.30532086872E+04  0.30532086872E+04  0.00000000000E+00 0. -1.
         24    2    1    2    0    0  0.63374541249E+03  0.12924563548E+04 -0.14241629668E+04  0.20264598602E+04  0.78884295935E+02 0.  0.
        254    2    1    2    0    0 -0.63374541249E+03 -0.12924563548E+04 -0.78519206588E+03  0.18706024815E+04  0.90030571842E+03 0.  0.
         23    2    4    4    0    0 -0.68495090127E+03 -0.11652903187E+04 -0.34106482138E+03  0.13970854627E+04  0.91996268841E+02 0.  0.
         23    2    4    4    0    0  0.51205488777E+02 -0.12716603605E+03 -0.44412724450E+03  0.47351701886E+03  0.90422093705E+02 0.  0.
          2    1    3    3  502    0  0.24811324389E+03  0.45647911989E+03 -0.47061892377E+03  0.70101037089E+03  0.00000000000E+00 0. -1.
         -1    1    3    3    0  502  0.38563216860E+03  0.83597723492E+03 -0.95354404304E+03  0.13254494893E+04  0.00000000000E+00 0.  1.
         11    1    5    5    0    0 -0.51505487948E+03 -0.91119719706E+03 -0.29888903555E+03  0.10885295202E+04  0.00000000000E+00 0.  1.
        -11    1    5    5    0    0 -0.16989602179E+03 -0.25409312169E+03 -0.42175785826E+02  0.30855594245E+03  0.00000000000E+00 0. -1.
          1    1    6    6  503    0  0.49203652833E+02 -0.13079821967E+03 -0.44708916552E+03  0.46842063964E+03  0.00000000000E+00 0. -1.
         -1    1    6    6    0  503  0.20018359439E+01  0.36321836192E+01  0.29619210135E+01  0.50963792127E+01  0.00000000000E+00 0.  1.
<mgrwt>
<rscale>  0 0.32102718E+04</rscale>
<asrwt>0</asrwt>
<pdfrwt beam="1">  1        2 0.46972442E+00 0.32102718E+04</pdfrwt>
<pdfrwt beam="2">  1       -1 0.12982364E+00 0.32102718E+04</pdfrwt>
<totfact> 0.78316713E-01</totfact>
</mgrwt>
</event>
<event>
12    6  0.1403409E-007  0.2343107E+04  0.7818608E-02  0.8461116E-01
         -1   -1    0    0    0  501 -0.00000000000E+00  0.00000000000E+00  0.79670959220E+03  0.79670959220E+03  0.00000000000E+00 0.  1.
          2   -1    0    0  501    0  0.00000000000E+00 -0.00000000000E+00 -0.17227572204E+04  0.17227572204E+04  0.00000000000E+00 0. -1.
         24    2    1    2    0    0 -0.88783245238E+03  0.31284730289E+03 -0.42243960049E+02  0.94589577471E+03  0.82549173339E+02 0.  0.
        254    2    1    2    0    0  0.88783245238E+03 -0.31284730289E+03 -0.88380366811E+03  0.15735710378E+04  0.89938700732E+03 0.  0.
         23    2    4    4    0    0  0.48232260537E+03 -0.42022814218E+03 -0.63989793758E+02  0.64867656859E+03  0.86370190478E+02 0.  0.
         23    2    4    4    0    0  0.40550984701E+03  0.10738083929E+03 -0.81981387435E+03  0.92489446925E+03  0.85826045036E+02 0.  0.
          2    1    3    3  502    0 -0.13703149934E+03  0.43636850628E+02 -0.36066169001E+02  0.14826521875E+03  0.00000000000E+00 0. -1.
         -1    1    3    3    0  502 -0.75080095304E+03  0.26921045226E+03 -0.61777910474E+01  0.79763055595E+03  0.00000000000E+00 0.  1.
         11    1    5    5    0    0  0.11429072021E+03 -0.55774327898E+02 -0.36974473521E+01  0.12722741644E+03  0.00000000000E+00 0. -1.
        -11    1    5    5    0    0  0.36803188516E+03 -0.36445381428E+03 -0.60292346406E+02  0.52144915215E+03  0.00000000000E+00 0.  1.
          3    1    6    6  503    0  0.60811296736E+02  0.12352781109E+02 -0.19927445427E+03  0.20871251313E+03  0.00000000000E+00 0. -1.
         -3    1    6    6    0  503  0.34469855028E+03  0.95028058178E+02 -0.62053942008E+03  0.71618195612E+03  0.00000000000E+00 0.  1.
<mgrwt>
<rscale>  0 0.23431067E+04</rscale>
<asrwt>0</asrwt>
<pdfrwt beam="1">  1        2 0.26503957E+00 0.23431067E+04</pdfrwt>
<pdfrwt beam="2">  1       -1 0.12257071E+00 0.23431067E+04</pdfrwt>
<totfact> 0.57569479E+00</totfact>
</mgrwt>
</event>
<event>
12    6  0.1403409E-007  0.2330317E+04  0.7818608E-02  0.8466063E-01
          2   -1    0    0  501    0  0.00000000000E+00  0.00000000000E+00  0.25509756737E+04  0.25509756737E+04  0.00000000000E+00 0. -1.
         -1   -1    0    0    0  501 -0.00000000000E+00 -0.00000000000E+00 -0.53218634713E+03  0.53218634713E+03  0.00000000000E+00 0.  1.
         24    2    1    2    0    0 -0.97891374780E+03  0.16283397862E+02  0.10510669039E+04  0.14386781676E+04  0.80721487991E+02 0.  0.
        254    2    1    2    0    0  0.97891374780E+03 -0.16283397862E+02  0.96772242260E+03  0.16444838532E+04  0.89961279539E+03 0.  0.
         23    2    4    4    0    0  0.15048027398E+03 -0.37936180635E+03  0.25753805778E+03  0.49120071561E+03  0.91611128323E+02 0.  0.
         23    2    4    4    0    0  0.82843347382E+03  0.36307840849E+03  0.71018436482E+03  0.11532831376E+04  0.87018459037E+02 0.  0.
          2    1    3    3  502    0 -0.65800970931E+03  0.46147663276E+02  0.72646348798E+03  0.98125204903E+03  0.00000000000E+00 0. -1.
         -1    1    3    3    0  502 -0.32090403849E+03 -0.29864265414E+02  0.32460341595E+03  0.45742611853E+03  0.00000000000E+00 0.  1.
         11    1    5    5    0    0  0.99362262298E+02 -0.23491809024E+03  0.21110851228E+03  0.33109843287E+03  0.00000000000E+00 0. -1.
        -11    1    5    5    0    0  0.51118011679E+02 -0.14444371611E+03  0.46429545497E+02  0.16010228273E+03  0.00000000000E+00 0.  1.
          1    1    6    6  503    0  0.60152345588E+03  0.23418135070E+03  0.46853806452E+03  0.79762101959E+03  0.00000000000E+00 0. -1.
         -1    1    6    6    0  503  0.22691001795E+03  0.12889705779E+03  0.24164630030E+03  0.35566211803E+03  0.00000000000E+00 0.  1.
<mgrwt>
<rscale>  0 0.23303171E+04</rscale>
<asrwt>0</asrwt>
<pdfrwt beam="1">  1        2 0.39245779E+00 0.23303171E+04</pdfrwt>
<pdfrwt beam="2">  1       -1 0.81874824E-01 0.23303171E+04</pdfrwt>
<totfact> 0.49657257E+00</totfact>
</mgrwt>
</event>
<event>
12    6  0.1403409E-007  0.1825758E+04  0.7818608E-02  0.8692720E-01
          2   -1    0    0  501    0  0.00000000000E+00  0.00000000000E+00  0.95603603930E+03  0.95603603930E+03  0.00000000000E+00 0. -1.
         -1   -1    0    0    0  501 -0.00000000000E+00 -0.00000000000E+00 -0.87167010658E+03  0.87167010658E+03  0.00000000000E+00 0.  1.
         24    2    1    2    0    0 -0.49144712426E+03 -0.32418230300E+03 -0.32677855686E+03  0.67833310658E+03  0.82080062973E+02 0.  0.
        254    2    1    2    0    0  0.49144712426E+03  0.32418230300E+03  0.41114448957E+03  0.11493730393E+04  0.89744311833E+03 0.  0.
         23    2    4    4    0    0  0.54178921273E+03 -0.16476861917E+03  0.23133171844E+03  0.61787528844E+03  0.87012983046E+02 0.  0.
         23    2    4    4    0    0 -0.50342088462E+02  0.48895092217E+03  0.17981277113E+03  0.53149775086E+03  0.92465649554E+02 0.  0.
          4    1    3    3  502    0 -0.20021959862E+03 -0.12164988890E+03 -0.85811756680E+02  0.24949998141E+03  0.00000000000E+00 0. -1.
         -3    1    3    3    0  502 -0.29122752565E+03 -0.20253241410E+03 -0.24096680018E+03  0.42883312517E+03  0.00000000000E+00 0.  1.
         11    1    5    5    0    0  0.20970743400E+02 -0.16178065720E+02 -0.50066659829E+01  0.26954936347E+02  0.00000000000E+00 0.  1.
        -11    1    5    5    0    0  0.52081846933E+03 -0.14859055345E+03  0.23633838443E+03  0.59092035209E+03  0.00000000000E+00 0. -1.
          4    1    6    6  503    0 -0.68779587226E+02  0.22331116491E+03  0.76269184822E+02  0.24579563980E+03  0.00000000000E+00 0. -1.
         -4    1    6    6    0  503  0.18437498764E+02  0.26563975726E+03  0.10354358631E+03  0.28570211106E+03  0.00000000000E+00 0.  1.
<mgrwt>
<rscale>  0 0.18257580E+04</rscale>
<asrwt>0</asrwt>
<pdfrwt beam="1">  1        2 0.14708247E+00 0.18257580E+04</pdfrwt>
<pdfrwt beam="2">  1       -1 0.13410309E+00 0.18257580E+04</pdfrwt>
<totfact> 0.13552372E+01</totfact>
</mgrwt>
</event>
<event>
12    6  0.1403409E-007  0.1715970E+04  0.7818608E-02  0.8752308E-01
          2   -1    0    0  501    0  0.00000000000E+00  0.00000000000E+00  0.19064567977E+04  0.19064567977E+04  0.00000000000E+00 0. -1.
         -1   -1    0    0    0  501 -0.00000000000E+00 -0.00000000000E+00 -0.38612892875E+03  0.38612892875E+03  0.00000000000E+00 0.  1.
         24    2    1    2    0    0 -0.17233745828E+03  0.58952162072E+03  0.46976152870E+03  0.77919023057E+03  0.96049886763E+02 0.  0.
        254    2    1    2    0    0  0.17233745828E+03 -0.58952162072E+03  0.10505663402E+04  0.15133954958E+04  0.89968903007E+03 0.  0.
         23    2    4    4    0    0  0.31925455802E+03 -0.29599361518E+02  0.30428257701E+02  0.33718111440E+03  0.99828002172E+02 0.  0.
         23    2    4    4    0    0 -0.14691709975E+03 -0.55992225921E+03  0.10201380825E+04  0.11762143814E+04  0.87755302835E+02 0.  0.
          4    1    3    3  502    0 -0.12253721671E+03  0.48197151825E+03  0.41888023863E+03  0.65020963404E+03  0.00000000000E+00 0. -1.
         -3    1    3    3    0  502 -0.49800241573E+02  0.10755010248E+03  0.50881290066E+02  0.12898059654E+03  0.00000000000E+00 0.  1.
         11    1    5    5    0    0  0.70572171970E+02  0.17228410653E+01 -0.34046089175E+02  0.78374331422E+02  0.00000000000E+00 0. -1.
        -11    1    5    5    0    0  0.24868238605E+03 -0.31322202583E+02  0.64474346876E+02  0.25880678297E+03  0.00000000000E+00 0.  1.
          4    1    6    6  503    0 -0.11362518925E+02 -0.20807487731E+03  0.37039392704E+03  0.42498932056E+03  0.00000000000E+00 0. -1.
         -4    1    6    6    0  503 -0.13555458082E+03 -0.35184738189E+03  0.64974415547E+03  0.75122506088E+03  0.00000000000E+00 0.  1.
<mgrwt>
<rscale>  0 0.17159698E+04</rscale>
<asrwt>0</asrwt>
<pdfrwt beam="1">  1        2 0.29330104E+00 0.17159698E+04</pdfrwt>
<pdfrwt beam="2">  1       -1 0.59404452E-01 0.17159698E+04</pdfrwt>
<totfact> 0.23418446E+01</totfact>
</mgrwt>
</event>
<event>
12    6  0.1403409E-007  0.1468366E+04  0.7818608E-02  0.8905766E-01
         -1   -1    0    0    0  501 -0.00000000000E+00  0.00000000000E+00  0.79265476796E+03  0.79265476796E+03  0.00000000000E+00 0.  1.
          2   -1    0    0  501    0  0.00000000000E+00 -0.00000000000E+00 -0.68002444777E+03  0.68002444777E+03  0.00000000000E+00 0. -1.
         24    2    1    2    0    0 -0.19908774227E+03 -0.10383041143E+03 -0.35901747171E+03  0.43066482706E+03  0.78498183522E+02 0.  0.
        254    2    1    2    0    0  0.19908774227E+03  0.10383041143E+03  0.47164779190E+03  0.10420143887E+04  0.90162390337E+03 0.  0.
         23    2    4    4    0    0 -0.25016420815E+02  0.47002804791E+03  0.16833717631E+03  0.50843115809E+03  0.92804366555E+02 0.  0.
         23    2    4    4    0    0  0.22410416309E+03 -0.36619763648E+03  0.30331061559E+03  0.53358323058E+03  0.91598851207E+02 0.  0.
          4    1    3    3  502    0 -0.81410910891E+02 -0.68919362923E+02 -0.22456142467E+03  0.24860701609E+03  0.00000000000E+00 0. -1.
         -3    1    3    3    0  502 -0.11767683138E+03 -0.34911048505E+02 -0.13445604704E+03  0.18205781097E+03  0.00000000000E+00 0.  1.
         11    1    5    5    0    0  0.15658121728E+01  0.40012708907E+03  0.11420013653E+03  0.41610793115E+03  0.00000000000E+00 0. -1.
        -11    1    5    5    0    0 -0.26582232988E+02  0.69900958839E+02  0.54137039776E+02  0.92323226942E+02  0.00000000000E+00 0.  1.
          2    1    6    6  503    0 -0.63674719527E+01 -0.13747076380E+02  0.98434376191E+00  0.15182086178E+02  0.00000000000E+00 0.  1.
         -2    1    6    6    0  503  0.23047163504E+03 -0.35245056011E+03  0.30232627183E+03  0.51840114440E+03  0.00000000000E+00 0. -1.
<mgrwt>
<rscale>  0 0.14683659E+04</rscale>
<asrwt>0</asrwt>
<pdfrwt beam="1">  1        2 0.10461915E+00 0.14683659E+04</pdfrwt>
<pdfrwt beam="2">  1       -1 0.12194689E+00 0.14683659E+04</pdfrwt>
<totfact> 0.27983959E+01</totfact>
</mgrwt>
</event>
<event>
12    6  0.1403409E-007  0.1345645E+04  0.7818608E-02  0.8994131E-01
         -1   -1    0    0    0  501 -0.00000000000E+00  0.00000000000E+00  0.54901586992E+03  0.54901586992E+03  0.00000000000E+00 0.  1.
          2   -1    0    0  501    0  0.00000000000E+00 -0.00000000000E+00 -0.82454882107E+03  0.82454882107E+03  0.00000000000E+00 0. -1.
         24    2    1    2    0    0 -0.23344082521E+03  0.26499475351E+03 -0.17655313526E+03  0.40289675066E+03  0.80236798638E+02 0.  0.
        254    2    1    2    0    0  0.23344082521E+03 -0.26499475351E+03 -0.98979815887E+02  0.97066794032E+03  0.89871152666E+03 0.  0.
         23    2    4    4    0    0  0.46550240802E+03 -0.11708645097E+03 -0.33891199145E+03  0.59464154860E+03  0.91298984091E+02 0.  0.
         23    2    4    4    0    0 -0.23206158281E+03 -0.14790830254E+03  0.23993217556E+03  0.37602639172E+03  0.89994189961E+02 0.  0.
          4    1    3    3  502    0 -0.60264132499E+02  0.26931015232E+02 -0.17497348891E+02  0.68287645043E+02  0.00000000000E+00 0. -1.
         -3    1    3    3    0  502 -0.17317669271E+03  0.23806373828E+03 -0.15905578637E+03  0.33460910562E+03  0.00000000000E+00 0.  1.
         11    1    5    5    0    0  0.14550769655E+03 -0.12348976493E+01 -0.73264825546E+02  0.16291638773E+03  0.00000000000E+00 0. -1.
        -11    1    5    5    0    0  0.31999471147E+03 -0.11585155332E+03 -0.26564716590E+03  0.43172516087E+03  0.00000000000E+00 0.  1.
          1    1    6    6  503    0 -0.13370759149E+03 -0.13187971918E+03  0.17764087795E+03  0.25850775979E+03  0.00000000000E+00 0. -1.
         -1    1    6    6    0  503 -0.98353991323E+02 -0.16028583359E+02  0.62291297611E+02  0.11751863193E+03  0.00000000000E+00 0.  1.
<mgrwt>
<rscale>  0 0.13456454E+04</rscale>
<asrwt>0</asrwt>
<pdfrwt beam="1">  1        2 0.12685366E+00 0.13456454E+04</pdfrwt>
<pdfrwt beam="2">  1       -1 0.84463981E-01 0.13456454E+04</pdfrwt>
<totfact> 0.51231840E+01</totfact>
</mgrwt>
</event>
<event>
12    6  0.1403409E-007  0.1954587E+04  0.7818608E-02  0.8628152E-01
          2   -1    0    0  501    0  0.00000000000E+00  0.00000000000E+00  0.12703817768E+04  0.12703817768E+04  0.00000000000E+00 0. -1.
         -1   -1    0    0    0  501 -0.00000000000E+00 -0.00000000000E+00 -0.75182338353E+03  0.75182338353E+03  0.00000000000E+00 0.  1.
         24    2    1    2    0    0  0.20138666465E+02 -0.73841502046E+03  0.41699454484E+03  0.85267106097E+03  0.86609349697E+02 0.  0.
        254    2    1    2    0    0 -0.20138666465E+02  0.73841502046E+03  0.10156384842E+03  0.11695340994E+04  0.90101747260E+03 0.  0.
         23    2    4    4    0    0 -0.36421310198E+03  0.66787057187E+03 -0.69632776556E+02  0.76926424867E+03  0.90644780845E+02 0.  0.
         23    2    4    4    0    0  0.34407443551E+03  0.70544448597E+02  0.17119662498E+03  0.40026985069E+03  0.86855814788E+02 0.  0.
          2    1    3    3  502    0  0.23089200120E+02 -0.68557545662E+02  0.57691555466E+02  0.92528718793E+02  0.00000000000E+00 0. -1.
         -1    1    3    3    0  502 -0.29505336542E+01 -0.66985747480E+03  0.35930298937E+03  0.76014234218E+03  0.00000000000E+00 0.  1.
         11    1    5    5    0    0 -0.81844685728E+02  0.94423404972E+02 -0.31841630921E+02  0.12895046122E+03  0.00000000000E+00 0. -1.
        -11    1    5    5    0    0 -0.28236841625E+03  0.57344716689E+03 -0.37791145635E+02  0.64031378745E+03  0.00000000000E+00 0.  1.
          2    1    6    6  503    0  0.17987976451E+03  0.51098027764E+02  0.45172687414E+02  0.19237543973E+03  0.00000000000E+00 0. -1.
         -2    1    6    6    0  503  0.16419467100E+03  0.19446420833E+02  0.12602393757E+03  0.20789441096E+03  0.00000000000E+00 0.  1.
<mgrwt>
<rscale>  0 0.19545871E+04</rscale>
<asrwt>0</asrwt>
<pdfrwt beam="1">  1        2 0.19544335E+00 0.19545871E+04</pdfrwt>
<pdfrwt beam="2">  1       -1 0.11566514E+00 0.19545871E+04</pdfrwt>
<totfact> 0.12381938E+01</totfact>
</mgrwt>
</event>
<event>
12    6  0.1403409E-007  0.1580903E+04  0.7818608E-02  0.8832367E-01
          2   -1    0    0  501    0  0.00000000000E+00  0.00000000000E+00  0.51911417743E+03  0.51911417743E+03  0.00000000000E+00 0. -1.
         -1   -1    0    0    0  501 -0.00000000000E+00 -0.00000000000E+00 -0.12036153083E+04  0.12036153083E+04  0.00000000000E+00 0.  1.
         24    2    1    2    0    0  0.52465899992E+03 -0.66903418940E+02 -0.19826618156E+03  0.57044708379E+03  0.79732446328E+02 0.  0.
        254    2    1    2    0    0 -0.52465899992E+03  0.66903418940E+02 -0.48623494930E+03  0.11522824019E+04  0.90088133193E+03 0.  0.
         23    2    4    4    0    0  0.76627433332E+02  0.18203997668E+03 -0.48728185900E+03  0.53403043780E+03  0.93458984262E+02 0.  0.
         23    2    4    4    0    0 -0.60128643325E+03 -0.11513655774E+03  0.10469096962E+01  0.61825196414E+03  0.86212489804E+02 0.  0.
          4    1    3    3  502    0  0.22971939840E+03  0.33110206773E+00 -0.57575324276E+02  0.23682489226E+03  0.00000000000E+00 0. -1.
         -3    1    3    3    0  502  0.29493960152E+03 -0.67234521007E+02 -0.14069085728E+03  0.33362219153E+03  0.00000000000E+00 0.  1.
         11    1    5    5    0    0 -0.14736689972E+02  0.46800779088E+01 -0.15959208203E+02  0.22220924531E+02  0.00000000000E+00 0.  1.
        -11    1    5    5    0    0  0.91364123304E+02  0.17735989877E+03 -0.47132265079E+03  0.51180951327E+03  0.00000000000E+00 0. -1.
          4    1    6    6  503    0 -0.18314857517E+03 -0.34335006714E+02 -0.39410305176E+02  0.19046119140E+03  0.00000000000E+00 0. -1.
         -4    1    6    6    0  503 -0.41813785808E+03 -0.80801551022E+02  0.40457214872E+02  0.42779077274E+03  0.00000000000E+00 0.  1.
<mgrwt>
<rscale>  0 0.15809032E+04</rscale>
<asrwt>0</asrwt>
<pdfrwt beam="1">  1        2 0.79863720E-01 0.15809032E+04</pdfrwt>
<pdfrwt beam="2">  1       -1 0.18517159E+00 0.15809032E+04</pdfrwt>
<totfact> 0.12363470E+01</totfact>
</mgrwt>
</event>
<event>
12    6  0.1403409E-007  0.1996486E+04  0.7818608E-02  0.8608265E-01
          2   -1    0    0  501    0  0.00000000000E+00  0.00000000000E+00  0.14662721095E+04  0.14662721095E+04  0.00000000000E+00 0. -1.
         -1   -1    0    0    0  501 -0.00000000000E+00 -0.00000000000E+00 -0.67960717512E+03  0.67960717512E+03  0.00000000000E+00 0.  1.
         24    2    1    2    0    0  0.69558215064E+03  0.37575189631E+03  0.24996830669E+03  0.83297270173E+03  0.79594921946E+02 0.  0.
        254    2    1    2    0    0 -0.69558215064E+03 -0.37575189631E+03  0.53669662767E+03  0.13129065829E+04  0.90036459799E+03 0.  0.
         23    2    4    4    0    0 -0.20070992504E+03 -0.32178671343E+03  0.68239922230E+03  0.78600840191E+03  0.91155616010E+02 0.  0.
         23    2    4    4    0    0 -0.49487222560E+03 -0.53965182885E+02 -0.14570259463E+03  0.52689818096E+03  0.92637391931E+02 0.  0.
          4    1    3    3  502    0  0.53990572031E+03  0.32493455098E+03  0.18436265266E+03  0.65655939331E+03  0.00000000000E+00 0. -1.
         -3    1    3    3    0  502  0.15567643033E+03  0.50817345338E+02  0.65605654030E+02  0.17641330842E+03  0.00000000000E+00 0.  1.
         11    1    5    5    0    0 -0.20369432164E+03 -0.32553212358E+03  0.67922722473E+03  0.78026416229E+03  0.00000000000E+00 0. -1.
        -11    1    5    5    0    0  0.29843965951E+01  0.37454101460E+01  0.31719975707E+01  0.57442396179E+01  0.00000000000E+00 0.  1.
          2    1    6    6  503    0 -0.11322366634E+03 -0.76596361467E+01  0.59077479962E+01  0.11363613040E+03  0.00000000000E+00 0.  1.
         -2    1    6    6    0  503 -0.38164855925E+03 -0.46305546738E+02 -0.15161034263E+03  0.41326205056E+03  0.00000000000E+00 0. -1.
<mgrwt>
<rscale>  0 0.19964860E+04</rscale>
<asrwt>0</asrwt>
<pdfrwt beam="1">  1        2 0.22558032E+00 0.19964860E+04</pdfrwt>
<pdfrwt beam="2">  1       -1 0.10455495E+00 0.19964860E+04</pdfrwt>
<totfact> 0.12077783E+01</totfact>
</mgrwt>
</event>
<event>
12    6  0.1403409E-007  0.1492753E+04  0.7818608E-02  0.8889286E-01
         -1   -1    0    0    0  501 -0.00000000000E+00  0.00000000000E+00  0.33195636175E+03  0.33195636175E+03  0.00000000000E+00 0.  1.
          2   -1    0    0  501    0  0.00000000000E+00 -0.00000000000E+00 -0.16781662194E+04  0.16781662194E+04  0.00000000000E+00 0. -1.
         24    2    1    2    0    0  0.94904101776E+02  0.41359468145E+03 -0.15498838331E+03  0.45877785642E+03  0.79927301476E+02 0.  0.
        254    2    1    2    0    0 -0.94904101776E+02 -0.41359468145E+03 -0.11912214743E+04  0.15513447247E+04  0.89866262022E+03 0.  0.
         23    2    4    4    0    0 -0.63037291027E+02 -0.86530910107E+02  0.12675996944E+03  0.19056128061E+03  0.93724134308E+02 0.  0.
         23    2    4    4    0    0 -0.31866810749E+02 -0.32706377135E+03 -0.13179814438E+04  0.13607834441E+04  0.81671852584E+02 0.  0.
          4    1    3    3  502    0  0.57399434480E+02  0.22784312651E+03 -0.12740422147E+03  0.26728079060E+03  0.00000000000E+00 0. -1.
         -3    1    3    3    0  502  0.37504667296E+02  0.18575155495E+03 -0.27584161839E+02  0.19149706582E+03  0.00000000000E+00 0.  1.
         11    1    5    5    0    0 -0.71288106240E+02 -0.39546958521E+02  0.11579617210E+03  0.14161465141E+03  0.00000000000E+00 0.  1.
        -11    1    5    5    0    0  0.82508152138E+01 -0.46983951586E+02  0.10963797337E+02  0.48946629204E+02  0.00000000000E+00 0. -1.
          4    1    6    6  503    0 -0.20785631319E+02 -0.52684684332E+02 -0.35206991994E+03  0.35659633616E+03  0.00000000000E+00 0. -1.
         -4    1    6    6    0  503 -0.11081179430E+02 -0.27437908701E+03 -0.96591152384E+03  0.10041871080E+04  0.00000000000E+00 0.  1.
<mgrwt>
<rscale>  0 0.14927531E+04</rscale>
<asrwt>0</asrwt>
<pdfrwt beam="1">  1        2 0.25817942E+00 0.14927531E+04</pdfrwt>
<pdfrwt beam="2">  1       -1 0.51070209E-01 0.14927531E+04</pdfrwt>
<totfact> 0.42813928E+01</totfact>
</mgrwt>
</event>
<event>
12    6  0.1403409E-007  0.5025387E+04  0.7818608E-02  0.7824603E-01
          2   -1    0    0  501    0  0.00000000000E+00  0.00000000000E+00  0.20366047036E+04  0.20366047036E+04  0.00000000000E+00 0. -1.
         -1   -1    0    0    0  501 -0.00000000000E+00 -0.00000000000E+00 -0.31000752357E+04  0.31000752357E+04  0.00000000000E+00 0.  1.
         24    2    1    2    0    0 -0.19893576487E+04  0.12161303301E+04 -0.12187141699E+04  0.26322087523E+04  0.82108790600E+02 0.  0.
        254    2    1    2    0    0  0.19893576487E+04 -0.12161303301E+04  0.15524363768E+03  0.25044711870E+04  0.90097641754E+03 0.  0.
         23    2    4    4    0    0  0.19999146704E+04 -0.12217901491E+04  0.25590662710E+02  0.23455373776E+04  0.91982880780E+02 0.  0.
         23    2    4    4    0    0 -0.10557021685E+02  0.56598189847E+01  0.12965297497E+03  0.15893380937E+03  0.91140427824E+02 0.  0.
          4    1    3    3  502    0 -0.10039201563E+04  0.65765116911E+03 -0.64581243562E+03  0.13628772661E+04  0.00000000000E+00 0. -1.
         -3    1    3    3    0  502 -0.98543749244E+03  0.55847916101E+03 -0.57290173425E+03  0.12693314862E+04  0.00000000000E+00 0.  1.
         11    1    5    5    0    0  0.48694031146E+03 -0.25233236201E+03  0.46299534207E+00  0.54843659817E+03  0.00000000000E+00 0. -1.
        -11    1    5    5    0    0  0.15129743590E+04 -0.96945778710E+03  0.25127667367E+02  0.17971007795E+04  0.00000000000E+00 0.  1.
          1    1    6    6  503    0 -0.20821409920E+02 -0.39288134986E+02  0.50096168913E+02  0.66982944109E+02  0.00000000000E+00 0. -1.
         -1    1    6    6    0  503  0.10264388234E+02  0.44947953971E+02  0.79556806055E+02  0.91950865258E+02  0.00000000000E+00 0.  1.
<mgrwt>
<rscale>  0 0.50253867E+04</rscale>
<asrwt>0</asrwt>
<pdfrwt beam="1">  1        2 0.31332380E+00 0.50253867E+04</pdfrwt>
<pdfrwt beam="2">  1       -1 0.47693465E+00 0.50253867E+04</pdfrwt>
<totfact> 0.11219712E-02</totfact>
</mgrwt>
</event>
<event>
12    6  0.1403409E-007  0.1518070E+04  0.7818608E-02  0.8872525E-01
         -1   -1    0    0    0  501 -0.00000000000E+00  0.00000000000E+00  0.34927504673E+03  0.34927504673E+03  0.00000000000E+00 0.  1.
          2   -1    0    0  501    0  0.00000000000E+00 -0.00000000000E+00 -0.16495145950E+04  0.16495145950E+04  0.00000000000E+00 0. -1.
         24    2    1    2    0    0 -0.44455096608E+03  0.10709197156E+03 -0.67104810509E+03  0.81599865811E+03  0.80336784076E+02 0.  0.
        254    2    1    2    0    0  0.44455096608E+03 -0.10709197156E+03 -0.62919144323E+03  0.11827909837E+04  0.89107709375E+03 0.  0.
         23    2    4    4    0    0 -0.12949597429E+03  0.25582868222E+03 -0.30162618080E+03  0.42355270103E+03  0.78746527528E+02 0.  0.
         23    2    4    4    0    0  0.57404694037E+03 -0.36292065378E+03 -0.32756526243E+03  0.75923828264E+03  0.88895882809E+02 0.  0.
          4    1    3    3  502    0 -0.36911466297E+03  0.10192145186E+03 -0.60277814605E+03  0.71412541624E+03  0.00000000000E+00 0. -1.
         -3    1    3    3    0  502 -0.75436303114E+02  0.51705197071E+01 -0.68269959038E+02  0.10187324187E+03  0.00000000000E+00 0.  1.
         11    1    5    5    0    0 -0.80997743889E+00  0.76045934671E+02 -0.70359065839E+02  0.10360520445E+03  0.00000000000E+00 0. -1.
        -11    1    5    5    0    0 -0.12868599685E+03  0.17978274755E+03 -0.23126711496E+03  0.31994749658E+03  0.00000000000E+00 0.  1.
          2    1    6    6  503    0  0.24752476155E+03 -0.19575752822E+03 -0.11901517643E+03  0.33727456124E+03  0.00000000000E+00 0. -1.
         -2    1    6    6    0  503  0.32652217882E+03 -0.16716312556E+03 -0.20855008599E+03  0.42196372140E+03  0.00000000000E+00 0.  1.
<mgrwt>
<rscale>  0 0.15180702E+04</rscale>
<asrwt>0</asrwt>
<pdfrwt beam="1">  1        2 0.25377148E+00 0.15180702E+04</pdfrwt>
<pdfrwt beam="2">  1       -1 0.53734622E-01 0.15180702E+04</pdfrwt>
<totfact> 0.40201416E+01</totfact>
</mgrwt>
</event>
<event>
12    6  0.1403409E-007  0.2652758E+04  0.7818608E-02  0.8350498E-01
         -1   -1    0    0    0  501 -0.00000000000E+00  0.00000000000E+00  0.66830880853E+03  0.66830880853E+03  0.00000000000E+00 0.  1.
          2   -1    0    0  501    0  0.00000000000E+00 -0.00000000000E+00 -0.26324383806E+04  0.26324383806E+04  0.00000000000E+00 0. -1.
         24    2    1    2    0    0 -0.11467331112E+04 -0.20845828527E+03 -0.10169754524E+04  0.15489140912E+04  0.80275189915E+02 0.  0.
        254    2    1    2    0    0  0.11467331112E+04  0.20845828527E+03 -0.94715411967E+03  0.17518330979E+04  0.90186838923E+03 0.  0.
         23    2    4    4    0    0  0.18755175290E+03 -0.26416742503E+03 -0.26767164070E+02  0.33792201041E+03  0.92275216526E+02 0.  0.
         23    2    4    4    0    0  0.95918135832E+03  0.47262571031E+03 -0.92038695560E+03  0.14139110875E+04  0.92889585764E+02 0.  0.
          4    1    3    3  502    0 -0.65845938300E+03 -0.80016054479E+02 -0.56742214460E+03  0.87289129805E+03  0.00000000000E+00 0. -1.
         -3    1    3    3    0  502 -0.48827372822E+03 -0.12844223079E+03 -0.44955330781E+03  0.67602279317E+03  0.00000000000E+00 0.  1.
         11    1    5    5    0    0  0.17779786600E+03 -0.19727409823E+03 -0.41331331005E+02  0.26877021767E+03  0.00000000000E+00 0. -1.
        -11    1    5    5    0    0  0.97538869007E+01 -0.66893326803E+02  0.14564166935E+02  0.69151792738E+02  0.00000000000E+00 0.  1.
          1    1    6    6  503    0  0.57838647351E+03  0.29202409529E+03 -0.61616304302E+03  0.89412855930E+03  0.00000000000E+00 0. -1.
         -1    1    6    6    0  503  0.38079488481E+03  0.18060161502E+03 -0.30422391258E+03  0.51978252821E+03  0.00000000000E+00 0.  1.
<mgrwt>
<rscale>  0 0.26527584E+04</rscale>
<asrwt>0</asrwt>
<pdfrwt beam="1">  1        2 0.40499052E+00 0.26527584E+04</pdfrwt>
<pdfrwt beam="2">  1       -1 0.10281674E+00 0.26527584E+04</pdfrwt>
<totfact> 0.26063677E+00</totfact>
</mgrwt>
</event>
<event>
12    6  0.1403409E-007  0.2614157E+04  0.7818608E-02  0.8363408E-01
          2   -1    0    0  501    0  0.00000000000E+00  0.00000000000E+00  0.14213461557E+04  0.14213461557E+04  0.00000000000E+00 0. -1.
         -1   -1    0    0    0  501 -0.00000000000E+00 -0.00000000000E+00 -0.12019975008E+04  0.12019975008E+04  0.00000000000E+00 0.  1.
         24    2    1    2    0    0  0.67718514239E+03 -0.34163494923E+03  0.96863623739E+03  0.12318211941E+04  0.61912343152E+02 0.  0.
        254    2    1    2    0    0 -0.67718514239E+03  0.34163494923E+03 -0.74928758245E+03  0.13915224624E+04  0.89420843580E+03 0.  0.
         23    2    4    4    0    0 -0.73159633872E+03  0.53937797292E+03 -0.45195642787E+03  0.10192330354E+04  0.91703692184E+02 0.  0.
         23    2    4    4    0    0  0.54411196333E+02 -0.19774302369E+03 -0.29733115458E+03  0.37228942709E+03  0.90170506993E+02 0.  0.
          2    1    3    3  502    0  0.41339558192E+02 -0.53467644689E+01  0.55235882716E+02  0.69199347549E+02  0.00000000000E+00 0. -1.
         -1    1    3    3    0  502  0.63584558420E+03 -0.33628818477E+03  0.91340035467E+03  0.11626218465E+04  0.00000000000E+00 0.  1.
         11    1    5    5    0    0 -0.63561388463E+03  0.42682402651E+03 -0.37888698867E+03  0.85424768664E+03  0.00000000000E+00 0. -1.
        -11    1    5    5    0    0 -0.95982454092E+02  0.11255394641E+03 -0.73069439201E+02  0.16498534872E+03  0.00000000000E+00 0.  1.
          3    1    6    6  503    0  0.71495938937E+02 -0.93630677627E+02 -0.14183124206E+03  0.18437590488E+03  0.00000000000E+00 0. -1.
         -3    1    6    6    0  503 -0.17084742603E+02 -0.10411234606E+03 -0.15549991252E+03  0.18791352220E+03  0.00000000000E+00 0.  1.
<mgrwt>
<rscale>  0 0.26141572E+04</rscale>
<asrwt>0</asrwt>
<pdfrwt beam="1">  1        2 0.21866864E+00 0.26141572E+04</pdfrwt>
<pdfrwt beam="2">  1       -1 0.18492269E+00 0.26141572E+04</pdfrwt>
<totfact> 0.27175505E+00</totfact>
</mgrwt>
</event>
<event>
12    6  0.1403409E-007  0.4080285E+04  0.7818608E-02  0.7988543E-01
         -1   -1    0    0    0  501 -0.00000000000E+00  0.00000000000E+00  0.13711239081E+04  0.13711239081E+04  0.00000000000E+00 0.  1.
          2   -1    0    0  501    0  0.00000000000E+00 -0.00000000000E+00 -0.30355984927E+04  0.30355984927E+04  0.00000000000E+00 0. -1.
         24    2    1    2    0    0  0.15993610805E+04 -0.89052598050E+03 -0.97085340262E+02  0.18346221064E+04  0.73622836623E+02 0.  0.
        254    2    1    2    0    0 -0.15993610805E+04  0.89052598050E+03 -0.15673892444E+04  0.25721002944E+04  0.89888736414E+03 0.  0.
         23    2    4    4    0    0 -0.50048025180E+03  0.42033493107E+03 -0.11057717719E+04  0.12875411504E+04  0.88707754272E+02 0.  0.
         23    2    4    4    0    0 -0.10988808287E+04  0.47019104942E+03 -0.46161747250E+03  0.12845591441E+04  0.91557659629E+02 0.  0.
          4    1    3    3  502    0  0.35644575762E+03 -0.19297981595E+03 -0.51782066490E+02  0.40862717714E+03  0.00000000000E+00 0. -1.
         -3    1    3    3    0  502  0.12429153229E+04 -0.69754616455E+03 -0.45303273772E+02  0.14259949292E+04  0.00000000000E+00 0.  1.
         11    1    5    5    0    0 -0.32791815424E+03  0.21917835070E+03 -0.67308881101E+03  0.78013973928E+03  0.00000000000E+00 0.  1.
        -11    1    5    5    0    0 -0.17256209756E+03  0.20115658037E+03 -0.43268296087E+03  0.50740141108E+03  0.00000000000E+00 0. -1.
          3    1    6    6  503    0 -0.14589821854E+03  0.30067104066E+02 -0.62247491299E+02  0.16144680576E+03  0.00000000000E+00 0. -1.
         -3    1    6    6    0  503 -0.95298261016E+03  0.44012394536E+03 -0.39936998121E+03  0.11231123383E+04  0.00000000000E+00 0.  1.
<mgrwt>
<rscale>  0 0.40802851E+04</rscale>
<asrwt>0</asrwt>
<pdfrwt beam="1">  1        2 0.46701515E+00 0.40802851E+04</pdfrwt>
<pdfrwt beam="2">  1       -1 0.21094214E+00 0.40802851E+04</pdfrwt>
<totfact> 0.18633429E-01</totfact>
</mgrwt>
</event>
<event>
12    6  0.1403409E-007  0.1993653E+04  0.7818608E-02  0.8609594E-01
          2   -1    0    0  501    0  0.00000000000E+00  0.00000000000E+00  0.26458738259E+04  0.26458738259E+04  0.00000000000E+00 0. -1.
         -1   -1    0    0    0  501 -0.00000000000E+00 -0.00000000000E+00 -0.37555203051E+03  0.37555203051E+03  0.00000000000E+00 0.  1.
         24    2    1    2    0    0 -0.18140150125E+03  0.39438309514E+03 -0.96037788016E+02  0.45236166857E+03  0.83446342519E+02 0.  0.
        254    2    1    2    0    0  0.18140150125E+03 -0.39438309514E+03  0.23663595834E+04  0.25690641878E+04  0.90110409655E+03 0.  0.
         23    2    4    4    0    0 -0.67833048391E+02  0.26150580340E+03  0.54758896428E+03  0.61747795730E+03  0.91862649045E+02 0.  0.
         23    2    4    4    0    0  0.24923454964E+03 -0.65588889854E+03  0.18187706191E+04  0.19515862305E+04  0.91946409500E+02 0.  0.
          4    1    3    3  502    0 -0.84194925771E+02  0.24645205915E+03 -0.25019623991E+02  0.26163597721E+03  0.00000000000E+00 0. -1.
         -3    1    3    3    0  502 -0.97206575476E+02  0.14793103599E+03 -0.71018164025E+02  0.19072569136E+03  0.00000000000E+00 0.  1.
         11    1    5    5    0    0  0.22997734088E+02  0.44430120898E+02  0.97910559798E+02  0.10995184917E+03  0.00000000000E+00 0.  1.
        -11    1    5    5    0    0 -0.90830782478E+02  0.21707568250E+03  0.44967840448E+03  0.50752610813E+03  0.00000000000E+00 0. -1.
          4    1    6    6  503    0  0.16029510444E+03 -0.32677510851E+03  0.10248376054E+04  0.10875516583E+04  0.00000000000E+00 0. -1.
         -4    1    6    6    0  503  0.88939445194E+02 -0.32911379003E+03  0.79393301369E+03  0.86403457218E+03  0.00000000000E+00 0.  1.
<mgrwt>
<rscale>  0 0.19936532E+04</rscale>
<asrwt>0</asrwt>
<pdfrwt beam="1">  1        2 0.40705750E+00 0.19936532E+04</pdfrwt>
<pdfrwt beam="2">  1       -1 0.57777237E-01 0.19936532E+04</pdfrwt>
<totfact> 0.91900414E+00</totfact>
</mgrwt>
</event>
<event>
12    6  0.1403409E-007  0.1296997E+04  0.7818608E-02  0.9031950E-01
          2   -1    0    0  501    0  0.00000000000E+00  0.00000000000E+00  0.17378947446E+04  0.17378947446E+04  0.00000000000E+00 0. -1.
         -1   -1    0    0    0  501 -0.00000000000E+00 -0.00000000000E+00 -0.24198820169E+03  0.24198820169E+03  0.00000000000E+00 0.  1.
         24    2    1    2    0    0 -0.30536973760E+03  0.88479550731E+02  0.25514085605E+03  0.41543953000E+03  0.80086447795E+02 0.  0.
        254    2    1    2    0    0  0.30536973760E+03 -0.88479550731E+02  0.12407656869E+04  0.15644434163E+04  0.89827857904E+03 0.  0.
         23    2    4    4    0    0 -0.41052554385E+02  0.21500850009E+03  0.10172054072E+04  0.10445020688E+04  0.91453616456E+02 0.  0.
         23    2    4    4    0    0  0.34642229199E+03 -0.30348805082E+03  0.22356027965E+03  0.51994134749E+03  0.90809717593E+02 0.  0.
          2    1    3    3  502    0 -0.32296569346E+02  0.36527708105E+02  0.26358798150E+02  0.55426781350E+02  0.00000000000E+00 0. -1.
         -1    1    3    3    0  502 -0.27307316826E+03  0.51951842626E+02  0.22878205790E+03  0.36001274865E+03  0.00000000000E+00 0.  1.
         11    1    5    5    0    0  0.85412711347E+00  0.15470545956E+03  0.54167655549E+03  0.56333648872E+03  0.00000000000E+00 0.  1.
        -11    1    5    5    0    0 -0.41906681499E+02  0.60303040528E+02  0.47552885172E+03  0.48116558009E+03  0.00000000000E+00 0. -1.
          1    1    6    6  503    0  0.12945366160E+03 -0.90105357423E+02  0.33788228611E+02  0.16130365877E+03  0.00000000000E+00 0. -1.
         -1    1    6    6    0  503  0.21696863038E+03 -0.21338269340E+03  0.18977205104E+03  0.35863768872E+03  0.00000000000E+00 0.  1.
<mgrwt>
<rscale>  0 0.12969966E+04</rscale>
<asrwt>0</asrwt>
<pdfrwt beam="1">  1        2 0.26736841E+00 0.12969966E+04</pdfrwt>
<pdfrwt beam="2">  1       -1 0.37228955E-01 0.12969966E+04</pdfrwt>
<totfact> 0.72434965E+01</totfact>
</mgrwt>
</event>
<event>
12    6  0.1403409E-007  0.1889509E+04  0.7818608E-02  0.8660096E-01
          2   -1    0    0  501    0  0.00000000000E+00  0.00000000000E+00  0.15568025674E+04  0.15568025674E+04  0.00000000000E+00 0. -1.
         -1   -1    0    0    0  501 -0.00000000000E+00 -0.00000000000E+00 -0.57332944451E+03  0.57332944451E+03  0.00000000000E+00 0.  1.
         24    2    1    2    0    0  0.50269235108E+03 -0.47069484543E+03  0.64461068460E+03  0.94651627214E+03  0.78210494117E+02 0.  0.
        254    2    1    2    0    0 -0.50269235108E+03  0.47069484543E+03  0.33886243827E+03  0.11836157397E+04  0.90103564301E+03 0.  0.
         23    2    4    4    0    0  0.75858946234E+02  0.39121618874E+03  0.42147853455E+03  0.58732262853E+03  0.92190177537E+02 0.  0.
         23    2    4    4    0    0 -0.57855129731E+03  0.79478656688E+02 -0.82616096284E+02  0.59629311122E+03  0.87758729710E+02 0.  0.
          2    1    3    3  502    0  0.38592483278E+03 -0.40357450330E+03  0.51815180295E+03  0.76176876228E+03  0.00000000000E+00 0. -1.
         -1    1    3    3    0  502  0.11676751829E+03 -0.67120342123E+02  0.12645888164E+03  0.18474750986E+03  0.00000000000E+00 0.  1.
         11    1    5    5    0    0  0.27811338957E+02  0.32070566002E+03  0.35450808156E+03  0.47885443595E+03  0.00000000000E+00 0. -1.
        -11    1    5    5    0    0  0.48047607276E+02  0.70510528723E+02  0.66970452991E+02  0.10846819257E+03  0.00000000000E+00 0.  1.
          2    1    6    6  503    0 -0.48808190233E+03  0.79548270021E+02 -0.99048076440E+02  0.50434352587E+03  0.00000000000E+00 0. -1.
         -2    1    6    6    0  503 -0.90469394980E+02 -0.69613333748E-01  0.16431980156E+02  0.91949585349E+02  0.00000000000E+00 0.  1.
<mgrwt>
<rscale>  0 0.18895087E+04</rscale>
<asrwt>0</asrwt>
<pdfrwt beam="1">  1        2 0.23950809E+00 0.18895087E+04</pdfrwt>
<pdfrwt beam="2">  1       -1 0.88204530E-01 0.18895087E+04</pdfrwt>
<totfact> 0.15901859E+01</totfact>
</mgrwt>
</event>
<event>
12    6  0.1403409E-007  0.2443148E+04  0.7818608E-02  0.8423524E-01
          2   -1    0    0  501    0  0.00000000000E+00  0.00000000000E+00  0.14738922481E+04  0.14738922481E+04  0.00000000000E+00 0. -1.
         -1   -1    0    0    0  501 -0.00000000000E+00 -0.00000000000E+00 -0.10124502815E+04  0.10124502815E+04  0.00000000000E+00 0.  1.
         24    2    1    2    0    0  0.69383223266E+03  0.55274433052E+03 -0.38042240736E+03  0.96841912482E+03  0.78644334235E+02 0.  0.
        254    2    1    2    0    0 -0.69383223266E+03 -0.55274433052E+03  0.84186437400E+03  0.15179234047E+04  0.89912533965E+03 0.  0.
         23    2    4    4    0    0  0.99611775028E+02 -0.79497333609E+02 -0.10902977970E+03  0.18940119885E+03  0.87994258270E+02 0.  0.
         23    2    4    4    0    0 -0.79344400768E+03 -0.47324699691E+03  0.95089415370E+03  0.13285222059E+04  0.85178909023E+02 0.  0.
          2    1    3    3  502    0  0.52015005519E+03  0.40976713377E+03 -0.24618584309E+03  0.70645074362E+03  0.00000000000E+00 0. -1.
         -1    1    3    3    0  502  0.17368217747E+03  0.14297719675E+03 -0.13423656427E+03  0.26196838120E+03  0.00000000000E+00 0.  1.
         11    1    5    5    0    0 -0.20064744363E+01 -0.48039890573E+02 -0.40462976934E+02  0.62841940838E+02  0.00000000000E+00 0.  1.
        -11    1    5    5    0    0  0.10161824946E+03 -0.31457443036E+02 -0.68566802768E+02  0.12655925801E+03  0.00000000000E+00 0. -1.
          3    1    6    6  503    0 -0.67765796159E+03 -0.37544229698E+03  0.76628406822E+03  0.10896643999E+04  0.00000000000E+00 0. -1.
         -3    1    6    6    0  503 -0.11578604609E+03 -0.97804699928E+02  0.18461008548E+03  0.23885780594E+03  0.00000000000E+00 0.  1.
<mgrwt>
<rscale>  0 0.24431477E+04</rscale>
<asrwt>0</asrwt>
<pdfrwt beam="1">  1        2 0.22675266E+00 0.24431477E+04</pdfrwt>
<pdfrwt beam="2">  1       -1 0.15576158E+00 0.24431477E+04</pdfrwt>
<totfact> 0.42207885E+00</totfact>
</mgrwt>
</event>
<event>
12    6  0.1403409E-007  0.2326591E+04  0.7818608E-02  0.8467510E-01
          2   -1    0    0  501    0  0.00000000000E+00  0.00000000000E+00  0.16437464045E+04  0.16437464045E+04  0.00000000000E+00 0. -1.
         -1   -1    0    0    0  501 -0.00000000000E+00 -0.00000000000E+00 -0.82327541148E+03  0.82327541148E+03  0.00000000000E+00 0.  1.
         24    2    1    2    0    0 -0.10487715702E+03 -0.88405858195E+03 -0.10224677580E+03  0.89946667342E+03  0.77634393523E+02 0.  0.
        254    2    1    2    0    0  0.10487715702E+03  0.88405858195E+03  0.92271776880E+03  0.15675551425E+04  0.90181053980E+03 0.  0.
         23    2    4    4    0    0  0.24658962143E+03  0.77789570650E+03  0.24026808527E+03  0.85594552168E+03  0.94793521420E+02 0.  0.
         23    2    4    4    0    0 -0.14171246441E+03  0.10616287545E+03  0.68244968353E+03  0.71160962087E+03  0.96424598866E+02 0.  0.
          4    1    3    3  502    0 -0.44342068269E+02 -0.18338698204E+03  0.81546002490E+00  0.18867344586E+03  0.00000000000E+00 0. -1.
         -3    1    3    3    0  502 -0.60535088747E+02 -0.70067159991E+03 -0.10306223582E+03  0.71079322756E+03  0.00000000000E+00 0.  1.
         11    1    5    5    0    0  0.21167357009E+03  0.66264339968E+03  0.16846579673E+03  0.71573926823E+03  0.00000000000E+00 0. -1.
        -11    1    5    5    0    0  0.34916051336E+02  0.11525230681E+03  0.71802288540E+02  0.14020625345E+03  0.00000000000E+00 0.  1.
          4    1    6    6  503    0 -0.14782133571E+03  0.69167348351E+02  0.52644976205E+03  0.55116660034E+03  0.00000000000E+00 0. -1.
         -4    1    6    6    0  503  0.61088712966E+01  0.36995527098E+02  0.15599992148E+03  0.16044302053E+03  0.00000000000E+00 0.  1.
<mgrwt>
<rscale>  0 0.23265906E+04</rscale>
<asrwt>0</asrwt>
<pdfrwt beam="1">  1        2 0.25288406E+00 0.23265906E+04</pdfrwt>
<pdfrwt beam="2">  1       -1 0.12665776E+00 0.23265906E+04</pdfrwt>
<totfact> 0.58805781E+00</totfact>
</mgrwt>
</event>
<event>
12    6  0.1403409E-007  0.1779861E+04  0.7818608E-02  0.8717083E-01
          2   -1    0    0  501    0  0.00000000000E+00  0.00000000000E+00  0.50160508645E+03  0.50160508645E+03  0.00000000000E+00 0. -1.
         -1   -1    0    0    0  501 -0.00000000000E+00 -0.00000000000E+00 -0.15788839146E+04  0.15788839146E+04  0.00000000000E+00 0.  1.
         24    2    1    2    0    0 -0.48517172533E+03  0.39931775409E+03 -0.63613340498E+03  0.89799532580E+03  0.82967610765E+02 0.  0.
        254    2    1    2    0    0  0.48517172533E+03 -0.39931775409E+03 -0.44114542320E+03  0.11824936753E+04  0.89935295401E+03 0.  0.
         23    2    4    4    0    0  0.48740963990E+03 -0.61667308511E+03 -0.14704272241E+03  0.80524871461E+03  0.94604858260E+02 0.  0.
         23    2    4    4    0    0 -0.22379145674E+01  0.21735533102E+03 -0.29410270079E+03  0.37724496067E+03  0.92568966477E+02 0.  0.
          2    1    3    3  502    0 -0.13602315839E+03  0.13597095495E+03 -0.14853782454E+03  0.24301005232E+03  0.00000000000E+00 0. -1.
         -1    1    3    3    0  502 -0.34914856694E+03  0.26334679914E+03 -0.48759558045E+03  0.65498527348E+03  0.00000000000E+00 0.  1.
         11    1    5    5    0    0  0.45435112508E+03 -0.58189034910E+03 -0.11406304367E+03  0.74702188801E+03  0.00000000000E+00 0.  1.
        -11    1    5    5    0    0  0.33058514819E+02 -0.34782736015E+02 -0.32979678739E+02  0.58226826605E+02  0.00000000000E+00 0. -1.
          2    1    6    6  503    0  0.30451988912E+02  0.18320405836E+03 -0.25734992200E+03  0.31736419612E+03  0.00000000000E+00 0. -1.
         -2    1    6    6    0  503 -0.32689903480E+02  0.34151272666E+02 -0.36752778789E+02  0.59880764549E+02  0.00000000000E+00 0.  1.
<mgrwt>
<rscale>  0 0.17798609E+04</rscale>
<asrwt>0</asrwt>
<pdfrwt beam="1">  1        2 0.77170013E-01 0.17798609E+04</pdfrwt>
<pdfrwt beam="2">  1       -1 0.24290522E+00 0.17798609E+04</pdfrwt>
<totfact> 0.51440318E+00</totfact>
</mgrwt>
</event>
<event>
12    6  0.1403409E-007  0.1723144E+04  0.7818608E-02  0.8748274E-01
         -1   -1    0    0    0  501 -0.00000000000E+00  0.00000000000E+00  0.27887206348E+03  0.27887206348E+03  0.00000000000E+00 0.  1.
          2   -1    0    0  501    0  0.00000000000E+00 -0.00000000000E+00 -0.26618153416E+04  0.26618153416E+04  0.00000000000E+00 0. -1.
         24    2    1    2    0    0 -0.58925444659E+03 -0.19376488113E+03 -0.78355372390E+03  0.10025428490E+04  0.79812867240E+02 0.  0.
        254    2    1    2    0    0  0.58925444659E+03  0.19376488113E+03 -0.15993895542E+04  0.19381445561E+04  0.90199320521E+03 0.  0.
         23    2    4    4    0    0  0.81390749334E+03  0.85334489558E+02 -0.11317785895E+04  0.13995768251E+04  0.90361113665E+02 0.  0.
         23    2    4    4    0    0 -0.22465304675E+03  0.10843039157E+03 -0.46761096473E+03  0.53856773103E+03  0.95755132165E+02 0.  0.
          2    1    3    3  502    0 -0.26435030965E+03 -0.51717307985E+02 -0.37227817331E+03  0.45950713213E+03  0.00000000000E+00 0. -1.
         -3    1    3    3    0  502 -0.32490413695E+03 -0.14204757314E+03 -0.41127555059E+03  0.54303571683E+03  0.00000000000E+00 0.  1.
         11    1    5    5    0    0  0.68571009663E+03  0.97789252978E+02 -0.91797072957E+03  0.11499701453E+04  0.00000000000E+00 0.  1.
        -11    1    5    5    0    0  0.12819739671E+03 -0.12454763420E+02 -0.21380785990E+03  0.24960667982E+03  0.00000000000E+00 0. -1.
          2    1    6    6  503    0 -0.15260892655E+03  0.10919241534E+03 -0.27500013638E+03  0.33292272833E+03  0.00000000000E+00 0. -1.
         -2    1    6    6    0  503 -0.72044120201E+02 -0.76202376598E+00 -0.19261082836E+03  0.20564500270E+03  0.00000000000E+00 0.  1.
<mgrwt>
<rscale>  0 0.17231436E+04</rscale>
<asrwt>0</asrwt>
<pdfrwt beam="1">  1        2 0.40951008E+00 0.17231436E+04</pdfrwt>
<pdfrwt beam="2">  1       -1 0.42903392E-01 0.17231436E+04</pdfrwt>
<totfact> 0.16235163E+01</totfact>
</mgrwt>
</event>
<event>
12    6  0.1403409E-007  0.1474517E+04  0.7818608E-02  0.8901578E-01
          2   -1    0    0  501    0  0.00000000000E+00  0.00000000000E+00  0.77452757424E+03  0.77452757424E+03  0.00000000000E+00 0. -1.
         -1   -1    0    0    0  501 -0.00000000000E+00 -0.00000000000E+00 -0.70178283391E+03  0.70178283391E+03  0.00000000000E+00 0.  1.
         24    2    1    2    0    0 -0.30702654103E+03  0.31500573383E+03  0.15708253157E+03  0.47374053752E+03  0.79128161370E+02 0.  0.
        254    2    1    2    0    0  0.30702654103E+03 -0.31500573383E+03 -0.84337791240E+02  0.10025698706E+04  0.89696129974E+03 0.  0.
         23    2    4    4    0    0 -0.18584801921E+02 -0.55774760279E+03  0.43474942838E+02  0.56716105794E+03  0.91399188823E+02 0.  0.
         23    2    4    4    0    0  0.32561134295E+03  0.24274186896E+03 -0.12781273408E+03  0.43540881269E+03  0.91095431140E+02 0.  0.
          2    1    3    3  502    0 -0.48576982070E+02  0.44647335231E+02  0.55383888707E+02  0.86142224598E+02  0.00000000000E+00 0. -1.
         -1    1    3    3    0  502 -0.25844955896E+03  0.27035839860E+03  0.10169864286E+03  0.38759831292E+03  0.00000000000E+00 0.  1.
         11    1    5    5    0    0 -0.19094222865E+02 -0.18419849405E+03 -0.26629106584E+02  0.18709030941E+03  0.00000000000E+00 0. -1.
        -11    1    5    5    0    0  0.50942094456E+00 -0.37354910873E+03  0.70104049421E+02  0.38007074853E+03  0.00000000000E+00 0.  1.
          3    1    6    6  503    0  0.17400581429E+03  0.86752460144E+02 -0.29342395403E+02  0.19663414992E+03  0.00000000000E+00 0. -1.
         -3    1    6    6    0  503  0.15160552866E+03  0.15598940881E+03 -0.98470338675E+02  0.23877466277E+03  0.00000000000E+00 0.  1.
<mgrwt>
<rscale>  0 0.14745171E+04</rscale>
<asrwt>0</asrwt>
<pdfrwt beam="1">  1        2 0.11915809E+00 0.14745171E+04</pdfrwt>
<pdfrwt beam="2">  1       -1 0.10796659E+00 0.14745171E+04</pdfrwt>
<totfact> 0.31707459E+01</totfact>
</mgrwt>
</event>
<event>
12    6  0.1403409E-007  0.1883990E+04  0.7818608E-02  0.8662867E-01
         -1   -1    0    0    0  501 -0.00000000000E+00  0.00000000000E+00  0.11585784364E+04  0.11585784364E+04  0.00000000000E+00 0.  1.
          2   -1    0    0  501    0  0.00000000000E+00 -0.00000000000E+00 -0.76589975508E+03  0.76589975508E+03  0.00000000000E+00 0. -1.
         24    2    1    2    0    0  0.14406671699E+03 -0.55590193373E+02  0.87452506810E+03  0.89164390658E+03  0.79932927213E+02 0.  0.
        254    2    1    2    0    0 -0.14406671699E+03  0.55590193373E+02 -0.48184638681E+03  0.10328342849E+04  0.90040281595E+03 0.  0.
         23    2    4    4    0    0 -0.36626934450E+03  0.11083301988E+03  0.95701677270E+02  0.40469396037E+03  0.90449983487E+02 0.  0.
         23    2    4    4    0    0  0.22220262751E+03 -0.55242826506E+02 -0.57754806408E+03  0.62814032450E+03  0.92589002522E+02 0.  0.
          2    1    3    3  502    0  0.10851685118E+03 -0.72663824830E+02  0.58203356623E+03  0.59650566690E+03  0.00000000000E+00 0. -1.
         -1    1    3    3    0  502  0.35549865809E+02  0.17073631457E+02  0.29249150187E+03  0.29513823967E+03  0.00000000000E+00 0.  1.
         11    1    5    5    0    0 -0.35785287146E+02  0.40993717158E+02  0.23539503565E+02  0.59288952181E+02  0.00000000000E+00 0. -1.
        -11    1    5    5    0    0 -0.33048405735E+03  0.69839302721E+02  0.72162173704E+02  0.34540500819E+03  0.00000000000E+00 0.  1.
          3    1    6    6  503    0  0.49500253238E+02 -0.31876169754E+02 -0.69793006446E+02  0.91309523149E+02  0.00000000000E+00 0. -1.
         -3    1    6    6    0  503  0.17270237427E+03 -0.23366656752E+02 -0.50775505764E+03  0.53683080135E+03  0.00000000000E+00 0.  1.
<mgrwt>
<rscale>  0 0.18839904E+04</rscale>
<asrwt>0</asrwt>
<pdfrwt beam="1">  1        2 0.11783073E+00 0.18839904E+04</pdfrwt>
<pdfrwt beam="2">  1       -1 0.17824284E+00 0.18839904E+04</pdfrwt>
<totfact> 0.83684208E+00</totfact>
</mgrwt>
</event>
<event>
12    6  0.1403409E-007  0.1887913E+04  0.7818608E-02  0.8660896E-01
          2   -1    0    0  501    0  0.00000000000E+00  0.00000000000E+00  0.21550356607E+04  0.21550356607E+04  0.00000000000E+00 0. -1.
         -1   -1    0    0    0  501 -0.00000000000E+00 -0.00000000000E+00 -0.41347515047E+03  0.41347515047E+03  0.00000000000E+00 0.  1.
         24    2    1    2    0    0  0.55682595769E+03  0.33166009727E+03  0.22590155237E+03  0.69088865712E+03  0.79006695267E+02 0.  0.
        254    2    1    2    0    0 -0.55682595769E+03 -0.33166009727E+03  0.15156589579E+04  0.18776221540E+04  0.89899349806E+03 0.  0.
         23    2    4    4    0    0 -0.10860233737E+03 -0.34570641851E+03  0.95948523258E+02  0.38586717009E+03  0.91542112512E+02 0.  0.
         23    2    4    4    0    0 -0.44822362033E+03  0.14046321241E+02  0.14197104346E+04  0.14917549840E+04  0.93024196178E+02 0.  0.
          4    1    3    3  502    0  0.88357786155E+02  0.23059353966E+02  0.42212725563E+02  0.10060192035E+03  0.00000000000E+00 0. -1.
         -3    1    3    3    0  502  0.46846817154E+03  0.30860074330E+03  0.18368882680E+03  0.59028673677E+03  0.00000000000E+00 0.  1.
         11    1    5    5    0    0 -0.97005205547E+02 -0.34692362570E+03  0.85564587178E+02  0.37025303585E+03  0.00000000000E+00 0.  1.
        -11    1    5    5    0    0 -0.11597131819E+02  0.12172071975E+01  0.10383936080E+02  0.15614134247E+02  0.00000000000E+00 0. -1.
          3    1    6    6  503    0 -0.57748188697E+02  0.10604210896E+02  0.10525610441E+03  0.12052447927E+03  0.00000000000E+00 0. -1.
         -3    1    6    6    0  503 -0.39047543163E+03  0.34421103443E+01  0.13144543302E+04  0.13712305047E+04  0.00000000000E+00 0.  1.
<mgrwt>
<rscale>  0 0.18879128E+04</rscale>
<asrwt>0</asrwt>
<pdfrwt beam="1">  1        2 0.33154394E+00 0.18879128E+04</pdfrwt>
<pdfrwt beam="2">  1       -1 0.63611563E-01 0.18879128E+04</pdfrwt>
<totfact> 0.14644478E+01</totfact>
</mgrwt>
</event>
<event>
12    6  0.1403409E-007  0.1556390E+04  0.7818608E-02  0.8847797E-01
         -1   -1    0    0    0  501 -0.00000000000E+00  0.00000000000E+00  0.34216839860E+03  0.34216839860E+03  0.00000000000E+00 0.  1.
          2   -1    0    0  501    0  0.00000000000E+00 -0.00000000000E+00 -0.17698513293E+04  0.17698513293E+04  0.00000000000E+00 0. -1.
         24    2    1    2    0    0  0.30753137547E+03  0.33268567528E+03 -0.14805849259E+03  0.48325269744E+03  0.79727955684E+02 0.  0.
        254    2    1    2    0    0 -0.30753137547E+03 -0.33268567528E+03 -0.12796244381E+04  0.16287670304E+04  0.90010445586E+03 0.  0.
         23    2    4    4    0    0 -0.43272416798E+03 -0.36447910246E+03 -0.13412412261E+04  0.14582340851E+04  0.86159147383E+02 0.  0.
         23    2    4    4    0    0  0.12519279251E+03  0.31793427178E+02  0.61616788058E+02  0.17053294530E+03  0.92740495760E+02 0.  0.
          2    1    3    3  502    0  0.14250052841E+03  0.16182561921E+03 -0.11202508681E+03  0.24298878926E+03  0.00000000000E+00 0. -1.
         -1    1    3    3    0  502  0.16503084706E+03  0.17086005606E+03 -0.36033405778E+02  0.24026390818E+03  0.00000000000E+00 0.  1.
         11    1    5    5    0    0 -0.25785457411E+02 -0.37712935431E+02 -0.65404117602E+02  0.79780034545E+02  0.00000000000E+00 0. -1.
        -11    1    5    5    0    0 -0.40693871057E+03 -0.32676616703E+03 -0.12758371085E+04  0.13784540506E+04  0.00000000000E+00 0.  1.
          4    1    6    6  503    0  0.45647489457E+02  0.35954793963E+02 -0.14999876564E+02  0.60011972135E+02  0.00000000000E+00 0. -1.
         -4    1    6    6    0  503  0.79545303052E+02 -0.41613667856E+01  0.76616664622E+02  0.11052097316E+03  0.00000000000E+00 0.  1.
<mgrwt>
<rscale>  0 0.15563897E+04</rscale>
<asrwt>0</asrwt>
<pdfrwt beam="1">  1        2 0.27228481E+00 0.15563897E+04</pdfrwt>
<pdfrwt beam="2">  1       -1 0.52641294E-01 0.15563897E+04</pdfrwt>
<totfact> 0.35745533E+01</totfact>
</mgrwt>
</event>
<event>
12    6  0.1403409E-007  0.1316553E+04  0.7818608E-02  0.9016540E-01
          2   -1    0    0  501    0  0.00000000000E+00  0.00000000000E+00  0.15198805907E+04  0.15198805907E+04  0.00000000000E+00 0. -1.
         -1   -1    0    0    0  501 -0.00000000000E+00 -0.00000000000E+00 -0.28510674193E+03  0.28510674193E+03  0.00000000000E+00 0.  1.
         24    2    1    2    0    0  0.25593697881E+03 -0.11999064998E+03  0.62893445429E+02  0.30026737510E+03  0.79394066972E+02 0.  0.
        254    2    1    2    0    0 -0.25593697881E+03  0.11999064998E+03  0.11718804034E+04  0.15047199575E+04  0.90054260179E+03 0.  0.
         23    2    4    4    0    0 -0.41756934493E+02  0.18065406200E+03  0.12379904000E+04  0.12550267276E+04  0.89957349983E+02 0.  0.
         23    2    4    4    0    0 -0.21418004431E+03 -0.60663412019E+02 -0.66109996650E+02  0.24969322992E+03  0.91777102122E+02 0.  0.
          4    1    3    3  502    0  0.17228570790E+03 -0.41477073011E+02  0.22461976632E+02  0.17862601469E+03  0.00000000000E+00 0. -1.
         -3    1    3    3    0  502  0.83651270910E+02 -0.78513576970E+02  0.40431468797E+02  0.12164136041E+03  0.00000000000E+00 0.  1.
         11    1    5    5    0    0 -0.49825532994E+02  0.62106890056E+02  0.33941483295E+03  0.34862914157E+03  0.00000000000E+00 0.  1.
        -11    1    5    5    0    0  0.80685985002E+01  0.11854717194E+03  0.89857556706E+03  0.90639758604E+03  0.00000000000E+00 0. -1.
          1    1    6    6  503    0 -0.21227673662E+03 -0.75831813614E+02 -0.63465111767E+02  0.23417877205E+03  0.00000000000E+00 0. -1.
         -1    1    6    6    0  503 -0.19033076894E+01  0.15168401595E+02 -0.26448848830E+01  0.15514457875E+02  0.00000000000E+00 0.  1.
<mgrwt>
<rscale>  0 0.13165534E+04</rscale>
<asrwt>0</asrwt>
<pdfrwt beam="1">  1        2 0.23382778E+00 0.13165534E+04</pdfrwt>
<pdfrwt beam="2">  1       -1 0.43862577E-01 0.13165534E+04</pdfrwt>
<totfact> 0.70872217E+01</totfact>
</mgrwt>
</event>
<event>
12    6  0.1403409E-007  0.4384947E+04  0.7818608E-02  0.7931095E-01
          2   -1    0    0  501    0  0.00000000000E+00  0.00000000000E+00  0.25637891011E+04  0.25637891011E+04  0.00000000000E+00 0. -1.
         -1   -1    0    0    0  501 -0.00000000000E+00 -0.00000000000E+00 -0.18749361820E+04  0.18749361820E+04  0.00000000000E+00 0.  1.
         24    2    1    2    0    0 -0.22842722613E+03 -0.20723373360E+04  0.57730691934E+03  0.21647813547E+04  0.78955701342E+02 0.  0.
        254    2    1    2    0    0  0.22842722613E+03  0.20723373360E+04  0.11154599967E+03  0.22739439284E+04  0.90089813369E+03 0.  0.
         23    2    4    4    0    0 -0.70306604493E+02  0.18365490285E+02 -0.13881682689E+03  0.18129170313E+03  0.91193532273E+02 0.  0.
         23    2    4    4    0    0  0.29873383062E+03  0.20539718458E+04  0.25036282656E+03  0.20926522252E+04  0.92030137004E+02 0.  0.
          4    1    3    3  502    0 -0.16930032689E+03 -0.15100407369E+04  0.45686927932E+03  0.15866994567E+04  0.00000000000E+00 0. -1.
         -3    1    3    3    0  502 -0.59126899238E+02 -0.56229659919E+03  0.12043764002E+03  0.57808189801E+03  0.00000000000E+00 0.  1.
         11    1    5    5    0    0  0.16161133879E+02  0.22943293013E+02 -0.20870225984E+02  0.34973465301E+02  0.00000000000E+00 0.  1.
        -11    1    5    5    0    0 -0.86467738372E+02 -0.45778027277E+01 -0.11794660090E+03  0.14631823783E+03  0.00000000000E+00 0. -1.
          4    1    6    6  503    0  0.14811448171E+03  0.13096961191E+04  0.14438499901E+03  0.13259294295E+04  0.00000000000E+00 0. -1.
         -4    1    6    6    0  503  0.15061934891E+03  0.74427572664E+03  0.10597782755E+03  0.76672279571E+03  0.00000000000E+00 0.  1.
<mgrwt>
<rscale>  0 0.43849474E+04</rscale>
<asrwt>0</asrwt>
<pdfrwt beam="1">  1        2 0.39442909E+00 0.43849474E+04</pdfrwt>
<pdfrwt beam="2">  1       -1 0.28845172E+00 0.43849474E+04</pdfrwt>
<totfact> 0.10901160E-01</totfact>
</mgrwt>
</event>
<event>
12    6  0.1403409E-007  0.3390957E+04  0.7818608E-02  0.8140129E-01
         -1   -1    0    0    0  501 -0.00000000000E+00  0.00000000000E+00  0.87504862553E+03  0.87504862553E+03  0.00000000000E+00 0.  1.
          2   -1    0    0  501    0  0.00000000000E+00 -0.00000000000E+00 -0.32851293342E+04  0.32851293342E+04  0.00000000000E+00 0. -1.
         24    2    1    2    0    0  0.29641004793E+03  0.15348985997E+04 -0.89752865429E+03  0.18043409909E+04  0.79473884058E+02 0.  0.
        254    2    1    2    0    0 -0.29641004793E+03 -0.15348985997E+04 -0.15125520543E+04  0.23558369688E+04  0.90464439358E+03 0.  0.
         23    2    4    4    0    0  0.67580650882E+02 -0.10872514829E+04 -0.13743551184E+04  0.17555013488E+04  0.79057339142E+02 0.  0.
         23    2    4    4    0    0 -0.36399069881E+03 -0.44764711677E+03 -0.13819693595E+03  0.60033561999E+03  0.91800291693E+02 0.  0.
          2    1    3    3  502    0  0.16719343363E+03  0.10029897109E+04 -0.55148660595E+03  0.11567538550E+04  0.00000000000E+00 0. -1.
         -1    1    3    3    0  502  0.12921661430E+03  0.53190888872E+03 -0.34604204834E+03  0.64758713586E+03  0.00000000000E+00 0.  1.
         11    1    5    5    0    0  0.67935894853E+02 -0.83454254331E+03 -0.10071775811E+04  0.13097645675E+04  0.00000000000E+00 0. -1.
        -11    1    5    5    0    0 -0.35524397020E+00 -0.25270893958E+03 -0.36717753725E+03  0.44573678130E+03  0.00000000000E+00 0.  1.
          3    1    6    6  503    0 -0.36071940090E+03 -0.44073364394E+03 -0.14747241395E+03  0.58831347423E+03  0.00000000000E+00 0. -1.
         -3    1    6    6    0  503 -0.32712979162E+01 -0.69134728240E+01  0.92754780016E+01  0.12022145761E+02  0.00000000000E+00 0.  1.
<mgrwt>
<rscale>  0 0.33909573E+04</rscale>
<asrwt>0</asrwt>
<pdfrwt beam="1">  1        2 0.50540452E+00 0.33909573E+04</pdfrwt>
<pdfrwt beam="2">  1       -1 0.13462286E+00 0.33909573E+04</pdfrwt>
<totfact> 0.49711822E-01</totfact>
</mgrwt>
</event>
<event>
12    6  0.1403409E-007  0.2059577E+04  0.7818608E-02  0.8579262E-01
          2   -1    0    0  501    0  0.00000000000E+00  0.00000000000E+00  0.22613501906E+04  0.22613501906E+04  0.00000000000E+00 0. -1.
         -1   -1    0    0    0  501 -0.00000000000E+00 -0.00000000000E+00 -0.46895197457E+03  0.46895197457E+03  0.00000000000E+00 0.  1.
         24    2    1    2    0    0  0.41134698304E+03  0.59090483594E+03  0.12754981225E+04  0.14668722457E+04  0.80273650545E+02 0.  0.
        254    2    1    2    0    0 -0.41134698304E+03 -0.59090483594E+03  0.51690009349E+03  0.12634299195E+04  0.90038580020E+03 0.  0.
         23    2    4    4    0    0  0.19387516204E+03 -0.43018509721E+03  0.38550469992E+03  0.61671128961E+03  0.95247807119E+02 0.  0.
         23    2    4    4    0    0 -0.60522214508E+03 -0.16071973873E+03  0.13139539357E+03  0.64671862987E+03  0.94103971540E+02 0.  0.
          4    1    3    3  502    0  0.30024316653E+03  0.47590656520E+03  0.94802159146E+03  0.11024418151E+04  0.00000000000E+00 0. -1.
         -3    1    3    3    0  502  0.11110381651E+03  0.11499827074E+03  0.32747653108E+03  0.36443043057E+03  0.00000000000E+00 0.  1.
         11    1    5    5    0    0  0.40316405141E+02 -0.52537737313E+02  0.19997696921E+02  0.69177555953E+02  0.00000000000E+00 0. -1.
        -11    1    5    5    0    0  0.15355875690E+03 -0.37764735990E+03  0.36550700299E+03  0.54753373366E+03  0.00000000000E+00 0.  1.
          4    1    6    6  503    0 -0.17779702902E+03 -0.36167553079E+01  0.35018752274E+02  0.18124893781E+03  0.00000000000E+00 0. -1.
         -4    1    6    6    0  503 -0.42742511606E+03 -0.15710298342E+03  0.96376641299E+02  0.46546969206E+03  0.00000000000E+00 0.  1.
<mgrwt>
<rscale>  0 0.20595773E+04</rscale>
<asrwt>0</asrwt>
<pdfrwt beam="1">  1        2 0.34790002E+00 0.20595773E+04</pdfrwt>
<pdfrwt beam="2">  1       -1 0.72146459E-01 0.20595773E+04</pdfrwt>
<totfact> 0.97281998E+00</totfact>
</mgrwt>
</event>
<event>
12    6  0.1403409E-007  0.1693434E+04  0.7818608E-02  0.8765118E-01
          2   -1    0    0  501    0  0.00000000000E+00  0.00000000000E+00  0.18521082408E+04  0.18521082408E+04  0.00000000000E+00 0. -1.
         -1   -1    0    0    0  501 -0.00000000000E+00 -0.00000000000E+00 -0.38708845026E+03  0.38708845026E+03  0.00000000000E+00 0.  1.
         24    2    1    2    0    0 -0.59578731011E+03  0.56524245610E+02  0.64752532054E+03  0.88540392700E+03  0.80582653038E+02 0.  0.
        254    2    1    2    0    0  0.59578731011E+03 -0.56524245610E+02  0.81749447005E+03  0.13537927641E+04  0.89794216426E+03 0.  0.
         23    2    4    4    0    0  0.39185281072E+03 -0.45778468596E+03  0.55887604363E+03  0.82674499962E+03  0.89718550336E+02 0.  0.
         23    2    4    4    0    0  0.20393449939E+03  0.40126044035E+03  0.25861842642E+03  0.52704776449E+03  0.91085863520E+02 0.  0.
          4    1    3    3  502    0 -0.23094397769E+03  0.39764766809E+02  0.20264520789E+03  0.30980871161E+03  0.00000000000E+00 0. -1.
         -3    1    3    3    0  502 -0.36484333242E+03  0.16759478801E+02  0.44488011265E+03  0.57559521539E+03  0.00000000000E+00 0.  1.
         11    1    5    5    0    0  0.26060541670E+03 -0.28732672895E+03  0.30149782586E+03  0.49129702969E+03  0.00000000000E+00 0.  1.
        -11    1    5    5    0    0  0.13124739402E+03 -0.17045795702E+03  0.25737821777E+03  0.33544796993E+03  0.00000000000E+00 0. -1.
          3    1    6    6  503    0  0.13383757088E+03  0.24518727408E+03  0.10929540470E+03  0.29995796412E+03  0.00000000000E+00 0. -1.
         -3    1    6    6    0  503  0.70096928517E+02  0.15607316628E+03  0.14932302171E+03  0.22708980037E+03  0.00000000000E+00 0.  1.
<mgrwt>
<rscale>  0 0.16934340E+04</rscale>
<asrwt>0</asrwt>
<pdfrwt beam="1">  1        2 0.28493973E+00 0.16934340E+04</pdfrwt>
<pdfrwt beam="2">  1       -1 0.59552070E-01 0.16934340E+04</pdfrwt>
<totfact> 0.25024974E+01</totfact>
</mgrwt>
</event>
<event>
12    6  0.1403409E-007  0.2045005E+04  0.7818608E-02  0.8585864E-01
          2   -1    0    0  501    0  0.00000000000E+00  0.00000000000E+00  0.62551036921E+03  0.62551036921E+03  0.00000000000E+00 0. -1.
         -1   -1    0    0    0  501 -0.00000000000E+00 -0.00000000000E+00 -0.16714524762E+04  0.16714524762E+04  0.00000000000E+00 0.  1.
         24    2    1    2    0    0 -0.73887157197E+03  0.25039150539E+03 -0.71367363597E+03  0.10602014985E+04  0.77910544576E+02 0.  0.
        254    2    1    2    0    0  0.73887157197E+03 -0.25039150539E+03 -0.33226847106E+03  0.12367613469E+04  0.90030505194E+03 0.  0.
         23    2    4    4    0    0  0.39496321629E+03 -0.77763334584E+02  0.28639528112E+03  0.50259039550E+03  0.92367581846E+02 0.  0.
         23    2    4    4    0    0  0.34390835568E+03 -0.17262817081E+03 -0.61866375218E+03  0.73417095142E+03  0.90491464710E+02 0.  0.
          4    1    3    3  502    0 -0.49658777861E+03  0.17843560927E+03 -0.43380402856E+03  0.68309927808E+03  0.00000000000E+00 0. -1.
         -3    1    3    3    0  502 -0.24228379336E+03  0.71955896122E+02 -0.27986960740E+03  0.37710222044E+03  0.00000000000E+00 0.  1.
         11    1    5    5    0    0  0.38529209286E+03 -0.85778206424E+02  0.25806040701E+03  0.47159630107E+03  0.00000000000E+00 0.  1.
        -11    1    5    5    0    0  0.96711234362E+01  0.80148718403E+01  0.28334874109E+02  0.30994094436E+02  0.00000000000E+00 0. -1.
          4    1    6    6  503    0  0.16266968220E+03 -0.47766533944E+02 -0.20886908128E+03  0.26901553930E+03  0.00000000000E+00 0. -1.
         -4    1    6    6    0  503  0.18123867349E+03 -0.12486163686E+03 -0.40979467089E+03  0.46515541211E+03  0.00000000000E+00 0.  1.
<mgrwt>
<rscale>  0 0.20450045E+04</rscale>
<asrwt>0</asrwt>
<pdfrwt beam="1">  1        2 0.96232364E-01 0.20450045E+04</pdfrwt>
<pdfrwt beam="2">  1       -1 0.25714654E+00 0.20450045E+04</pdfrwt>
<totfact> 0.31203016E+00</totfact>
</mgrwt>
</event>
<event>
12    6  0.1403409E-007  0.1576227E+04  0.7818608E-02  0.8835287E-01
         -1   -1    0    0    0  501 -0.00000000000E+00  0.00000000000E+00  0.36457263169E+03  0.36457263169E+03  0.00000000000E+00 0.  1.
          2   -1    0    0  501    0  0.00000000000E+00 -0.00000000000E+00 -0.17037021589E+04  0.17037021589E+04  0.00000000000E+00 0. -1.
         24    2    1    2    0    0 -0.51309843645E+02 -0.31961871370E+03  0.92629582151E+02  0.34592703328E+03  0.79350177445E+02 0.  0.
        254    2    1    2    0    0  0.51309843645E+02  0.31961871370E+03 -0.14317591094E+04  0.17223477574E+04  0.90097659666E+03 0.  0.
         23    2    4    4    0    0  0.75220455060E+01  0.19998250466E+03  0.57893949061E+02  0.22445700861E+03  0.83544335752E+02 0.  0.
         23    2    4    4    0    0  0.43787798139E+02  0.11963620903E+03 -0.14896530585E+04  0.14978907487E+04  0.91543797296E+02 0.  0.
          2    1    3    3  502    0 -0.45403647519E+02 -0.29697454872E+03  0.60957321581E+02  0.30654717231E+03  0.00000000000E+00 0. -1.
         -1    1    3    3    0  502 -0.59061961268E+01 -0.22644164979E+02  0.31672260571E+02  0.39379860969E+02  0.00000000000E+00 0.  1.
         11    1    5    5    0    0 -0.14270568445E+02  0.85269875753E+02  0.63948086286E+02  0.10753584786E+03  0.00000000000E+00 0.  1.
        -11    1    5    5    0    0  0.21792613951E+02  0.11471262891E+03 -0.60541372246E+01  0.11692116075E+03  0.00000000000E+00 0. -1.
          4    1    6    6  503    0  0.48588986857E+02  0.61286033522E+02 -0.46215817201E+03  0.46872917928E+03  0.00000000000E+00 0.  1.
         -4    1    6    6    0  503 -0.48011887173E+01  0.58350175512E+02 -0.10274948864E+04  0.10291615695E+04  0.00000000000E+00 0. -1.
<mgrwt>
<rscale>  0 0.15762274E+04</rscale>
<asrwt>0</asrwt>
<pdfrwt beam="1">  1        2 0.26210802E+00 0.15762274E+04</pdfrwt>
<pdfrwt beam="2">  1       -1 0.56088098E-01 0.15762274E+04</pdfrwt>
<totfact> 0.34352064E+01</totfact>
</mgrwt>
</event>
<event>
12    6  0.1403409E-007  0.2582549E+04  0.7818608E-02  0.8374153E-01
         -1   -1    0    0    0  501 -0.00000000000E+00  0.00000000000E+00  0.86345667415E+03  0.86345667415E+03  0.00000000000E+00 0.  1.
          2   -1    0    0  501    0  0.00000000000E+00 -0.00000000000E+00 -0.19310631199E+04  0.19310631199E+04  0.00000000000E+00 0. -1.
         24    2    1    2    0    0  0.58330652022E+03 -0.68661390285E+03  0.27406910618E+03  0.94504773144E+03  0.79474471486E+02 0.  0.
        254    2    1    2    0    0 -0.58330652022E+03  0.68661390285E+03 -0.13416755519E+04  0.18494720626E+04  0.89931555956E+03 0.  0.
         23    2    4    4    0    0 -0.45914083729E+03  0.68659480925E+03 -0.45101308861E+03  0.94563413235E+03  0.92673435317E+02 0.  0.
         23    2    4    4    0    0 -0.12416568293E+03  0.19093593404E-01 -0.89066246334E+03  0.90383793028E+03  0.90698751007E+02 0.  0.
          4    1    3    3  502    0  0.27239947249E+03 -0.37092793988E+03  0.16341998700E+03  0.48835960250E+03  0.00000000000E+00 0. -1.
         -3    1    3    3    0  502  0.31090704773E+03 -0.31568596297E+03  0.11064911917E+03  0.45668812894E+03  0.00000000000E+00 0.  1.
         11    1    5    5    0    0 -0.97606372269E+02  0.21286953490E+03 -0.10610994412E+03  0.25709874181E+03  0.00000000000E+00 0.  1.
        -11    1    5    5    0    0 -0.36153446502E+03  0.47372527435E+03 -0.34490314449E+03  0.68853539055E+03  0.00000000000E+00 0. -1.
          4    1    6    6  503    0 -0.33206427747E+02  0.41817751533E+02 -0.33542398938E+03  0.33964782325E+03  0.00000000000E+00 0. -1.
         -4    1    6    6    0  503 -0.90959255182E+02 -0.41798657939E+02 -0.55523847396E+03  0.56419010703E+03  0.00000000000E+00 0.  1.
<mgrwt>
<rscale>  0 0.25825486E+04</rscale>
<asrwt>0</asrwt>
<pdfrwt beam="1">  1        2 0.29708663E+00 0.25825486E+04</pdfrwt>
<pdfrwt beam="2">  1       -1 0.13283949E+00 0.25825486E+04</pdfrwt>
<totfact> 0.35313655E+00</totfact>
</mgrwt>
</event>
<event>
12    6  0.1403409E-007  0.1504335E+04  0.7818608E-02  0.8881575E-01
          4   -1    0    0  501    0  0.00000000000E+00  0.00000000000E+00  0.94440122807E+03  0.94440122807E+03  0.00000000000E+00 0. -1.
         -3   -1    0    0    0  501 -0.00000000000E+00 -0.00000000000E+00 -0.59906291631E+03  0.59906291631E+03  0.00000000000E+00 0.  1.
         24    2    1    2    0    0  0.40967180070E+03  0.24266457837E+03  0.16573473822E+03  0.51033663902E+03  0.79110048577E+02 0.  0.
        254    2    1    2    0    0 -0.40967180070E+03 -0.24266457837E+03  0.17960357353E+03  0.10331275054E+04  0.89909839107E+03 0.  0.
         23    2    4    4    0    0 -0.94191653263E+02  0.30405078058E+03 -0.86177313615E+02  0.34217683155E+03  0.91320917401E+02 0.  0.
         23    2    4    4    0    0 -0.31548014743E+03 -0.54671535895E+03  0.26578088715E+03  0.69095067381E+03  0.91367097632E+02 0.  0.
          2    1    3    3  502    0  0.95438718148E+02  0.53630918233E+02  0.74586433248E+02  0.13246871456E+03  0.00000000000E+00 0. -1.
         -1    1    3    3    0  502  0.31423308255E+03  0.18903366014E+03  0.91148304974E+02  0.37786792446E+03  0.00000000000E+00 0.  1.
         11    1    5    5    0    0 -0.54128799066E+02  0.14294151775E+03  0.46923590084E+01  0.15291900673E+03  0.00000000000E+00 0. -1.
        -11    1    5    5    0    0 -0.40062854197E+02  0.16110926283E+03 -0.90869672623E+02  0.18925782483E+03  0.00000000000E+00 0.  1.
          3    1    6    6  503    0 -0.15155121917E+03 -0.33884540774E+03  0.12898469185E+03  0.39296441711E+03  0.00000000000E+00 0. -1.
         -3    1    6    6    0  503 -0.16392892826E+03 -0.20786995121E+03  0.13679619530E+03  0.29798625670E+03  0.00000000000E+00 0.  1.
<mgrwt>
<rscale>  0 0.15043347E+04</rscale>
<asrwt>0</asrwt>
<pdfrwt beam="1">  1        4 0.14529250E+00 0.15043347E+04</pdfrwt>
<pdfrwt beam="2">  1       -3 0.92163526E-01 0.15043347E+04</pdfrwt>
<totfact> 0.75582424E-01</totfact>
</mgrwt>
</event>
<event>
12    6  0.1403409E-007  0.1778124E+04  0.7818608E-02  0.8718020E-01
          2   -1    0    0  501    0  0.00000000000E+00  0.00000000000E+00  0.12280455717E+04  0.12280455717E+04  0.00000000000E+00 0. -1.
         -1   -1    0    0    0  501 -0.00000000000E+00 -0.00000000000E+00 -0.64364969247E+03  0.64364969247E+03  0.00000000000E+00 0.  1.
         24    2    1    2    0    0 -0.45907682121E+03 -0.46330323464E+03  0.12226093735E+03  0.66834561623E+03  0.79603460540E+02 0.  0.
        254    2    1    2    0    0  0.45907682121E+03  0.46330323464E+03  0.46213494189E+03  0.12033496479E+04  0.89948888581E+03 0.  0.
         23    2    4    4    0    0  0.33298709667E+03  0.23271313002E+03 -0.21685011941E+03  0.46951528779E+03  0.91568683251E+02 0.  0.
         23    2    4    4    0    0  0.12608972454E+03  0.23059010462E+03  0.67898506129E+03  0.73383436015E+03  0.91770037038E+02 0.  0.
          4    1    3    3  502    0 -0.17162126438E+03 -0.14092205557E+03  0.72305416834E+02  0.23354005531E+03  0.00000000000E+00 0. -1.
         -3    1    3    3    0  502 -0.28745555683E+03 -0.32238117907E+03  0.49955520519E+02  0.43480556091E+03  0.00000000000E+00 0.  1.
         11    1    5    5    0    0  0.17309364048E+03  0.17114022200E+03 -0.10633767469E+03  0.26562771885E+03  0.00000000000E+00 0. -1.
        -11    1    5    5    0    0  0.15989345618E+03  0.61572908022E+02 -0.11051244471E+03  0.20388756894E+03  0.00000000000E+00 0.  1.
          1    1    6    6  503    0  0.66476979559E+02  0.14269307168E+03  0.51448193031E+03  0.53802616863E+03  0.00000000000E+00 0. -1.
         -1    1    6    6    0  503  0.59612744981E+02  0.87897032935E+02  0.16450313098E+03  0.19580819152E+03  0.00000000000E+00 0.  1.
<mgrwt>
<rscale>  0 0.17781239E+04</rscale>
<asrwt>0</asrwt>
<pdfrwt beam="1">  1        2 0.18893009E+00 0.17781239E+04</pdfrwt>
<pdfrwt beam="2">  1       -1 0.99023030E-01 0.17781239E+04</pdfrwt>
<totfact> 0.19157844E+01</totfact>
</mgrwt>
</event>
<event>
12    6  0.1403409E-007  0.2253751E+04  0.7818608E-02  0.8496383E-01
          2   -1    0    0  501    0  0.00000000000E+00  0.00000000000E+00  0.20761225209E+04  0.20761225209E+04  0.00000000000E+00 0. -1.
         -1   -1    0    0    0  501 -0.00000000000E+00 -0.00000000000E+00 -0.61164418247E+03  0.61164418247E+03  0.00000000000E+00 0.  1.
         24    2    1    2    0    0 -0.46416740819E+03  0.37970095684E+03 -0.25535841975E+03  0.65619327293E+03  0.75878122386E+02 0.  0.
        254    2    1    2    0    0  0.46416740819E+03 -0.37970095684E+03  0.17198367582E+04  0.20315734305E+04  0.89990439997E+03 0.  0.
         23    2    4    4    0    0  0.41274049210E+03 -0.65722137759E+03  0.13120995103E+04  0.15271386917E+04  0.90844954139E+02 0.  0.
         23    2    4    4    0    0  0.51426916091E+02  0.27752042075E+03  0.40773724792E+03  0.50443473882E+03  0.92425271190E+02 0.  0.
          2    1    3    3  502    0 -0.24220657490E+03  0.15182077105E+03 -0.10756048149E+03  0.30542237741E+03  0.00000000000E+00 0. -1.
         -1    1    3    3    0  502 -0.22196083329E+03  0.22788018579E+03 -0.14779793826E+03  0.35077089552E+03  0.00000000000E+00 0.  1.
         11    1    5    5    0    0  0.29629470501E+03 -0.40018003308E+03  0.87851492622E+03  0.10098133920E+04  0.00000000000E+00 0.  1.
        -11    1    5    5    0    0  0.11644578709E+03 -0.25704134450E+03  0.43358458408E+03  0.51732529966E+03  0.00000000000E+00 0. -1.
          1    1    6    6  503    0  0.45839909583E+02  0.50403605609E+02  0.72703782591E+02  0.99637647363E+02  0.00000000000E+00 0. -1.
         -1    1    6    6    0  503  0.55870065078E+01  0.22711681514E+03  0.33503346532E+03  0.40479709145E+03  0.00000000000E+00 0.  1.
<mgrwt>
<rscale>  0 0.22537509E+04</rscale>
<asrwt>0</asrwt>
<pdfrwt beam="1">  1        2 0.31940346E+00 0.22537509E+04</pdfrwt>
<pdfrwt beam="2">  1       -1 0.94099106E-01 0.22537509E+04</pdfrwt>
<totfact> 0.68642977E+00</totfact>
</mgrwt>
</event>
<event>
12    6  0.1403409E-007  0.1640540E+04  0.7818608E-02  0.8796023E-01
          2   -1    0    0  501    0  0.00000000000E+00  0.00000000000E+00  0.84223597713E+03  0.84223597713E+03  0.00000000000E+00 0. -1.
         -1   -1    0    0    0  501 -0.00000000000E+00 -0.00000000000E+00 -0.79887672139E+03  0.79887672139E+03  0.00000000000E+00 0.  1.
         24    2    1    2    0    0  0.53791169834E+03 -0.11367069016E+03 -0.13860885434E+03  0.57272441593E+03  0.80813495740E+02 0.  0.
        254    2    1    2    0    0 -0.53791169834E+03  0.11367069016E+03  0.18196811008E+03  0.10683882826E+04  0.89781462913E+03 0.  0.
         23    2    4    4    0    0 -0.88161756684E+01 -0.71634366469E+02 -0.30102875678E+03  0.32255394436E+03  0.90628512102E+02 0.  0.
         23    2    4    4    0    0 -0.52909552267E+03  0.18530505663E+03  0.48299686686E+03  0.74583433822E+03  0.93289069872E+02 0.  0.
          2    1    3    3  502    0  0.11458414028E+02 -0.10646229966E+02  0.66043845217E+01  0.16978084681E+02  0.00000000000E+00 0. -1.
         -1    1    3    3    0  502  0.52645328431E+03 -0.10302446020E+03 -0.14521323886E+03  0.55574633125E+03  0.00000000000E+00 0.  1.
         11    1    5    5    0    0 -0.19974526085E+02 -0.70041072791E+02 -0.11460938235E+03  0.13579412393E+03  0.00000000000E+00 0. -1.
        -11    1    5    5    0    0  0.11158350417E+02 -0.15932936773E+01 -0.18641937443E+03  0.18675982044E+03  0.00000000000E+00 0.  1.
          1    1    6    6  503    0 -0.41429253112E+03  0.17730885969E+03  0.35471366680E+03  0.57349674671E+03  0.00000000000E+00 0. -1.
         -1    1    6    6    0  503 -0.11480299155E+03  0.79961969481E+01  0.12828320005E+03  0.17233759151E+03  0.00000000000E+00 0.  1.
<mgrwt>
<rscale>  0 0.16405398E+04</rscale>
<asrwt>0</asrwt>
<pdfrwt beam="1">  1        2 0.12957477E+00 0.16405398E+04</pdfrwt>
<pdfrwt beam="2">  1       -1 0.12290411E+00 0.16405398E+04</pdfrwt>
<totfact> 0.20472624E+01</totfact>
</mgrwt>
</event>
<event>
12    6  0.1403409E-007  0.1476144E+04  0.7818608E-02  0.8900474E-01
          2   -1    0    0  501    0  0.00000000000E+00  0.00000000000E+00  0.52653910929E+03  0.52653910929E+03  0.00000000000E+00 0. -1.
         -1   -1    0    0    0  501 -0.00000000000E+00 -0.00000000000E+00 -0.10345863176E+04  0.10345863176E+04  0.00000000000E+00 0.  1.
         24    2    1    2    0    0  0.28656256662E+03  0.34741977127E+03 -0.68631662232E+02  0.46257525051E+03  0.80292934122E+02 0.  0.
        254    2    1    2    0    0 -0.28656256662E+03 -0.34741977127E+03 -0.43941554606E+03  0.10985501764E+04  0.90050422865E+03 0.  0.
         23    2    4    4    0    0 -0.31647940535E+03 -0.62720664013E+03 -0.34579108713E+03  0.78797306620E+03  0.88219576585E+02 0.  0.
         23    2    4    4    0    0  0.29916838723E+02  0.27978686886E+03 -0.93624458938E+02  0.31057711017E+03  0.92287013299E+02 0.  0.
          4    1    3    3  502    0  0.16880297469E+03  0.16297980401E+03 -0.50435626545E+01  0.23469618298E+03  0.00000000000E+00 0. -1.
         -3    1    3    3    0  502  0.11775959193E+03  0.18443996726E+03 -0.63588099578E+02  0.22787906754E+03  0.00000000000E+00 0.  1.
         11    1    5    5    0    0 -0.25338543978E+03 -0.44734584888E+03 -0.21763921089E+03  0.55829142544E+03  0.00000000000E+00 0.  1.
        -11    1    5    5    0    0 -0.63093965563E+02 -0.17986079125E+03 -0.12815187624E+03  0.22968164076E+03  0.00000000000E+00 0. -1.
          4    1    6    6  503    0  0.10264760845E+02  0.16088053423E+03 -0.55459190452E+01  0.16130303416E+03  0.00000000000E+00 0. -1.
         -4    1    6    6    0  503  0.19652077878E+02  0.11890633463E+03 -0.88078539893E+02  0.14927407601E+03  0.00000000000E+00 0.  1.
<mgrwt>
<rscale>  0 0.14761438E+04</rscale>
<asrwt>0</asrwt>
<pdfrwt beam="1">  1        2 0.81006017E-01 0.14761438E+04</pdfrwt>
<pdfrwt beam="2">  1       -1 0.15916713E+00 0.14761438E+04</pdfrwt>
<totfact> 0.19016986E+01</totfact>
</mgrwt>
</event>
<event>
12    6  0.1403409E-007  0.2102720E+04  0.7818608E-02  0.8560046E-01
         -1   -1    0    0    0  501 -0.00000000000E+00  0.00000000000E+00  0.12256747172E+04  0.12256747172E+04  0.00000000000E+00 0.  1.
          2   -1    0    0  501    0  0.00000000000E+00 -0.00000000000E+00 -0.90183614113E+03  0.90183614113E+03  0.00000000000E+00 0. -1.
         24    2    1    2    0    0 -0.40282548873E+03  0.67757634741E+03 -0.20547693647E+03  0.81849356318E+03  0.79579272465E+02 0.  0.
        254    2    1    2    0    0  0.40282548873E+03 -0.67757634741E+03  0.52931551259E+03  0.13090172952E+04  0.90109560332E+03 0.  0.
         23    2    4    4    0    0 -0.78416627032E+02 -0.67550973525E+03  0.18457381684E+03  0.71026988770E+03  0.89180994036E+02 0.  0.
         23    2    4    4    0    0  0.48124211577E+03 -0.20666121557E+01  0.34474169574E+03  0.59874740749E+03  0.89740605772E+02 0.  0.
          2    1    3    3  502    0 -0.30990098841E+03  0.51126390475E+03 -0.19015643824E+03  0.62736661843E+03  0.00000000000E+00 0. -1.
         -1    1    3    3    0  502 -0.92924500320E+02  0.16631244266E+03 -0.15320498232E+02  0.19112694475E+03  0.00000000000E+00 0.  1.
         11    1    5    5    0    0 -0.16359747060E+02 -0.33341788547E+03  0.13047299915E+03  0.35841084133E+03  0.00000000000E+00 0.  1.
        -11    1    5    5    0    0 -0.62056879971E+02 -0.34209184978E+03  0.54100817691E+02  0.35185904637E+03  0.00000000000E+00 0. -1.
          2    1    6    6  503    0  0.35637022503E+03 -0.39337438250E+02  0.26669308015E+03  0.44684714426E+03  0.00000000000E+00 0. -1.
         -2    1    6    6    0  503  0.12487189074E+03  0.37270826094E+02  0.78048615595E+02  0.15190026324E+03  0.00000000000E+00 0.  1.
<mgrwt>
<rscale>  0 0.21027199E+04</rscale>
<asrwt>0</asrwt>
<pdfrwt beam="1">  1        2 0.13874402E+00 0.21027199E+04</pdfrwt>
<pdfrwt beam="2">  1       -1 0.18856534E+00 0.21027199E+04</pdfrwt>
<totfact> 0.55577416E+00</totfact>
</mgrwt>
</event>
<event>
12    6  0.1403409E-007  0.1970675E+04  0.7818608E-02  0.8620455E-01
         -1   -1    0    0    0  501 -0.00000000000E+00  0.00000000000E+00  0.59967309722E+03  0.59967309722E+03  0.00000000000E+00 0.  1.
          2   -1    0    0  501    0  0.00000000000E+00 -0.00000000000E+00 -0.16190328938E+04  0.16190328938E+04  0.00000000000E+00 0. -1.
         24    2    1    2    0    0  0.65384947697E+03  0.37403406496E+03 -0.62193438622E+03  0.97987575252E+03  0.77029145945E+02 0.  0.
        254    2    1    2    0    0 -0.65384947697E+03 -0.37403406496E+03 -0.39742541033E+03  0.12388302385E+04  0.89962924736E+03 0.  0.
         23    2    4    4    0    0 -0.53380926693E+03 -0.46920681347E+03  0.87599273981E+02  0.72189578190E+03  0.91392121420E+02 0.  0.
         23    2    4    4    0    0 -0.12004021005E+03  0.95172748509E+02 -0.48502468432E+03  0.51693445658E+03  0.92221385360E+02 0.  0.
          2    1    3    3  502    0  0.47558038651E+03  0.23137369601E+03 -0.43507806324E+03  0.68483823809E+03  0.00000000000E+00 0. -1.
         -1    1    3    3    0  502  0.17826909047E+03  0.14266036895E+03 -0.18685632297E+03  0.29503751443E+03  0.00000000000E+00 0.  1.
         11    1    5    5    0    0 -0.35694331966E+02 -0.50159088212E+02  0.29802817230E+02  0.68397568521E+02  0.00000000000E+00 0.  1.
        -11    1    5    5    0    0 -0.49811493496E+03 -0.41904772526E+03  0.57796456751E+02  0.65349821338E+03  0.00000000000E+00 0. -1.
          1    1    6    6  503    0 -0.66505610507E+02  0.83877161461E+02 -0.41204774107E+03  0.42572492923E+03  0.00000000000E+00 0. -1.
         -1    1    6    6    0  503 -0.53534599541E+02  0.11295587048E+02 -0.72976943245E+02  0.91209527354E+02  0.00000000000E+00 0.  1.
<mgrwt>
<rscale>  0 0.19706755E+04</rscale>
<asrwt>0</asrwt>
<pdfrwt beam="1">  1        2 0.24908198E+00 0.19706755E+04</pdfrwt>
<pdfrwt beam="2">  1       -1 0.92257401E-01 0.19706755E+04</pdfrwt>
<totfact> 0.13198004E+01</totfact>
</mgrwt>
</event>
<event>
12    6  0.1403409E-007  0.1189486E+04  0.7818608E-02  0.9122110E-01
          2   -1    0    0  501    0  0.00000000000E+00  0.00000000000E+00  0.35198741407E+03  0.35198741407E+03  0.00000000000E+00 0. -1.
         -1   -1    0    0    0  501 -0.00000000000E+00 -0.00000000000E+00 -0.10049197389E+04  0.10049197389E+04  0.00000000000E+00 0.  1.
         24    2    1    2    0    0  0.22519988492E+03  0.96108183489E+02 -0.18860425794E+03  0.31933962231E+03  0.80339636297E+02 0.  0.
        254    2    1    2    0    0 -0.22519988492E+03 -0.96108183489E+02 -0.46432806690E+03  0.10375675307E+04  0.89498271263E+03 0.  0.
         23    2    4    4    0    0 -0.97099874343E+02 -0.22579409450E+03  0.20814175157E+03  0.33494635121E+03  0.91949500974E+02 0.  0.
         23    2    4    4    0    0 -0.12810001058E+03  0.12968591101E+03 -0.67246981847E+03  0.70262117947E+03  0.90734871287E+02 0.  0.
          4    1    3    3  502    0  0.18831155747E+03  0.11021875948E+03 -0.15912199280E+03  0.27005411719E+03  0.00000000000E+00 0. -1.
         -3    1    3    3    0  502  0.36888327452E+02 -0.14110575992E+02 -0.29482265146E+02  0.49285505122E+02  0.00000000000E+00 0.  1.
         11    1    5    5    0    0 -0.23568845671E+02 -0.15826980866E+03  0.10491619112E+03  0.19134322559E+03  0.00000000000E+00 0. -1.
        -11    1    5    5    0    0 -0.73531028672E+02 -0.67524285837E+02  0.10322556045E+03  0.14360312561E+03  0.00000000000E+00 0.  1.
          1    1    6    6  503    0 -0.86017454652E+02  0.13395296716E+03 -0.48576519193E+03  0.51118511481E+03  0.00000000000E+00 0. -1.
         -1    1    6    6    0  503 -0.42082555923E+02 -0.42670561481E+01 -0.18670462654E+03  0.19143606466E+03  0.00000000000E+00 0.  1.
<mgrwt>
<rscale>  0 0.11894858E+04</rscale>
<asrwt>0</asrwt>
<pdfrwt beam="1">  1        2 0.54151910E-01 0.11894858E+04</pdfrwt>
<pdfrwt beam="2">  1       -1 0.15460304E+00 0.11894858E+04</pdfrwt>
<totfact> 0.33368770E+01</totfact>
</mgrwt>
</event>
<event>
12    6  0.1403409E-007  0.2475196E+04  0.7818608E-02  0.8411876E-01
          2   -1    0    0  501    0  0.00000000000E+00  0.00000000000E+00  0.82293800210E+03  0.82293800210E+03  0.00000000000E+00 0. -1.
         -1   -1    0    0    0  501 -0.00000000000E+00 -0.00000000000E+00 -0.18611963556E+04  0.18611963556E+04  0.00000000000E+00 0.  1.
         24    2    1    2    0    0 -0.10135987686E+04  0.20852838196E+02 -0.82832160217E+03  0.13122809356E+04  0.90262243314E+02 0.  0.
        254    2    1    2    0    0  0.10135987686E+04 -0.20852838196E+02 -0.20993675129E+03  0.13718534221E+04  0.90005059163E+03 0.  0.
         23    2    4    4    0    0  0.67367444812E+03 -0.38415843053E+03  0.87472042949E+02  0.78554018240E+03  0.89482166157E+02 0.  0.
         23    2    4    4    0    0  0.33992432052E+03  0.36330559234E+03 -0.29740879424E+03  0.58631323969E+03  0.88157399222E+02 0.  0.
          2    1    3    3  502    0 -0.67022931430E+03  0.54242682927E+02 -0.56505200207E+03  0.87831279590E+03  0.00000000000E+00 0. -1.
         -3    1    3    3    0  502 -0.34336945434E+03 -0.33389844731E+02 -0.26326960010E+03  0.43396813966E+03  0.00000000000E+00 0.  1.
         11    1    5    5    0    0  0.37256422857E+03 -0.26135785356E+03  0.62950481014E+02  0.45942877042E+03  0.00000000000E+00 0.  1.
        -11    1    5    5    0    0  0.30111021954E+03 -0.12280057697E+03  0.24521561934E+02  0.32611141197E+03  0.00000000000E+00 0. -1.
          3    1    6    6  503    0  0.76020123665E+02  0.12185138414E+03 -0.11941160610E+03  0.18677781102E+03  0.00000000000E+00 0. -1.
         -3    1    6    6    0  503  0.26390419686E+03  0.24145420820E+03 -0.17799718814E+03  0.39953542867E+03  0.00000000000E+00 0.  1.
<mgrwt>
<rscale>  0 0.24751963E+04</rscale>
<asrwt>0</asrwt>
<pdfrwt beam="1">  1        2 0.12660585E+00 0.24751963E+04</pdfrwt>
<pdfrwt beam="2">  1       -1 0.28633790E+00 0.24751963E+04</pdfrwt>
<totfact> 0.13689411E+00</totfact>
</mgrwt>
</event>
<event>
12    6  0.1403409E-007  0.3428537E+04  0.7818608E-02  0.8130938E-01
         -1   -1    0    0    0  501 -0.00000000000E+00  0.00000000000E+00  0.14816663991E+04  0.14816663991E+04  0.00000000000E+00 0.  1.
          2   -1    0    0  501    0  0.00000000000E+00 -0.00000000000E+00 -0.19833856937E+04  0.19833856937E+04  0.00000000000E+00 0. -1.
         24    2    1    2    0    0 -0.10542595757E+04  0.49581446609E+03 -0.13368739423E+04  0.17750154499E+04  0.78438970602E+02 0.  0.
        254    2    1    2    0    0  0.10542595757E+04 -0.49581446609E+03  0.83515464763E+03  0.16900366429E+04  0.89523479101E+03 0.  0.
         23    2    4    4    0    0  0.10042508970E+04 -0.18578981906E+03  0.88818619635E+03  0.13563768467E+04  0.88576011989E+02 0.  0.
         23    2    4    4    0    0  0.50008678723E+02 -0.31002464703E+03 -0.53031548717E+02  0.33365979618E+03  0.99500576459E+02 0.  0.
          4    1    3    3  502    0 -0.57224015259E+03  0.22584603814E+03 -0.70474058865E+03  0.93548090439E+03  0.00000000000E+00 0. -1.
         -3    1    3    3    0  502 -0.48201942310E+03  0.26996842795E+03 -0.63213335364E+03  0.83953454551E+03  0.00000000000E+00 0.  1.
         11    1    5    5    0    0  0.61757936133E+03 -0.11472070308E+03  0.48847930902E+03  0.79572428805E+03  0.00000000000E+00 0. -1.
        -11    1    5    5    0    0  0.38667153564E+03 -0.71069115985E+02  0.39970688733E+03  0.56065255863E+03  0.00000000000E+00 0.  1.
          1    1    6    6  503    0  0.15763531296E+02 -0.17295912425E+03  0.19645593824E+02  0.17478357170E+03  0.00000000000E+00 0. -1.
         -1    1    6    6    0  503  0.34245147427E+02 -0.13706552278E+03 -0.72677142541E+02  0.15887622448E+03  0.00000000000E+00 0.  1.
<mgrwt>
<rscale>  0 0.34285367E+04</rscale>
<asrwt>0</asrwt>
<pdfrwt beam="1">  1        2 0.30513626E+00 0.34285367E+04</pdfrwt>
<pdfrwt beam="2">  1       -1 0.22794868E+00 0.34285367E+04</pdfrwt>
<totfact> 0.62498924E-01</totfact>
</mgrwt>
</event>
<event>
12    6  0.1403409E-007  0.2349752E+04  0.7818608E-02  0.8458559E-01
          2   -1    0    0  501    0  0.00000000000E+00  0.00000000000E+00  0.16134396155E+04  0.16134396155E+04  0.00000000000E+00 0. -1.
         -1   -1    0    0    0  501 -0.00000000000E+00 -0.00000000000E+00 -0.85552229402E+03  0.85552229402E+03  0.00000000000E+00 0.  1.
         24    2    1    2    0    0  0.36172124944E+03 -0.89671864787E+03  0.55556629288E+02  0.97164701694E+03  0.77876766378E+02 0.  0.
        254    2    1    2    0    0 -0.36172124944E+03  0.89671864787E+03  0.70236069220E+03  0.14973148926E+04  0.90205030343E+03 0.  0.
         23    2    4    4    0    0 -0.53030398647E+02  0.93015192523E+03  0.30435185159E+03  0.98434895693E+03  0.91203027638E+02 0.  0.
         23    2    4    4    0    0 -0.30869085079E+03 -0.33433277368E+02  0.39800884061E+03  0.51296593566E+03  0.91187655674E+02 0.  0.
          4    1    3    3  502    0  0.27379969315E+03 -0.66779939452E+03  0.76582683892E+01  0.72179010271E+03  0.00000000000E+00 0. -1.
         -3    1    3    3    0  502  0.87921556287E+02 -0.22891925334E+03  0.47898360899E+02  0.24985691423E+03  0.00000000000E+00 0.  1.
         11    1    5    5    0    0  0.21505793491E+02  0.38288235734E+03  0.11232278575E+03  0.39959705569E+03  0.00000000000E+00 0.  1.
        -11    1    5    5    0    0 -0.74536192137E+02  0.54726956790E+03  0.19202906585E+03  0.58475190125E+03  0.00000000000E+00 0. -1.
          3    1    6    6  503    0 -0.20028276144E+03 -0.54008766950E+02  0.30386524797E+03  0.36791876870E+03  0.00000000000E+00 0. -1.
         -3    1    6    6    0  503 -0.10840808935E+03  0.20575489582E+02  0.94143592640E+02  0.14504716696E+03  0.00000000000E+00 0.  1.
<mgrwt>
<rscale>  0 0.23497520E+04</rscale>
<asrwt>0</asrwt>
<pdfrwt beam="1">  1        2 0.24822148E+00 0.23497520E+04</pdfrwt>
<pdfrwt beam="2">  1       -1 0.13161881E+00 0.23497520E+04</pdfrwt>
<totfact> 0.55393330E+00</totfact>
</mgrwt>
</event>
<event>
12    6  0.1403409E-007  0.1738540E+04  0.7818608E-02  0.8739684E-01
         -1   -1    0    0    0  501 -0.00000000000E+00  0.00000000000E+00  0.52316094793E+03  0.52316094793E+03  0.00000000000E+00 0.  1.
          2   -1    0    0  501    0  0.00000000000E+00 -0.00000000000E+00 -0.14443551115E+04  0.14443551115E+04  0.00000000000E+00 0. -1.
         24    2    1    2    0    0 -0.31060086925E+03  0.30858751489E+03  0.18144611519E+03  0.48099733564E+03  0.82076731442E+02 0.  0.
        254    2    1    2    0    0  0.31060086925E+03 -0.30858751489E+03 -0.11026402787E+04  0.14865187237E+04  0.89566912276E+03 0.  0.
         23    2    4    4    0    0 -0.97180961885E+02 -0.17796032296E+03 -0.10152370215E+04  0.10393012110E+04  0.91251199742E+02 0.  0.
         23    2    4    4    0    0  0.40778183114E+03 -0.13062719193E+03 -0.87403257259E+02  0.44721751279E+03  0.94945717597E+02 0.  0.
          2    1    3    3  502    0 -0.73803227524E+02  0.33952798144E+02  0.17847624615E+02  0.83175997735E+02  0.00000000000E+00 0. -1.
         -1    1    3    3    0  502 -0.23679764173E+03  0.27463471675E+03  0.16359849058E+03  0.39782133790E+03  0.00000000000E+00 0.  1.
         11    1    5    5    0    0 -0.10289579687E+03 -0.17394781860E+03 -0.10112758435E+04  0.10312731065E+04  0.00000000000E+00 0.  1.
        -11    1    5    5    0    0  0.57148349843E+01 -0.40125043545E+01 -0.39611779938E+01  0.80281044581E+01  0.00000000000E+00 0. -1.
          1    1    6    6  503    0  0.18690234644E+03 -0.14276170292E+02 -0.55792832488E+02  0.19557386405E+03  0.00000000000E+00 0.  1.
         -1    1    6    6    0  503  0.22087948470E+03 -0.11635102164E+03 -0.31610424771E+02  0.25164364874E+03  0.00000000000E+00 0. -1.
<mgrwt>
<rscale>  0 0.17385398E+04</rscale>
<asrwt>0</asrwt>
<pdfrwt beam="1">  1        2 0.22220848E+00 0.17385398E+04</pdfrwt>
<pdfrwt beam="2">  1       -1 0.80486300E-01 0.17385398E+04</pdfrwt>
<totfact> 0.22725571E+01</totfact>
</mgrwt>
</event>
<event>
12    6  0.1403409E-007  0.2205760E+04  0.7818608E-02  0.8516035E-01
         -1   -1    0    0    0  501 -0.00000000000E+00  0.00000000000E+00  0.53779435764E+03  0.53779435764E+03  0.00000000000E+00 0.  1.
          2   -1    0    0  501    0  0.00000000000E+00 -0.00000000000E+00 -0.22617265698E+04  0.22617265698E+04  0.00000000000E+00 0. -1.
         24    2    1    2    0    0  0.83046234288E+02  0.11463989607E+03  0.43077243313E+03  0.46002833764E+03  0.77602831692E+02 0.  0.
        254    2    1    2    0    0 -0.83046234288E+02 -0.11463989607E+03 -0.21547046453E+04  0.23394925898E+04  0.90024134900E+03 0.  0.
         23    2    4    4    0    0 -0.43889237420E+02 -0.43431602896E+03 -0.59119091583E+03  0.74058927530E+03  0.91701131665E+02 0.  0.
         23    2    4    4    0    0 -0.39156996867E+02  0.31967613289E+03 -0.15635137295E+04  0.15989033145E+04  0.90501527906E+02 0.  0.
          4    1    3    3  502    0 -0.57380291812E+01  0.29117616658E+02  0.15701888305E+03  0.15979890554E+03  0.00000000000E+00 0. -1.
         -3    1    3    3    0  502  0.88784263469E+02  0.85522279409E+02  0.27375355009E+03  0.30022943210E+03  0.00000000000E+00 0.  1.
         11    1    5    5    0    0  0.93082446404E+01 -0.39451393192E+02 -0.10143652628E+03  0.10923563845E+03  0.00000000000E+00 0. -1.
        -11    1    5    5    0    0 -0.53197482061E+02 -0.39486463577E+03 -0.48975438955E+03  0.63135363685E+03  0.00000000000E+00 0.  1.
          4    1    6    6  503    0  0.21705164655E+02  0.18680147466E+03 -0.84431797547E+03  0.86500794725E+03  0.00000000000E+00 0. -1.
         -4    1    6    6    0  503 -0.60862161522E+02  0.13287465823E+03 -0.71919575399E+03  0.73389536724E+03  0.00000000000E+00 0.  1.
<mgrwt>
<rscale>  0 0.22057595E+04</rscale>
<asrwt>0</asrwt>
<pdfrwt beam="1">  1        2 0.34795793E+00 0.22057595E+04</pdfrwt>
<pdfrwt beam="2">  1       -1 0.82737595E-01 0.22057595E+04</pdfrwt>
<totfact> 0.71910425E+00</totfact>
</mgrwt>
</event>
<event>
12    6  0.1403409E-007  0.2134916E+04  0.7818608E-02  0.8546017E-01
         -1   -1    0    0    0  501 -0.00000000000E+00  0.00000000000E+00  0.94848985660E+03  0.94848985660E+03  0.00000000000E+00 0.  1.
          2   -1    0    0  501    0  0.00000000000E+00 -0.00000000000E+00 -0.12013486285E+04  0.12013486285E+04  0.00000000000E+00 0. -1.
         24    2    1    2    0    0 -0.75873352962E+03  0.44477077425E+03 -0.63551447074E+02  0.88534288777E+03  0.79345018122E+02 0.  0.
        254    2    1    2    0    0  0.75873352962E+03 -0.44477077425E+03 -0.18930732486E+03  0.12644955974E+04  0.88860240935E+03 0.  0.
         23    2    4    4    0    0 -0.90705024753E+02 -0.17279105848E+03 -0.29135195084E+03  0.36206076724E+03  0.90099325810E+02 0.  0.
         23    2    4    4    0    0  0.84943855438E+03 -0.27197971577E+03  0.10204462598E+03  0.90243483012E+03  0.91960282068E+02 0.  0.
          2    1    3    3  502    0 -0.41013062730E+03  0.26003512158E+03 -0.70782636617E+02  0.49075001533E+03  0.00000000000E+00 0. -1.
         -1    1    3    3    0  502 -0.34860290233E+03  0.18473565267E+03  0.72311895431E+01  0.39459287244E+03  0.00000000000E+00 0.  1.
         11    1    5    5    0    0 -0.66134015512E+02 -0.16961197041E+03 -0.21463804492E+03  0.28144523240E+03  0.00000000000E+00 0. -1.
        -11    1    5    5    0    0 -0.24571009241E+02 -0.31790880688E+01 -0.76713905921E+02  0.80615534841E+02  0.00000000000E+00 0.  1.
          1    1    6    6  503    0  0.83738986900E+03 -0.25609972580E+03  0.93182630459E+02  0.88062015925E+03  0.00000000000E+00 0. -1.
         -1    1    6    6    0  503  0.12048685378E+02 -0.15879989971E+02  0.88619955195E+01  0.21814670876E+02  0.00000000000E+00 0.  1.
<mgrwt>
<rscale>  0 0.21349164E+04</rscale>
<asrwt>0</asrwt>
<pdfrwt beam="1">  1        2 0.18482286E+00 0.21349164E+04</pdfrwt>
<pdfrwt beam="2">  1       -1 0.14592152E+00 0.21349164E+04</pdfrwt>
<totfact> 0.74413386E+00</totfact>
</mgrwt>
</event>
<event>
12    6  0.1403409E-007  0.1262942E+04  0.7818608E-02  0.9059480E-01
         -1   -1    0    0    0  501 -0.00000000000E+00  0.00000000000E+00  0.28908124558E+03  0.28908124558E+03  0.00000000000E+00 0.  1.
          2   -1    0    0  501    0  0.00000000000E+00 -0.00000000000E+00 -0.13793889968E+04  0.13793889968E+04  0.00000000000E+00 0. -1.
         24    2    1    2    0    0  0.18314903576E+03  0.44672937191E+02  0.43416042965E+02  0.20926927905E+03  0.79808757356E+02 0.  0.
        254    2    1    2    0    0 -0.18314903576E+03 -0.44672937191E+02 -0.11337237942E+04  0.14592009633E+04  0.89910987609E+03 0.  0.
         23    2    4    4    0    0 -0.45809110890E+03  0.21234488773E+03 -0.49884989362E+03  0.71547255541E+03  0.90066340996E+02 0.  0.
         23    2    4    4    0    0  0.27494207314E+03 -0.25701782492E+03 -0.63487390058E+03  0.74372840793E+03  0.91737501756E+02 0.  0.
          4    1    3    3  502    0  0.28469547322E+02  0.41017377910E+02  0.83507729465E+01  0.50622878465E+02  0.00000000000E+00 0. -1.
         -3    1    3    3    0  502  0.15467948844E+03  0.36555592809E+01  0.35065270019E+02  0.15864640059E+03  0.00000000000E+00 0.  1.
         11    1    5    5    0    0 -0.23529539717E+02  0.31339879834E+02 -0.20074398208E+02  0.44031906281E+02  0.00000000000E+00 0.  1.
        -11    1    5    5    0    0 -0.43456156919E+03  0.18100500789E+03 -0.47877549542E+03  0.67144064913E+03  0.00000000000E+00 0. -1.
          4    1    6    6  503    0  0.22038923325E+03 -0.15982308455E+03 -0.49449928708E+03  0.56448594084E+03  0.00000000000E+00 0. -1.
         -4    1    6    6    0  503  0.54552839895E+02 -0.97194740364E+02 -0.14037461350E+03  0.17924246709E+03  0.00000000000E+00 0.  1.
<mgrwt>
<rscale>  0 0.12629418E+04</rscale>
<asrwt>0</asrwt>
<pdfrwt beam="1">  1        2 0.21221368E+00 0.12629418E+04</pdfrwt>
<pdfrwt beam="2">  1       -1 0.44474039E-01 0.12629418E+04</pdfrwt>
<totfact> 0.83335693E+01</totfact>
</mgrwt>
</event>
<event>
12    6  0.1403409E-007  0.2559154E+04  0.7818608E-02  0.8382210E-01
         -1   -1    0    0    0  501 -0.00000000000E+00  0.00000000000E+00  0.16807614375E+04  0.16807614375E+04  0.00000000000E+00 0.  1.
          2   -1    0    0  501    0  0.00000000000E+00 -0.00000000000E+00 -0.97415201890E+03  0.97415201890E+03  0.00000000000E+00 0. -1.
         24    2    1    2    0    0  0.61061871650E+03  0.23621222245E+03 -0.63278596570E+03  0.91397697120E+03  0.79274173078E+02 0.  0.
        254    2    1    2    0    0 -0.61061871650E+03 -0.23621222245E+03  0.13393953843E+04  0.17409364852E+04  0.89901524961E+03 0.  0.
         23    2    4    4    0    0  0.83208967013E+02 -0.34013530431E+03  0.24437091004E+03  0.43729222720E+03  0.94295243091E+02 0.  0.
         23    2    4    4    0    0 -0.69382768351E+03  0.10392308186E+03  0.10950244743E+04  0.13036442580E+04  0.90625001026E+02 0.  0.
          2    1    3    3  502    0  0.38937219128E+03  0.18851661324E+03 -0.43315467912E+03  0.61218640368E+03  0.00000000000E+00 0. -1.
         -1    1    3    3    0  502  0.22124652522E+03  0.47695609212E+02 -0.19963128658E+03  0.30179056751E+03  0.00000000000E+00 0.  1.
         11    1    5    5    0    0  0.53569810704E+02 -0.32285718112E+03  0.23045413494E+03  0.40026939969E+03  0.00000000000E+00 0. -1.
        -11    1    5    5    0    0  0.29639156308E+02 -0.17278123191E+02  0.13916775094E+02  0.37022827508E+02  0.00000000000E+00 0.  1.
          4    1    6    6  503    0 -0.67601313348E+03  0.10818806609E+03  0.10354063411E+04  0.12412754350E+04  0.00000000000E+00 0. -1.
         -4    1    6    6    0  503 -0.17814550037E+02 -0.42649842271E+01  0.59618133140E+02  0.62368823001E+02  0.00000000000E+00 0.  1.
<mgrwt>
<rscale>  0 0.25591539E+04</rscale>
<asrwt>0</asrwt>
<pdfrwt beam="1">  1        2 0.14986954E+00 0.25591539E+04</pdfrwt>
<pdfrwt beam="2">  1       -1 0.25857868E+00 0.25591539E+04</pdfrwt>
<totfact> 0.16235288E+00</totfact>
</mgrwt>
</event>
<event>
12    6  0.1403409E-007  0.1295726E+04  0.7818608E-02  0.9032961E-01
         -1   -1    0    0    0  501 -0.00000000000E+00  0.00000000000E+00  0.10731365058E+03  0.10731365058E+03  0.00000000000E+00 0.  1.
          2   -1    0    0  501    0  0.00000000000E+00 -0.00000000000E+00 -0.39112125985E+04  0.39112125985E+04  0.00000000000E+00 0. -1.
         24    2    1    2    0    0  0.17030165179E+03 -0.20279176636E+03 -0.38862645777E+03  0.47674639068E+03  0.78290767259E+02 0.  0.
        254    2    1    2    0    0 -0.17030165179E+03  0.20279176636E+03 -0.34152724902E+04  0.35417798584E+04  0.89999512792E+03 0.  0.
         23    2    4    4    0    0  0.20542968363E+03 -0.23627478240E+03 -0.84145380983E+03  0.90229842745E+03  0.89837689140E+02 0.  0.
         23    2    4    4    0    0 -0.37573133542E+03  0.43906654876E+03 -0.25738186804E+04  0.26394814310E+04  0.91466685150E+02 0.  0.
          2    1    3    3  502    0  0.21003684215E+01  0.51667848076E+01 -0.23401622673E+02  0.24057081213E+02  0.00000000000E+00 0. -1.
         -1    1    3    3    0  502  0.16820128337E+03 -0.20795855117E+03 -0.36522483510E+03  0.45268930947E+03  0.00000000000E+00 0.  1.
         11    1    5    5    0    0  0.54765738464E+02 -0.12883896655E+03 -0.39162249296E+03  0.41589294585E+03  0.00000000000E+00 0.  1.
        -11    1    5    5    0    0  0.15066394517E+03 -0.10743581585E+03 -0.44983131686E+03  0.48640548160E+03  0.00000000000E+00 0. -1.
          1    1    6    6  503    0 -0.40775628978E+02  0.14647312063E+02 -0.23724372762E+03  0.24116753920E+03  0.00000000000E+00 0. -1.
         -1    1    6    6    0  503 -0.33495570645E+03  0.42441923670E+03 -0.23365749528E+04  0.23983138918E+04  0.00000000000E+00 0.  1.
<mgrwt>
<rscale>  0 0.12957261E+04</rscale>
<asrwt>0</asrwt>
<pdfrwt beam="1">  1        2 0.60172512E+00 0.12957261E+04</pdfrwt>
<pdfrwt beam="2">  1       -1 0.16509790E-01 0.12957261E+04</pdfrwt>
<totfact> 0.13051356E+01</totfact>
</mgrwt>
</event>
<event>
12    6  0.1403409E-007  0.2081719E+04  0.7818608E-02  0.8569339E-01
         -1   -1    0    0    0  501 -0.00000000000E+00  0.00000000000E+00  0.75483073270E+03  0.75483073270E+03  0.00000000000E+00 0.  1.
          2   -1    0    0  501    0  0.00000000000E+00 -0.00000000000E+00 -0.14352734206E+04  0.14352734206E+04  0.00000000000E+00 0. -1.
         24    2    1    2    0    0  0.26448957952E+03  0.31841084669E+02 -0.11190992003E+04  0.11530854869E+04  0.79085571448E+02 0.  0.
        254    2    1    2    0    0 -0.26448957952E+03 -0.31841084669E+02  0.43865651242E+03  0.10370186664E+04  0.90112129384E+03 0.  0.
         23    2    4    4    0    0  0.59841118437E+02  0.27126647737E+03 -0.12192491214E+03  0.31694535889E+03  0.91772627291E+02 0.  0.
         23    2    4    4    0    0 -0.32433069796E+03 -0.30310756204E+03  0.56058142456E+03  0.72007330750E+03  0.84790558502E+02 0.  0.
          2    1    3    3  502    0  0.88880263894E+02  0.41040752542E+02 -0.50012123231E+03  0.50961288414E+03  0.00000000000E+00 0. -1.
         -1    1    3    3    0  502  0.17560931563E+03 -0.91996678729E+01 -0.61897796800E+03  0.64347260275E+03  0.00000000000E+00 0.  1.
         11    1    5    5    0    0  0.76109165585E+02  0.16309052089E+03 -0.98151310261E+02  0.20499951901E+03  0.00000000000E+00 0. -1.
        -11    1    5    5    0    0 -0.16268047149E+02  0.10817595649E+03 -0.23773601875E+02  0.11194583988E+03  0.00000000000E+00 0.  1.
          1    1    6    6  503    0 -0.26978142144E+03 -0.24004099891E+03  0.50104896161E+03  0.61761780936E+03  0.00000000000E+00 0. -1.
         -1    1    6    6    0  503 -0.54549276518E+02 -0.63066563135E+02  0.59532462948E+02  0.10245549814E+03  0.00000000000E+00 0.  1.
<mgrwt>
<rscale>  0 0.20817190E+04</rscale>
<asrwt>0</asrwt>
<pdfrwt beam="1">  1        2 0.22081130E+00 0.20817190E+04</pdfrwt>
<pdfrwt beam="2">  1       -1 0.11612780E+00 0.20817190E+04</pdfrwt>
<totfact> 0.97408379E+00</totfact>
</mgrwt>
</event>
<event>
12    6  0.1403409E-007  0.3752881E+04  0.7818608E-02  0.8056343E-01
         -1   -1    0    0    0  501 -0.00000000000E+00  0.00000000000E+00  0.18545132819E+04  0.18545132819E+04  0.00000000000E+00 0.  1.
          2   -1    0    0  501    0  0.00000000000E+00 -0.00000000000E+00 -0.18986265902E+04  0.18986265902E+04  0.00000000000E+00 0. -1.
         24    2    1    2    0    0  0.12731531708E+04 -0.84835386189E+03 -0.90658708559E+03  0.17799459689E+04  0.75393879998E+02 0.  0.
        254    2    1    2    0    0 -0.12731531708E+04  0.84835386189E+03  0.86247377727E+03  0.19731939033E+04  0.89944977193E+03 0.  0.
         23    2    4    4    0    0 -0.13716128897E+04  0.78463798406E+03  0.89736675352E+03  0.18194729059E+04  0.90751748737E+02 0.  0.
         23    2    4    4    0    0  0.98459718939E+02  0.63715877823E+02 -0.34892976257E+02  0.15372099733E+03  0.93051576489E+02 0.  0.
          2    1    3    3  502    0  0.54737897391E+02 -0.45287959305E+02 -0.26459435723E+02  0.75811202388E+02  0.00000000000E+00 0. -1.
         -1    1    3    3    0  502  0.12184152734E+04 -0.80306590258E+03 -0.88012764987E+03  0.17041347665E+04  0.00000000000E+00 0.  1.
         11    1    5    5    0    0 -0.13678385677E+04  0.77928501363E+03  0.88625817862E+03  0.18065771611E+04  0.00000000000E+00 0. -1.
        -11    1    5    5    0    0 -0.37743219890E+01  0.53529704341E+01  0.11108574909E+02  0.12895744859E+02  0.00000000000E+00 0.  1.
          2    1    6    6  503    0  0.97321074940E+02  0.83841015513E+02 -0.36384480979E+02  0.13350856889E+03  0.00000000000E+00 0. -1.
         -2    1    6    6    0  503  0.11386439990E+01 -0.20125137690E+02  0.14915047221E+01  0.20212428442E+02  0.00000000000E+00 0.  1.
<mgrwt>
<rscale>  0 0.37528806E+04</rscale>
<asrwt>0</asrwt>
<pdfrwt beam="1">  1        2 0.29209640E+00 0.37528806E+04</pdfrwt>
<pdfrwt beam="2">  1       -1 0.28530974E+00 0.37528806E+04</pdfrwt>
<totfact> 0.28645109E-01</totfact>
</mgrwt>
</event>
<event>
12    6  0.1403409E-007  0.1210743E+04  0.7818608E-02  0.9103505E-01
          2   -1    0    0  501    0  0.00000000000E+00  0.00000000000E+00  0.69044303085E+03  0.69044303085E+03  0.00000000000E+00 0. -1.
         -1   -1    0    0    0  501 -0.00000000000E+00 -0.00000000000E+00 -0.53078151336E+03  0.53078151336E+03  0.00000000000E+00 0.  1.
         24    2    1    2    0    0 -0.12760226536E+03 -0.16388976622E+02  0.26625255375E+03  0.30605504668E+03  0.78919785484E+02 0.  0.
        254    2    1    2    0    0  0.12760226536E+03  0.16388976622E+02 -0.10659103626E+03  0.91516949753E+03  0.89979032197E+03 0.  0.
         23    2    4    4    0    0  0.13587482216E+02  0.44216990771E+03 -0.10985182758E+03  0.46477238127E+03  0.90813519999E+02 0.  0.
         23    2    4    4    0    0  0.11401478315E+03 -0.42578093109E+03  0.32607913268E+01  0.45039711625E+03  0.92510310337E+02 0.  0.
          4    1    3    3  502    0 -0.12302956160E+03 -0.51649431438E+01  0.26688093629E+03  0.29391900895E+03  0.00000000000E+00 0. -1.
         -3    1    3    3    0  502 -0.45727037662E+01 -0.11224033479E+02 -0.62838254314E+00  0.12136037734E+02  0.00000000000E+00 0.  1.
         11    1    5    5    0    0  0.10719642043E+02  0.75730187332E+02  0.14401215447E+02  0.77829088426E+02  0.00000000000E+00 0.  1.
        -11    1    5    5    0    0  0.28678401730E+01  0.36643972038E+03 -0.12425304303E+03  0.38694329285E+03  0.00000000000E+00 0. -1.
          4    1    6    6  503    0  0.71268258579E+02 -0.38185463503E+03 -0.54630755902E+01  0.38848677219E+03  0.00000000000E+00 0. -1.
         -4    1    6    6    0  503  0.42746524567E+02 -0.43926296055E+02  0.87238669169E+01  0.61910344061E+02  0.00000000000E+00 0.  1.
<mgrwt>
<rscale>  0 0.12107426E+04</rscale>
<asrwt>0</asrwt>
<pdfrwt beam="1">  1        2 0.10622200E+00 0.12107426E+04</pdfrwt>
<pdfrwt beam="2">  1       -1 0.81658694E-01 0.12107426E+04</pdfrwt>
<totfact> 0.70139883E+01</totfact>
</mgrwt>
</event>
<event>
12    6  0.1403409E-007  0.3094487E+04  0.7818608E-02  0.8217252E-01
         -1   -1    0    0    0  501 -0.00000000000E+00  0.00000000000E+00  0.81370927232E+03  0.81370927232E+03  0.00000000000E+00 0.  1.
          2   -1    0    0  501    0  0.00000000000E+00 -0.00000000000E+00 -0.29420372009E+04  0.29420372009E+04  0.00000000000E+00 0. -1.
         24    2    1    2    0    0  0.60170018524E+03  0.12808225378E+04 -0.98674231084E+03  0.17270795041E+04  0.81201841689E+02 0.  0.
        254    2    1    2    0    0 -0.60170018524E+03 -0.12808225378E+04 -0.11415856177E+04  0.20286669691E+04  0.89984579938E+03 0.  0.
         23    2    4    4    0    0 -0.30789407968E+03 -0.12595002599E+03 -0.65109436044E+03  0.73670388389E+03  0.90258368021E+02 0.  0.
         23    2    4    4    0    0 -0.29380610556E+03 -0.11548725118E+04 -0.49049125726E+03  0.12919630852E+04  0.92381783048E+02 0.  0.
          4    1    3    3  502    0  0.11210030449E+03  0.26082290022E+03 -0.16087007993E+03  0.32630391686E+03  0.00000000000E+00 0. -1.
         -3    1    3    3    0  502  0.48959988075E+03  0.10199996376E+04 -0.82587223091E+03  0.14007755872E+04  0.00000000000E+00 0.  1.
         11    1    5    5    0    0 -0.30732307372E+03 -0.13484240476E+03 -0.63023721924E+03  0.71402303763E+03  0.00000000000E+00 0. -1.
        -11    1    5    5    0    0 -0.57100596515E+00  0.88923787675E+01 -0.20857141197E+02  0.22680846255E+02  0.00000000000E+00 0.  1.
          4    1    6    6  503    0 -0.26884381048E+03 -0.10056337364E+04 -0.39692206464E+03  0.11140571492E+04  0.00000000000E+00 0. -1.
         -4    1    6    6    0  503 -0.24962295075E+02 -0.14923877538E+03 -0.93569192622E+02  0.17790593599E+03  0.00000000000E+00 0.  1.
<mgrwt>
<rscale>  0 0.30944873E+04</rscale>
<asrwt>0</asrwt>
<pdfrwt beam="1">  1        2 0.45262111E+00 0.30944873E+04</pdfrwt>
<pdfrwt beam="2">  1       -1 0.12518604E+00 0.30944873E+04</pdfrwt>
<totfact> 0.10175229E+00</totfact>
</mgrwt>
</event>
<event>
12    6  0.1403409E-007  0.1730086E+04  0.7818608E-02  0.8744389E-01
         -1   -1    0    0    0  501 -0.00000000000E+00  0.00000000000E+00  0.31967579494E+03  0.31967579494E+03  0.00000000000E+00 0.  1.
          2   -1    0    0  501    0  0.00000000000E+00 -0.00000000000E+00 -0.23408080301E+04  0.23408080301E+04  0.00000000000E+00 0. -1.
         24    2    1    2    0    0  0.17103010442E+03  0.48187367318E+03 -0.17813691724E+03  0.54718838256E+03  0.78922944725E+02 0.  0.
        254    2    1    2    0    0 -0.17103010442E+03 -0.48187367318E+03 -0.18429953179E+04  0.21132954425E+04  0.89885057255E+03 0.  0.
         23    2    4    4    0    0  0.36651764916E+02 -0.63741926295E+03 -0.16658484212E+04  0.17863960763E+04  0.92267600462E+02 0.  0.
         23    2    4    4    0    0 -0.20768186934E+03  0.15554558977E+03 -0.17714689666E+03  0.32689936619E+03  0.90310482615E+02 0.  0.
          2    1    3    3  502    0 -0.34810821674E+01  0.41856365009E+02 -0.28434170641E+02  0.50720560770E+02  0.00000000000E+00 0. -1.
         -1    1    3    3    0  502  0.17451118659E+03  0.44001730817E+03 -0.14970274660E+03  0.49646782179E+03  0.00000000000E+00 0.  1.
         11    1    5    5    0    0  0.44997438037E+02 -0.48454019667E+03 -0.13584301430E+04  0.14429609922E+04  0.00000000000E+00 0. -1.
        -11    1    5    5    0    0 -0.83456731205E+01 -0.15287906628E+03 -0.30741827825E+03  0.34343508407E+03  0.00000000000E+00 0.  1.
          1    1    6    6  503    0 -0.10495525183E+03  0.26647688952E+02 -0.53058860073E+02  0.12058584844E+03  0.00000000000E+00 0. -1.
         -1    1    6    6    0  503 -0.10272661751E+03  0.12889790082E+03 -0.12408803659E+03  0.20631351775E+03  0.00000000000E+00 0.  1.
<mgrwt>
<rscale>  0 0.17300863E+04</rscale>
<asrwt>0</asrwt>
<pdfrwt beam="1">  1        2 0.36012430E+00 0.17300863E+04</pdfrwt>
<pdfrwt beam="2">  1       -1 0.49180893E-01 0.17300863E+04</pdfrwt>
<totfact> 0.19260125E+01</totfact>
</mgrwt>
</event>
<event>
12    6  0.1403409E-007  0.3063957E+04  0.7818608E-02  0.8225700E-01
          2   -1    0    0  501    0  0.00000000000E+00  0.00000000000E+00  0.20622927038E+04  0.20622927038E+04  0.00000000000E+00 0. -1.
         -1   -1    0    0    0  501 -0.00000000000E+00 -0.00000000000E+00 -0.11380333655E+04  0.11380333655E+04  0.00000000000E+00 0.  1.
         24    2    1    2    0    0 -0.37702016473E+03 -0.61315876778E+03  0.16755388783E+04  0.18253939318E+04  0.80774963125E+02 0.  0.
        254    2    1    2    0    0  0.37702016473E+03  0.61315876778E+03 -0.75127953995E+03  0.13749321376E+04  0.89883789228E+03 0.  0.
         23    2    4    4    0    0  0.62522811506E+03  0.37877077516E+03 -0.28549221571E+03  0.79025452378E+03  0.92838091038E+02 0.  0.
         23    2    4    4    0    0 -0.24820795033E+03  0.23438799262E+03 -0.46578732425E+03  0.58467761377E+03  0.91351863311E+02 0.  0.
          2    1    3    3  502    0 -0.30543187034E+03 -0.52198265177E+03  0.14675888334E+04  0.15873158161E+04  0.00000000000E+00 0. -1.
         -1    1    3    3    0  502 -0.71588294394E+02 -0.91176116005E+02  0.20795004491E+03  0.23807811575E+03  0.00000000000E+00 0.  1.
         11    1    5    5    0    0  0.45313607585E+02  0.59527050224E+02 -0.32773889234E+02  0.81675703586E+02  0.00000000000E+00 0. -1.
        -11    1    5    5    0    0  0.57991450748E+03  0.31924372493E+03 -0.25271832647E+03  0.70857882019E+03  0.00000000000E+00 0.  1.
          1    1    6    6  503    0 -0.22844247840E+03  0.22163781463E+03 -0.46173414922E+03  0.56080987096E+03  0.00000000000E+00 0.  1.
         -1    1    6    6    0  503 -0.19765471927E+02  0.12750177996E+02 -0.40531750299E+01  0.23867742819E+02  0.00000000000E+00 0. -1.
<mgrwt>
<rscale>  0 0.30639569E+04</rscale>
<asrwt>0</asrwt>
<pdfrwt beam="1">  1        2 0.31727580E+00 0.30639569E+04</pdfrwt>
<pdfrwt beam="2">  1       -1 0.17508206E+00 0.30639569E+04</pdfrwt>
<totfact> 0.13493029E+00</totfact>
</mgrwt>
</event>
<event>
12    6  0.1403409E-007  0.1870821E+04  0.7818608E-02  0.8669519E-01
          2   -1    0    0  501    0  0.00000000000E+00  0.00000000000E+00  0.11362993304E+04  0.11362993304E+04  0.00000000000E+00 0. -1.
         -1   -1    0    0    0  501 -0.00000000000E+00 -0.00000000000E+00 -0.77003710767E+03  0.77003710767E+03  0.00000000000E+00 0.  1.
         24    2    1    2    0    0  0.67080726715E+03 -0.15392230746E+03 -0.61208628314E+02  0.69572214714E+03  0.81291718220E+02 0.  0.
        254    2    1    2    0    0 -0.67080726715E+03  0.15392230746E+03  0.42747085103E+03  0.12106142909E+04  0.89954497747E+03 0.  0.
         23    2    4    4    0    0 -0.60869280469E+03 -0.17339065200E+03  0.55018336657E+03  0.84336893216E+03  0.89432489609E+02 0.  0.
         23    2    4    4    0    0 -0.62114462461E+02  0.32731295946E+03 -0.12271251554E+03  0.36724535875E+03  0.93908530923E+02 0.  0.
          4    1    3    3  502    0  0.31946348562E+03 -0.64447150241E+02  0.10818672108E+02  0.32607882097E+03  0.00000000000E+00 0. -1.
         -3    1    3    3    0  502  0.35134378153E+03 -0.89475157215E+02 -0.72027300422E+02  0.36964332617E+03  0.00000000000E+00 0.  1.
         11    1    5    5    0    0 -0.31818013753E+03 -0.10060889561E+03  0.23213964249E+03  0.40650899549E+03  0.00000000000E+00 0. -1.
        -11    1    5    5    0    0 -0.29051266716E+03 -0.72781756389E+02  0.31804372408E+03  0.43685993667E+03  0.00000000000E+00 0.  1.
          3    1    6    6  503    0 -0.40145469392E+02  0.11536582405E+03 -0.16275273600E+01  0.12216210917E+03  0.00000000000E+00 0. -1.
         -3    1    6    6    0  503 -0.21968993069E+02  0.21194713541E+03 -0.12108498818E+03  0.24508324959E+03  0.00000000000E+00 0.  1.
<mgrwt>
<rscale>  0 0.18708208E+04</rscale>
<asrwt>0</asrwt>
<pdfrwt beam="1">  1        2 0.17481528E+00 0.18708208E+04</pdfrwt>
<pdfrwt beam="2">  1       -1 0.11846725E+00 0.18708208E+04</pdfrwt>
<totfact> 0.14156832E+01</totfact>
</mgrwt>
</event>
<event>
12    6  0.1403409E-007  0.2402808E+04  0.7818608E-02  0.8438453E-01
          2   -1    0    0  501    0  0.00000000000E+00  0.00000000000E+00  0.21668324053E+04  0.21668324053E+04  0.00000000000E+00 0. -1.
         -1   -1    0    0    0  501 -0.00000000000E+00 -0.00000000000E+00 -0.66612052530E+03  0.66612052530E+03  0.00000000000E+00 0.  1.
         24    2    1    2    0    0 -0.69960350059E+02 -0.10238294930E+04  0.76626370673E+03  0.12831727628E+04  0.79063199918E+02 0.  0.
        254    2    1    2    0    0  0.69960350059E+02  0.10238294930E+04  0.73444817328E+03  0.15497801678E+04  0.89960167179E+03 0.  0.
         23    2    4    4    0    0 -0.38692168796E+03  0.65520049322E+03  0.47174108287E+03  0.90008850089E+03  0.92863239355E+02 0.  0.
         23    2    4    4    0    0  0.45688203802E+03  0.36862899981E+03  0.26270709041E+03  0.64969166691E+03  0.91954937541E+02 0.  0.
          4    1    3    3  502    0 -0.79302101898E+02 -0.10057992295E+04  0.75250502974E+03  0.12586440057E+04  0.00000000000E+00 0. -1.
         -3    1    3    3    0  502  0.93417518394E+01 -0.18030263577E+02  0.13758676992E+02  0.24528757096E+02  0.00000000000E+00 0.  1.
         11    1    5    5    0    0 -0.33339347046E+03  0.49074757868E+03  0.35401521738E+03  0.69087709925E+03  0.00000000000E+00 0.  1.
        -11    1    5    5    0    0 -0.53528217502E+02  0.16445291454E+03  0.11772586549E+03  0.20921140164E+03  0.00000000000E+00 0. -1.
          1    1    6    6  503    0  0.68090790141E+02  0.19853695476E+02  0.19625047889E+02  0.73591218434E+02  0.00000000000E+00 0. -1.
         -1    1    6    6    0  503  0.38879124788E+03  0.34877530434E+03  0.24308204252E+03  0.57610044848E+03  0.00000000000E+00 0.  1.
<mgrwt>
<rscale>  0 0.24028080E+04</rscale>
<asrwt>0</asrwt>
<pdfrwt beam="1">  1        2 0.33335883E+00 0.24028080E+04</pdfrwt>
<pdfrwt beam="2">  1       -1 0.10248008E+00 0.24028080E+04</pdfrwt>
<totfact> 0.49662105E+00</totfact>
</mgrwt>
</event>
<event>
12    6  0.1403409E-007  0.1507896E+04  0.7818608E-02  0.8879219E-01
          2   -1    0    0  501    0  0.00000000000E+00  0.00000000000E+00  0.57020973385E+03  0.57020973385E+03  0.00000000000E+00 0. -1.
         -1   -1    0    0    0  501 -0.00000000000E+00 -0.00000000000E+00 -0.99689155393E+03  0.99689155393E+03  0.00000000000E+00 0.  1.
         24    2    1    2    0    0 -0.34963194354E+03 -0.77159811507E+02 -0.47058553530E+03  0.59699595673E+03  0.82202760709E+02 0.  0.
        254    2    1    2    0    0  0.34963194354E+03  0.77159811507E+02  0.43903715228E+02  0.97010533105E+03  0.90054466001E+03 0.  0.
         23    2    4    4    0    0  0.69472214874E+02  0.26118943896E+03  0.38740347850E+03  0.48106429242E+03  0.91077366179E+02 0.  0.
         23    2    4    4    0    0  0.28015972866E+03 -0.18402962745E+03 -0.34349976327E+03  0.48904103862E+03  0.93875836863E+02 0.  0.
          2    1    3    3  502    0 -0.22903826416E+03 -0.82032161775E+02 -0.27499309862E+03  0.36716345992E+03  0.00000000000E+00 0. -1.
         -1    1    3    3    0  502 -0.12059367938E+03  0.48723502683E+01 -0.19559243668E+03  0.22983249681E+03  0.00000000000E+00 0.  1.
         11    1    5    5    0    0  0.26146557364E+02  0.20233205648E+03  0.22951605243E+03  0.30708227214E+03  0.00000000000E+00 0. -1.
        -11    1    5    5    0    0  0.43325657510E+02  0.58857382481E+02  0.15788742607E+03  0.17398202028E+03  0.00000000000E+00 0.  1.
          2    1    6    6  503    0  0.29911423317E+02 -0.42208227039E+01 -0.38741190892E+01  0.30455170133E+02  0.00000000000E+00 0. -1.
         -2    1    6    6    0  503  0.25024830534E+03 -0.17980880475E+03 -0.33962564418E+03  0.45858586849E+03  0.00000000000E+00 0.  1.
<mgrwt>
<rscale>  0 0.15078956E+04</rscale>
<asrwt>0</asrwt>
<pdfrwt beam="1">  1        2 0.87724575E-01 0.15078956E+04</pdfrwt>
<pdfrwt beam="2">  1       -1 0.15336793E+00 0.15078956E+04</pdfrwt>
<totfact> 0.19117404E+01</totfact>
</mgrwt>
</event>
<event>
12    6  0.1403409E-007  0.2394115E+04  0.7818608E-02  0.8441710E-01
          2   -1    0    0  501    0  0.00000000000E+00  0.00000000000E+00  0.20241726114E+04  0.20241726114E+04  0.00000000000E+00 0. -1.
         -1   -1    0    0    0  501 -0.00000000000E+00 -0.00000000000E+00 -0.70791704206E+03  0.70791704206E+03  0.00000000000E+00 0.  1.
         24    2    1    2    0    0 -0.40835541472E+03  0.76981538269E+03 -0.52400911495E+02  0.87669422841E+03  0.80480099678E+02 0.  0.
        254    2    1    2    0    0  0.40835541472E+03 -0.76981538269E+03  0.13686564808E+04  0.18553954251E+04  0.89994541647E+03 0.  0.
         23    2    4    4    0    0  0.16789368032E+03 -0.70737123000E+02 -0.87135852680E+02  0.22009178284E+03  0.87496900459E+02 0.  0.
         23    2    4    4    0    0  0.24046173440E+03 -0.69907825969E+03  0.14557923335E+04  0.16353036422E+04  0.91402543881E+02 0.  0.
          4    1    3    3  502    0 -0.26052682615E+03  0.54236569927E+03 -0.64601997840E+02  0.60515138355E+03  0.00000000000E+00 0. -1.
         -3    1    3    3    0  502 -0.14782858857E+03  0.22744968342E+03  0.12201086345E+02  0.27154284486E+03  0.00000000000E+00 0.  1.
         11    1    5    5    0    0  0.15116566538E+03 -0.67211011398E+02 -0.40354571960E+02  0.17028467318E+03  0.00000000000E+00 0.  1.
        -11    1    5    5    0    0  0.16728014944E+02 -0.35261116022E+01 -0.46781280720E+02  0.49807109661E+02  0.00000000000E+00 0. -1.
          4    1    6    6  503    0  0.10866395008E+03 -0.21447677961E+03  0.53259231475E+03  0.58434811266E+03  0.00000000000E+00 0. -1.
         -4    1    6    6    0  503  0.13179778432E+03 -0.48460148008E+03  0.92320001877E+03  0.10509555296E+04  0.00000000000E+00 0.  1.
<mgrwt>
<rscale>  0 0.23941147E+04</rscale>
<asrwt>0</asrwt>
<pdfrwt beam="1">  1        2 0.31141117E+00 0.23941147E+04</pdfrwt>
<pdfrwt beam="2">  1       -1 0.10891032E+00 0.23941147E+04</pdfrwt>
<totfact> 0.51810750E+00</totfact>
</mgrwt>
</event>
<event>
12    6  0.1403409E-007  0.3513155E+04  0.7818608E-02  0.8110679E-01
         -1   -1    0    0    0  501 -0.00000000000E+00  0.00000000000E+00  0.13162221526E+04  0.13162221526E+04  0.00000000000E+00 0.  1.
          2   -1    0    0  501    0  0.00000000000E+00 -0.00000000000E+00 -0.23442587827E+04  0.23442587827E+04  0.00000000000E+00 0. -1.
         24    2    1    2    0    0  0.73313908938E+03 -0.13749174539E+04  0.51833417985E+02  0.15609998308E+04  0.78376266284E+02 0.  0.
        254    2    1    2    0    0 -0.73313908938E+03  0.13749174539E+04 -0.10798700481E+04  0.20994811045E+04  0.90211454804E+03 0.  0.
         23    2    4    4    0    0 -0.33574471134E+03  0.56227481550E+03 -0.98346619612E+03  0.11852798174E+04  0.93834999786E+02 0.  0.
         23    2    4    4    0    0 -0.39739437804E+03  0.81264263845E+03 -0.96403852009E+02  0.91420128715E+03  0.90332393003E+02 0.  0.
          2    1    3    3  502    0  0.20835281690E+03 -0.46869958946E+03  0.20159794344E+02  0.51331921723E+03  0.00000000000E+00 0. -1.
         -1    1    3    3    0  502  0.52478627248E+03 -0.90621786449E+03  0.31673623641E+02  0.10476806136E+04  0.00000000000E+00 0.  1.
         11    1    5    5    0    0 -0.32925463067E+03  0.56464310452E+03 -0.96467541523E+03  0.11652592433E+04  0.00000000000E+00 0. -1.
        -11    1    5    5    0    0 -0.64900806717E+01 -0.23682890168E+01 -0.18790780894E+02  0.20020574083E+02  0.00000000000E+00 0.  1.
          2    1    6    6  503    0 -0.34417714567E+03  0.61873727643E+03 -0.73528497909E+02  0.71182874686E+03  0.00000000000E+00 0. -1.
         -2    1    6    6    0  503 -0.53217232368E+02  0.19390536201E+03 -0.22875354100E+02  0.20237254029E+03  0.00000000000E+00 0.  1.
<mgrwt>
<rscale>  0 0.35131555E+04</rscale>
<asrwt>0</asrwt>
<pdfrwt beam="1">  1        2 0.36065520E+00 0.35131555E+04</pdfrwt>
<pdfrwt beam="2">  1       -1 0.20249572E+00 0.35131555E+04</pdfrwt>
<totfact> 0.57744512E-01</totfact>
</mgrwt>
</event>
<event>
12    6  0.1403409E-007  0.1511228E+04  0.7818608E-02  0.8877021E-01
          2   -1    0    0  501    0  0.00000000000E+00  0.00000000000E+00  0.12263617435E+04  0.12263617435E+04  0.00000000000E+00 0. -1.
         -1   -1    0    0    0  501 -0.00000000000E+00 -0.00000000000E+00 -0.46556606109E+03  0.46556606109E+03  0.00000000000E+00 0.  1.
         24    2    1    2    0    0  0.34522420387E+03  0.29475244052E+03  0.43095946322E+03  0.63099545821E+03  0.79815144092E+02 0.  0.
        254    2    1    2    0    0 -0.34522420387E+03 -0.29475244052E+03  0.32983621920E+03  0.10609323464E+04  0.90040366501E+03 0.  0.
         23    2    4    4    0    0  0.15277198445E+03 -0.37895251542E+03  0.35286204172E+03  0.54735581955E+03  0.90235716493E+02 0.  0.
         23    2    4    4    0    0 -0.49799618831E+03  0.84200074899E+02 -0.23025822528E+02  0.51357652683E+03  0.90226405332E+02 0.  0.
          2    1    3    3  502    0  0.35185862499E+02  0.62531368993E+02  0.88717833673E+02  0.11410114390E+03  0.00000000000E+00 0. -1.
         -1    1    3    3    0  502  0.31003834137E+03  0.23222107152E+03  0.34224162954E+03  0.51689431431E+03  0.00000000000E+00 0.  1.
         11    1    5    5    0    0  0.67977749066E+02 -0.10288161741E+03  0.64174217996E+02  0.13901054573E+03  0.00000000000E+00 0.  1.
        -11    1    5    5    0    0  0.84794235381E+02 -0.27607089801E+03  0.28868782373E+03  0.40834527382E+03  0.00000000000E+00 0. -1.
          3    1    6    6  503    0 -0.42393656332E+03  0.43231874832E+02 -0.10591479250E+01  0.42613651159E+03  0.00000000000E+00 0. -1.
         -3    1    6    6    0  503 -0.74059624996E+02  0.40968200067E+02 -0.21966674603E+02  0.87440015236E+02  0.00000000000E+00 0.  1.
<mgrwt>
<rscale>  0 0.15112279E+04</rscale>
<asrwt>0</asrwt>
<pdfrwt beam="1">  1        2 0.18867104E+00 0.15112279E+04</pdfrwt>
<pdfrwt beam="2">  1       -1 0.71625548E-01 0.15112279E+04</pdfrwt>
<totfact> 0.39568807E+01</totfact>
</mgrwt>
</event>
<event>
12    6  0.1403409E-007  0.1675154E+04  0.7818608E-02  0.8775663E-01
          2   -1    0    0  501    0  0.00000000000E+00  0.00000000000E+00  0.56167210240E+03  0.56167210240E+03  0.00000000000E+00 0. -1.
         -1   -1    0    0    0  501 -0.00000000000E+00 -0.00000000000E+00 -0.12490116477E+04  0.12490116477E+04  0.00000000000E+00 0.  1.
         24    2    1    2    0    0 -0.26228799482E+03  0.36422020062E+03  0.16964574990E+03  0.48650409718E+03  0.80344317419E+02 0.  0.
        254    2    1    2    0    0  0.26228799482E+03 -0.36422020062E+03 -0.85698529523E+03  0.13241796530E+04  0.90419943059E+03 0.  0.
         23    2    4    4    0    0  0.41017470691E+03 -0.54234709598E+03 -0.37594863174E+03  0.78224093899E+03  0.90442524467E+02 0.  0.
         23    2    4    4    0    0 -0.14788671208E+03  0.17812689536E+03 -0.48103666350E+03  0.54193871396E+03  0.93282514953E+02 0.  0.
          4    1    3    3  502    0 -0.24082942226E+03  0.34026278925E+03  0.17799312765E+03  0.45327599745E+03  0.00000000000E+00 0. -1.
         -3    1    3    3    0  502 -0.21458572566E+02  0.23957411369E+02 -0.83473777502E+01  0.33228099726E+02  0.00000000000E+00 0.  1.
         11    1    5    5    0    0  0.36312468661E+03 -0.44763830631E+03 -0.34622090637E+03  0.67239014516E+03  0.00000000000E+00 0. -1.
        -11    1    5    5    0    0  0.47050020298E+02 -0.94708789667E+02 -0.29727725364E+02  0.10985079383E+03  0.00000000000E+00 0.  1.
          1    1    6    6  503    0 -0.10565464904E+03  0.13812255755E+03 -0.25580937533E+03  0.30932051706E+03  0.00000000000E+00 0. -1.
         -1    1    6    6    0  503 -0.42232063042E+02  0.40004337808E+02 -0.22522728816E+03  0.23261819689E+03  0.00000000000E+00 0.  1.
<mgrwt>
<rscale>  0 0.16751537E+04</rscale>
<asrwt>0</asrwt>
<pdfrwt beam="1">  1        2 0.86411093E-01 0.16751537E+04</pdfrwt>
<pdfrwt beam="2">  1       -1 0.19215564E+00 0.16751537E+04</pdfrwt>
<totfact> 0.99803497E+00</totfact>
</mgrwt>
</event>
<event>
12    6  0.1403409E-007  0.3433347E+04  0.7818608E-02  0.8129770E-01
          2   -1    0    0  501    0  0.00000000000E+00  0.00000000000E+00  0.38208082281E+04  0.38208082281E+04  0.00000000000E+00 0. -1.
         -1   -1    0    0    0  501 -0.00000000000E+00 -0.00000000000E+00 -0.77129422992E+03  0.77129422992E+03  0.00000000000E+00 0.  1.
         24    2    1    2    0    0  0.45734648523E+03  0.91655746692E+03  0.30613673575E+04  0.32286996360E+04  0.57339727738E+02 0.  0.
        254    2    1    2    0    0 -0.45734648523E+03 -0.91655746692E+03 -0.11853359334E+02  0.13634028220E+04  0.89971292931E+03 0.  0.
         23    2    4    4    0    0 -0.68698562128E+03 -0.75385671465E+03  0.13251961159E+03  0.10326610711E+04  0.92618844275E+02 0.  0.
         23    2    4    4    0    0  0.22963913606E+03 -0.16270075227E+03 -0.14437297092E+03  0.33074175085E+03  0.96648245834E+02 0.  0.
          2    1    3    3  502    0  0.64656538816E+02  0.10969064704E+03  0.43584979705E+03  0.45406778310E+03  0.00000000000E+00 0. -1.
         -1    1    3    3    0  502  0.39268994641E+03  0.80686681987E+03  0.26255175605E+04  0.27746318529E+04  0.00000000000E+00 0.  1.
         11    1    5    5    0    0 -0.16472457300E+03 -0.15784278596E+03 -0.58367184888E+01  0.22821611975E+03  0.00000000000E+00 0.  1.
        -11    1    5    5    0    0 -0.52226104829E+03 -0.59601392868E+03  0.13835633008E+03  0.80444495139E+03  0.00000000000E+00 0. -1.
          1    1    6    6  503    0  0.54014728110E+02 -0.48431498439E+02 -0.87440668689E+02  0.11361809466E+03  0.00000000000E+00 0. -1.
         -1    1    6    6    0  503  0.17562440795E+03 -0.11426925383E+03 -0.56932302232E+02  0.21712365619E+03  0.00000000000E+00 0.  1.
<mgrwt>
<rscale>  0 0.34333467E+04</rscale>
<asrwt>0</asrwt>
<pdfrwt beam="1">  1        2 0.58781664E+00 0.34333467E+04</pdfrwt>
<pdfrwt beam="2">  1       -1 0.11866065E+00 0.34333467E+04</pdfrwt>
<totfact> 0.28195562E-01</totfact>
</mgrwt>
</event>
<event>
12    6  0.1403409E-007  0.2265475E+04  0.7818608E-02  0.8491660E-01
         -1   -1    0    0    0  501 -0.00000000000E+00  0.00000000000E+00  0.48055201468E+03  0.48055201468E+03  0.00000000000E+00 0.  1.
          2   -1    0    0  501    0  0.00000000000E+00 -0.00000000000E+00 -0.26700416581E+04  0.26700416581E+04  0.00000000000E+00 0. -1.
         24    2    1    2    0    0  0.24714877367E+03  0.73357340608E+03 -0.16952753591E+04  0.18653201431E+04  0.79045775631E+02 0.  0.
        254    2    1    2    0    0 -0.24714877367E+03 -0.73357340608E+03 -0.49421428428E+03  0.12852735296E+04  0.89914839086E+03 0.  0.
         23    2    4    4    0    0  0.20251672237E+03 -0.31766314816E+02  0.11230202500E+03  0.25045931428E+03  0.89977784445E+02 0.  0.
         23    2    4    4    0    0 -0.44966549603E+03 -0.70180709127E+03 -0.60651630928E+03  0.10348142154E+04  0.90808453539E+02 0.  0.
          4    1    3    3  502    0  0.35195442287E+02  0.21521333780E+03 -0.46881632734E+03  0.51705342925E+03  0.00000000000E+00 0. -1.
         -3    1    3    3    0  502  0.21195333138E+03  0.51836006828E+03 -0.12264590318E+04  0.13482667139E+04  0.00000000000E+00 0.  1.
         11    1    5    5    0    0  0.21047458968E+03 -0.25519368674E+02  0.99669704706E+02  0.23427513977E+03  0.00000000000E+00 0. -1.
        -11    1    5    5    0    0 -0.79578673166E+01 -0.62469461414E+01  0.12632320294E+02  0.16184174502E+02  0.00000000000E+00 0.  1.
          2    1    6    6  503    0 -0.42457567763E+03 -0.68990452627E+03 -0.59297665634E+03  0.10039193575E+04  0.00000000000E+00 0. -1.
         -2    1    6    6    0  503 -0.25089818400E+02 -0.11902564996E+02 -0.13539652940E+02  0.30894857866E+02  0.00000000000E+00 0.  1.
<mgrwt>
<rscale>  0 0.22654747E+04</rscale>
<asrwt>0</asrwt>
<pdfrwt beam="1">  1        2 0.41077563E+00 0.22654747E+04</pdfrwt>
<pdfrwt beam="2">  1       -1 0.73931081E-01 0.22654747E+04</pdfrwt>
<totfact> 0.52741479E+00</totfact>
</mgrwt>
</event>
<event>
12    6  0.1403409E-007  0.1812660E+04  0.7818608E-02  0.8699596E-01
         -1   -1    0    0    0  501 -0.00000000000E+00  0.00000000000E+00  0.83770959876E+03  0.83770959876E+03  0.00000000000E+00 0.  1.
          2   -1    0    0  501    0  0.00000000000E+00 -0.00000000000E+00 -0.98057128002E+03  0.98057128002E+03  0.00000000000E+00 0. -1.
         24    2    1    2    0    0 -0.22184485636E+03 -0.47796953441E+03 -0.48540541844E+03  0.72054810776E+03  0.76818872886E+02 0.  0.
        254    2    1    2    0    0  0.22184485636E+03  0.47796953441E+03  0.34254373718E+03  0.10977327710E+04  0.90000611586E+03 0.  0.
         23    2    4    4    0    0 -0.98676608751E+02  0.58907491073E+03  0.42277014980E+03  0.73744484805E+03  0.91345392827E+02 0.  0.
         23    2    4    4    0    0  0.32052146511E+03 -0.11110537632E+03 -0.80226412621E+02  0.36028792297E+03  0.91064240593E+02 0.  0.
          4    1    3    3  502    0 -0.21833475731E+02 -0.89926214335E+02 -0.55808282578E+02  0.10806474491E+03  0.00000000000E+00 0. -1.
         -3    1    3    3    0  502 -0.20001138063E+03 -0.38804332007E+03 -0.42959713586E+03  0.61248336285E+03  0.00000000000E+00 0.  1.
         11    1    5    5    0    0 -0.10838569761E+03  0.55856115361E+03  0.41568204134E+03  0.70464855159E+03  0.00000000000E+00 0. -1.
        -11    1    5    5    0    0  0.97090888608E+01  0.30513757117E+02  0.70881084653E+01  0.32796296460E+02  0.00000000000E+00 0.  1.
          4    1    6    6  503    0  0.23520810542E+03 -0.63434660143E+02 -0.17668477584E+02  0.24425188651E+03  0.00000000000E+00 0. -1.
         -4    1    6    6    0  503  0.85313359690E+02 -0.47670716174E+02 -0.62557935037E+02  0.11603603646E+03  0.00000000000E+00 0.  1.
<mgrwt>
<rscale>  0 0.18126599E+04</rscale>
<asrwt>0</asrwt>
<pdfrwt beam="1">  1        2 0.15085712E+00 0.18126599E+04</pdfrwt>
<pdfrwt beam="2">  1       -1 0.12887840E+00 0.18126599E+04</pdfrwt>
<totfact> 0.14463342E+01</totfact>
</mgrwt>
</event>
<event>
12    6  0.1403409E-007  0.3859257E+04  0.7818608E-02  0.8033557E-01
          2   -1    0    0  501    0  0.00000000000E+00  0.00000000000E+00  0.36671779660E+04  0.36671779660E+04  0.00000000000E+00 0. -1.
         -1   -1    0    0    0  501 -0.00000000000E+00 -0.00000000000E+00 -0.10153491651E+04  0.10153491651E+04  0.00000000000E+00 0.  1.
         24    2    1    2    0    0  0.34786654509E+03 -0.14527547379E+04  0.25224578234E+04  0.29326748712E+04  0.79252556267E+02 0.  0.
        254    2    1    2    0    0 -0.34786654509E+03  0.14527547379E+04  0.12937097743E+03  0.17498522599E+04  0.90207461993E+03 0.  0.
         23    2    4    4    0    0 -0.28957249389E+03  0.14522387925E+04 -0.10937584762E+03  0.14881440636E+04  0.98792399941E+02 0.  0.
         23    2    4    4    0    0 -0.58294051201E+02  0.51594536416E+00  0.23874682505E+03  0.26170819626E+03  0.89959273640E+02 0.  0.
          2    1    3    3  502    0  0.24408991806E+02 -0.22335792391E+03  0.37926581517E+03  0.44082549791E+03  0.00000000000E+00 0. -1.
         -1    1    3    3    0  502  0.32345755328E+03 -0.12293968140E+04  0.21431920082E+04  0.24918493733E+04  0.00000000000E+00 0.  1.
         11    1    5    5    0    0 -0.28224039783E+02  0.30431735181E+03 -0.46800409556E+02  0.30918590746E+03  0.00000000000E+00 0. -1.
        -11    1    5    5    0    0 -0.26134845410E+03  0.11479214407E+04 -0.62575438060E+02  0.11789581561E+04  0.00000000000E+00 0.  1.
          3    1    6    6  503    0 -0.78421065480E+02 -0.99757287847E+01  0.14391300843E+03  0.16419601905E+03  0.00000000000E+00 0. -1.
         -3    1    6    6    0  503  0.20127014279E+02  0.10491674149E+02  0.94833816619E+02  0.97512177213E+02  0.00000000000E+00 0.  1.
<mgrwt>
<rscale>  0 0.38592570E+04</rscale>
<asrwt>0</asrwt>
<pdfrwt beam="1">  1        2 0.56418122E+00 0.38592570E+04</pdfrwt>
<pdfrwt beam="2">  1       -1 0.15620757E+00 0.38592570E+04</pdfrwt>
<totfact> 0.17413290E-01</totfact>
</mgrwt>
</event>
<event>
12    6  0.1403409E-007  0.1122108E+04  0.7818608E-02  0.9183907E-01
         -3   -1    0    0    0  501 -0.00000000000E+00  0.00000000000E+00  0.62413946213E+03  0.62413946213E+03  0.00000000000E+00 0.  1.
          4   -1    0    0  501    0  0.00000000000E+00 -0.00000000000E+00 -0.50434538621E+03  0.50434538621E+03  0.00000000000E+00 0. -1.
         24    2    1    2    0    0  0.14582907784E+03  0.11388341594E+03  0.29586467761E+02  0.20366846544E+03  0.79811856068E+02 0.  0.
        254    2    1    2    0    0 -0.14582907784E+03 -0.11388341594E+03  0.90207608158E+02  0.92481638290E+03  0.90161653553E+03 0.  0.
         23    2    4    4    0    0 -0.13429066551E+03 -0.17357326303E+03 -0.37666350502E+03  0.44522300030E+03  0.90479077675E+02 0.  0.
         23    2    4    4    0    0 -0.11538412326E+02  0.59689847097E+02  0.46687111317E+03  0.47959338261E+03  0.91351866528E+02 0.  0.
          2    1    3    3  502    0  0.10532840463E+03  0.40579238961E+02 -0.51722399008E+01  0.11299336052E+03  0.00000000000E+00 0. -1.
         -1    1    3    3    0  502  0.40500673210E+02  0.73304176977E+02  0.34758707662E+02  0.90675104913E+02  0.00000000000E+00 0.  1.
         11    1    5    5    0    0 -0.27752484210E+01 -0.63501665139E+02 -0.75904089045E+02  0.99003001031E+02  0.00000000000E+00 0. -1.
        -11    1    5    5    0    0 -0.13151541709E+03 -0.11007159790E+03 -0.30075941597E+03  0.34621999927E+03  0.00000000000E+00 0.  1.
          4    1    6    6  503    0  0.17378070048E+02  0.29935303631E+01  0.14678288906E+02  0.22943641992E+02  0.00000000000E+00 0. -1.
         -4    1    6    6    0  503 -0.28916482375E+02  0.56696316734E+02  0.45219282427E+03  0.45664974061E+03  0.00000000000E+00 0.  1.
<mgrwt>
<rscale>  0 0.11221085E+04</rscale>
<asrwt>0</asrwt>
<pdfrwt beam="1">  1        4 0.77591598E-01 0.11221085E+04</pdfrwt>
<pdfrwt beam="2">  1       -3 0.96021456E-01 0.11221085E+04</pdfrwt>
<totfact> 0.32353789E+00</totfact>
</mgrwt>
</event>
<event>
12    6  0.1403409E-007  0.1718946E+04  0.7818608E-02  0.8750632E-01
         -1   -1    0    0    0  501 -0.00000000000E+00  0.00000000000E+00  0.48147593101E+03  0.48147593101E+03  0.00000000000E+00 0.  1.
          2   -1    0    0  501    0  0.00000000000E+00 -0.00000000000E+00 -0.15342272848E+04  0.15342272848E+04  0.00000000000E+00 0. -1.
         24    2    1    2    0    0 -0.42197462019E+03 -0.44484457376E+03 -0.49256980840E+03  0.79063313558E+03  0.80786533802E+02 0.  0.
        254    2    1    2    0    0  0.42197462019E+03  0.44484457376E+03 -0.56018154542E+03  0.12250700803E+04  0.90057984813E+03 0.  0.
         23    2    4    4    0    0  0.20313687995E+03  0.69125814227E+03 -0.26681708646E+03  0.77311672092E+03  0.86114431331E+02 0.  0.
         23    2    4    4    0    0  0.21883774024E+03 -0.24641356852E+03 -0.29336445896E+03  0.45195335935E+03  0.97926145346E+02 0.  0.
          4    1    3    3  502    0 -0.22313598482E+03 -0.23290715200E+03 -0.20736352857E+03  0.38345148605E+03  0.00000000000E+00 0. -1.
         -3    1    3    3    0  502 -0.19883863537E+03 -0.21193742176E+03 -0.28520627984E+03  0.40718164953E+03  0.00000000000E+00 0.  1.
         11    1    5    5    0    0  0.26838519254E+02  0.13412725022E+03 -0.17905433868E+02  0.13795299899E+03  0.00000000000E+00 0. -1.
        -11    1    5    5    0    0  0.17629836070E+03  0.55713089205E+03 -0.24891165259E+03  0.63516372193E+03  0.00000000000E+00 0.  1.
          3    1    6    6  503    0  0.54634712457E+02 -0.36342263802E+02 -0.11092300743E+03  0.12887833612E+03  0.00000000000E+00 0. -1.
         -3    1    6    6    0  503  0.16420302778E+03 -0.21007130472E+03 -0.18244145153E+03  0.32307502323E+03  0.00000000000E+00 0.  1.
<mgrwt>
<rscale>  0 0.17189456E+04</rscale>
<asrwt>0</asrwt>
<pdfrwt beam="1">  1        2 0.23603497E+00 0.17189456E+04</pdfrwt>
<pdfrwt beam="2">  1       -1 0.74073220E-01 0.17189456E+04</pdfrwt>
<totfact> 0.24120481E+01</totfact>
</mgrwt>
</event>
<event>
12    6  0.1403409E-007  0.1405028E+04  0.7818608E-02  0.8950187E-01
          2   -1    0    0  501    0  0.00000000000E+00  0.00000000000E+00  0.63563750375E+03  0.63563750375E+03  0.00000000000E+00 0. -1.
         -1   -1    0    0    0  501 -0.00000000000E+00 -0.00000000000E+00 -0.77642645962E+03  0.77642645962E+03  0.00000000000E+00 0.  1.
         24    2    1    2    0    0 -0.34018323176E+03 -0.20759232849E+03 -0.13774263442E+03  0.42934106756E+03  0.80879620058E+02 0.  0.
        254    2    1    2    0    0  0.34018323176E+03  0.20759232849E+03 -0.30463214510E+01  0.98272289581E+03  0.89828492353E+03 0.  0.
         23    2    4    4    0    0 -0.53040057183E+02  0.19036454880E+03 -0.37472728852E+03  0.43336881041E+03  0.91302113708E+02 0.  0.
         23    2    4    4    0    0  0.39322328894E+03  0.17227779689E+02  0.37168096707E+03  0.54935408540E+03  0.93390676753E+02 0.  0.
          2    1    3    3  502    0 -0.30001146286E+03 -0.18558716113E+03 -0.91923310508E+02  0.36455365482E+03  0.00000000000E+00 0. -1.
         -3    1    3    3    0  502 -0.40171768899E+02 -0.22005167360E+02 -0.45819323908E+02  0.64787412746E+02  0.00000000000E+00 0.  1.
         11    1    5    5    0    0 -0.21105332249E+02  0.15116299865E+03 -0.33803557011E+03  0.37089585313E+03  0.00000000000E+00 0. -1.
        -11    1    5    5    0    0 -0.31934724934E+02  0.39201550155E+02 -0.36691718405E+02  0.62472957275E+02  0.00000000000E+00 0.  1.
          2    1    6    6  503    0  0.32640547163E+03 -0.14807169252E+02  0.32974275200E+03  0.46420907646E+03  0.00000000000E+00 0. -1.
         -2    1    6    6    0  503  0.66817817316E+02  0.32034948941E+02  0.41938215067E+02  0.85145008941E+02  0.00000000000E+00 0.  1.
<mgrwt>
<rscale>  0 0.14050278E+04</rscale>
<asrwt>0</asrwt>
<pdfrwt beam="1">  1        2 0.97790386E-01 0.14050278E+04</pdfrwt>
<pdfrwt beam="2">  1       -1 0.11945022E+00 0.14050278E+04</pdfrwt>
<totfact> 0.32181215E+01</totfact>
</mgrwt>
</event>
<event>
12    6  0.1403409E-007  0.2582597E+04  0.7818608E-02  0.8374137E-01
         -1   -1    0    0    0  501 -0.00000000000E+00  0.00000000000E+00  0.88812443030E+03  0.88812443030E+03  0.00000000000E+00 0.  1.
          2   -1    0    0  501    0  0.00000000000E+00 -0.00000000000E+00 -0.18774978123E+04  0.18774978123E+04  0.00000000000E+00 0. -1.
         24    2    1    2    0    0  0.84934348074E+03  0.25530517474E+03 -0.11888216712E+04  0.14852193433E+04  0.77552892728E+02 0.  0.
        254    2    1    2    0    0 -0.84934348074E+03 -0.25530517474E+03  0.19944828920E+03  0.12804028993E+04  0.90171330481E+03 0.  0.
         23    2    4    4    0    0  0.11315839792E+03  0.13615898717E+03 -0.54216682669E+02  0.20691986248E+03  0.92370384885E+02 0.  0.
         23    2    4    4    0    0 -0.96250187866E+03 -0.39146416191E+03  0.25366497187E+03  0.10734830369E+04  0.91465053420E+02 0.  0.
          4    1    3    3  502    0  0.27558871467E+03  0.54500543460E+02 -0.41606933836E+03  0.50202902627E+03  0.00000000000E+00 0. -1.
         -3    1    3    3    0  502  0.57375476607E+03  0.20080463128E+03 -0.77275233288E+03  0.98319031703E+03  0.00000000000E+00 0.  1.
         11    1    5    5    0    0  0.76141594023E+02  0.23886878315E+02 -0.88218038844E+01  0.80286670873E+02  0.00000000000E+00 0. -1.
        -11    1    5    5    0    0  0.37016803893E+02  0.11227210886E+03 -0.45394878785E+02  0.12663319161E+03  0.00000000000E+00 0.  1.
          2    1    6    6  503    0 -0.47553917740E+03 -0.14599931998E+03  0.10806020160E+03  0.50904844352E+03  0.00000000000E+00 0. -1.
         -2    1    6    6    0  503 -0.48696270126E+03 -0.24546484193E+03  0.14560477027E+03  0.56443459335E+03  0.00000000000E+00 0.  1.
<mgrwt>
<rscale>  0 0.25825969E+04</rscale>
<asrwt>0</asrwt>
<pdfrwt beam="1">  1        2 0.28884582E+00 0.25825969E+04</pdfrwt>
<pdfrwt beam="2">  1       -1 0.13663453E+00 0.25825969E+04</pdfrwt>
<totfact> 0.35184565E+00</totfact>
</mgrwt>
</event>
<event>
12    6  0.1403409E-007  0.1544267E+04  0.7818608E-02  0.8855538E-01
          2   -1    0    0  501    0  0.00000000000E+00  0.00000000000E+00  0.85670214421E+03  0.85670214421E+03  0.00000000000E+00 0. -1.
         -1   -1    0    0    0  501 -0.00000000000E+00 -0.00000000000E+00 -0.69591259568E+03  0.69591259568E+03  0.00000000000E+00 0.  1.
         24    2    1    2    0    0 -0.83078546476E+02 -0.43997978781E+03 -0.17328062468E+03  0.48671125583E+03  0.79858707072E+02 0.  0.
        254    2    1    2    0    0  0.83078546476E+02  0.43997978781E+03  0.33407017322E+03  0.10659034841E+04  0.90777921222E+03 0.  0.
         23    2    4    4    0    0  0.13257681486E+03  0.49800492978E+03  0.58700202160E+03  0.78645070179E+03  0.91366356281E+02 0.  0.
         23    2    4    4    0    0 -0.49498268381E+02 -0.58025141974E+02 -0.25293184838E+03  0.27945278227E+03  0.91117187845E+02 0.  0.
          4    1    3    3  502    0 -0.33830783372E+02 -0.14623937624E+03 -0.19045054208E+02  0.15130496078E+03  0.00000000000E+00 0. -1.
         -3    1    3    3    0  502 -0.49247763103E+02 -0.29374041157E+03 -0.15423557047E+03  0.33540629505E+03  0.00000000000E+00 0.  1.
         11    1    5    5    0    0  0.31427179641E+02  0.45833762639E+02  0.98920312372E+02  0.11346201839E+03  0.00000000000E+00 0. -1.
        -11    1    5    5    0    0  0.10114963522E+03  0.45217116714E+03  0.48808170923E+03  0.67298868340E+03  0.00000000000E+00 0.  1.
          3    1    6    6  503    0 -0.26943045194E+02 -0.11190258796E+02 -0.97251744400E+01  0.30752700599E+02  0.00000000000E+00 0. -1.
         -3    1    6    6    0  503 -0.22555223187E+02 -0.46834883178E+02 -0.24320667394E+03  0.24870008167E+03  0.00000000000E+00 0.  1.
<mgrwt>
<rscale>  0 0.15442666E+04</rscale>
<asrwt>0</asrwt>
<pdfrwt beam="1">  1        2 0.13180033E+00 0.15442666E+04</pdfrwt>
<pdfrwt beam="2">  1       -1 0.10706348E+00 0.15442666E+04</pdfrwt>
<totfact> 0.28084375E+01</totfact>
</mgrwt>
</event>
<event>
12    6  0.1403409E-007  0.2112697E+04  0.7818608E-02  0.8555671E-01
          2   -1    0    0  501    0  0.00000000000E+00  0.00000000000E+00  0.67624524732E+03  0.67624524732E+03  0.00000000000E+00 0. -1.
         -1   -1    0    0    0  501 -0.00000000000E+00 -0.00000000000E+00 -0.16501004011E+04  0.16501004011E+04  0.00000000000E+00 0.  1.
         24    2    1    2    0    0  0.82076788434E+03 -0.10556341491E+03 -0.65731806950E+03  0.10597520949E+04  0.78764862875E+02 0.  0.
        254    2    1    2    0    0 -0.82076788434E+03  0.10556341491E+03 -0.31653708427E+03  0.12665935535E+04  0.90512979707E+03 0.  0.
         23    2    4    4    0    0  0.12758183238E+02 -0.20448829609E+03  0.13751905934E+03  0.26311369182E+03  0.91318610737E+02 0.  0.
         23    2    4    4    0    0 -0.83352606757E+03  0.31005171100E+03 -0.45405614361E+03  0.10034798617E+04  0.99534327931E+02 0.  0.
          2    1    3    3  502    0  0.25622831000E+03 -0.21473534374E+01 -0.17806246936E+03  0.31203173070E+03  0.00000000000E+00 0. -1.
         -1    1    3    3    0  502  0.56453957434E+03 -0.10341606147E+03 -0.47925560015E+03  0.74772036420E+03  0.00000000000E+00 0.  1.
         11    1    5    5    0    0  0.24180670486E+02 -0.52682998069E+01  0.16287182912E+02  0.29626544436E+02  0.00000000000E+00 0. -1.
        -11    1    5    5    0    0 -0.11422487248E+02 -0.19921999628E+03  0.12123187643E+03  0.23348714739E+03  0.00000000000E+00 0.  1.
          4    1    6    6  503    0 -0.12722307537E+03  0.11449234711E+02 -0.55699139306E+02  0.13935275383E+03  0.00000000000E+00 0. -1.
         -4    1    6    6    0  503 -0.70630299221E+03  0.29860247629E+03 -0.39835700430E+03  0.86412710785E+03  0.00000000000E+00 0.  1.
<mgrwt>
<rscale>  0 0.21126974E+04</rscale>
<asrwt>0</asrwt>
<pdfrwt beam="1">  1        2 0.10403773E+00 0.21126974E+04</pdfrwt>
<pdfrwt beam="2">  1       -1 0.25386160E+00 0.21126974E+04</pdfrwt>
<totfact> 0.29585842E+00</totfact>
</mgrwt>
</event>
<event>
12    6  0.1403409E-007  0.1356215E+04  0.7818608E-02  0.8986137E-01
          2   -1    0    0  501    0  0.00000000000E+00  0.00000000000E+00  0.29647839360E+04  0.29647839360E+04  0.00000000000E+00 0. -1.
         -1   -1    0    0    0  501 -0.00000000000E+00 -0.00000000000E+00 -0.15509713478E+03  0.15509713478E+03  0.00000000000E+00 0.  1.
         24    2    1    2    0    0  0.10371521176E+03  0.35324555261E+03  0.87032799726E+03  0.94837466568E+03  0.80027608359E+02 0.  0.
        254    2    1    2    0    0 -0.10371521176E+03 -0.35324555261E+03  0.19393588040E+04  0.21715064051E+04  0.90486917910E+03 0.  0.
         23    2    4    4    0    0 -0.19840379591E+03  0.73608776431E+02  0.15852933743E+04  0.16014777623E+04  0.82423433654E+02 0.  0.
         23    2    4    4    0    0  0.94688584146E+02 -0.42685432904E+03  0.35406542968E+03  0.57002864279E+03  0.91650307800E+02 0.  0.
          4    1    3    3  502    0  0.34778793664E+02  0.34735445236E+02  0.14765634732E+03  0.15562298207E+03  0.00000000000E+00 0. -1.
         -3    1    3    3    0  502  0.68936418095E+02  0.31851010738E+03  0.72267164994E+03  0.79275168361E+03  0.00000000000E+00 0.  1.
         11    1    5    5    0    0 -0.77689310327E+02  0.70174367492E+02  0.83305340423E+03  0.83960588676E+03  0.00000000000E+00 0. -1.
        -11    1    5    5    0    0 -0.12071448558E+03  0.34344089384E+01  0.75223997006E+03  0.76187187554E+03  0.00000000000E+00 0.  1.
          1    1    6    6  503    0  0.10659029518E+02 -0.80892581272E+02  0.25288816633E+02  0.85421009487E+02  0.00000000000E+00 0. -1.
         -1    1    6    6    0  503  0.84029554628E+02 -0.34596174777E+03  0.32877661305E+03  0.48460763331E+03  0.00000000000E+00 0.  1.
<mgrwt>
<rscale>  0 0.13562146E+04</rscale>
<asrwt>0</asrwt>
<pdfrwt beam="1">  1        2 0.45612056E+00 0.13562146E+04</pdfrwt>
<pdfrwt beam="2">  1       -1 0.23861100E-01 0.13562146E+04</pdfrwt>
<totfact> 0.31199048E+01</totfact>
</mgrwt>
</event>
<event>
12    6  0.1403409E-007  0.1892577E+04  0.7818608E-02  0.8658560E-01
          2   -1    0    0  501    0  0.00000000000E+00  0.00000000000E+00  0.99179667988E+03  0.99179667988E+03  0.00000000000E+00 0. -1.
         -1   -1    0    0    0  501 -0.00000000000E+00 -0.00000000000E+00 -0.90286851015E+03  0.90286851015E+03  0.00000000000E+00 0.  1.
         24    2    1    2    0    0 -0.45553826029E+03 -0.43490381318E+03  0.40714257073E+03  0.75418693032E+03  0.79852486867E+02 0.  0.
        254    2    1    2    0    0  0.45553826029E+03  0.43490381318E+03 -0.31821440100E+03  0.11404782597E+04  0.89597646317E+03 0.  0.
         23    2    4    4    0    0  0.50083170907E+03  0.40307781170E+03  0.14470773372E+03  0.66532542054E+03  0.91724936214E+02 0.  0.
         23    2    4    4    0    0 -0.45293448775E+02  0.31826001476E+02 -0.46292213472E+03  0.47515283917E+03  0.91700201113E+02 0.  0.
          4    1    3    3  502    0 -0.21831782336E+03 -0.15637182412E+03  0.18636154768E+03  0.32687221637E+03  0.00000000000E+00 0. -1.
         -3    1    3    3    0  502 -0.23722043693E+03 -0.27853198906E+03  0.22078102304E+03  0.42731471395E+03  0.00000000000E+00 0.  1.
         11    1    5    5    0    0  0.70815668838E+01  0.32004689868E+01  0.14942485088E+02  0.16842489479E+02  0.00000000000E+00 0. -1.
        -11    1    5    5    0    0  0.49375014219E+03  0.39987734272E+03  0.12976524864E+03  0.64848293106E+03  0.00000000000E+00 0.  1.
          2    1    6    6  503    0 -0.58693995220E+02  0.47719689595E+02 -0.24935892970E+03  0.26058017897E+03  0.00000000000E+00 0.  1.
         -2    1    6    6    0  503  0.13400546445E+02 -0.15893688119E+02 -0.21356320502E+03  0.21457266020E+03  0.00000000000E+00 0. -1.
<mgrwt>
<rscale>  0 0.18925771E+04</rscale>
<asrwt>0</asrwt>
<pdfrwt beam="1">  1        2 0.15258411E+00 0.18925771E+04</pdfrwt>
<pdfrwt beam="2">  1       -1 0.13890285E+00 0.18925771E+04</pdfrwt>
<totfact> 0.11664244E+01</totfact>
</mgrwt>
</event>
<event>
12    6  0.1403409E-007  0.2573170E+04  0.7818608E-02  0.8377372E-01
         -1   -1    0    0    0  501 -0.00000000000E+00  0.00000000000E+00  0.85888278580E+03  0.85888278580E+03  0.00000000000E+00 0.  1.
          2   -1    0    0  501    0  0.00000000000E+00 -0.00000000000E+00 -0.19272726287E+04  0.19272726287E+04  0.00000000000E+00 0. -1.
         24    2    1    2    0    0  0.76255078200E+03 -0.77870563127E+03 -0.16203092478E+03  0.11047606985E+04  0.79850015808E+02 0.  0.
        254    2    1    2    0    0 -0.76255078200E+03  0.77870563127E+03 -0.90635891817E+03  0.16813947161E+04  0.90428731460E+03 0.  0.
         23    2    4    4    0    0 -0.54654081028E+03  0.23342470520E+03 -0.35661608015E+01  0.60110182881E+03  0.90092956436E+02 0.  0.
         23    2    4    4    0    0 -0.21600997172E+03  0.54528092607E+03 -0.90279275737E+03  0.10802928873E+04  0.89478283779E+02 0.  0.
          4    1    3    3  502    0  0.62360236564E+03 -0.67005076327E+03 -0.15388174762E+03  0.92818507208E+03  0.00000000000E+00 0. -1.
         -3    1    3    3    0  502  0.13894841637E+03 -0.10865486800E+03 -0.81491771632E+01  0.17657562640E+03  0.00000000000E+00 0.  1.
         11    1    5    5    0    0 -0.48256386353E+03  0.21615227079E+03  0.24052615278E+02  0.52930918645E+03  0.00000000000E+00 0. -1.
        -11    1    5    5    0    0 -0.63976946745E+02  0.17272434405E+02 -0.27618776080E+02  0.71792642361E+02  0.00000000000E+00 0.  1.
          3    1    6    6  503    0 -0.21757174742E+03  0.47528873981E+03 -0.81072359139E+03  0.96462925163E+03  0.00000000000E+00 0. -1.
         -3    1    6    6    0  503  0.15617756989E+01  0.69992186258E+02 -0.92069165978E+02  0.11566363562E+03  0.00000000000E+00 0.  1.
<mgrwt>
<rscale>  0 0.25731703E+04</rscale>
<asrwt>0</asrwt>
<pdfrwt beam="1">  1        2 0.29650348E+00 0.25731703E+04</pdfrwt>
<pdfrwt beam="2">  1       -1 0.13213581E+00 0.25731703E+04</pdfrwt>
<totfact> 0.35997155E+00</totfact>
</mgrwt>
</event>
<event>
12    6  0.1403409E-007  0.2738250E+04  0.7818608E-02  0.8322700E-01
          2   -1    0    0  501    0  0.00000000000E+00  0.00000000000E+00  0.61544772666E+03  0.61544772666E+03  0.00000000000E+00 0. -1.
         -1   -1    0    0    0  501 -0.00000000000E+00 -0.00000000000E+00 -0.30457547130E+04  0.30457547130E+04  0.00000000000E+00 0.  1.
         24    2    1    2    0    0  0.18774380219E+03 -0.11329467105E+04 -0.53295522684E+03  0.12676719034E+04  0.64302385473E+02 0.  0.
        254    2    1    2    0    0 -0.18774380219E+03  0.11329467105E+04 -0.18973517595E+04  0.23935305363E+04  0.90012707154E+03 0.  0.
         23    2    4    4    0    0 -0.24513925853E+03  0.96476143699E+03 -0.80548651691E+03  0.12836399069E+04  0.89805319344E+02 0.  0.
         23    2    4    4    0    0  0.57395456334E+02  0.16818527346E+03 -0.10918652426E+04  0.11098906294E+04  0.90038750255E+02 0.  0.
          2    1    3    3  502    0  0.17485933556E+03 -0.10624212785E+04 -0.48177645163E+03  0.11795860756E+04  0.00000000000E+00 0. -1.
         -1    1    3    3    0  502  0.12884466628E+02 -0.70525431918E+02 -0.51178775210E+02  0.88085827802E+02  0.00000000000E+00 0.  1.
         11    1    5    5    0    0 -0.15554515361E+03  0.59191568794E+03 -0.55024855522E+03  0.82300179159E+03  0.00000000000E+00 0. -1.
        -11    1    5    5    0    0 -0.89594104915E+02  0.37284574905E+03 -0.25523796169E+03  0.46063811535E+03  0.00000000000E+00 0.  1.
          4    1    6    6  503    0 -0.13259412668E+02 -0.23705380200E+01 -0.49319438638E+02  0.51125712732E+02  0.00000000000E+00 0. -1.
         -4    1    6    6    0  503  0.70654869001E+02  0.17055581148E+03 -0.10425458040E+04  0.10587649166E+04  0.00000000000E+00 0.  1.
<mgrwt>
<rscale>  0 0.27382497E+04</rscale>
<asrwt>0</asrwt>
<pdfrwt beam="1">  1        2 0.94684265E-01 0.27382497E+04</pdfrwt>
<pdfrwt beam="2">  1       -1 0.46857765E+00 0.27382497E+04</pdfrwt>
<totfact> 0.11554924E-01</totfact>
</mgrwt>
</event>
<event>
12    6  0.1403409E-007  0.3230703E+04  0.7818608E-02  0.8180755E-01
          2   -1    0    0  501    0  0.00000000000E+00  0.00000000000E+00  0.19000168576E+04  0.19000168576E+04  0.00000000000E+00 0. -1.
         -1   -1    0    0    0  501 -0.00000000000E+00 -0.00000000000E+00 -0.13733354263E+04  0.13733354263E+04  0.00000000000E+00 0.  1.
         24    2    1    2    0    0 -0.19136211276E+03 -0.13573209151E+04 -0.34478915298E+03  0.14161791878E+04  0.88002312313E+02 0.  0.
        254    2    1    2    0    0  0.19136211276E+03  0.13573209151E+04  0.87147058433E+03  0.18571730962E+04  0.90038403192E+03 0.  0.
         23    2    4    4    0    0  0.98393283883E+02  0.11420893417E+04  0.23559111574E+03  0.11736395237E+04  0.88753900461E+02 0.  0.
         23    2    4    4    0    0  0.92968828879E+02  0.21523157339E+03  0.63587946859E+03  0.68353357251E+03  0.88924759449E+02 0.  0.
          2    1    3    3  502    0 -0.92507223265E+02 -0.53544499118E+03 -0.17759975615E+03  0.57166476043E+03  0.00000000000E+00 0. -1.
         -1    1    3    3    0  502 -0.98854889497E+02 -0.82187592395E+03 -0.16718939683E+03  0.84451442733E+03  0.00000000000E+00 0.  1.
         11    1    5    5    0    0  0.10404587208E+03  0.11370766469E+04  0.23153812916E+03  0.11650659851E+04  0.00000000000E+00 0.  1.
        -11    1    5    5    0    0 -0.56525881994E+01  0.50126948450E+01  0.40529865821E+01  0.85735385458E+01  0.00000000000E+00 0. -1.
          4    1    6    6  503    0  0.79852588465E+02  0.15612200201E+03  0.35190834053E+03  0.39317934271E+03  0.00000000000E+00 0. -1.
         -4    1    6    6    0  503  0.13116240414E+02  0.59109571375E+02  0.28397112806E+03  0.29035422980E+03  0.00000000000E+00 0.  1.
<mgrwt>
<rscale>  0 0.32307030E+04</rscale>
<asrwt>0</asrwt>
<pdfrwt beam="1">  1        2 0.29231029E+00 0.32307030E+04</pdfrwt>
<pdfrwt beam="2">  1       -1 0.21128237E+00 0.32307030E+04</pdfrwt>
<totfact> 0.91433085E-01</totfact>
</mgrwt>
</event>
<event>
12    6  0.1403409E-007  0.3237705E+04  0.7818608E-02  0.8178930E-01
         -1   -1    0    0    0  501 -0.00000000000E+00  0.00000000000E+00  0.12788570464E+04  0.12788570464E+04  0.00000000000E+00 0.  1.
          2   -1    0    0  501    0  0.00000000000E+00 -0.00000000000E+00 -0.20492381520E+04  0.20492381520E+04  0.00000000000E+00 0. -1.
         24    2    1    2    0    0  0.11795826410E+04  0.72928751659E+03 -0.90783492801E+03  0.16594264183E+04  0.79096727628E+02 0.  0.
        254    2    1    2    0    0 -0.11795826410E+04 -0.72928751659E+03  0.13745382242E+03  0.16686687801E+04  0.91776165505E+03 0.  0.
         23    2    4    4    0    0 -0.71319070037E+03 -0.88276937999E+03 -0.39079248234E+02  0.11393819914E+04  0.93495354678E+02 0.  0.
         23    2    4    4    0    0 -0.46639194063E+03  0.15348186340E+03  0.17653307065E+03  0.52928678867E+03  0.88895753268E+02 0.  0.
          2    1    3    3  502    0  0.81703153702E+03  0.51421493248E+03 -0.67383844284E+03  0.11772917125E+04  0.00000000000E+00 0. -1.
         -1    1    3    3    0  502  0.36255110398E+03  0.21507258411E+03 -0.23399648517E+03  0.48213470576E+03  0.00000000000E+00 0.  1.
         11    1    5    5    0    0 -0.91549638714E+02 -0.69324723194E+02 -0.83467518539E+01  0.11513870705E+03  0.00000000000E+00 0. -1.
        -11    1    5    5    0    0 -0.62164106166E+03 -0.81344465679E+03 -0.30732496380E+02  0.10242432843E+04  0.00000000000E+00 0.  1.
          2    1    6    6  503    0 -0.24135726638E+03  0.85421975142E+02  0.13862716609E+03  0.29114899115E+03  0.00000000000E+00 0. -1.
         -2    1    6    6    0  503 -0.22503467425E+03  0.68059888255E+02  0.37905904560E+02  0.23813779752E+03  0.00000000000E+00 0.  1.
<mgrwt>
<rscale>  0 0.32377045E+04</rscale>
<asrwt>0</asrwt>
<pdfrwt beam="1">  1        2 0.31526741E+00 0.32377045E+04</pdfrwt>
<pdfrwt beam="2">  1       -1 0.19674724E+00 0.32377045E+04</pdfrwt>
<totfact> 0.94926654E-01</totfact>
</mgrwt>
</event>
<event>
12    6  0.1403409E-007  0.3388295E+04  0.7818608E-02  0.8140785E-01
         -1   -1    0    0    0  501 -0.00000000000E+00  0.00000000000E+00  0.13677999061E+04  0.13677999061E+04  0.00000000000E+00 0.  1.
          2   -1    0    0  501    0  0.00000000000E+00 -0.00000000000E+00 -0.20983592352E+04  0.20983592352E+04  0.00000000000E+00 0. -1.
         24    2    1    2    0    0  0.35922722780E+03 -0.15103450448E+04 -0.59963618016E+03  0.16661553665E+04  0.79522332253E+02 0.  0.
        254    2    1    2    0    0 -0.35922722780E+03  0.15103450448E+04 -0.13092314893E+03  0.18000037747E+04  0.90149118821E+03 0.  0.
         23    2    4    4    0    0  0.12131714741E+03 -0.11472684092E+02 -0.13557484464E+03  0.20162424369E+03  0.86152912950E+02 0.  0.
         23    2    4    4    0    0 -0.48054437521E+03  0.15218177289E+04  0.46516957066E+01  0.15983795310E+04  0.89125699494E+02 0.  0.
          4    1    3    3  502    0  0.23291169570E+03 -0.89907719556E+03 -0.39525704852E+03  0.10093640552E+04  0.00000000000E+00 0. -1.
         -3    1    3    3    0  502  0.12631553210E+03 -0.61126784924E+03 -0.20437913164E+03  0.65679131131E+03  0.00000000000E+00 0.  1.
         11    1    5    5    0    0  0.73650214052E+02  0.30997100634E+01 -0.13257328352E+03  0.15168928023E+03  0.00000000000E+00 0. -1.
        -11    1    5    5    0    0  0.47666933358E+02 -0.14572394155E+02 -0.30015611186E+01  0.49934963465E+02  0.00000000000E+00 0.  1.
          3    1    6    6  503    0 -0.33231130755E+03  0.93005598629E+03  0.25634151261E+02  0.98797371042E+03  0.00000000000E+00 0. -1.
         -3    1    6    6    0  503 -0.14823306766E+03  0.59176174260E+03 -0.20982455555E+02  0.61040582057E+03  0.00000000000E+00 0.  1.
<mgrwt>
<rscale>  0 0.33882949E+04</rscale>
<asrwt>0</asrwt>
<pdfrwt beam="1">  1        2 0.32282450E+00 0.33882949E+04</pdfrwt>
<pdfrwt beam="2">  1       -1 0.21043076E+00 0.33882949E+04</pdfrwt>
<totfact> 0.70908728E-01</totfact>
</mgrwt>
</event>
<event>
12    6  0.1403409E-007  0.1302968E+04  0.7818608E-02  0.9027215E-01
         -1   -1    0    0    0  501 -0.00000000000E+00  0.00000000000E+00  0.12715750788E+04  0.12715750788E+04  0.00000000000E+00 0.  1.
          2   -1    0    0  501    0  0.00000000000E+00 -0.00000000000E+00 -0.33378400682E+03  0.33378400682E+03  0.00000000000E+00 0. -1.
         24    2    1    2    0    0 -0.29590938448E+03  0.27381420709E+02  0.43053482321E+03  0.52904484020E+03  0.78842266080E+02 0.  0.
        254    2    1    2    0    0  0.29590938448E+03 -0.27381420709E+02  0.50725624881E+03  0.10763142455E+04  0.90157159838E+03 0.  0.
         23    2    4    4    0    0  0.42898371775E+03 -0.32074349979E+03  0.50368021855E+03  0.74136634612E+03  0.95009861866E+02 0.  0.
         23    2    4    4    0    0 -0.13307433327E+03  0.29336207908E+03  0.35760302629E+01  0.33494789934E+03  0.91690891909E+02 0.  0.
          2    1    3    3  502    0 -0.12477622157E+03 -0.20072970935E+02  0.14066838469E+03  0.18910215251E+03  0.00000000000E+00 0. -1.
         -1    1    3    3    0  502 -0.17113316290E+03  0.47454391644E+02  0.28986643852E+03  0.33994268769E+03  0.00000000000E+00 0.  1.
         11    1    5    5    0    0  0.34047874891E+03 -0.22250850864E+03  0.42117924751E+03  0.58551496429E+03  0.00000000000E+00 0. -1.
        -11    1    5    5    0    0  0.88504968840E+02 -0.98234991153E+02  0.82500971039E+02  0.15585138183E+03  0.00000000000E+00 0.  1.
          2    1    6    6  503    0 -0.11037297974E+03  0.22328647504E+03 -0.35451543313E+02  0.25158667794E+03  0.00000000000E+00 0. -1.
         -2    1    6    6    0  503 -0.22701353531E+02  0.70075604041E+02  0.39027573575E+02  0.83361221398E+02  0.00000000000E+00 0.  1.
<mgrwt>
<rscale>  0 0.13029680E+04</rscale>
<asrwt>0</asrwt>
<pdfrwt beam="1">  1        2 0.51351386E-01 0.13029680E+04</pdfrwt>
<pdfrwt beam="2">  1       -1 0.19562693E+00 0.13029680E+04</pdfrwt>
<totfact> 0.17649506E+01</totfact>
</mgrwt>
</event>
<event>
12    6  0.1403409E-007  0.3353902E+04  0.7818608E-02  0.8149314E-01
          2   -1    0    0  501    0  0.00000000000E+00  0.00000000000E+00  0.15567502564E+04  0.15567502564E+04  0.00000000000E+00 0. -1.
         -1   -1    0    0    0  501 -0.00000000000E+00 -0.00000000000E+00 -0.18064329080E+04  0.18064329080E+04  0.00000000000E+00 0.  1.
         24    2    1    2    0    0 -0.50073853505E+03  0.11155729101E+04  0.84782745118E+03  0.14901078227E+04  0.79799361277E+02 0.  0.
        254    2    1    2    0    0  0.50073853505E+03 -0.11155729101E+04 -0.10975101029E+04  0.18730753417E+04  0.89924457829E+03 0.  0.
         23    2    4    4    0    0 -0.49573777417E+02 -0.86627696205E+03 -0.83321310770E+03  0.12064073504E+04  0.91001526337E+02 0.  0.
         23    2    4    4    0    0  0.55031231247E+03 -0.24929594805E+03 -0.26429699516E+03  0.66666799133E+03  0.97985703291E+02 0.  0.
          4    1    3    3  502    0 -0.31545189544E+03  0.76708174482E+03  0.60626581021E+03  0.10273667963E+04  0.00000000000E+00 0. -1.
         -3    1    3    3    0  502 -0.18528663961E+03  0.34849116528E+03  0.24156164097E+03  0.46274102637E+03  0.00000000000E+00 0.  1.
         11    1    5    5    0    0 -0.36228490177E+02 -0.79372372359E+03 -0.79219874060E+03  0.11220020934E+04  0.00000000000E+00 0. -1.
        -11    1    5    5    0    0 -0.13345287240E+02 -0.72553238458E+02 -0.41014367097E+02  0.84405257009E+02  0.00000000000E+00 0.  1.
          4    1    6    6  503    0  0.39548896030E+03 -0.22096705790E+03 -0.21699882871E+03  0.50232106273E+03  0.00000000000E+00 0. -1.
         -4    1    6    6    0  503  0.15482335216E+03 -0.28328890154E+02 -0.47298166449E+02  0.16434692861E+03  0.00000000000E+00 0.  1.
<mgrwt>
<rscale>  0 0.33539021E+04</rscale>
<asrwt>0</asrwt>
<pdfrwt beam="1">  1        2 0.23950004E+00 0.33539021E+04</pdfrwt>
<pdfrwt beam="2">  1       -1 0.27791276E+00 0.33539021E+04</pdfrwt>
<totfact> 0.51252495E-01</totfact>
</mgrwt>
</event>
<event>
12    6  0.1447735E-007  0.4095369E+04  0.7818608E-02  0.7985579E-01
         -1   -1    0    0    0  501 -0.00000000000E+00  0.00000000000E+00  0.24514262668E+04  0.24514262668E+04  0.00000000000E+00 0.  1.
          2   -1    0    0  501    0  0.00000000000E+00 -0.00000000000E+00 -0.17104374541E+04  0.17104374541E+04  0.00000000000E+00 0. -1.
         24    2    1    2    0    0 -0.17392452233E+04  0.76223614712E+03  0.79079958217E+03  0.20586641043E+04  0.82195038590E+02 0.  0.
        254    2    1    2    0    0  0.17392452233E+04 -0.76223614712E+03 -0.49810769497E+02  0.21031996166E+04  0.90276775733E+03 0.  0.
         23    2    4    4    0    0  0.64039570544E+03 -0.27859829538E+03  0.40968543572E+03  0.81430737634E+03  0.86779474490E+02 0.  0.
         23    2    4    4    0    0  0.10988495179E+04 -0.48363785175E+03 -0.45949620521E+03  0.12888922403E+04  0.93437732210E+02 0.  0.
          4    1    3    3  502    0 -0.10666817644E+04  0.51045588851E+03  0.49873918895E+03  0.12834001633E+04  0.00000000000E+00 0. -1.
         -3    1    3    3    0  502 -0.67256345892E+03  0.25178025861E+03  0.29206039323E+03  0.77526394099E+03  0.00000000000E+00 0.  1.
         11    1    5    5    0    0  0.53025086768E+03 -0.24089254191E+03  0.37554118901E+03  0.69298368239E+03  0.00000000000E+00 0. -1.
        -11    1    5    5    0    0  0.11014483776E+03 -0.37705753467E+02  0.34144246710E+02  0.12132369395E+03  0.00000000000E+00 0.  1.
          3    1    6    6  503    0  0.83038472109E+03 -0.35221538909E+03 -0.30321362860E+03  0.95159496105E+03  0.00000000000E+00 0. -1.
         -3    1    6    6    0  503  0.26846479682E+03 -0.13142246266E+03 -0.15628257662E+03  0.33729727923E+03  0.00000000000E+00 0.  1.
<mgrwt>
<rscale>  0 0.40953688E+04</rscale>
<asrwt>0</asrwt>
<pdfrwt beam="1">  1        2 0.26314422E+00 0.40953688E+04</pdfrwt>
<pdfrwt beam="2">  1       -1 0.37714250E+00 0.40953688E+04</pdfrwt>
<totfact> 0.88177396E-02</totfact>
</mgrwt>
</event>
<event>
12    6  0.1403409E-007  0.2528392E+04  0.7818608E-02  0.8392940E-01
          2   -1    0    0  501    0  0.00000000000E+00  0.00000000000E+00  0.10924500030E+04  0.10924500030E+04  0.00000000000E+00 0. -1.
         -1   -1    0    0    0  501 -0.00000000000E+00 -0.00000000000E+00 -0.14629428738E+04  0.14629428738E+04  0.00000000000E+00 0.  1.
         24    2    1    2    0    0 -0.63853710254E+03 -0.89725749632E+03 -0.11968214293E+03  0.11107146317E+04  0.81009454993E+02 0.  0.
        254    2    1    2    0    0  0.63853710254E+03  0.89725749632E+03 -0.25081072790E+03  0.14446782450E+04  0.90077109429E+03 0.  0.
         23    2    4    4    0    0  0.38182849812E+03  0.11280526944E+03  0.24733324159E+03  0.47684086692E+03  0.87666693624E+02 0.  0.
         23    2    4    4    0    0  0.25670860441E+03  0.78445222688E+03 -0.49814396950E+03  0.96783737808E+03  0.85423487569E+02 0.  0.
          4    1    3    3  502    0 -0.51448198814E+03 -0.69262279399E+03 -0.64974725253E+02  0.86523971580E+03  0.00000000000E+00 0. -1.
         -3    1    3    3    0  502 -0.12405511440E+03 -0.20463470233E+03 -0.54707417674E+02  0.24547491594E+03  0.00000000000E+00 0.  1.
         11    1    5    5    0    0  0.23881961720E+03  0.83494931196E+02  0.10814851884E+03  0.27514053722E+03  0.00000000000E+00 0.  1.
        -11    1    5    5    0    0  0.14300888092E+03  0.29310338246E+02  0.13918472275E+03  0.20170032970E+03  0.00000000000E+00 0. -1.
          1    1    6    6  503    0  0.24105358967E+03  0.62984652853E+03 -0.40417580465E+03  0.78623887189E+03  0.00000000000E+00 0. -1.
         -1    1    6    6    0  503  0.15655014740E+02  0.15460569835E+03 -0.93968164845E+02  0.18159850619E+03  0.00000000000E+00 0.  1.
<mgrwt>
<rscale>  0 0.25283923E+04</rscale>
<asrwt>0</asrwt>
<pdfrwt beam="1">  1        2 0.16806923E+00 0.25283923E+04</pdfrwt>
<pdfrwt beam="2">  1       -1 0.22506813E+00 0.25283923E+04</pdfrwt>
<totfact> 0.22735856E+00</totfact>
</mgrwt>
</event>
<event>
12    6  0.1403409E-007  0.1421229E+04  0.7818608E-02  0.8938594E-01
         -1   -1    0    0    0  501 -0.00000000000E+00  0.00000000000E+00  0.61623253569E+03  0.61623253569E+03  0.00000000000E+00 0.  1.
          2   -1    0    0  501    0  0.00000000000E+00 -0.00000000000E+00 -0.81945221217E+03  0.81945221217E+03  0.00000000000E+00 0. -1.
         24    2    1    2    0    0 -0.30079370762E+03 -0.26358479628E+03 -0.20229198140E+03  0.45369725863E+03  0.70465292014E+02 0.  0.
        254    2    1    2    0    0  0.30079370762E+03  0.26358479628E+03 -0.92769508524E+00  0.98198748923E+03  0.89685270196E+03 0.  0.
         23    2    4    4    0    0 -0.14696570493E+03  0.22260927379E+03 -0.31726563147E+03  0.42434013538E+03  0.90847467648E+02 0.  0.
         23    2    4    4    0    0  0.44775941255E+03  0.40975522492E+02  0.31633793638E+03  0.55764735385E+03  0.93452641988E+02 0.  0.
          4    1    3    3  502    0 -0.20797175913E+03 -0.19910112327E+03 -0.11159322967E+03  0.30878238096E+03  0.00000000000E+00 0. -1.
         -3    1    3    3    0  502 -0.92821948490E+02 -0.64483673014E+02 -0.90698751724E+02  0.14491487767E+03  0.00000000000E+00 0.  1.
         11    1    5    5    0    0 -0.13184789874E+03  0.21646238645E+03 -0.31954845605E+03  0.40786155607E+03  0.00000000000E+00 0. -1.
        -11    1    5    5    0    0 -0.15117806194E+02  0.61468873340E+01  0.22828245840E+01  0.16478579311E+02  0.00000000000E+00 0.  1.
          3    1    6    6  503    0  0.32906450611E+03  0.65994958946E+02  0.20685667558E+03  0.39424417309E+03  0.00000000000E+00 0. -1.
         -3    1    6    6    0  503  0.11869490644E+03 -0.25019436453E+02  0.10948126080E+03  0.16340318076E+03  0.00000000000E+00 0.  1.
<mgrwt>
<rscale>  0 0.14212292E+04</rscale>
<asrwt>0</asrwt>
<pdfrwt beam="1">  1        2 0.12606957E+00 0.14212292E+04</pdfrwt>
<pdfrwt beam="2">  1       -1 0.94805006E-01 0.14212292E+04</pdfrwt>
<totfact> 0.39823737E+01</totfact>
</mgrwt>
</event>
<event>
12    6  0.1403409E-007  0.3970154E+04  0.7818608E-02  0.8010595E-01
         -1   -1    0    0    0  501 -0.00000000000E+00  0.00000000000E+00  0.10314295830E+04  0.10314295830E+04  0.00000000000E+00 0.  1.
          2   -1    0    0  501    0  0.00000000000E+00 -0.00000000000E+00 -0.38204548644E+04  0.38204548644E+04  0.00000000000E+00 0. -1.
         24    2    1    2    0    0  0.14082317429E+04  0.98870000786E+03 -0.22583042978E+04  0.28402948102E+04  0.81804400253E+02 0.  0.
        254    2    1    2    0    0 -0.14082317429E+04 -0.98870000786E+03 -0.53072098353E+03  0.20115896372E+04  0.89676293349E+03 0.  0.
         23    2    4    4    0    0 -0.99883976280E+03 -0.25767159013E+03 -0.39908621185E+02  0.10363116061E+04  0.90958929047E+02 0.  0.
         23    2    4    4    0    0 -0.40939198014E+03 -0.73102841773E+03 -0.49081236235E+03  0.97527803114E+03  0.90918216242E+02 0.  0.
          4    1    3    3  502    0  0.11236566995E+04  0.82800951601E+03 -0.18326848274E+04  0.23036791907E+04  0.00000000000E+00 0. -1.
         -3    1    3    3    0  502  0.28457504343E+03  0.16069049185E+03 -0.42561947038E+03  0.53661561949E+03  0.00000000000E+00 0.  1.
         11    1    5    5    0    0 -0.71662028287E+03 -0.22498944259E+03 -0.40593656475E+02  0.75220524064E+03  0.00000000000E+00 0.  1.
        -11    1    5    5    0    0 -0.28221947992E+03 -0.32682147536E+02  0.68503528972E+00  0.28410636545E+03  0.00000000000E+00 0. -1.
          3    1    6    6  503    0 -0.33299221393E+03 -0.51597408994E+03 -0.37199888649E+03  0.71798067354E+03  0.00000000000E+00 0. -1.
         -3    1    6    6    0  503 -0.76399766208E+02 -0.21505432780E+03 -0.11881347586E+03  0.25729735760E+03  0.00000000000E+00 0.  1.
<mgrwt>
<rscale>  0 0.39701537E+04</rscale>
<asrwt>0</asrwt>
<pdfrwt beam="1">  1        2 0.58776229E+00 0.39701537E+04</pdfrwt>
<pdfrwt beam="2">  1       -1 0.15868147E+00 0.39701537E+04</pdfrwt>
<totfact> 0.12675041E-01</totfact>
</mgrwt>
</event>
<event>
12    6  0.1403409E-007  0.1775627E+04  0.7818608E-02  0.8719369E-01
          2   -1    0    0  501    0  0.00000000000E+00  0.00000000000E+00  0.18600119609E+04  0.18600119609E+04  0.00000000000E+00 0. -1.
         -1   -1    0    0    0  501 -0.00000000000E+00 -0.00000000000E+00 -0.42376766143E+03  0.42376766143E+03  0.00000000000E+00 0.  1.
         24    2    1    2    0    0  0.18876305207E+03 -0.55108613605E+03  0.92456834930E+03  0.10957149717E+04  0.80232459793E+02 0.  0.
        254    2    1    2    0    0 -0.18876305207E+03  0.55108613605E+03  0.51167595021E+03  0.11880646506E+04  0.90019882075E+03 0.  0.
         23    2    4    4    0    0 -0.45927735390E+02  0.77705262285E+03  0.31926979989E+03  0.84619979119E+03  0.90557970022E+02 0.  0.
         23    2    4    4    0    0 -0.14283531668E+03 -0.22596648680E+03  0.19240615032E+03  0.34186485944E+03  0.91589707911E+02 0.  0.
          2    1    3    3  502    0  0.16172833453E+03 -0.36313589380E+03  0.64871316071E+03  0.76082356459E+03  0.00000000000E+00 0. -1.
         -1    1    3    3    0  502  0.27034717537E+02 -0.18795024225E+03  0.27585518860E+03  0.33489140716E+03  0.00000000000E+00 0.  1.
         11    1    5    5    0    0  0.22725110971E+02  0.19271398393E+03  0.10009787380E+03  0.21834535628E+03  0.00000000000E+00 0.  1.
        -11    1    5    5    0    0 -0.68652846361E+02  0.58433863892E+03  0.21917192609E+03  0.62785443491E+03  0.00000000000E+00 0. -1.
          2    1    6    6  503    0 -0.51353470243E+02 -0.50866236109E+02  0.10096514190E+03  0.12417130410E+03  0.00000000000E+00 0. -1.
         -2    1    6    6    0  503 -0.91481846439E+02 -0.17510025069E+03  0.91441008412E+02  0.21769355534E+03  0.00000000000E+00 0.  1.
<mgrwt>
<rscale>  0 0.17756271E+04</rscale>
<asrwt>0</asrwt>
<pdfrwt beam="1">  1        2 0.28615568E+00 0.17756271E+04</pdfrwt>
<pdfrwt beam="2">  1       -1 0.65195026E-01 0.17756271E+04</pdfrwt>
<totfact> 0.20535117E+01</totfact>
</mgrwt>
</event>
<event>
12    6  0.1403409E-007  0.1142911E+04  0.7818608E-02  0.9164349E-01
          2   -1    0    0  501    0  0.00000000000E+00  0.00000000000E+00  0.40294482313E+03  0.40294482313E+03  0.00000000000E+00 0. -1.
         -1   -1    0    0    0  501 -0.00000000000E+00 -0.00000000000E+00 -0.81043685568E+03  0.81043685568E+03  0.00000000000E+00 0.  1.
         24    2    1    2    0    0 -0.27146040226E+02 -0.18072594253E+03 -0.17999374601E+03  0.26865289518E+03  0.79861478113E+02 0.  0.
        254    2    1    2    0    0  0.27146040226E+02  0.18072594253E+03 -0.22749828654E+03  0.94472878363E+03  0.89853115162E+03 0.  0.
         23    2    4    4    0    0 -0.32950909735E+03 -0.15532872706E+03  0.43617150454E+02  0.37759425055E+03  0.89284396998E+02 0.  0.
         23    2    4    4    0    0  0.35665513758E+03  0.33605466959E+03 -0.27111543700E+03  0.56713453308E+03  0.89455968593E+02 0.  0.
          4    1    3    3  502    0 -0.49122397945E+02 -0.15637040617E+03 -0.13164895317E+03  0.21022882955E+03  0.00000000000E+00 0. -1.
         -3    1    3    3    0  502  0.21976357719E+02 -0.24355536355E+02 -0.48344792840E+02  0.58424065628E+02  0.00000000000E+00 0.  1.
         11    1    5    5    0    0 -0.67372051671E+02  0.43689506211E+01 -0.31901814553E+00  0.67514315878E+02  0.00000000000E+00 0.  1.
        -11    1    5    5    0    0 -0.26213704568E+03 -0.15969767768E+03  0.43936168600E+02  0.31007993467E+03  0.00000000000E+00 0. -1.
          2    1    6    6  503    0  0.15422303535E+03  0.20647024919E+03 -0.13558798475E+03  0.29120235239E+03  0.00000000000E+00 0. -1.
         -2    1    6    6    0  503  0.20243210223E+03  0.12958442040E+03 -0.13552745225E+03  0.27593218069E+03  0.00000000000E+00 0.  1.
<mgrwt>
<rscale>  0 0.11429109E+04</rscale>
<asrwt>0</asrwt>
<pdfrwt beam="1">  1        2 0.61991512E-01 0.11429109E+04</pdfrwt>
<pdfrwt beam="2">  1       -1 0.12468259E+00 0.11429109E+04</pdfrwt>
<totfact> 0.50359345E+01</totfact>
</mgrwt>
</event>
<event>
12    6  0.1403409E-007  0.1321367E+04  0.7818608E-02  0.9012791E-01
          2   -1    0    0  501    0  0.00000000000E+00  0.00000000000E+00  0.78987095287E+03  0.78987095287E+03  0.00000000000E+00 0. -1.
         -1   -1    0    0    0  501 -0.00000000000E+00 -0.00000000000E+00 -0.55262519206E+03  0.55262519206E+03  0.00000000000E+00 0.  1.
         24    2    1    2    0    0 -0.10611771209E+03 -0.33002061834E+03  0.96784956524E+02  0.36815977900E+03  0.77457844746E+02 0.  0.
        254    2    1    2    0    0  0.10611771209E+03  0.33002061834E+03  0.14046080429E+03  0.97433636593E+03  0.89968190994E+03 0.  0.
         23    2    4    4    0    0 -0.26673079925E+03  0.40265661697E+03  0.27281747517E+03  0.56202162602E+03  0.90339708311E+02 0.  0.
         23    2    4    4    0    0  0.37284851134E+03 -0.72635998630E+02 -0.13235667088E+03  0.41231473991E+03  0.90516052263E+02 0.  0.
          2    1    3    3  502    0 -0.80400112756E+02 -0.27814024021E+03  0.10830236512E+03  0.30912064577E+03  0.00000000000E+00 0. -1.
         -1    1    3    3    0  502 -0.25717599332E+02 -0.51880378138E+02 -0.11517408598E+02  0.59039133225E+02  0.00000000000E+00 0.  1.
         11    1    5    5    0    0 -0.63138242573E+02  0.42122833675E+02  0.27327292522E+02  0.80669397596E+02  0.00000000000E+00 0. -1.
        -11    1    5    5    0    0 -0.20359255667E+03  0.36053378330E+03  0.24549018265E+03  0.48135222843E+03  0.00000000000E+00 0.  1.
          4    1    6    6  503    0  0.31634906845E+03 -0.64533278568E+02 -0.75131758160E+02  0.33149066086E+03  0.00000000000E+00 0.  1.
         -4    1    6    6    0  503  0.56499442885E+02 -0.81027200622E+01 -0.57224912716E+02  0.80824079049E+02  0.00000000000E+00 0. -1.
<mgrwt>
<rscale>  0 0.13213668E+04</rscale>
<asrwt>0</asrwt>
<pdfrwt beam="1">  1        2 0.12151861E+00 0.13213668E+04</pdfrwt>
<pdfrwt beam="2">  1       -1 0.85019260E-01 0.13213668E+04</pdfrwt>
<totfact> 0.53597306E+01</totfact>
</mgrwt>
</event>
<event>
12    6  0.1403409E-007  0.3343707E+04  0.7818608E-02  0.8151862E-01
         -1   -1    0    0    0  501 -0.00000000000E+00  0.00000000000E+00  0.88226531682E+03  0.88226531682E+03  0.00000000000E+00 0.  1.
          2   -1    0    0  501    0  0.00000000000E+00 -0.00000000000E+00 -0.31680884504E+04  0.31680884504E+04  0.00000000000E+00 0. -1.
         24    2    1    2    0    0 -0.85646586538E+03 -0.84111157041E+03  0.12626170608E+03  0.12097227825E+04  0.80527880931E+02 0.  0.
        254    2    1    2    0    0  0.85646586538E+03  0.84111157041E+03 -0.24120848396E+04  0.28406309847E+04  0.90001592501E+03 0.  0.
         23    2    4    4    0    0  0.13560442223E+03  0.84501292047E+02 -0.12938357085E+04  0.13067076225E+04  0.89134406586E+02 0.  0.
         23    2    4    4    0    0  0.72086144316E+03  0.75661027836E+03 -0.11182491311E+04  0.15339233622E+04  0.10168297927E+03 0.  0.
          4    1    3    3  502    0 -0.35177955457E+03 -0.35405737241E+03  0.13109561682E+02  0.49927681559E+03  0.00000000000E+00 0. -1.
         -3    1    3    3    0  502 -0.50468631081E+03 -0.48705419800E+03  0.11315214440E+03  0.71044596690E+03  0.00000000000E+00 0.  1.
         11    1    5    5    0    0  0.13659948662E+03  0.46024178929E+02 -0.10515865483E+04  0.10614197630E+04  0.00000000000E+00 0. -1.
        -11    1    5    5    0    0 -0.99506439057E+00  0.38477113118E+02 -0.24224916024E+03  0.24528785952E+03  0.00000000000E+00 0.  1.
          1    1    6    6  503    0  0.69632154966E+03  0.70678886290E+03 -0.10341089521E+04  0.14331069472E+04  0.00000000000E+00 0. -1.
         -1    1    6    6    0  503  0.24539893496E+02  0.49821415465E+02 -0.84140178970E+02  0.10081641498E+03  0.00000000000E+00 0.  1.
<mgrwt>
<rscale>  0 0.33437073E+04</rscale>
<asrwt>0</asrwt>
<pdfrwt beam="1">  1        2 0.48739823E+00 0.33437073E+04</pdfrwt>
<pdfrwt beam="2">  1       -1 0.13573312E+00 0.33437073E+04</pdfrwt>
<totfact> 0.58344322E-01</totfact>
</mgrwt>
</event>
<event>
12    6  0.1403409E-007  0.1339733E+04  0.7818608E-02  0.8998637E-01
         -3   -1    0    0    0  501 -0.00000000000E+00  0.00000000000E+00  0.11103053421E+03  0.11103053421E+03  0.00000000000E+00 0.  1.
          2   -1    0    0  501    0  0.00000000000E+00 -0.00000000000E+00 -0.40414187343E+04  0.40414187343E+04  0.00000000000E+00 0. -1.
         24    2    1    2    0    0  0.20192652728E+03 -0.29773694527E+03 -0.11906451502E+04  0.12463635063E+04  0.79777848801E+02 0.  0.
        254    2    1    2    0    0 -0.20192652728E+03  0.29773694527E+03 -0.27397430499E+04  0.29060857622E+04  0.89984491266E+03 0.  0.
         23    2    4    4    0    0 -0.85991699940E+02  0.15244103154E+03 -0.45904795276E+02  0.20435009879E+03  0.94967742382E+02 0.  0.
         23    2    4    4    0    0 -0.11593482734E+03  0.14529591373E+03 -0.26938382546E+04  0.27017356634E+04  0.89773415669E+02 0.  0.
          2    1    3    3  502    0  0.91527155223E+02 -0.12532873908E+03 -0.64959662103E+03  0.66787744613E+03  0.00000000000E+00 0. -1.
         -1    1    3    3    0  502  0.11039937206E+03 -0.17240820619E+03 -0.54104852915E+03  0.57848606017E+03  0.00000000000E+00 0.  1.
         11    1    5    5    0    0 -0.32410369619E+02  0.10149339546E+03 -0.68947670314E+02  0.12690595976E+03  0.00000000000E+00 0. -1.
        -11    1    5    5    0    0 -0.53581330321E+02  0.50947636079E+02  0.23042875038E+02  0.77444139035E+02  0.00000000000E+00 0.  1.
          2    1    6    6  503    0 -0.92411954848E+02  0.55871039398E+02 -0.17668581290E+04  0.17701551317E+04  0.00000000000E+00 0. -1.
         -2    1    6    6    0  503 -0.23522872492E+02  0.89424874336E+02 -0.92698012562E+03  0.93158053167E+03  0.00000000000E+00 0.  1.
<mgrwt>
<rscale>  0 0.13397326E+04</rscale>
<asrwt>0</asrwt>
<pdfrwt beam="1">  1        2 0.62175668E+00 0.13397326E+04</pdfrwt>
<pdfrwt beam="2">  1       -3 0.17081622E-01 0.13397326E+04</pdfrwt>
<totfact> 0.63862144E+00</totfact>
</mgrwt>
</event>
<event>
12    6  0.1403409E-007  0.2566592E+04  0.7818608E-02  0.8379639E-01
          2   -1    0    0  501    0  0.00000000000E+00  0.00000000000E+00  0.17211683600E+04  0.17211683600E+04  0.00000000000E+00 0. -1.
         -1   -1    0    0    0  501 -0.00000000000E+00 -0.00000000000E+00 -0.95681988423E+03  0.95681988423E+03  0.00000000000E+00 0.  1.
         24    2    1    2    0    0 -0.96856137164E+03  0.85334193066E+02 -0.25378538816E+03  0.10081512274E+04  0.81048250521E+02 0.  0.
        254    2    1    2    0    0  0.96856137164E+03 -0.85334193066E+02  0.10181338639E+04  0.16698370168E+04  0.89797886543E+03 0.  0.
         23    2    4    4    0    0  0.52309477057E+03  0.32439497650E+03  0.21120651798E+03  0.65722502460E+03  0.92066823216E+02 0.  0.
         23    2    4    4    0    0  0.44546660106E+03 -0.40972916957E+03  0.80692734591E+03  0.10126119922E+04  0.89066380473E+02 0.  0.
          2    1    3    3  502    0 -0.37031111277E+03  0.37144093528E+02 -0.56892423131E+02  0.37649269811E+03  0.00000000000E+00 0. -1.
         -1    1    3    3    0  502 -0.59825025887E+03  0.48190099537E+02 -0.19689296503E+03  0.63165852928E+03  0.00000000000E+00 0.  1.
         11    1    5    5    0    0  0.17900092447E+03  0.13662409429E+03  0.36744005595E+02  0.22816133776E+03  0.00000000000E+00 0. -1.
        -11    1    5    5    0    0  0.34409384611E+03  0.18777088221E+03  0.17446251238E+03  0.42906368684E+03  0.00000000000E+00 0.  1.
          1    1    6    6  503    0  0.25442981733E+03 -0.23036088796E+03  0.38350605011E+03  0.51466257015E+03  0.00000000000E+00 0. -1.
         -1    1    6    6    0  503  0.19103678373E+03 -0.17936828161E+03  0.42342129580E+03  0.49794942206E+03  0.00000000000E+00 0.  1.
<mgrwt>
<rscale>  0 0.25665916E+04</rscale>
<asrwt>0</asrwt>
<pdfrwt beam="1">  1        2 0.26479513E+00 0.25665916E+04</pdfrwt>
<pdfrwt beam="2">  1       -1 0.14720306E+00 0.25665916E+04</pdfrwt>
<totfact> 0.35372547E+00</totfact>
</mgrwt>
</event>
<event>
12    6  0.1403409E-007  0.1623067E+04  0.7818608E-02  0.8806501E-01
          2   -1    0    0  501    0  0.00000000000E+00  0.00000000000E+00  0.73801830513E+03  0.73801830513E+03  0.00000000000E+00 0. -1.
         -1   -1    0    0    0  501 -0.00000000000E+00 -0.00000000000E+00 -0.89237191563E+03  0.89237191563E+03  0.00000000000E+00 0.  1.
         24    2    1    2    0    0 -0.54257324217E+03 -0.15869909411E+02  0.77532829047E+02  0.55410056791E+03  0.79865653662E+02 0.  0.
        254    2    1    2    0    0  0.54257324217E+03  0.15869909411E+02 -0.23188643955E+03  0.10762896528E+04  0.89999473266E+03 0.  0.
         23    2    4    4    0    0 -0.16835606619E+03  0.17870261057E+03  0.84683286519E+02  0.27604646927E+03  0.93552157299E+02 0.  0.
         23    2    4    4    0    0  0.71092930837E+03 -0.16283270115E+03 -0.31656972607E+03  0.80024318357E+03  0.90762279190E+02 0.  0.
          2    1    3    3  502    0 -0.75099766188E+02 -0.29987695762E+02  0.15137208006E+02  0.82270115138E+02  0.00000000000E+00 0. -1.
         -1    1    3    3    0  502 -0.46747347599E+03  0.14117786351E+02  0.62395621042E+02  0.47183045278E+03  0.00000000000E+00 0.  1.
         11    1    5    5    0    0 -0.87977093314E+00  0.39553015202E+01  0.26897349757E+02  0.27200842467E+02  0.00000000000E+00 0. -1.
        -11    1    5    5    0    0 -0.16747629526E+03  0.17474730905E+03  0.57785936762E+02  0.24884562681E+03  0.00000000000E+00 0.  1.
          1    1    6    6  503    0  0.24905628855E+03 -0.58335348267E+02 -0.15892157239E+03  0.30114467270E+03  0.00000000000E+00 0. -1.
         -1    1    6    6    0  503  0.46187301981E+03 -0.10449735289E+03 -0.15764815368E+03  0.49909851087E+03  0.00000000000E+00 0.  1.
<mgrwt>
<rscale>  0 0.16230672E+04</rscale>
<asrwt>0</asrwt>
<pdfrwt beam="1">  1        2 0.11354128E+00 0.16230672E+04</pdfrwt>
<pdfrwt beam="2">  1       -1 0.13728799E+00 0.16230672E+04</pdfrwt>
<totfact> 0.18464931E+01</totfact>
</mgrwt>
</event>
<event>
12    6  0.1403409E-007  0.4308680E+04  0.7818608E-02  0.7945015E-01
         -1   -1    0    0    0  501 -0.00000000000E+00  0.00000000000E+00  0.30759279670E+04  0.30759279670E+04  0.00000000000E+00 0.  1.
          2   -1    0    0  501    0  0.00000000000E+00 -0.00000000000E+00 -0.15088716190E+04  0.15088716190E+04  0.00000000000E+00 0. -1.
         24    2    1    2    0    0 -0.14409350038E+04 -0.12619047000E+04 -0.55819811230E+02  0.19179606930E+04  0.82220505677E+02 0.  0.
        254    2    1    2    0    0  0.14409350038E+04  0.12619047000E+04  0.16228761592E+04  0.26668388930E+04  0.89978080444E+03 0.  0.
         23    2    4    4    0    0  0.57641035222E+03  0.63562203404E+03  0.20009371065E+03  0.88577341892E+03  0.91064769945E+02 0.  0.
         23    2    4    4    0    0  0.86452465162E+03  0.62628266598E+03  0.14227824486E+04  0.17810654741E+04  0.90837636306E+02 0.  0.
          2    1    3    3  502    0 -0.46200766357E+03 -0.39531746211E+03 -0.55388099821E+02  0.61056925787E+03  0.00000000000E+00 0. -1.
         -1    1    3    3    0  502 -0.97892734027E+03 -0.86658723790E+03 -0.43171140890E+00  0.13073914352E+04  0.00000000000E+00 0.  1.
         11    1    5    5    0    0  0.16617420394E+03  0.16701578555E+03  0.15146053303E+02  0.23608799547E+03  0.00000000000E+00 0. -1.
        -11    1    5    5    0    0  0.41023614828E+03  0.46860624849E+03  0.18494765735E+03  0.64968542345E+03  0.00000000000E+00 0.  1.
          3    1    6    6  503    0  0.63659600069E+02  0.23716136802E+02  0.11259027929E+03  0.13149741753E+03  0.00000000000E+00 0. -1.
         -3    1    6    6    0  503  0.80086505155E+03  0.60256652917E+03  0.13101921693E+04  0.16495680566E+04  0.00000000000E+00 0.  1.
<mgrwt>
<rscale>  0 0.43086798E+04</rscale>
<asrwt>0</asrwt>
<pdfrwt beam="1">  1        2 0.23213409E+00 0.43086798E+04</pdfrwt>
<pdfrwt beam="2">  1       -1 0.47321969E+00 0.43086798E+04</pdfrwt>
<totfact> 0.24719271E-02</totfact>
</mgrwt>
</event>
<event>
12    6  0.1403409E-007  0.1609992E+04  0.7818608E-02  0.8814433E-01
          2   -1    0    0  501    0  0.00000000000E+00  0.00000000000E+00  0.15800841793E+04  0.15800841793E+04  0.00000000000E+00 0. -1.
         -1   -1    0    0    0  501 -0.00000000000E+00 -0.00000000000E+00 -0.41011662227E+03  0.41011662227E+03  0.00000000000E+00 0.  1.
         24    2    1    2    0    0  0.25164797585E+03 -0.28810783298E+03 -0.87990615474E+02  0.40050450491E+03  0.79553019191E+02 0.  0.
        254    2    1    2    0    0 -0.25164797585E+03  0.28810783298E+03  0.12579581725E+04  0.15896962966E+04  0.89350026561E+03 0.  0.
         23    2    4    4    0    0 -0.31200001694E+03 -0.35111280275E+02  0.12006257943E+04  0.12438835877E+04  0.84659725788E+02 0.  0.
         23    2    4    4    0    0  0.60352041089E+02  0.32321911326E+03  0.57332378173E+02  0.34581270895E+03  0.90479080719E+02 0.  0.
          2    1    3    3  502    0  0.19852040156E+03 -0.22292796622E+03 -0.33681801137E+02  0.30040254940E+03  0.00000000000E+00 0. -1.
         -1    1    3    3    0  502  0.53127574290E+02 -0.65179866766E+02 -0.54308814337E+02  0.10010195551E+03  0.00000000000E+00 0.  1.
         11    1    5    5    0    0 -0.15449395780E+03 -0.16325341295E+02  0.75634817274E+03  0.77213823773E+03  0.00000000000E+00 0. -1.
        -11    1    5    5    0    0 -0.15750605915E+03 -0.18785938980E+02  0.44427762158E+03  0.47174534996E+03  0.00000000000E+00 0.  1.
          3    1    6    6  503    0  0.41983916869E+02  0.15657265407E+03 -0.15857902923E+02  0.16287761775E+03  0.00000000000E+00 0. -1.
         -3    1    6    6    0  503  0.18368124220E+02  0.16664645918E+03  0.73190281096E+02  0.18293509120E+03  0.00000000000E+00 0.  1.
<mgrwt>
<rscale>  0 0.16099923E+04</rscale>
<asrwt>0</asrwt>
<pdfrwt beam="1">  1        2 0.24308987E+00 0.16099923E+04</pdfrwt>
<pdfrwt beam="2">  1       -1 0.63094866E-01 0.16099923E+04</pdfrwt>
<totfact> 0.31825235E+01</totfact>
</mgrwt>
</event>
<event>
12    6  0.1403409E-007  0.1333229E+04  0.7818608E-02  0.9003621E-01
          2   -1    0    0  501    0  0.00000000000E+00  0.00000000000E+00  0.34320499384E+03  0.34320499384E+03  0.00000000000E+00 0. -1.
         -1   -1    0    0    0  501 -0.00000000000E+00 -0.00000000000E+00 -0.12947802249E+04  0.12947802249E+04  0.00000000000E+00 0.  1.
         24    2    1    2    0    0 -0.13805288500E+03 -0.15704412218E+03 -0.61691678018E+03  0.65625352476E+03  0.79755374301E+02 0.  0.
        254    2    1    2    0    0  0.13805288500E+03  0.15704412218E+03 -0.33465845089E+03  0.98173169398E+03  0.89893235833E+03 0.  0.
         23    2    4    4    0    0  0.76024035021E+02 -0.35540002160E+03 -0.25011167636E+03  0.45075061766E+03  0.92365791404E+02 0.  0.
         23    2    4    4    0    0  0.62028849983E+02  0.51244414377E+03 -0.84546774533E+02  0.53098107632E+03  0.91357362089E+02 0.  0.
          2    1    3    3  502    0 -0.46800448424E+02 -0.16403096705E+02 -0.83557322942E+02  0.97165682066E+02  0.00000000000E+00 0. -1.
         -1    1    3    3    0  502 -0.91252436580E+02 -0.14064102547E+03 -0.53335945723E+03  0.55908784269E+03  0.00000000000E+00 0.  1.
         11    1    5    5    0    0  0.41114798409E+02 -0.27243127774E+03 -0.14163154465E+03  0.30978818922E+03  0.00000000000E+00 0. -1.
        -11    1    5    5    0    0  0.34909236611E+02 -0.82968743859E+02 -0.10848013171E+03  0.14096242845E+03  0.00000000000E+00 0.  1.
          3    1    6    6  503    0  0.79546613378E+02  0.31192559124E+03 -0.68058241614E+02  0.32902456203E+03  0.00000000000E+00 0. -1.
         -3    1    6    6    0  503 -0.17517763395E+02  0.20051855253E+03 -0.16488532920E+02  0.20195651429E+03  0.00000000000E+00 0.  1.
<mgrwt>
<rscale>  0 0.13332292E+04</rscale>
<asrwt>0</asrwt>
<pdfrwt beam="1">  1        2 0.52800769E-01 0.13332292E+04</pdfrwt>
<pdfrwt beam="2">  1       -1 0.19919695E+00 0.13332292E+04</pdfrwt>
<totfact> 0.16123292E+01</totfact>
</mgrwt>
</event>
<event>
12    6  0.1403409E-007  0.1350365E+04  0.7818608E-02  0.8990552E-01
         -1   -1    0    0    0  501 -0.00000000000E+00  0.00000000000E+00  0.21682623644E+03  0.21682623644E+03  0.00000000000E+00 0.  1.
          2   -1    0    0  501    0  0.00000000000E+00 -0.00000000000E+00 -0.21024726306E+04  0.21024726306E+04  0.00000000000E+00 0. -1.
         24    2    1    2    0    0  0.16788164683E+03 -0.32622810556E+03 -0.44381921949E+03  0.58109083469E+03  0.77987398826E+02 0.  0.
        254    2    1    2    0    0 -0.16788164683E+03  0.32622810556E+03 -0.14418271747E+04  0.17382080324E+04  0.89882842517E+03 0.  0.
         23    2    4    4    0    0 -0.95412115684E+02  0.42672070419E+03 -0.15075981029E+04  0.15723736490E+04  0.91174673532E+02 0.  0.
         23    2    4    4    0    0 -0.72469531147E+02 -0.10049259864E+03  0.65770928170E+02  0.16583438337E+03  0.88456952181E+02 0.  0.
          4    1    3    3  502    0  0.16598847783E+03 -0.32514850359E+03 -0.44706358373E+03  0.57718244261E+03  0.00000000000E+00 0. -1.
         -3    1    3    3    0  502  0.18931689989E+01 -0.10796019693E+01  0.32443642463E+01  0.39083920777E+01  0.00000000000E+00 0.  1.
         11    1    5    5    0    0 -0.71347429260E+02  0.17123441163E+03 -0.74539922872E+03  0.76813520266E+03  0.00000000000E+00 0.  1.
        -11    1    5    5    0    0 -0.24064686424E+02  0.25548629256E+03 -0.76219887414E+03  0.80423844633E+03  0.00000000000E+00 0. -1.
          2    1    6    6  503    0 -0.30092944244E+02 -0.10474991142E+03  0.40239819751E+02  0.11617819214E+03  0.00000000000E+00 0. -1.
         -2    1    6    6    0  503 -0.42376586903E+02  0.42573127855E+01  0.25531108419E+02  0.49656191224E+02  0.00000000000E+00 0.  1.
<mgrwt>
<rscale>  0 0.13503647E+04</rscale>
<asrwt>0</asrwt>
<pdfrwt beam="1">  1        2 0.32345733E+00 0.13503647E+04</pdfrwt>
<pdfrwt beam="2">  1       -1 0.33357882E-01 0.13503647E+04</pdfrwt>
<totfact> 0.55176238E+01</totfact>
</mgrwt>
</event>
<event>
12    6  0.1403409E-007  0.1853142E+04  0.7818608E-02  0.8678539E-01
          2   -1    0    0  501    0  0.00000000000E+00  0.00000000000E+00  0.15668710989E+04  0.15668710989E+04  0.00000000000E+00 0. -1.
         -1   -1    0    0    0  501 -0.00000000000E+00 -0.00000000000E+00 -0.54792867702E+03  0.54792867702E+03  0.00000000000E+00 0.  1.
         24    2    1    2    0    0  0.69757148187E+03 -0.29398048791E+01  0.26733017806E+03  0.75128548142E+03  0.79685856509E+02 0.  0.
        254    2    1    2    0    0 -0.69757148187E+03  0.29398048791E+01  0.75161224386E+03  0.13635142945E+04  0.89868551315E+03 0.  0.
         23    2    4    4    0    0 -0.41339192907E+02 -0.26384945986E+02 -0.18701878205E+03  0.21421411866E+03  0.92231066054E+02 0.  0.
         23    2    4    4    0    0 -0.65623228896E+03  0.29324750865E+02  0.93863102592E+03  0.11493001759E+04  0.91443607823E+02 0.  0.
          2    1    3    3  502    0  0.39114565813E+03 -0.33550279074E+02  0.17475468058E+03  0.42972054348E+03  0.00000000000E+00 0. -1.
         -1    1    3    3    0  502  0.30642582373E+03  0.30610474195E+02  0.92575497477E+02  0.32156493794E+03  0.00000000000E+00 0.  1.
         11    1    5    5    0    0 -0.62548860980E+02  0.26517670442E+01 -0.81716016440E+02  0.10294124160E+03  0.00000000000E+00 0. -1.
        -11    1    5    5    0    0  0.21209668073E+02 -0.29036713030E+02 -0.10530276561E+03  0.11127287706E+03  0.00000000000E+00 0.  1.
          2    1    6    6  503    0 -0.30183022136E+03 -0.28896097665E+02  0.45890921346E+03  0.55003102929E+03  0.00000000000E+00 0. -1.
         -2    1    6    6    0  503 -0.35440206760E+03  0.58220848529E+02  0.47972181246E+03  0.59926914660E+03  0.00000000000E+00 0.  1.
<mgrwt>
<rscale>  0 0.18531418E+04</rscale>
<asrwt>0</asrwt>
<pdfrwt beam="1">  1        2 0.24105709E+00 0.18531418E+04</pdfrwt>
<pdfrwt beam="2">  1       -1 0.84296720E-01 0.18531418E+04</pdfrwt>
<totfact> 0.17377008E+01</totfact>
</mgrwt>
</event>
<event>
12    6  0.1403409E-007  0.1999305E+04  0.7818608E-02  0.8606946E-01
         -1   -1    0    0    0  501 -0.00000000000E+00  0.00000000000E+00  0.17907996876E+04  0.17907996876E+04  0.00000000000E+00 0.  1.
          2   -1    0    0  501    0  0.00000000000E+00 -0.00000000000E+00 -0.55802164309E+03  0.55802164309E+03  0.00000000000E+00 0. -1.
         24    2    1    2    0    0  0.37762861992E+03  0.48154781528E+03 -0.82731968375E+02  0.62678471218E+03  0.10734441693E+03 0.  0.
        254    2    1    2    0    0 -0.37762861992E+03 -0.48154781528E+03  0.13155100129E+04  0.17220366185E+04  0.92755153416E+03 0.  0.
         23    2    4    4    0    0  0.28720580289E+03 -0.35966163570E+02  0.30158291017E+03  0.42714888771E+03  0.87881638728E+02 0.  0.
         23    2    4    4    0    0 -0.66483442281E+03 -0.44558165171E+03  0.10139271027E+04  0.12948877308E+04  0.90212236948E+02 0.  0.
          4    1    3    3  502    0  0.21856995308E+03  0.33336392511E+03 -0.92339298826E+02  0.40918318277E+03  0.00000000000E+00 0. -1.
         -3    1    3    3    0  502  0.15905866684E+03  0.14818389017E+03  0.96073304505E+01  0.21760152941E+03  0.00000000000E+00 0.  1.
         11    1    5    5    0    0  0.17996723536E+03 -0.49257713123E+02  0.14223684757E+03  0.23461851784E+03  0.00000000000E+00 0.  1.
        -11    1    5    5    0    0  0.10723856753E+03  0.13291549553E+02  0.15934606260E+03  0.19253036987E+03  0.00000000000E+00 0. -1.
          2    1    6    6  503    0 -0.60971985492E+03 -0.39407596071E+03  0.87647192161E+03  0.11380936665E+04  0.00000000000E+00 0. -1.
         -2    1    6    6    0  503 -0.55114567893E+02 -0.51505690995E+02  0.13745518113E+03  0.15679406436E+03  0.00000000000E+00 0.  1.
<mgrwt>
<rscale>  0 0.19993049E+04</rscale>
<asrwt>0</asrwt>
<pdfrwt beam="1">  1        2 0.85849485E-01 0.19993049E+04</pdfrwt>
<pdfrwt beam="2">  1       -1 0.27550764E+00 0.19993049E+04</pdfrwt>
<totfact> 0.27335265E+00</totfact>
</mgrwt>
</event>
<event>
12    6  0.1403409E-007  0.1421609E+04  0.7818608E-02  0.8938324E-01
         -1   -1    0    0    0  501 -0.00000000000E+00  0.00000000000E+00  0.18150786481E+04  0.18150786481E+04  0.00000000000E+00 0.  1.
          2   -1    0    0  501    0  0.00000000000E+00 -0.00000000000E+00 -0.27835858845E+03  0.27835858845E+03  0.00000000000E+00 0. -1.
         24    2    1    2    0    0  0.38854502865E+03 -0.40462012418E+02  0.24573523925E+03  0.47166487959E+03  0.97352642949E+02 0.  0.
        254    2    1    2    0    0 -0.38854502865E+03  0.40462012418E+02  0.12909848204E+04  0.16217723570E+04  0.90049950449E+03 0.  0.
         23    2    4    4    0    0 -0.22201193989E+03 -0.20030104236E+03  0.18925354038E+02  0.31349132847E+03  0.92243346520E+02 0.  0.
         23    2    4    4    0    0 -0.16653308876E+03  0.24076305478E+03  0.12720594663E+04  0.13082810285E+04  0.88112685684E+02 0.  0.
          4    1    3    3  502    0  0.16464959213E+03  0.48194893458E-01  0.51535599019E+02  0.17252654427E+03  0.00000000000E+00 0. -1.
         -3    1    3    3    0  502  0.22389543652E+03 -0.40510207312E+02  0.19419964023E+03  0.29913833532E+03  0.00000000000E+00 0.  1.
         11    1    5    5    0    0 -0.77960765112E+01 -0.23697697107E+02  0.25651484286E+02  0.35782094730E+02  0.00000000000E+00 0. -1.
        -11    1    5    5    0    0 -0.21421586338E+03 -0.17660334525E+03 -0.67261302479E+01  0.27770923374E+03  0.00000000000E+00 0.  1.
          4    1    6    6  503    0 -0.18471418257E+02 -0.51488016062E+00  0.39180000813E+02  0.43318943405E+02  0.00000000000E+00 0. -1.
         -4    1    6    6    0  503 -0.14806167050E+03  0.24127793494E+03  0.12328794655E+04  0.12649620851E+04  0.00000000000E+00 0.  1.
<mgrwt>
<rscale>  0 0.14216086E+04</rscale>
<asrwt>0</asrwt>
<pdfrwt beam="1">  1        2 0.42824399E-01 0.14216086E+04</pdfrwt>
<pdfrwt beam="2">  1       -1 0.27924286E+00 0.14216086E+04</pdfrwt>
<totfact> 0.59939671E+00</totfact>
</mgrwt>
</event>
<event>
12    6  0.1403409E-007  0.1097721E+04  0.7818608E-02  0.9207416E-01
          2   -1    0    0  501    0  0.00000000000E+00  0.00000000000E+00  0.12653704367E+04  0.12653704367E+04  0.00000000000E+00 0. -1.
         -1   -1    0    0    0  501 -0.00000000000E+00 -0.00000000000E+00 -0.23807091947E+03  0.23807091947E+03  0.00000000000E+00 0.  1.
         24    2    1    2    0    0  0.92759709773E+02  0.13117449439E+03  0.21692790598E+03  0.28158324007E+03  0.80126730647E+02 0.  0.
        254    2    1    2    0    0 -0.92759709773E+02 -0.13117449439E+03  0.81037161124E+03  0.12218581161E+04  0.90023552241E+03 0.  0.
         23    2    4    4    0    0 -0.13662948658E+03 -0.47533472280E+03  0.66232754147E+03  0.83154253956E+03  0.90412983653E+02 0.  0.
         23    2    4    4    0    0  0.43869776805E+02  0.34416022841E+03  0.14804406978E+03  0.39031557653E+03  0.10029148790E+03 0.  0.
          2    1    3    3  502    0  0.14549216360E+02  0.66816897265E+02  0.13492105000E+03  0.15126092420E+03  0.00000000000E+00 0. -1.
         -1    1    3    3    0  502  0.78210493413E+02  0.64357597122E+02  0.82006855974E+02  0.13032231587E+03  0.00000000000E+00 0.  1.
         11    1    5    5    0    0 -0.69058386687E+02 -0.15333285526E+03  0.28500341587E+03  0.33091837714E+03  0.00000000000E+00 0. -1.
        -11    1    5    5    0    0 -0.67571099891E+02 -0.32200186754E+03  0.37732412560E+03  0.50062416242E+03  0.00000000000E+00 0.  1.
          3    1    6    6  503    0  0.45834509519E+02  0.14727514198E+03  0.20207016414E+02  0.15556057733E+03  0.00000000000E+00 0. -1.
         -3    1    6    6    0  503 -0.19647327138E+01  0.19688508644E+03  0.12783705336E+03  0.23475499920E+03  0.00000000000E+00 0.  1.
<mgrwt>
<rscale>  0 0.10977211E+04</rscale>
<asrwt>0</asrwt>
<pdfrwt beam="1">  1        2 0.19467237E+00 0.10977211E+04</pdfrwt>
<pdfrwt beam="2">  1       -1 0.36626296E-01 0.10977211E+04</pdfrwt>
<totfact> 0.14004815E+02</totfact>
</mgrwt>
</event>
<event>
12    6  0.1403409E-007  0.2736001E+04  0.7818608E-02  0.8323417E-01
         -1   -1    0    0    0  501 -0.00000000000E+00  0.00000000000E+00  0.11260449795E+04  0.11260449795E+04  0.00000000000E+00 0.  1.
          2   -1    0    0  501    0  0.00000000000E+00 -0.00000000000E+00 -0.16619459623E+04  0.16619459623E+04  0.00000000000E+00 0. -1.
         24    2    1    2    0    0 -0.36366038500E+03 -0.11288389730E+04 -0.52393319578E+03  0.12990894157E+04  0.81246623047E+02 0.  0.
        254    2    1    2    0    0  0.36366038500E+03  0.11288389730E+04 -0.11967786974E+02  0.14889015261E+04  0.90008789795E+03 0.  0.
         23    2    4    4    0    0  0.40067587135E+03  0.73122863380E+02 -0.83591398909E+02  0.42607601795E+03  0.93086755617E+02 0.  0.
         23    2    4    4    0    0 -0.37015486344E+02  0.10557161096E+04  0.71623611935E+02  0.10628255082E+04  0.92528205106E+02 0.  0.
          4    1    3    3  502    0 -0.59259548878E+02 -0.10617619062E+03 -0.59942397808E+02  0.13556610432E+03  0.00000000000E+00 0. -1.
         -3    1    3    3    0  502 -0.30440083612E+03 -0.10226627824E+04 -0.46399079797E+03  0.11635233114E+04  0.00000000000E+00 0.  1.
         11    1    5    5    0    0  0.28987389155E+03  0.93066306217E+02 -0.72407476749E+02  0.31293937599E+03  0.00000000000E+00 0. -1.
        -11    1    5    5    0    0  0.11080197980E+03 -0.19943442837E+02 -0.11183922160E+02  0.11313664196E+03  0.00000000000E+00 0.  1.
          3    1    6    6  503    0 -0.40186498051E+02  0.21979027597E+03  0.34388457890E+02  0.22606478291E+03  0.00000000000E+00 0. -1.
         -3    1    6    6    0  503  0.31710117072E+01  0.83592583365E+03  0.37235154045E+02  0.83676072528E+03  0.00000000000E+00 0.  1.
<mgrwt>
<rscale>  0 0.27360014E+04</rscale>
<asrwt>0</asrwt>
<pdfrwt beam="1">  1        2 0.25568399E+00 0.27360014E+04</pdfrwt>
<pdfrwt beam="2">  1       -1 0.17323769E+00 0.27360014E+04</pdfrwt>
<totfact> 0.23892344E+00</totfact>
</mgrwt>
</event>
<event>
12    6  0.1403409E-007  0.1953113E+04  0.7818608E-02  0.8628861E-01
          2   -1    0    0  501    0  0.00000000000E+00  0.00000000000E+00  0.19987275175E+04  0.19987275175E+04  0.00000000000E+00 0. -1.
         -1   -1    0    0    0  501 -0.00000000000E+00 -0.00000000000E+00 -0.47713477094E+03  0.47713477094E+03  0.00000000000E+00 0.  1.
         24    2    1    2    0    0 -0.63108452696E+03 -0.21561600164E+03  0.12083016161E+03  0.68251670148E+03  0.80443641849E+02 0.  0.
        254    2    1    2    0    0  0.63108452696E+03  0.21561600164E+03  0.14007625849E+04  0.17933455870E+04  0.89955246347E+03 0.  0.
         23    2    4    4    0    0  0.66551277274E+03 -0.19136969197E+03  0.93726253664E+03  0.11689322919E+04  0.91717124253E+02 0.  0.
         23    2    4    4    0    0 -0.34428245779E+02  0.40698569361E+03  0.46350004831E+03  0.62441329502E+03  0.90757970982E+02 0.  0.
          2    1    3    3  502    0 -0.30828101728E+03 -0.14349985391E+03  0.43283321329E+02  0.34278687197E+03  0.00000000000E+00 0. -1.
         -1    1    3    3    0  502 -0.32280350968E+03 -0.72116147739E+02  0.77546840284E+02  0.33972982951E+03  0.00000000000E+00 0.  1.
         11    1    5    5    0    0  0.46671448140E+03 -0.17718837838E+03  0.66743724324E+03  0.83348101493E+03  0.00000000000E+00 0.  1.
        -11    1    5    5    0    0  0.19879829134E+03 -0.14181313589E+02  0.26982529340E+03  0.33545127702E+03  0.00000000000E+00 0. -1.
          2    1    6    6  503    0 -0.16188536467E+02  0.12315102992E+02  0.42161625799E+02  0.46811677653E+02  0.00000000000E+00 0. -1.
         -2    1    6    6    0  503 -0.18239709312E+02  0.39467059062E+03  0.42133842251E+03  0.57760161736E+03  0.00000000000E+00 0.  1.
<mgrwt>
<rscale>  0 0.19531128E+04</rscale>
<asrwt>0</asrwt>
<pdfrwt beam="1">  1        2 0.30749654E+00 0.19531128E+04</pdfrwt>
<pdfrwt beam="2">  1       -1 0.73405350E-01 0.19531128E+04</pdfrwt>
<totfact> 0.13287931E+01</totfact>
</mgrwt>
</event>
<event>
12    6  0.1403409E-007  0.2453211E+04  0.7818608E-02  0.8419847E-01
         -1   -1    0    0    0  501 -0.00000000000E+00  0.00000000000E+00  0.13049591424E+04  0.13049591424E+04  0.00000000000E+00 0.  1.
          2   -1    0    0  501    0  0.00000000000E+00 -0.00000000000E+00 -0.11529560429E+04  0.11529560429E+04  0.00000000000E+00 0. -1.
         24    2    1    2    0    0  0.52894942725E+03 -0.70582127535E+03 -0.52238647218E+03  0.10281833613E+04  0.79386578151E+02 0.  0.
        254    2    1    2    0    0 -0.52894942725E+03  0.70582127535E+03  0.67438957163E+03  0.14297318240E+04  0.90075558551E+03 0.  0.
         23    2    4    4    0    0 -0.23542830104E+03 -0.93503511328E+02 -0.86832087936E+02  0.28402391515E+03  0.94659290719E+02 0.  0.
         23    2    4    4    0    0 -0.29352112621E+03  0.79932478668E+03  0.76122165957E+03  0.11457079088E+04  0.90074586941E+02 0.  0.
          4    1    3    3  502    0  0.44108123930E+03 -0.60922357860E+03 -0.47339872729E+03  0.88871389287E+03  0.00000000000E+00 0. -1.
         -3    1    3    3    0  502  0.87868187947E+02 -0.96597696757E+02 -0.48987744887E+02  0.13946946842E+03  0.00000000000E+00 0.  1.
         11    1    5    5    0    0 -0.43310561405E+02 -0.61570784524E+02 -0.17390026136E+02  0.77260463661E+02  0.00000000000E+00 0. -1.
        -11    1    5    5    0    0 -0.19211773964E+03 -0.31932726803E+02 -0.69442061800E+02  0.20676345149E+03  0.00000000000E+00 0.  1.
          4    1    6    6  503    0 -0.26001242370E+03  0.64254948195E+03  0.58056306969E+03  0.90417353153E+03  0.00000000000E+00 0. -1.
         -4    1    6    6    0  503 -0.33508702505E+02  0.15677530473E+03  0.18065858988E+03  0.24153437730E+03  0.00000000000E+00 0.  1.
<mgrwt>
<rscale>  0 0.24532106E+04</rscale>
<asrwt>0</asrwt>
<pdfrwt beam="1">  1        2 0.17737785E+00 0.24532106E+04</pdfrwt>
<pdfrwt beam="2">  1       -1 0.20076295E+00 0.24532106E+04</pdfrwt>
<totfact> 0.30679912E+00</totfact>
</mgrwt>
</event>
<event>
12    6  0.1403409E-007  0.1434435E+04  0.7818608E-02  0.8929263E-01
          2   -1    0    0  501    0  0.00000000000E+00  0.00000000000E+00  0.48295366791E+03  0.48295366791E+03  0.00000000000E+00 0. -1.
         -3   -1    0    0    0  501 -0.00000000000E+00 -0.00000000000E+00 -0.10651143138E+04  0.10651143138E+04  0.00000000000E+00 0.  1.
         24    2    1    2    0    0 -0.40537770259E+03 -0.97391777919E+02 -0.65467475144E+02  0.42942754494E+03  0.79408978615E+02 0.  0.
        254    2    1    2    0    0  0.40537770259E+03  0.97391777919E+02 -0.51669317078E+03  0.11186404368E+04  0.90031569684E+03 0.  0.
         23    2    4    4    0    0 -0.25899817919E+03  0.10910179927E+03 -0.49367371275E+02  0.30114614485E+03  0.96273588202E+02 0.  0.
         23    2    4    4    0    0  0.66437588178E+03 -0.11710021353E+02 -0.46732579950E+03  0.81749429196E+03  0.91493593314E+02 0.  0.
          2    1    3    3  502    0 -0.19623110576E+03 -0.74648710698E+01 -0.21327373940E+02  0.19752779057E+03  0.00000000000E+00 0. -1.
         -1    1    3    3    0  502 -0.20914659683E+03 -0.89926906850E+02 -0.44140101203E+02  0.23189975436E+03  0.00000000000E+00 0.  1.
         11    1    5    5    0    0 -0.24578130065E+03  0.84574061423E+02 -0.20044595788E+02  0.26069715272E+03  0.00000000000E+00 0. -1.
        -11    1    5    5    0    0 -0.13216878536E+02  0.24527737850E+02 -0.29322775487E+02  0.40448992133E+02  0.00000000000E+00 0.  1.
          1    1    6    6  503    0  0.34069683094E+03  0.35843641212E+02 -0.21652541581E+03  0.40526824810E+03  0.00000000000E+00 0. -1.
         -1    1    6    6    0  503  0.32367905084E+03 -0.47553662565E+02 -0.25080038369E+03  0.41222604386E+03  0.00000000000E+00 0.  1.
<mgrwt>
<rscale>  0 0.14344349E+04</rscale>
<asrwt>0</asrwt>
<pdfrwt beam="1">  1        2 0.74300565E-01 0.14344349E+04</pdfrwt>
<pdfrwt beam="2">  1       -3 0.16386374E+00 0.14344349E+04</pdfrwt>
<totfact> 0.99626752E+00</totfact>
</mgrwt>
</event>
<event>
12    6  0.1403409E-007  0.1127083E+04  0.7818608E-02  0.9179190E-01
          2   -1    0    0  501    0  0.00000000000E+00  0.00000000000E+00  0.54852971842E+03  0.54852971842E+03  0.00000000000E+00 0. -1.
         -1   -1    0    0    0  501 -0.00000000000E+00 -0.00000000000E+00 -0.57896369818E+03  0.57896369818E+03  0.00000000000E+00 0.  1.
         24    2    1    2    0    0  0.15185296185E+03  0.36298103196E+02 -0.85599269397E+02  0.19491614589E+03  0.79298137999E+02 0.  0.
        254    2    1    2    0    0 -0.15185296185E+03 -0.36298103196E+02  0.55165289642E+02  0.93257727071E+03  0.91775829189E+03 0.  0.
         23    2    4    4    0    0 -0.11244622690E+03  0.32109344135E+03  0.31998884216E+03  0.47549934459E+03  0.89227885657E+02 0.  0.
         23    2    4    4    0    0 -0.39406734954E+02 -0.35739154454E+03 -0.26482355251E+03  0.45707792612E+03  0.97504408654E+02 0.  0.
          2    1    3    3  502    0  0.82097238029E+01  0.24510717117E+02  0.25435362879E+01  0.25973917598E+02  0.00000000000E+00 0. -1.
         -1    1    3    3    0  502  0.14364323805E+03  0.11787386079E+02 -0.88142805685E+02  0.16894222830E+03  0.00000000000E+00 0.  1.
         11    1    5    5    0    0 -0.87866594724E+02  0.22401874522E+03  0.27587093583E+03  0.36607336685E+03  0.00000000000E+00 0. -1.
        -11    1    5    5    0    0 -0.24579632172E+02  0.97074696126E+02  0.44117906324E+02  0.10942597774E+03  0.00000000000E+00 0.  1.
          2    1    6    6  503    0 -0.45884449536E+02 -0.10059195474E+03 -0.46462068790E+02  0.11992851164E+03  0.00000000000E+00 0.  1.
         -2    1    6    6    0  503  0.64777145816E+01 -0.25679958981E+03 -0.21836148372E+03  0.33714941448E+03  0.00000000000E+00 0. -1.
<mgrwt>
<rscale>  0 0.11270826E+04</rscale>
<asrwt>0</asrwt>
<pdfrwt beam="1">  1        2 0.84389188E-01 0.11270826E+04</pdfrwt>
<pdfrwt beam="2">  1       -1 0.89071338E-01 0.11270826E+04</pdfrwt>
<totfact> 0.77394122E+01</totfact>
</mgrwt>
</event>
<event>
12    6  0.1403409E-007  0.2345386E+04  0.7818608E-02  0.8460238E-01
         -3   -1    0    0    0  501 -0.00000000000E+00  0.00000000000E+00  0.74488690786E+03  0.74488690786E+03  0.00000000000E+00 0.  1.
          2   -1    0    0  501    0  0.00000000000E+00 -0.00000000000E+00 -0.18461981490E+04  0.18461981490E+04  0.00000000000E+00 0. -1.
         24    2    1    2    0    0 -0.67393760528E+03 -0.73602675861E+03 -0.49305482577E+03  0.11160099157E+04  0.80298104549E+02 0.  0.
        254    2    1    2    0    0  0.67393760528E+03  0.73602675861E+03 -0.60825641533E+03  0.14750751411E+04  0.89996862161E+03 0.  0.
         23    2    4    4    0    0 -0.15618652604E+03  0.36711959492E+03 -0.31398758089E+03  0.51577203923E+03  0.90893165920E+02 0.  0.
         23    2    4    4    0    0  0.83012413132E+03  0.36890716369E+03 -0.29426883445E+03  0.95930310187E+03  0.92031111585E+02 0.  0.
          4    1    3    3  502    0 -0.33326044666E+03 -0.41463834731E+03 -0.28540805548E+03  0.60369300352E+03  0.00000000000E+00 0. -1.
         -3    1    3    3    0  502 -0.34067715862E+03 -0.32138841130E+03 -0.20764677028E+03  0.51231691221E+03  0.00000000000E+00 0.  1.
         11    1    5    5    0    0 -0.45608664505E+02  0.38530022955E+02 -0.69035679243E+02  0.91272328531E+02  0.00000000000E+00 0.  1.
        -11    1    5    5    0    0 -0.11057786153E+03  0.32858957196E+03 -0.24495190164E+03  0.42449971070E+03  0.00000000000E+00 0. -1.
          1    1    6    6  503    0  0.64712337052E+03  0.27862343511E+03 -0.18788875902E+03  0.72917889508E+03  0.00000000000E+00 0. -1.
         -1    1    6    6    0  503  0.18300076080E+03  0.90283728582E+02 -0.10638007543E+03  0.23012420678E+03  0.00000000000E+00 0.  1.
<mgrwt>
<rscale>  0 0.23453860E+04</rscale>
<asrwt>0</asrwt>
<pdfrwt beam="1">  1        2 0.28403048E+00 0.23453860E+04</pdfrwt>
<pdfrwt beam="2">  1       -3 0.11459799E+00 0.23453860E+04</pdfrwt>
<totfact> 0.29560701E+00</totfact>
</mgrwt>
</event>
<event>
12    6  0.1403409E-007  0.3911619E+04  0.7818608E-02  0.8022617E-01
          2   -1    0    0  501    0  0.00000000000E+00  0.00000000000E+00  0.13864847861E+04  0.13864847861E+04  0.00000000000E+00 0. -1.
         -1   -1    0    0    0  501 -0.00000000000E+00 -0.00000000000E+00 -0.27589126002E+04  0.27589126002E+04  0.00000000000E+00 0.  1.
         24    2    1    2    0    0 -0.51299024509E+02  0.13439044388E+04  0.69795447087E+03  0.15171645023E+04  0.77051627159E+02 0.  0.
        254    2    1    2    0    0  0.51299024509E+02 -0.13439044388E+04 -0.20703822850E+04  0.26282328840E+04  0.90134042168E+03 0.  0.
         23    2    4    4    0    0  0.38790040216E+03 -0.11184263769E+04 -0.16846226341E+04  0.20610058558E+04  0.91909932209E+02 0.  0.
         23    2    4    4    0    0 -0.33660137765E+03 -0.22547806188E+03 -0.38575965091E+03  0.56722702820E+03  0.93782457944E+02 0.  0.
          2    1    3    3  502    0 -0.55757974709E+02  0.49082198792E+03  0.25946095538E+03  0.55797415974E+03  0.00000000000E+00 0. -1.
         -1    1    3    3    0  502  0.44589502001E+01  0.85308245084E+03  0.43849351550E+03  0.95919034258E+03  0.00000000000E+00 0.  1.
         11    1    5    5    0    0  0.34958841031E+03 -0.10540062083E+04 -0.16044280595E+04  0.19512382074E+04  0.00000000000E+00 0. -1.
        -11    1    5    5    0    0  0.38311991844E+02 -0.64420168544E+02 -0.80194574615E+02  0.10976764839E+03  0.00000000000E+00 0.  1.
          3    1    6    6  503    0 -0.28440356955E+03 -0.20977361389E+03 -0.29048964747E+03  0.45746540278E+03  0.00000000000E+00 0. -1.
         -3    1    6    6    0  503 -0.52197808103E+02 -0.15704447991E+02 -0.95270003442E+02  0.10976162541E+03  0.00000000000E+00 0.  1.
<mgrwt>
<rscale>  0 0.39116188E+04</rscale>
<asrwt>0</asrwt>
<pdfrwt beam="1">  1        2 0.21330535E+00 0.39116188E+04</pdfrwt>
<pdfrwt beam="2">  1       -1 0.42444809E+00 0.39116188E+04</pdfrwt>
<totfact> 0.64729842E-02</totfact>
</mgrwt>
</event>
<event>
12    6  0.1403409E-007  0.4311725E+04  0.7818608E-02  0.7944454E-01
          2   -1    0    0  501    0  0.00000000000E+00  0.00000000000E+00  0.18908256338E+04  0.18908256338E+04  0.00000000000E+00 0. -1.
         -1   -1    0    0    0  501 -0.00000000000E+00 -0.00000000000E+00 -0.24580492443E+04  0.24580492443E+04  0.00000000000E+00 0.  1.
         24    2    1    2    0    0  0.54102703485E+03  0.19221434136E+04 -0.78652517958E+03  0.21477633459E+04  0.83186399994E+02 0.  0.
        254    2    1    2    0    0 -0.54102703485E+03 -0.19221434136E+04  0.21930156908E+03  0.22011115322E+04  0.89969619544E+03 0.  0.
         23    2    4    4    0    0 -0.16188237803E+03 -0.13096971203E+04 -0.23641978719E+03  0.13437127946E+04  0.90317813462E+02 0.  0.
         23    2    4    4    0    0 -0.37914465682E+03 -0.61244629333E+03  0.45572135628E+03  0.85739873760E+03  0.92787432651E+02 0.  0.
          2    1    3    3  502    0  0.10336084675E+03  0.49196645867E+03 -0.18431178281E+03  0.53543000885E+03  0.00000000000E+00 0. -1.
         -1    1    3    3    0  502  0.43766618810E+03  0.14301769549E+04 -0.60221339677E+03  0.16123333371E+04  0.00000000000E+00 0.  1.
         11    1    5    5    0    0 -0.14942423314E+03 -0.11845264761E+04 -0.24033191157E+03  0.12178628830E+04  0.00000000000E+00 0. -1.
        -11    1    5    5    0    0 -0.12458144892E+02 -0.12517064419E+03  0.39121243744E+01  0.12584991163E+03  0.00000000000E+00 0.  1.
          4    1    6    6  503    0 -0.25683595064E+03 -0.40813927279E+03  0.25241095182E+03  0.54429188873E+03  0.00000000000E+00 0. -1.
         -4    1    6    6    0  503 -0.12230870619E+03 -0.20430702054E+03  0.20331040446E+03  0.31310684887E+03  0.00000000000E+00 0.  1.
<mgrwt>
<rscale>  0 0.43117247E+04</rscale>
<asrwt>0</asrwt>
<pdfrwt beam="1">  1        2 0.29089625E+00 0.43117247E+04</pdfrwt>
<pdfrwt beam="2">  1       -1 0.37816142E+00 0.43117247E+04</pdfrwt>
<totfact> 0.67718416E-02</totfact>
</mgrwt>
</event>
<event>
12    6  0.1403409E-007  0.1597819E+04  0.7818608E-02  0.8821889E-01
         -1   -1    0    0    0  501 -0.00000000000E+00  0.00000000000E+00  0.76985061433E+03  0.76985061433E+03  0.00000000000E+00 0.  1.
          2   -1    0    0  501    0  0.00000000000E+00 -0.00000000000E+00 -0.82906482416E+03  0.82906482416E+03  0.00000000000E+00 0. -1.
         24    2    1    2    0    0  0.21408553329E+03 -0.34629422401E+03 -0.37756003598E+03  0.56091222061E+03  0.79489831545E+02 0.  0.
        254    2    1    2    0    0 -0.21408553329E+03  0.34629422401E+03  0.31834582614E+03  0.10380032179E+04  0.90019681746E+03 0.  0.
         23    2    4    4    0    0 -0.63006056324E+02 -0.46243011594E+02 -0.27815543703E+03  0.30281659072E+03  0.90660141228E+02 0.  0.
         23    2    4    4    0    0 -0.15107947696E+03  0.39253723560E+03  0.59650126318E+03  0.73518662716E+03  0.88176698109E+02 0.  0.
          2    1    3    3  502    0  0.10808659857E+03 -0.16393104992E+03 -0.23541488266E+03  0.30655549073E+03  0.00000000000E+00 0. -1.
         -1    1    3    3    0  502  0.10599893471E+03 -0.18236317409E+03 -0.14214515332E+03  0.25435672988E+03  0.00000000000E+00 0.  1.
         11    1    5    5    0    0  0.14737325422E+02  0.14490943970E+02 -0.57832108470E+02  0.61414403749E+02  0.00000000000E+00 0.  1.
        -11    1    5    5    0    0 -0.77743381747E+02 -0.60733955564E+02 -0.22032332856E+03  0.24140218697E+03  0.00000000000E+00 0. -1.
          2    1    6    6  503    0 -0.14057648213E+03  0.38513638809E+03  0.59452733157E+03  0.72218732525E+03  0.00000000000E+00 0.  1.
         -2    1    6    6    0  503 -0.10502994827E+02  0.74008475103E+01  0.19739316043E+01  0.12999301912E+02  0.00000000000E+00 0. -1.
<mgrwt>
<rscale>  0 0.15978186E+04</rscale>
<asrwt>0</asrwt>
<pdfrwt beam="1">  1        2 0.12754843E+00 0.15978186E+04</pdfrwt>
<pdfrwt beam="2">  1       -1 0.11843856E+00 0.15978186E+04</pdfrwt>
<totfact> 0.22985933E+01</totfact>
</mgrwt>
</event>
<event>
12    6  0.1403409E-007  0.1614155E+04  0.7818608E-02  0.8811899E-01
         -1   -1    0    0    0  501 -0.00000000000E+00  0.00000000000E+00  0.51748591823E+03  0.51748591823E+03  0.00000000000E+00 0.  1.
          2   -1    0    0  501    0  0.00000000000E+00 -0.00000000000E+00 -0.12587283980E+04  0.12587283980E+04  0.00000000000E+00 0. -1.
         24    2    1    2    0    0  0.24176585119E+03 -0.16421351430E+03 -0.77212588353E+03  0.82945519886E+03  0.80004636224E+02 0.  0.
        254    2    1    2    0    0 -0.24176585119E+03  0.16421351430E+03  0.30883403791E+02  0.94675911733E+03  0.89999013136E+03 0.  0.
         23    2    4    4    0    0  0.73387565787E+02 -0.26579360690E+03 -0.20491809689E+03  0.35550784556E+03  0.91446298659E+02 0.  0.
         23    2    4    4    0    0 -0.31515341698E+03  0.43000712121E+03  0.23580150068E+03  0.59125127178E+03  0.98731545792E+02 0.  0.
          4    1    3    3  502    0  0.14534348918E+03 -0.87669283398E+02 -0.54873183195E+03  0.57438424116E+03  0.00000000000E+00 0. -1.
         -3    1    3    3    0  502  0.96422362006E+02 -0.76544230906E+02 -0.22339405158E+03  0.25507095770E+03  0.00000000000E+00 0.  1.
         11    1    5    5    0    0  0.51878552173E+02 -0.73452590691E+02 -0.30460724817E+02  0.94944841941E+02  0.00000000000E+00 0. -1.
        -11    1    5    5    0    0  0.21509013614E+02 -0.19234101621E+03 -0.17445737207E+03  0.26056300362E+03  0.00000000000E+00 0.  1.
          2    1    6    6  503    0 -0.28180201779E+03  0.34121082793E+03  0.22297441665E+03  0.49553485933E+03  0.00000000000E+00 0. -1.
         -2    1    6    6    0  503 -0.33351399187E+02  0.88796293276E+02  0.12827084024E+02  0.95716412447E+02  0.00000000000E+00 0.  1.
<mgrwt>
<rscale>  0 0.16141552E+04</rscale>
<asrwt>0</asrwt>
<pdfrwt beam="1">  1        2 0.19365052E+00 0.16141552E+04</pdfrwt>
<pdfrwt beam="2">  1       -1 0.79613218E-01 0.16141552E+04</pdfrwt>
<totfact> 0.30088625E+01</totfact>
</mgrwt>
</event>
<event>
12    6  0.1403409E-007  0.1399621E+04  0.7818608E-02  0.8954093E-01
          2   -1    0    0  501    0  0.00000000000E+00  0.00000000000E+00  0.26276967573E+03  0.26276967573E+03  0.00000000000E+00 0. -1.
         -1   -1    0    0    0  501 -0.00000000000E+00 -0.00000000000E+00 -0.18637419993E+04  0.18637419993E+04  0.00000000000E+00 0.  1.
         24    2    1    2    0    0  0.20262783036E+03  0.48867958483E+01  0.61954278151E+02  0.22395952604E+03  0.72371391523E+02 0.  0.
        254    2    1    2    0    0 -0.20262783036E+03 -0.48867958483E+01 -0.16629266018E+04  0.19025521490E+04  0.90183029365E+03 0.  0.
         23    2    4    4    0    0 -0.87824448228E+02  0.43485475234E+03 -0.69921812516E+03  0.83312209303E+03  0.91513091919E+02 0.  0.
         23    2    4    4    0    0 -0.11480338213E+03 -0.43974154819E+03 -0.96370847659E+03  0.10694300560E+04  0.91619708942E+02 0.  0.
          2    1    3    3  502    0  0.13721625435E+03 -0.28677736774E+02  0.27879187472E+02  0.14292642212E+03  0.00000000000E+00 0. -1.
         -3    1    3    3    0  502  0.65411576006E+02  0.33564532623E+02  0.34075090679E+02  0.81033103918E+02  0.00000000000E+00 0.  1.
         11    1    5    5    0    0 -0.15329867764E+02  0.29444340213E+03 -0.44637806538E+03  0.53496289512E+03  0.00000000000E+00 0. -1.
        -11    1    5    5    0    0 -0.72494580464E+02  0.14041135021E+03 -0.25284005978E+03  0.29815919790E+03  0.00000000000E+00 0.  1.
          3    1    6    6  503    0 -0.11522691832E+03 -0.39064388643E+03 -0.90807512562E+03  0.99522877896E+03  0.00000000000E+00 0. -1.
         -3    1    6    6    0  503  0.42353619082E+00 -0.49097661759E+02 -0.55633350974E+02  0.74201277036E+02  0.00000000000E+00 0.  1.
<mgrwt>
<rscale>  0 0.13996212E+04</rscale>
<asrwt>0</asrwt>
<pdfrwt beam="1">  1        2 0.40426106E-01 0.13996212E+04</pdfrwt>
<pdfrwt beam="2">  1       -1 0.28672952E+00 0.13996212E+04</pdfrwt>
<totfact> 0.57308925E+00</totfact>
</mgrwt>
</event>
<event>
12    6  0.1403409E-007  0.2379946E+04  0.7818608E-02  0.8447050E-01
          2   -1    0    0  501    0  0.00000000000E+00  0.00000000000E+00  0.12288726791E+04  0.12288726791E+04  0.00000000000E+00 0. -1.
         -1   -1    0    0    0  501 -0.00000000000E+00 -0.00000000000E+00 -0.11523048842E+04  0.11523048842E+04  0.00000000000E+00 0.  1.
         24    2    1    2    0    0  0.46226526724E+03  0.29066683595E+03 -0.82652532069E+03  0.99322698594E+03  0.71967722184E+02 0.  0.
        254    2    1    2    0    0 -0.46226526724E+03 -0.29066683595E+03  0.90309311559E+03  0.13879505774E+04  0.90147281886E+03 0.  0.
         23    2    4    4    0    0  0.10163283576E+03  0.11543933729E+03  0.59672382492E+03  0.62302299954E+03  0.91776145208E+02 0.  0.
         23    2    4    4    0    0 -0.56389810301E+03 -0.40610617324E+03  0.30636929067E+03  0.76492757789E+03  0.91371563619E+02 0.  0.
          2    1    3    3  502    0  0.87058658026E+02  0.28708432640E+02 -0.11204395140E+03  0.14476612548E+03  0.00000000000E+00 0. -1.
         -1    1    3    3    0  502  0.37520660922E+03  0.26195840331E+03 -0.71448136929E+03  0.84846086046E+03  0.00000000000E+00 0.  1.
         11    1    5    5    0    0  0.92577567703E+02  0.11548478805E+03  0.40690796197E+03  0.43299126068E+03  0.00000000000E+00 0. -1.
        -11    1    5    5    0    0  0.90552680584E+01 -0.45450761448E-01  0.18981586296E+03  0.19003173886E+03  0.00000000000E+00 0.  1.
          1    1    6    6  503    0 -0.39663353124E+03 -0.31386882867E+03  0.25842109222E+03  0.56799054624E+03  0.00000000000E+00 0. -1.
         -1    1    6    6    0  503 -0.16726457176E+03 -0.92237344572E+02  0.47948198446E+02  0.19693703165E+03  0.00000000000E+00 0.  1.
<mgrwt>
<rscale>  0 0.23799462E+04</rscale>
<asrwt>0</asrwt>
<pdfrwt beam="1">  1        2 0.18905734E+00 0.23799462E+04</pdfrwt>
<pdfrwt beam="2">  1       -1 0.17727767E+00 0.23799462E+04</pdfrwt>
<totfact> 0.40693532E+00</totfact>
</mgrwt>
</event>
<event>
12    6  0.1403409E-007  0.1832478E+04  0.7818608E-02  0.8689216E-01
          2   -1    0    0  501    0  0.00000000000E+00  0.00000000000E+00  0.18406107211E+04  0.18406107211E+04  0.00000000000E+00 0. -1.
         -1   -1    0    0    0  501 -0.00000000000E+00 -0.00000000000E+00 -0.45609552027E+03  0.45609552027E+03  0.00000000000E+00 0.  1.
         24    2    1    2    0    0 -0.92205162520E+02 -0.44290452201E+03 -0.13417711918E+03  0.47874709616E+03  0.80802692742E+02 0.  0.
        254    2    1    2    0    0  0.92205162520E+02  0.44290452201E+03  0.15186923200E+04  0.18179591452E+04  0.89100105677E+03 0.  0.
         23    2    4    4    0    0 -0.10537276053E+03 -0.21011001373E+03  0.17200264646E+03  0.30540330553E+03  0.91851141011E+02 0.  0.
         23    2    4    4    0    0  0.19757792305E+03  0.65301453574E+03  0.13466896735E+04  0.15125558396E+04  0.93739382044E+02 0.  0.
          2    1    3    3  502    0 -0.22252071300E+02 -0.54981637053E+02  0.77006388490E+01  0.59811662148E+02  0.00000000000E+00 0. -1.
         -1    1    3    3    0  502 -0.69953091220E+02 -0.38792288496E+03 -0.14187775803E+03  0.41893543401E+03  0.00000000000E+00 0.  1.
         11    1    5    5    0    0 -0.10237987266E+03 -0.12692091859E+03  0.81016117072E+02  0.18208286335E+03  0.00000000000E+00 0.  1.
        -11    1    5    5    0    0 -0.29928878764E+01 -0.83189095145E+02  0.90986529390E+02  0.12332044218E+03  0.00000000000E+00 0. -1.
          1    1    6    6  503    0  0.14513057710E+03  0.40862528674E+03  0.76330773605E+03  0.87788166018E+03  0.00000000000E+00 0. -1.
         -1    1    6    6    0  503  0.52447345952E+02  0.24438924901E+03  0.58338193745E+03  0.63467417946E+03  0.00000000000E+00 0.  1.
<mgrwt>
<rscale>  0 0.18324784E+04</rscale>
<asrwt>0</asrwt>
<pdfrwt beam="1">  1        2 0.28317088E+00 0.18324784E+04</pdfrwt>
<pdfrwt beam="2">  1       -1 0.70168543E-01 0.18324784E+04</pdfrwt>
<totfact> 0.18036180E+01</totfact>
</mgrwt>
</event>
<event>
12    6  0.1403409E-007  0.1405608E+04  0.7818608E-02  0.8949769E-01
          2   -1    0    0  501    0  0.00000000000E+00  0.00000000000E+00  0.86946224007E+03  0.86946224007E+03  0.00000000000E+00 0. -1.
         -1   -1    0    0    0  501 -0.00000000000E+00 -0.00000000000E+00 -0.56809107728E+03  0.56809107728E+03  0.00000000000E+00 0.  1.
         24    2    1    2    0    0  0.27431219757E+03  0.30049203417E+02  0.39847132653E+03  0.49114361251E+03  0.79325365947E+02 0.  0.
        254    2    1    2    0    0 -0.27431219757E+03 -0.30049203417E+02 -0.97100163736E+02  0.94640970485E+03  0.90006263742E+03 0.  0.
         23    2    4    4    0    0  0.18837605896E+03  0.89158909527E+02  0.25739763588E+03  0.34425248290E+03  0.93922192740E+02 0.  0.
         23    2    4    4    0    0 -0.46268825652E+03 -0.11920811294E+03 -0.35449779961E+03  0.60215722195E+03  0.92917345559E+02 0.  0.
          2    1    3    3  502    0  0.10427089896E+03 -0.10020944069E+02  0.20670897038E+03  0.23173570749E+03  0.00000000000E+00 0. -1.
         -1    1    3    3    0  502  0.17004129860E+03  0.40070147486E+02  0.19176235615E+03  0.25940790502E+03  0.00000000000E+00 0.  1.
         11    1    5    5    0    0  0.82789779368E+02  0.54330113748E+02  0.54862104795E+02  0.11320671080E+03  0.00000000000E+00 0.  1.
        -11    1    5    5    0    0  0.10558627959E+03  0.34828795779E+02  0.20253553108E+03  0.23104577210E+03  0.00000000000E+00 0. -1.
          1    1    6    6  503    0 -0.29225301838E+03 -0.86173751876E+02 -0.27794524080E+03  0.41242126417E+03  0.00000000000E+00 0. -1.
         -1    1    6    6    0  503 -0.17043523815E+03 -0.33034361068E+02 -0.76552558818E+02  0.18973595778E+03  0.00000000000E+00 0.  1.
<mgrwt>
<rscale>  0 0.14056084E+04</rscale>
<asrwt>0</asrwt>
<pdfrwt beam="1">  1        2 0.13376342E+00 0.14056084E+04</pdfrwt>
<pdfrwt beam="2">  1       -1 0.87398627E-01 0.14056084E+04</pdfrwt>
<totfact> 0.44037271E+01</totfact>
</mgrwt>
</event>
<event>
12    6  0.1403409E-007  0.1090051E+04  0.7818608E-02  0.9214944E-01
          2   -1    0    0  501    0  0.00000000000E+00  0.00000000000E+00  0.28364301324E+04  0.28364301324E+04  0.00000000000E+00 0. -1.
         -1   -1    0    0    0  501 -0.00000000000E+00 -0.00000000000E+00 -0.10472762330E+03  0.10472762330E+03  0.00000000000E+00 0.  1.
         24    2    1    2    0    0  0.15468972386E+03  0.83839850912E+01  0.60273128798E+03  0.62550539231E+03  0.63030059652E+02 0.  0.
        254    2    1    2    0    0 -0.15468972386E+03 -0.83839850912E+01  0.21289712212E+04  0.23156523634E+04  0.89762364377E+03 0.  0.
         23    2    4    4    0    0  0.13383732908E+02 -0.41838341175E+03  0.74278662239E+03  0.85753813533E+03  0.91738125129E+02 0.  0.
         23    2    4    4    0    0 -0.16807345677E+03  0.40999942666E+03  0.13861845988E+04  0.14581142281E+04  0.90780744588E+02 0.  0.
          2    1    3    3  502    0 -0.28319758093E+01  0.65287872673E+01  0.58555167482E+02  0.58986038933E+02  0.00000000000E+00 0. -1.
         -1    1    3    3    0  502  0.15752169967E+03  0.18551978239E+01  0.54417612050E+03  0.56651935338E+03  0.00000000000E+00 0.  1.
         11    1    5    5    0    0  0.23503971821E+02 -0.30938658775E+03  0.61817818868E+03  0.69167678169E+03  0.00000000000E+00 0.  1.
        -11    1    5    5    0    0 -0.10120238912E+02 -0.10899682401E+03  0.12460843372E+03  0.16586135364E+03  0.00000000000E+00 0. -1.
          3    1    6    6  503    0  0.46037560307E+01  0.19438177313E+02  0.28114316673E+02  0.34488434422E+02  0.00000000000E+00 0. -1.
         -3    1    6    6    0  503 -0.17267721280E+03  0.39056124935E+03  0.13580702821E+04  0.14236257937E+04  0.00000000000E+00 0.  1.
<mgrwt>
<rscale>  0 0.10900506E+04</rscale>
<asrwt>0</asrwt>
<pdfrwt beam="1">  1        2 0.43637381E+00 0.10900506E+04</pdfrwt>
<pdfrwt beam="2">  1       -1 0.16111944E-01 0.10900506E+04</pdfrwt>
<totfact> 0.73932919E+01</totfact>
</mgrwt>
</event>
<event>
12    6  0.1403409E-007  0.1775233E+04  0.7818608E-02  0.8719582E-01
         -1   -1    0    0    0  501 -0.00000000000E+00  0.00000000000E+00  0.26197301917E+03  0.26197301917E+03  0.00000000000E+00 0.  1.
          2   -1    0    0  501    0  0.00000000000E+00 -0.00000000000E+00 -0.30074200045E+04  0.30074200045E+04  0.00000000000E+00 0. -1.
         24    2    1    2    0    0 -0.33036614069E+03 -0.51715120890E+03 -0.14561141315E+04  0.15820491090E+04  0.77613527360E+02 0.  0.
        254    2    1    2    0    0  0.33036614069E+03  0.51715120890E+03 -0.12893328539E+04  0.16873439147E+04  0.89897893112E+03 0.  0.
         23    2    4    4    0    0 -0.83397066077E+02 -0.26642550705E+02  0.84729075231E+02  0.14976103931E+03  0.87088785538E+02 0.  0.
         23    2    4    4    0    0  0.41376320677E+03  0.54379375961E+03 -0.13740619291E+04  0.15375828754E+04  0.95933671906E+02 0.  0.
          4    1    3    3  502    0 -0.13008659722E+03 -0.21087427353E+03 -0.68696248762E+03  0.73027935847E+03  0.00000000000E+00 0. -1.
         -3    1    3    3    0  502 -0.20027954347E+03 -0.30627693537E+03 -0.76915164387E+03  0.85176975054E+03  0.00000000000E+00 0.  1.
         11    1    5    5    0    0 -0.75110816738E+02  0.17843168192E+02  0.62584413476E+02  0.99382202895E+02  0.00000000000E+00 0.  1.
        -11    1    5    5    0    0 -0.82862493389E+01 -0.44485718898E+02  0.22144661756E+02  0.50378836412E+02  0.00000000000E+00 0. -1.
          3    1    6    6  503    0  0.21012500143E+03  0.33346262763E+03 -0.71543363121E+03  0.81682012764E+03  0.00000000000E+00 0. -1.
         -3    1    6    6    0  503  0.20363820534E+03  0.21033113198E+03 -0.65862829788E+03  0.72076274774E+03  0.00000000000E+00 0.  1.
<mgrwt>
<rscale>  0 0.17752328E+04</rscale>
<asrwt>0</asrwt>
<pdfrwt beam="1">  1        2 0.46268004E+00 0.17752328E+04</pdfrwt>
<pdfrwt beam="2">  1       -1 0.40303538E-01 0.17752328E+04</pdfrwt>
<totfact> 0.11190192E+01</totfact>
</mgrwt>
</event>
<event>
12    6  0.1403409E-007  0.1245317E+04  0.7818608E-02  0.9074090E-01
          2   -1    0    0  501    0  0.00000000000E+00  0.00000000000E+00  0.15489114385E+04  0.15489114385E+04  0.00000000000E+00 0. -1.
         -1   -1    0    0    0  501 -0.00000000000E+00 -0.00000000000E+00 -0.25030730426E+03  0.25030730426E+03  0.00000000000E+00 0.  1.
         24    2    1    2    0    0  0.13178426498E+03  0.10736378660E+03 -0.22924772189E+02  0.18946904659E+03  0.80491609918E+02 0.  0.
        254    2    1    2    0    0 -0.13178426498E+03 -0.10736378660E+03  0.13215289065E+04  0.16097496962E+04  0.90330579463E+03 0.  0.
         23    2    4    4    0    0  0.26222720240E+03  0.24743857377E+03  0.42543347366E+03  0.56441394753E+03  0.87066125414E+02 0.  0.
         23    2    4    4    0    0 -0.39401146738E+03 -0.35480236036E+03  0.89609543279E+03  0.10453357487E+04  0.92790362592E+02 0.  0.
          4    1    3    3  502    0  0.13637051548E+03  0.75914671586E+02 -0.15602469704E+02  0.15685468407E+03  0.00000000000E+00 0. -1.
         -3    1    3    3    0  502 -0.45862505025E+01  0.31449115013E+02 -0.73223024847E+01  0.32614362518E+02  0.00000000000E+00 0.  1.
         11    1    5    5    0    0  0.10939639825E+03  0.47651110752E+02  0.14076125711E+03  0.18453165530E+03  0.00000000000E+00 0. -1.
        -11    1    5    5    0    0  0.15283080415E+03  0.19978746301E+03  0.28467221655E+03  0.37988229223E+03  0.00000000000E+00 0.  1.
          1    1    6    6  503    0 -0.28795596553E+02 -0.65401493701E+02  0.13998921651E+03  0.15717354262E+03  0.00000000000E+00 0. -1.
         -1    1    6    6    0  503 -0.36521587083E+03 -0.28940086666E+03  0.75610621628E+03  0.88816220603E+03  0.00000000000E+00 0.  1.
<mgrwt>
<rscale>  0 0.12453174E+04</rscale>
<asrwt>0</asrwt>
<pdfrwt beam="1">  1        2 0.23829406E+00 0.12453174E+04</pdfrwt>
<pdfrwt beam="2">  1       -1 0.38508817E-01 0.12453174E+04</pdfrwt>
<totfact> 0.87151102E+01</totfact>
</mgrwt>
</event>
<event>
12    6  0.1403409E-007  0.1549281E+04  0.7818608E-02  0.8852327E-01
         -1   -1    0    0    0  501 -0.00000000000E+00  0.00000000000E+00  0.19445718626E+03  0.19445718626E+03  0.00000000000E+00 0.  1.
          2   -1    0    0  501    0  0.00000000000E+00 -0.00000000000E+00 -0.30858593254E+04  0.30858593254E+04  0.00000000000E+00 0. -1.
         24    2    1    2    0    0  0.45634953149E+03  0.22651892056E+03 -0.10034838522E+04  0.11281301012E+04  0.78306880300E+02 0.  0.
        254    2    1    2    0    0 -0.45634953149E+03 -0.22651892056E+03 -0.18879182869E+04  0.21521864104E+04  0.89894670064E+03 0.  0.
         23    2    4    4    0    0 -0.45428794575E+03  0.13472410427E+03 -0.42618686841E+03  0.64376491585E+03  0.90938980382E+02 0.  0.
         23    2    4    4    0    0 -0.20615857349E+01 -0.36124302483E+03 -0.14617314185E+04  0.15084214945E+04  0.90420639796E+02 0.  0.
          4    1    3    3  502    0  0.23898892948E+03  0.13022335940E+03 -0.61731522916E+03  0.67464948225E+03  0.00000000000E+00 0. -1.
         -3    1    3    3    0  502  0.21736060201E+03  0.96295561156E+02 -0.38616862301E+03  0.45348061899E+03  0.00000000000E+00 0.  1.
         11    1    5    5    0    0 -0.83859793145E+02  0.53560336714E+02 -0.12325117242E+03  0.15840462771E+03  0.00000000000E+00 0.  1.
        -11    1    5    5    0    0 -0.37042815261E+03  0.81163767557E+02 -0.30293569599E+03  0.48536028815E+03  0.00000000000E+00 0. -1.
          3    1    6    6  503    0  0.20016874874E+02 -0.32041889974E+03 -0.13453897315E+04  0.13831639369E+04  0.00000000000E+00 0. -1.
         -3    1    6    6    0  503 -0.22078460609E+02 -0.40824125093E+02 -0.11634168703E+03  0.12525755767E+03  0.00000000000E+00 0.  1.
<mgrwt>
<rscale>  0 0.15492805E+04</rscale>
<asrwt>0</asrwt>
<pdfrwt beam="1">  1        2 0.47474759E+00 0.15492805E+04</pdfrwt>
<pdfrwt beam="2">  1       -1 0.29916490E-01 0.15492805E+04</pdfrwt>
<totfact> 0.17400632E+01</totfact>
</mgrwt>
</event>
<event>
12    6  0.1403409E-007  0.1812316E+04  0.7818608E-02  0.8699778E-01
         -1   -1    0    0    0  501 -0.00000000000E+00  0.00000000000E+00  0.11992901376E+04  0.11992901376E+04  0.00000000000E+00 0.  1.
          2   -1    0    0  501    0  0.00000000000E+00 -0.00000000000E+00 -0.68467325906E+03  0.68467325906E+03  0.00000000000E+00 0. -1.
         24    2    1    2    0    0  0.55696289435E+03  0.14019633590E+03 -0.18326425970E+03  0.60815822589E+03  0.80049737987E+02 0.  0.
        254    2    1    2    0    0 -0.55696289435E+03 -0.14019633590E+03  0.69788113826E+03  0.12758051708E+04  0.90043215868E+03 0.  0.
         23    2    4    4    0    0 -0.18687806563E+03  0.36239058357E+03  0.15936592096E+03  0.44658145832E+03  0.88244862045E+02 0.  0.
         23    2    4    4    0    0 -0.37008482872E+03 -0.50258691947E+03  0.53851521730E+03  0.82922371247E+03  0.89760425546E+02 0.  0.
          2    1    3    3  502    0  0.55958054025E+03  0.13816467341E+03 -0.18096832186E+03  0.60412696640E+03  0.00000000000E+00 0. -1.
         -3    1    3    3    0  502 -0.26176459039E+01  0.20316624855E+01 -0.22959378431E+01  0.40312594945E+01  0.00000000000E+00 0.  1.
         11    1    5    5    0    0 -0.19067974344E+03  0.35444388003E+03  0.14144035009E+03  0.42660825271E+03  0.00000000000E+00 0.  1.
        -11    1    5    5    0    0  0.38016778072E+01  0.79467035411E+01  0.17925570868E+02  0.19973205608E+02  0.00000000000E+00 0. -1.
          1    1    6    6  503    0 -0.73739447863E+01 -0.16110766320E+02  0.40534389265E+02  0.44237637440E+02  0.00000000000E+00 0. -1.
         -1    1    6    6    0  503 -0.36271088393E+03 -0.48647615315E+03  0.49798082804E+03  0.78498607503E+03  0.00000000000E+00 0.  1.
<mgrwt>
<rscale>  0 0.18123155E+04</rscale>
<asrwt>0</asrwt>
<pdfrwt beam="1">  1        2 0.10533435E+00 0.18123155E+04</pdfrwt>
<pdfrwt beam="2">  1       -1 0.18450618E+00 0.18123155E+04</pdfrwt>
<totfact> 0.87674192E+00</totfact>
</mgrwt>
</event>
<event>
12    6  0.1403409E-007  0.1443829E+04  0.7818608E-02  0.8922690E-01
         -1   -1    0    0    0  501 -0.00000000000E+00  0.00000000000E+00  0.23519768213E+03  0.23519768213E+03  0.00000000000E+00 0.  1.
          2   -1    0    0  501    0  0.00000000000E+00 -0.00000000000E+00 -0.22158395876E+04  0.22158395876E+04  0.00000000000E+00 0. -1.
         24    2    1    2    0    0 -0.11348929476E+03 -0.35626626417E+03 -0.22558576306E+03  0.44381221920E+03  0.79214130109E+02 0.  0.
        254    2    1    2    0    0  0.11348929476E+03  0.35626626417E+03 -0.17550561424E+04  0.20072250505E+04  0.89940250693E+03 0.  0.
         23    2    4    4    0    0 -0.29869674053E+03  0.76053310360E+02 -0.12515643678E+04  0.12918228228E+04  0.85959233742E+02 0.  0.
         23    2    4    4    0    0  0.41218603529E+03  0.28021295381E+03 -0.50349177460E+03  0.71540222775E+03  0.99396947701E+02 0.  0.
          2    1    3    3  502    0 -0.25401639743E+02 -0.20616458076E+03 -0.13333657948E+03  0.24683541295E+03  0.00000000000E+00 0. -1.
         -1    1    3    3    0  502 -0.88087655016E+02 -0.15010168341E+03 -0.92249183576E+02  0.19697680625E+03  0.00000000000E+00 0.  1.
         11    1    5    5    0    0 -0.20745681156E+03  0.92251432868E+02 -0.91281418542E+03  0.94062659575E+03  0.00000000000E+00 0.  1.
        -11    1    5    5    0    0 -0.91239928967E+02 -0.16198122508E+02 -0.33875018240E+03  0.35119622704E+03  0.00000000000E+00 0. -1.
          4    1    6    6  503    0  0.91373193924E+02  0.24835171014E+02 -0.12944237684E+03  0.16037822548E+03  0.00000000000E+00 0. -1.
         -4    1    6    6    0  503  0.32081284137E+03  0.25537778280E+03 -0.37404939776E+03  0.55502400227E+03  0.00000000000E+00 0.  1.
<mgrwt>
<rscale>  0 0.14438287E+04</rscale>
<asrwt>0</asrwt>
<pdfrwt beam="1">  1        2 0.34089839E+00 0.14438287E+04</pdfrwt>
<pdfrwt beam="2">  1       -1 0.36184260E-01 0.14438287E+04</pdfrwt>
<totfact> 0.40916082E+01</totfact>
</mgrwt>
</event>
<event>
12    6  0.1403409E-007  0.2375031E+04  0.7818608E-02  0.8448911E-01
         -1   -1    0    0    0  501 -0.00000000000E+00  0.00000000000E+00  0.66297638558E+03  0.66297638558E+03  0.00000000000E+00 0.  1.
          2   -1    0    0  501    0  0.00000000000E+00 -0.00000000000E+00 -0.21270646680E+04  0.21270646680E+04  0.00000000000E+00 0. -1.
         24    2    1    2    0    0  0.77233275880E+03  0.11483990404E+03  0.12881991869E+03  0.79547674694E+03  0.80638635830E+02 0.  0.
        254    2    1    2    0    0 -0.77233275880E+03 -0.11483990404E+03 -0.15929082011E+04  0.19945643066E+04  0.91172591401E+03 0.  0.
         23    2    4    4    0    0 -0.59507965507E+02 -0.20302483863E+03  0.15672897056E+02  0.23051704288E+03  0.90178624393E+02 0.  0.
         23    2    4    4    0    0 -0.71282479329E+03  0.88184934593E+02 -0.16085810981E+04  0.17640472637E+04  0.91835890491E+02 0.  0.
          4    1    3    3  502    0  0.11378915546E+03  0.18723498129E+02 -0.95834931343E+01  0.11571682948E+03  0.00000000000E+00 0. -1.
         -3    1    3    3    0  502  0.65854360334E+03  0.96116405912E+02  0.13840341182E+03  0.67975991746E+03  0.00000000000E+00 0.  1.
         11    1    5    5    0    0 -0.14808153247E+02 -0.10484660686E+03 -0.34744291028E+02  0.11144172527E+03  0.00000000000E+00 0.  1.
        -11    1    5    5    0    0 -0.44699812260E+02 -0.98178231778E+02  0.50417188085E+02  0.11907531762E+03  0.00000000000E+00 0. -1.
          3    1    6    6  503    0 -0.67917681039E+03  0.10280946722E+03 -0.15404857718E+04  0.16866971689E+04  0.00000000000E+00 0. -1.
         -3    1    6    6    0  503 -0.33647982907E+02 -0.14624532625E+02 -0.68095326295E+02  0.77350094838E+02  0.00000000000E+00 0.  1.
<mgrwt>
<rscale>  0 0.23750315E+04</rscale>
<asrwt>0</asrwt>
<pdfrwt beam="1">  1        2 0.32724072E+00 0.23750315E+04</pdfrwt>
<pdfrwt beam="2">  1       -1 0.10199637E+00 0.23750315E+04</pdfrwt>
<totfact> 0.52979275E+00</totfact>
</mgrwt>
</event>
<event>
12    6  0.1403409E-007  0.2286342E+04  0.7818608E-02  0.8483326E-01
         -1   -1    0    0    0  501 -0.00000000000E+00  0.00000000000E+00  0.90000730564E+03  0.90000730564E+03  0.00000000000E+00 0.  1.
          2   -1    0    0  501    0  0.00000000000E+00 -0.00000000000E+00 -0.14520319871E+04  0.14520319871E+04  0.00000000000E+00 0. -1.
         24    2    1    2    0    0 -0.19680954489E+03 -0.84700817093E+03  0.19692688746E+03  0.89509497700E+03  0.79107397125E+02 0.  0.
        254    2    1    2    0    0  0.19680954489E+03  0.84700817093E+03 -0.74895156890E+03  0.14569443157E+04  0.89755303350E+03 0.  0.
         23    2    4    4    0    0 -0.25290176191E+03 -0.13252276733E+02 -0.22403146671E+03  0.34965258781E+03  0.89061271440E+02 0.  0.
         23    2    4    4    0    0  0.44971130680E+03  0.86026044766E+03 -0.52492010218E+03  0.11072917279E+04  0.90915123673E+02 0.  0.
          2    1    3    3  502    0 -0.17178796053E+03 -0.58147819945E+03  0.14397930312E+03  0.62318379275E+03  0.00000000000E+00 0. -1.
         -1    1    3    3    0  502 -0.25021584360E+02 -0.26552997147E+03  0.52947584335E+02  0.27191118425E+03  0.00000000000E+00 0.  1.
         11    1    5    5    0    0 -0.17086241077E+03 -0.49912449834E+02 -0.15967036331E+03  0.23912306660E+03  0.00000000000E+00 0. -1.
        -11    1    5    5    0    0 -0.82039351142E+02  0.36660173101E+02 -0.64361103404E+02  0.11052952121E+03  0.00000000000E+00 0.  1.
          4    1    6    6  503    0  0.34937292675E+02  0.11823435501E+03 -0.46040564271E+02  0.13160437182E+03  0.00000000000E+00 0. -1.
         -4    1    6    6    0  503  0.41477401413E+03  0.74202609265E+03 -0.47887953791E+03  0.97568735607E+03  0.00000000000E+00 0.  1.
<mgrwt>
<rscale>  0 0.22863415E+04</rscale>
<asrwt>0</asrwt>
<pdfrwt beam="1">  1        2 0.22338954E+00 0.22863415E+04</pdfrwt>
<pdfrwt beam="2">  1       -1 0.13846266E+00 0.22863415E+04</pdfrwt>
<totfact> 0.60291122E+00</totfact>
</mgrwt>
</event>
<event>
12    6  0.1403409E-007  0.2211070E+04  0.7818608E-02  0.8513835E-01
          2   -1    0    0  501    0  0.00000000000E+00  0.00000000000E+00  0.20258537354E+04  0.20258537354E+04  0.00000000000E+00 0. -1.
         -1   -1    0    0    0  501 -0.00000000000E+00 -0.00000000000E+00 -0.60330472656E+03  0.60330472656E+03  0.00000000000E+00 0.  1.
         24    2    1    2    0    0  0.59945831853E+03 -0.43621374121E+02  0.14240354959E+04  0.15477558461E+04  0.80112206479E+02 0.  0.
        254    2    1    2    0    0 -0.59945831853E+03  0.43621374121E+02 -0.14864869969E+01  0.10814026159E+04  0.89898626692E+03 0.  0.
         23    2    4    4    0    0  0.21750149048E+03 -0.35805194957E+02  0.78694085302E+02  0.25159787312E+03  0.92302872919E+02 0.  0.
         23    2    4    4    0    0 -0.81695980902E+03  0.79426569078E+02 -0.80180572299E+02  0.82980474279E+03  0.91733731845E+02 0.  0.
          2    1    3    3  502    0  0.44387111412E+03 -0.58750584287E+02  0.11119190899E+04  0.11986814671E+04  0.00000000000E+00 0. -1.
         -1    1    3    3    0  502  0.15558720441E+03  0.15129210167E+02  0.31211640599E+03  0.34907437898E+03  0.00000000000E+00 0.  1.
         11    1    5    5    0    0  0.27962928065E+02 -0.49835097683E+01 -0.20914025087E+02  0.35272612051E+02  0.00000000000E+00 0.  1.
        -11    1    5    5    0    0  0.18953856242E+03 -0.30821685189E+02  0.99608110389E+02  0.21632526107E+03  0.00000000000E+00 0. -1.
          3    1    6    6  503    0 -0.49859602103E+03  0.92215559858E+02 -0.59160014005E+02  0.51049153659E+03  0.00000000000E+00 0. -1.
         -3    1    6    6    0  503 -0.31836378798E+03 -0.12788990780E+02 -0.21020558294E+02  0.31931320620E+03  0.00000000000E+00 0.  1.
<mgrwt>
<rscale>  0 0.22110695E+04</rscale>
<asrwt>0</asrwt>
<pdfrwt beam="1">  1        2 0.31166980E+00 0.22110695E+04</pdfrwt>
<pdfrwt beam="2">  1       -1 0.92816113E-01 0.22110695E+04</pdfrwt>
<totfact> 0.75777034E+00</totfact>
</mgrwt>
</event>
<event>
12    6  0.1403409E-007  0.1885731E+04  0.7818608E-02  0.8661991E-01
          2   -1    0    0  501    0  0.00000000000E+00  0.00000000000E+00  0.72041085792E+03  0.72041085792E+03  0.00000000000E+00 0. -1.
         -1   -1    0    0    0  501 -0.00000000000E+00 -0.00000000000E+00 -0.12340122392E+04  0.12340122392E+04  0.00000000000E+00 0.  1.
         24    2    1    2    0    0  0.24326282018E+03 -0.58807360386E+03 -0.55803210897E+03  0.85026299023E+03  0.80869986176E+02 0.  0.
        254    2    1    2    0    0 -0.24326282018E+03  0.58807360386E+03  0.44430727724E+02  0.11041601069E+04  0.90121478504E+03 0.  0.
         23    2    4    4    0    0 -0.88525810237E+02  0.38215936170E+03 -0.40922255191E+03  0.57405857951E+03  0.90540371664E+02 0.  0.
         23    2    4    4    0    0 -0.15473700994E+03  0.20591424216E+03  0.45365327963E+03  0.53010152736E+03  0.94138800771E+02 0.  0.
          4    1    3    3  502    0  0.10297499037E+03 -0.30137421679E+03 -0.23216922467E+03  0.39412284389E+03  0.00000000000E+00 0. -1.
         -3    1    3    3    0  502  0.14028782981E+03 -0.28669938708E+03 -0.32586288430E+03  0.45614014634E+03  0.00000000000E+00 0.  1.
         11    1    5    5    0    0 -0.26818954196E+02  0.66741832585E+02 -0.32684963311E+02  0.79006552561E+02  0.00000000000E+00 0.  1.
        -11    1    5    5    0    0 -0.61706856041E+02  0.31541752912E+03 -0.37653758860E+03  0.49505202695E+03  0.00000000000E+00 0. -1.
          3    1    6    6  503    0 -0.10481254675E+03  0.19736576299E+03  0.36370902991E+03  0.42687606257E+03  0.00000000000E+00 0. -1.
         -3    1    6    6    0  503 -0.49924463199E+02  0.85484791686E+01  0.89944249727E+02  0.10322546479E+03  0.00000000000E+00 0.  1.
<mgrwt>
<rscale>  0 0.18857315E+04</rscale>
<asrwt>0</asrwt>
<pdfrwt beam="1">  1        2 0.11083244E+00 0.18857315E+04</pdfrwt>
<pdfrwt beam="2">  1       -1 0.18984803E+00 0.18857315E+04</pdfrwt>
<totfact> 0.74887122E+00</totfact>
</mgrwt>
</event>
<event>
12    6  0.1403409E-007  0.2383962E+04  0.7818608E-02  0.8445532E-01
         -1   -1    0    0    0  501 -0.00000000000E+00  0.00000000000E+00  0.48036716202E+04  0.48036716202E+04  0.00000000000E+00 0.  1.
          2   -1    0    0  501    0  0.00000000000E+00 -0.00000000000E+00 -0.29577777015E+03  0.29577777015E+03  0.00000000000E+00 0. -1.
         24    2    1    2    0    0  0.19805503327E+02 -0.45383162918E+03  0.38908527975E+04  0.39179707671E+04  0.73512139990E+02 0.  0.
        254    2    1    2    0    0 -0.19805503327E+02  0.45383162918E+03  0.61704105258E+03  0.11814786233E+04  0.89933123543E+03 0.  0.
         23    2    4    4    0    0 -0.15849712276E+03  0.31816273011E+03 -0.14149177001E+03  0.39303254069E+03  0.90032195961E+02 0.  0.
         23    2    4    4    0    0  0.13869161943E+03  0.13566889908E+03  0.75853282259E+03  0.78844608256E+03  0.92918064319E+02 0.  0.
          2    1    3    3  502    0 -0.59669623277E+01 -0.14016874380E+03  0.94564376934E+03  0.95599425723E+03  0.00000000000E+00 0. -1.
         -1    1    3    3    0  502  0.25772465655E+02 -0.31366288538E+03  0.29452090281E+04  0.29619765099E+04  0.00000000000E+00 0.  1.
         11    1    5    5    0    0 -0.16647336508E+03  0.27072207286E+03 -0.13125824550E+03  0.34384960233E+03  0.00000000000E+00 0. -1.
        -11    1    5    5    0    0  0.79762423178E+01  0.47440657250E+02 -0.10233524514E+02  0.49182938361E+02  0.00000000000E+00 0.  1.
          4    1    6    6  503    0  0.11839413822E+03  0.13634609169E+03  0.54907197358E+03  0.57800299381E+03  0.00000000000E+00 0. -1.
         -4    1    6    6    0  503  0.20297481214E+02 -0.67719261035E+00  0.20946084901E+03  0.21044308875E+03  0.00000000000E+00 0.  1.
<mgrwt>
<rscale>  0 0.23839625E+04</rscale>
<asrwt>0</asrwt>
<pdfrwt beam="1">  1        2 0.45504276E-01 0.23839625E+04</pdfrwt>
<pdfrwt beam="2">  1       -1 0.73902635E+00 0.23839625E+04</pdfrwt>
<totfact> 0.16237340E-02</totfact>
</mgrwt>
</event>
<event>
12    6  0.1403409E-007  0.1852087E+04  0.7818608E-02  0.8679080E-01
         -1   -1    0    0    0  501 -0.00000000000E+00  0.00000000000E+00  0.67535175585E+03  0.67535175585E+03  0.00000000000E+00 0.  1.
          2   -1    0    0  501    0  0.00000000000E+00 -0.00000000000E+00 -0.12697930433E+04  0.12697930433E+04  0.00000000000E+00 0. -1.
         24    2    1    2    0    0 -0.32267337770E+03  0.60697981684E+03 -0.39008062434E+03  0.79437504709E+03  0.79537508230E+02 0.  0.
        254    2    1    2    0    0  0.32267337770E+03 -0.60697981684E+03 -0.20436066310E+03  0.11507697520E+04  0.89998063028E+03 0.  0.
         23    2    4    4    0    0 -0.14437102313E+03 -0.22019636460E+03 -0.41754551142E+03  0.50174672792E+03  0.89867088385E+02 0.  0.
         23    2    4    4    0    0  0.46704440083E+03 -0.38678345225E+03  0.21318484832E+03  0.64902302412E+03  0.89728451524E+02 0.  0.
          2    1    3    3  502    0 -0.15281340894E+03  0.21082730234E+03 -0.16282492123E+03  0.30710266091E+03  0.00000000000E+00 0. -1.
         -1    1    3    3    0  502 -0.16985996876E+03  0.39615251451E+03 -0.22725570311E+03  0.48727238618E+03  0.00000000000E+00 0.  1.
         11    1    5    5    0    0 -0.11219580649E+03 -0.11700025200E+03 -0.18946220708E+03  0.24934491347E+03  0.00000000000E+00 0.  1.
        -11    1    5    5    0    0 -0.32175216639E+02 -0.10319611259E+03 -0.22808330434E+03  0.25240181445E+03  0.00000000000E+00 0. -1.
          3    1    6    6  503    0  0.28558204648E+03 -0.25864536523E+03  0.17677489693E+03  0.42391496130E+03  0.00000000000E+00 0. -1.
         -3    1    6    6    0  503  0.18146235434E+03 -0.12813808701E+03  0.36409951392E+02  0.22510806282E+03  0.00000000000E+00 0.  1.
<mgrwt>
<rscale>  0 0.18520874E+04</rscale>
<asrwt>0</asrwt>
<pdfrwt beam="1">  1        2 0.19535278E+00 0.18520874E+04</pdfrwt>
<pdfrwt beam="2">  1       -1 0.10390027E+00 0.18520874E+04</pdfrwt>
<totfact> 0.16103564E+01</totfact>
</mgrwt>
</event>
<event>
12    6  0.1403409E-007  0.3033262E+04  0.7818608E-02  0.8234296E-01
          2   -1    0    0  501    0  0.00000000000E+00  0.00000000000E+00  0.24651521046E+04  0.24651521046E+04  0.00000000000E+00 0. -1.
         -1   -1    0    0    0  501 -0.00000000000E+00 -0.00000000000E+00 -0.93307413544E+03  0.93307413544E+03  0.00000000000E+00 0.  1.
         24    2    1    2    0    0  0.44101878934E+03 -0.12942469540E+04  0.92292257797E+03  0.16514061333E+04  0.76048548131E+02 0.  0.
        254    2    1    2    0    0 -0.44101878934E+03  0.12942469540E+04  0.60915539115E+03  0.17468201067E+04  0.90040959811E+03 0.  0.
         23    2    4    4    0    0  0.17351292593E+03  0.79937334890E+03  0.17304130764E+03  0.84093971995E+03  0.90176671268E+02 0.  0.
         23    2    4    4    0    0 -0.61453171526E+03  0.49487360506E+03  0.43611408352E+03  0.90588038679E+03  0.88739322123E+02 0.  0.
          4    1    3    3  502    0  0.16693658972E+03 -0.57520949687E+03  0.43515761010E+03  0.74033501600E+03  0.00000000000E+00 0. -1.
         -3    1    3    3    0  502  0.27408219962E+03 -0.71903745708E+03  0.48776496786E+03  0.91107111726E+03  0.00000000000E+00 0.  1.
         11    1    5    5    0    0  0.16822331858E+03  0.72660505178E+03  0.18121255944E+03  0.76752327515E+03  0.00000000000E+00 0.  1.
        -11    1    5    5    0    0  0.52896073490E+01  0.72768297115E+02 -0.81712518078E+01  0.73416444799E+02  0.00000000000E+00 0. -1.
          1    1    6    6  503    0 -0.35035213515E+03  0.27104916766E+03  0.29372757745E+03  0.53149803353E+03  0.00000000000E+00 0. -1.
         -1    1    6    6    0  503 -0.26417958012E+03  0.22382443739E+03  0.14238650607E+03  0.37438235326E+03  0.00000000000E+00 0.  1.
<mgrwt>
<rscale>  0 0.30332621E+04</rscale>
<asrwt>0</asrwt>
<pdfrwt beam="1">  1        2 0.37925417E+00 0.30332621E+04</pdfrwt>
<pdfrwt beam="2">  1       -1 0.14354987E+00 0.30332621E+04</pdfrwt>
<totfact> 0.13882368E+00</totfact>
</mgrwt>
</event>
<event>
12    6  0.1403409E-007  0.3180809E+04  0.7818608E-02  0.8193904E-01
         -1   -1    0    0    0  501 -0.00000000000E+00  0.00000000000E+00  0.11170801645E+04  0.11170801645E+04  0.00000000000E+00 0.  1.
          2   -1    0    0  501    0  0.00000000000E+00 -0.00000000000E+00 -0.22642843968E+04  0.22642843968E+04  0.00000000000E+00 0. -1.
         24    2    1    2    0    0  0.20727658366E+03  0.13728375848E+04 -0.10171680935E+04  0.17229039526E+04  0.78233517085E+02 0.  0.
        254    2    1    2    0    0 -0.20727658366E+03 -0.13728375848E+04 -0.13003613875E+03  0.16584606087E+04  0.89773914751E+03 0.  0.
         23    2    4    4    0    0 -0.48186650801E+02 -0.96408403060E+02  0.27283279854E+03  0.30766042577E+03  0.92739787203E+02 0.  0.
         23    2    4    4    0    0 -0.15908993286E+03 -0.12764291817E+04 -0.40286893730E+03  0.13508001829E+04  0.88185548304E+02 0.  0.
          4    1    3    3  502    0  0.29181529906E+02  0.12906362224E+03 -0.72067897450E+02  0.15067435785E+03  0.00000000000E+00 0. -1.
         -3    1    3    3    0  502  0.17809505375E+03  0.12437739625E+04 -0.94510019606E+03  0.15722295948E+04  0.00000000000E+00 0.  1.
         11    1    5    5    0    0 -0.62668824652E+01 -0.49008898875E+02  0.21923823258E+03  0.22473662054E+03  0.00000000000E+00 0. -1.
        -11    1    5    5    0    0 -0.41919768336E+02 -0.47399504185E+02  0.53594565960E+02  0.82923805236E+02  0.00000000000E+00 0.  1.
          1    1    6    6  503    0 -0.16181135302E+03 -0.12294613906E+04 -0.37249835011E+03  0.12948023964E+04  0.00000000000E+00 0. -1.
         -1    1    6    6    0  503  0.27214201561E+01 -0.46967791148E+02 -0.30370587184E+02  0.55997786553E+02  0.00000000000E+00 0.  1.
<mgrwt>
<rscale>  0 0.31808094E+04</rscale>
<asrwt>0</asrwt>
<pdfrwt beam="1">  1        2 0.34835145E+00 0.31808094E+04</pdfrwt>
<pdfrwt beam="2">  1       -1 0.17185849E+00 0.31808094E+04</pdfrwt>
<totfact> 0.10859630E+00</totfact>
</mgrwt>
</event>
<event>
12    6  0.1403409E-007  0.2232920E+04  0.7818608E-02  0.8504850E-01
         -1   -1    0    0    0  501 -0.00000000000E+00  0.00000000000E+00  0.42537117084E+03  0.42537117084E+03  0.00000000000E+00 0.  1.
          2   -1    0    0  501    0  0.00000000000E+00 -0.00000000000E+00 -0.29303422412E+04  0.29303422412E+04  0.00000000000E+00 0. -1.
         24    2    1    2    0    0  0.83339405057E+03 -0.77459137293E+02 -0.16707134282E+04  0.18703434302E+04  0.79722183083E+02 0.  0.
        254    2    1    2    0    0 -0.83339405057E+03  0.77459137293E+02 -0.83425764223E+03  0.14853699818E+04  0.89988477478E+03 0.  0.
         23    2    4    4    0    0 -0.67611117105E+03  0.42822657960E+03 -0.40575960692E+03  0.90238578474E+03  0.95681381657E+02 0.  0.
         23    2    4    4    0    0 -0.15728287951E+03 -0.35076744231E+03 -0.42849803530E+03  0.58298419710E+03  0.92110287402E+02 0.  0.
          4    1    3    3  502    0  0.52986523612E+03 -0.18358620802E+02 -0.11058680092E+04  0.12263923766E+04  0.00000000000E+00 0. -1.
         -3    1    3    3    0  502  0.30352881444E+03 -0.59100516491E+02 -0.56484541893E+03  0.64395105367E+03  0.00000000000E+00 0.  1.
         11    1    5    5    0    0 -0.28652176213E+03  0.17173643773E+03 -0.11775986805E+03  0.35419699425E+03  0.00000000000E+00 0. -1.
        -11    1    5    5    0    0 -0.38958940893E+03  0.25649014187E+03 -0.28799973888E+03  0.54818879049E+03  0.00000000000E+00 0.  1.
          1    1    6    6  503    0 -0.33993744833E+02 -0.10641913468E+03 -0.18776466712E+03  0.21848610283E+03  0.00000000000E+00 0. -1.
         -1    1    6    6    0  503 -0.12328913468E+03 -0.24434830762E+03 -0.24073336819E+03  0.36449809427E+03  0.00000000000E+00 0.  1.
<mgrwt>
<rscale>  0 0.22329202E+04</rscale>
<asrwt>0</asrwt>
<pdfrwt beam="1">  1        2 0.45082190E+00 0.22329202E+04</pdfrwt>
<pdfrwt beam="2">  1       -1 0.65441716E-01 0.22329202E+04</pdfrwt>
<totfact> 0.47282814E+00</totfact>
</mgrwt>
</event>
<event>
12    6  0.1403409E-007  0.2859498E+04  0.7818608E-02  0.8285031E-01
          2   -1    0    0  501    0  0.00000000000E+00  0.00000000000E+00  0.19995926510E+04  0.19995926510E+04  0.00000000000E+00 0. -1.
         -1   -1    0    0    0  501 -0.00000000000E+00 -0.00000000000E+00 -0.10222991438E+04  0.10222991438E+04  0.00000000000E+00 0.  1.
         24    2    1    2    0    0  0.93032025704E+02  0.86802549797E+03  0.14386849836E+04  0.16847579692E+04  0.80446939134E+02 0.  0.
        254    2    1    2    0    0 -0.93032025704E+02 -0.86802549797E+03 -0.46139147635E+03  0.13371338256E+04  0.90162162255E+03 0.  0.
         23    2    4    4    0    0 -0.21559360975E+03 -0.36862409575E+03 -0.64878978203E+03  0.78208672095E+03  0.91472013704E+02 0.  0.
         23    2    4    4    0    0  0.12256158405E+03 -0.49940140222E+03  0.18739830568E+03  0.55504710468E+03  0.92390805910E+02 0.  0.
          4    1    3    3  502    0  0.85994743092E+02  0.44171341456E+03  0.71602190364E+03  0.84569096184E+03  0.00000000000E+00 0. -1.
         -3    1    3    3    0  502  0.70372826115E+01  0.42631208341E+03  0.72266307991E+03  0.83906700738E+03  0.00000000000E+00 0.  1.
         11    1    5    5    0    0 -0.15792063138E+03 -0.32033184868E+03 -0.48960052839E+03  0.60601988127E+03  0.00000000000E+00 0.  1.
        -11    1    5    5    0    0 -0.57672978370E+02 -0.48292247067E+02 -0.15918925364E+03  0.17606683968E+03  0.00000000000E+00 0. -1.
          2    1    6    6  503    0  0.21684281532E+02 -0.14028958986E+03  0.10864115214E+02  0.14237066442E+03  0.00000000000E+00 0. -1.
         -2    1    6    6    0  503  0.10087730251E+03 -0.35911181236E+03  0.17653419046E+03  0.41267644025E+03  0.00000000000E+00 0.  1.
<mgrwt>
<rscale>  0 0.28594978E+04</rscale>
<asrwt>0</asrwt>
<pdfrwt beam="1">  1        2 0.30762964E+00 0.28594978E+04</pdfrwt>
<pdfrwt beam="2">  1       -1 0.15727679E+00 0.28594978E+04</pdfrwt>
<totfact> 0.20185269E+00</totfact>
</mgrwt>
</event>
<event>
12    6  0.1403409E-007  0.3462431E+04  0.7818608E-02  0.8122751E-01
         -1   -1    0    0    0  501 -0.00000000000E+00  0.00000000000E+00  0.19062772770E+04  0.19062772770E+04  0.00000000000E+00 0.  1.
          2   -1    0    0  501    0  0.00000000000E+00 -0.00000000000E+00 -0.15722304630E+04  0.15722304630E+04  0.00000000000E+00 0. -1.
         24    2    1    2    0    0 -0.69520550145E+03 -0.73784855633E+03  0.14157873555E+04  0.17431510331E+04  0.79940646675E+02 0.  0.
        254    2    1    2    0    0  0.69520550145E+03  0.73784855633E+03 -0.10817405415E+04  0.17353567069E+04  0.90198066488E+03 0.  0.
         23    2    4    4    0    0  0.31452969317E+03  0.69353679516E+03 -0.23586272312E+03  0.80224747819E+03  0.89708293826E+02 0.  0.
         23    2    4    4    0    0  0.38067580828E+03  0.44311761175E+02 -0.84587781836E+03  0.93310922872E+03  0.91136962586E+02 0.  0.
          4    1    3    3  502    0 -0.40340011267E+03 -0.46076372021E+03  0.90876004665E+03  0.10958465582E+04  0.00000000000E+00 0. -1.
         -3    1    3    3    0  502 -0.29180538878E+03 -0.27708483612E+03  0.50702730885E+03  0.64730447492E+03  0.00000000000E+00 0.  1.
         11    1    5    5    0    0  0.19110777341E+03  0.48924533384E+03 -0.19398041450E+03  0.55992104707E+03  0.00000000000E+00 0. -1.
        -11    1    5    5    0    0  0.12342191975E+03  0.20429146132E+03 -0.41882308620E+02  0.24232643112E+03  0.00000000000E+00 0.  1.
          3    1    6    6  503    0  0.31811619777E+03  0.37011336253E+02 -0.60992810115E+03  0.68889770131E+03  0.00000000000E+00 0. -1.
         -3    1    6    6    0  503  0.62559610507E+02  0.73004249225E+01 -0.23594971721E+03  0.24421152742E+03  0.00000000000E+00 0.  1.
<mgrwt>
<rscale>  0 0.34624311E+04</rscale>
<asrwt>0</asrwt>
<pdfrwt beam="1">  1        2 0.24188161E+00 0.34624311E+04</pdfrwt>
<pdfrwt beam="2">  1       -1 0.29327343E+00 0.34624311E+04</pdfrwt>
<totfact> 0.39596709E-01</totfact>
</mgrwt>
</event>
<event>
12    6  0.1403409E-007  0.3850771E+04  0.7818608E-02  0.8035346E-01
          2   -1    0    0  501    0  0.00000000000E+00  0.00000000000E+00  0.35753507777E+04  0.35753507777E+04  0.00000000000E+00 0. -1.
         -1   -1    0    0    0  501 -0.00000000000E+00 -0.00000000000E+00 -0.10368519597E+04  0.10368519597E+04  0.00000000000E+00 0.  1.
         24    2    1    2    0    0  0.13258213889E+04 -0.12333628456E+04  0.97695092881E+03  0.20589170445E+04  0.75630780139E+02 0.  0.
        254    2    1    2    0    0 -0.13258213889E+04  0.12333628456E+04  0.15615478891E+04  0.25532856929E+04  0.89546063872E+03 0.  0.
         23    2    4    4    0    0 -0.26267316529E+03 -0.40284835380E+02  0.11362516073E+02  0.28090850887E+03  0.90335064416E+02 0.  0.
         23    2    4    4    0    0 -0.10631482236E+04  0.12736476810E+04  0.15501853731E+04  0.22723771840E+04  0.90337230037E+02 0.  0.
          4    1    3    3  502    0  0.13608484761E+03 -0.11520899054E+03  0.72962394934E+02  0.19265437531E+03  0.00000000000E+00 0. -1.
         -3    1    3    3    0  502  0.11897365412E+04 -0.11181538550E+04  0.90398853387E+03  0.18662626692E+04  0.00000000000E+00 0.  1.
         11    1    5    5    0    0 -0.11454640112E+03 -0.62302559760E+02 -0.33234615614E+01  0.13043593201E+03  0.00000000000E+00 0. -1.
        -11    1    5    5    0    0 -0.14812676417E+03  0.22017724380E+02  0.14685977635E+02  0.15047257687E+03  0.00000000000E+00 0.  1.
          2    1    6    6  503    0 -0.48867357229E+03  0.52695116548E+03  0.70437212065E+03  0.10062899559E+04  0.00000000000E+00 0. -1.
         -2    1    6    6    0  503 -0.57447465128E+03  0.74669651548E+03  0.84581325242E+03  0.12660872281E+04  0.00000000000E+00 0.  1.
<mgrwt>
<rscale>  0 0.38507711E+04</rscale>
<asrwt>0</asrwt>
<pdfrwt beam="1">  1        2 0.55005396E+00 0.38507711E+04</pdfrwt>
<pdfrwt beam="2">  1       -1 0.15951569E+00 0.38507711E+04</pdfrwt>
<totfact> 0.19164878E-01</totfact>
</mgrwt>
</event>
<event>
12    6  0.1403409E-007  0.1878694E+04  0.7818608E-02  0.8665535E-01
          2   -1    0    0  501    0  0.00000000000E+00  0.00000000000E+00  0.47536726437E+03  0.47536726437E+03  0.00000000000E+00 0. -1.
         -1   -1    0    0    0  501 -0.00000000000E+00 -0.00000000000E+00 -0.18561925537E+04  0.18561925537E+04  0.00000000000E+00 0.  1.
         24    2    1    2    0    0  0.71162288792E+03 -0.10554361971E+03 -0.63600350838E+03  0.96402027945E+03  0.85370054761E+02 0.  0.
        254    2    1    2    0    0 -0.71162288792E+03  0.10554361971E+03 -0.74482178092E+03  0.13675395386E+04  0.89322914978E+03 0.  0.
         23    2    4    4    0    0 -0.39563853550E+03 -0.34670891573E+02  0.12568762447E+03  0.42638814536E+03  0.90981042293E+02 0.  0.
         23    2    4    4    0    0 -0.31598435242E+03  0.14021451128E+03 -0.87050940540E+03  0.94115139324E+03  0.92049443064E+02 0.  0.
          2    1    3    3  502    0  0.62177332043E+03 -0.11834650180E+03 -0.54108751264E+03  0.83269661511E+03  0.00000000000E+00 0. -1.
         -1    1    3    3    0  502  0.89849567485E+02  0.12802882090E+02 -0.94915995736E+02  0.13132366433E+03  0.00000000000E+00 0.  1.
         11    1    5    5    0    0 -0.23478704335E+03 -0.16600832783E+02  0.12053852576E+03  0.26444296089E+03  0.00000000000E+00 0. -1.
        -11    1    5    5    0    0 -0.16085149215E+03 -0.18070058790E+02  0.51490987127E+01  0.16194518446E+03  0.00000000000E+00 0.  1.
          2    1    6    6  503    0 -0.12255399647E+03  0.10482073297E+02 -0.25694298869E+03  0.28486673261E+03  0.00000000000E+00 0. -1.
         -2    1    6    6    0  503 -0.19343035594E+03  0.12973243798E+03 -0.61356641671E+03  0.65628466063E+03  0.00000000000E+00 0.  1.
<mgrwt>
<rscale>  0 0.18786944E+04</rscale>
<asrwt>0</asrwt>
<pdfrwt beam="1">  1        2 0.73133426E-01 0.18786944E+04</pdfrwt>
<pdfrwt beam="2">  1       -1 0.28556808E+00 0.18786944E+04</pdfrwt>
<totfact> 0.28691909E+00</totfact>
</mgrwt>
</event>
<event>
12    6  0.1403409E-007  0.2544659E+04  0.7818608E-02  0.8387246E-01
          2   -1    0    0  501    0  0.00000000000E+00  0.00000000000E+00  0.88060395870E+03  0.88060395870E+03  0.00000000000E+00 0. -1.
         -1   -1    0    0    0  501 -0.00000000000E+00 -0.00000000000E+00 -0.18383097814E+04  0.18383097814E+04  0.00000000000E+00 0.  1.
         24    2    1    2    0    0  0.95262332473E+03  0.37745552225E+03  0.41940220343E+02  0.10282117148E+04  0.74138238185E+02 0.  0.
        254    2    1    2    0    0 -0.95262332473E+03 -0.37745552225E+03 -0.99964604309E+03  0.16907020253E+04  0.89956503758E+03 0.  0.
         23    2    4    4    0    0 -0.41574916634E+03  0.25711972157E+03 -0.54779151752E+03  0.73993693374E+03  0.92049979434E+02 0.  0.
         23    2    4    4    0    0 -0.53687415838E+03 -0.63457524382E+03 -0.45185452557E+03  0.95076509157E+03  0.94138966752E+02 0.  0.
          2    1    3    3  502    0  0.55535855273E+03  0.24083032229E+03  0.55690424659E+02  0.60788468448E+03  0.00000000000E+00 0. -1.
         -1    1    3    3    0  502  0.39726477200E+03  0.13662519996E+03 -0.13750204316E+02  0.42032703036E+03  0.00000000000E+00 0.  1.
         11    1    5    5    0    0 -0.37411769896E+03  0.20184999724E+03 -0.43966909189E+03  0.61156878961E+03  0.00000000000E+00 0. -1.
        -11    1    5    5    0    0 -0.41631467384E+02  0.55269724326E+02 -0.10812242564E+03  0.12836814414E+03  0.00000000000E+00 0.  1.
          1    1    6    6  503    0 -0.22581378982E+03 -0.33576651905E+03 -0.23615382548E+03  0.46850789991E+03  0.00000000000E+00 0. -1.
         -1    1    6    6    0  503 -0.31106036856E+03 -0.29880872477E+03 -0.21570070008E+03  0.48225719166E+03  0.00000000000E+00 0.  1.
<mgrwt>
<rscale>  0 0.25446594E+04</rscale>
<asrwt>0</asrwt>
<pdfrwt beam="1">  1        2 0.13547753E+00 0.25446594E+04</pdfrwt>
<pdfrwt beam="2">  1       -1 0.28281689E+00 0.25446594E+04</pdfrwt>
<totfact> 0.13071909E+00</totfact>
</mgrwt>
</event>
<event>
12    6  0.1403409E-007  0.2510590E+04  0.7818608E-02  0.8399223E-01
          2   -1    0    0  501    0  0.00000000000E+00  0.00000000000E+00  0.95691100693E+03  0.95691100693E+03  0.00000000000E+00 0. -1.
         -1   -1    0    0    0  501 -0.00000000000E+00 -0.00000000000E+00 -0.16467204991E+04  0.16467204991E+04  0.00000000000E+00 0.  1.
         24    2    1    2    0    0  0.83681427307E+03  0.64252891265E+03 -0.34650946176E+01  0.10580849650E+04  0.80188871520E+02 0.  0.
        254    2    1    2    0    0 -0.83681427307E+03 -0.64252891265E+03 -0.68634439756E+03  0.15455465410E+04  0.89696373794E+03 0.  0.
         23    2    4    4    0    0 -0.67499012429E+03 -0.43830075114E+03 -0.49468552062E+01  0.81002197751E+03  0.91607403315E+02 0.  0.
         23    2    4    4    0    0 -0.16182414879E+03 -0.20422816151E+03 -0.68139754235E+03  0.73552456350E+03  0.93795392804E+02 0.  0.
          2    1    3    3  502    0  0.31244799852E+03  0.26503337511E+03  0.32269281721E+02  0.41098387833E+03  0.00000000000E+00 0. -1.
         -1    1    3    3    0  502  0.52436627455E+03  0.37749553754E+03 -0.35734376339E+02  0.64710108669E+03  0.00000000000E+00 0.  1.
         11    1    5    5    0    0 -0.51840071685E+03 -0.28883977977E+03  0.20271987312E+01  0.59344067197E+03  0.00000000000E+00 0. -1.
        -11    1    5    5    0    0 -0.15658940744E+03 -0.14946097137E+03 -0.69740539374E+01  0.21658130554E+03  0.00000000000E+00 0.  1.
          4    1    6    6  503    0 -0.14024809139E+03 -0.20343655351E+03 -0.66157861482E+03  0.70621683782E+03  0.00000000000E+00 0. -1.
         -4    1    6    6    0  503 -0.21576057394E+02 -0.79160800189E+00 -0.19818927532E+02  0.29307725678E+02  0.00000000000E+00 0.  1.
<mgrwt>
<rscale>  0 0.25105895E+04</rscale>
<asrwt>0</asrwt>
<pdfrwt beam="1">  1        2 0.14721708E+00 0.25105895E+04</pdfrwt>
<pdfrwt beam="2">  1       -1 0.25334161E+00 0.25105895E+04</pdfrwt>
<totfact> 0.18098083E+00</totfact>
</mgrwt>
</event>
<event>
12    6  0.1403409E-007  0.2325329E+04  0.7818608E-02  0.8468001E-01
          2   -1    0    0  501    0  0.00000000000E+00  0.00000000000E+00  0.16556494092E+04  0.16556494092E+04  0.00000000000E+00 0. -1.
         -1   -1    0    0    0  501 -0.00000000000E+00 -0.00000000000E+00 -0.81647036372E+03  0.81647036372E+03  0.00000000000E+00 0.  1.
         24    2    1    2    0    0 -0.10377195138E+02  0.88897782122E+03  0.80332795944E+03  0.12008066918E+04  0.78814008550E+02 0.  0.
        254    2    1    2    0    0  0.10377195138E+02 -0.88897782122E+03  0.35851085998E+02  0.12713130810E+04  0.90805418168E+03 0.  0.
         23    2    4    4    0    0  0.72660617859E+02 -0.10504365613E+04  0.11316128089E+03  0.10630143259E+04  0.92181597699E+02 0.  0.
         23    2    4    4    0    0 -0.62283422721E+02  0.16145874007E+03 -0.77310194891E+02  0.20829875512E+03  0.86390715137E+02 0.  0.
          2    1    3    3  502    0  0.17023576061E+02  0.53883770310E+03  0.52727283958E+03  0.75409052492E+03  0.00000000000E+00 0. -1.
         -3    1    3    3    0  502 -0.27400771199E+02  0.35014011812E+03  0.27605511986E+03  0.44671616691E+03  0.00000000000E+00 0.  1.
         11    1    5    5    0    0  0.15407250307E+02 -0.68822097077E+03  0.10385750289E+03  0.69618378958E+03  0.00000000000E+00 0. -1.
        -11    1    5    5    0    0  0.57253367552E+02 -0.36221559052E+03  0.93037780019E+01  0.36683053634E+03  0.00000000000E+00 0.  1.
          4    1    6    6  503    0 -0.44265166540E+02  0.16806410903E+03 -0.65293499157E+02  0.18565610883E+03  0.00000000000E+00 0. -1.
         -4    1    6    6    0  503 -0.18018256181E+02 -0.66053689625E+01 -0.12016695734E+02  0.22642646296E+02  0.00000000000E+00 0.  1.
<mgrwt>
<rscale>  0 0.23253289E+04</rscale>
<asrwt>0</asrwt>
<pdfrwt beam="1">  1        2 0.25471529E+00 0.23253289E+04</pdfrwt>
<pdfrwt beam="2">  1       -1 0.12561083E+00 0.23253289E+04</pdfrwt>
<totfact> 0.59132372E+00</totfact>
</mgrwt>
</event>
<event>
12    6  0.1403409E-007  0.2065542E+04  0.7818608E-02  0.8576576E-01
         -1   -1    0    0    0  501 -0.00000000000E+00  0.00000000000E+00  0.67090027405E+03  0.67090027405E+03  0.00000000000E+00 0.  1.
          2   -1    0    0  501    0  0.00000000000E+00 -0.00000000000E+00 -0.15898284532E+04  0.15898284532E+04  0.00000000000E+00 0. -1.
         24    2    1    2    0    0 -0.47965005010E+03  0.61705476703E+03 -0.50868591195E+02  0.78721054171E+03  0.79322552493E+02 0.  0.
        254    2    1    2    0    0  0.47965005010E+03 -0.61705476703E+03 -0.86805958797E+03  0.14735181856E+04  0.89828037875E+03 0.  0.
         23    2    4    4    0    0 -0.15884796377E+03  0.23109827210E+02 -0.42349024839E+03  0.46184130744E+03  0.90480180548E+02 0.  0.
         23    2    4    4    0    0  0.63849801386E+03 -0.64016459424E+03 -0.44456933957E+03  0.10116768781E+04  0.91420930910E+02 0.  0.
          2    1    3    3  502    0 -0.19765148433E+03  0.21995119385E+03 -0.51511844849E+02  0.30016346729E+03  0.00000000000E+00 0. -1.
         -1    1    3    3    0  502 -0.28199856576E+03  0.39710357318E+03  0.64325365364E+00  0.48704707442E+03  0.00000000000E+00 0.  1.
         11    1    5    5    0    0 -0.14655997369E+03  0.21538696285E+02 -0.27096231843E+03  0.30881113861E+03  0.00000000000E+00 0.  1.
        -11    1    5    5    0    0 -0.12287990078E+02  0.15711309253E+01 -0.15252792996E+03  0.15303016883E+03  0.00000000000E+00 0. -1.
          1    1    6    6  503    0  0.10939998134E+03 -0.13464657051E+03 -0.51256956390E+02  0.18090143849E+03  0.00000000000E+00 0. -1.
         -1    1    6    6    0  503  0.52909803252E+03 -0.50551802373E+03 -0.39331238318E+03  0.83077543963E+03  0.00000000000E+00 0.  1.
<mgrwt>
<rscale>  0 0.20655424E+04</rscale>
<asrwt>0</asrwt>
<pdfrwt beam="1">  1        2 0.24458899E+00 0.20655424E+04</pdfrwt>
<pdfrwt beam="2">  1       -1 0.10321543E+00 0.20655424E+04</pdfrwt>
<totfact> 0.10538654E+01</totfact>
</mgrwt>
</event>
<event>
12    6  0.1403409E-007  0.2883847E+04  0.7818608E-02  0.8277700E-01
         -1   -1    0    0    0  501 -0.00000000000E+00  0.00000000000E+00  0.99699696150E+03  0.99699696150E+03  0.00000000000E+00 0.  1.
          2   -1    0    0  501    0  0.00000000000E+00 -0.00000000000E+00 -0.20854057513E+04  0.20854057513E+04  0.00000000000E+00 0. -1.
         24    2    1    2    0    0  0.12857952281E+04  0.18874822812E+03 -0.52737948760E+03  0.14048409418E+04  0.80954836259E+02 0.  0.
        254    2    1    2    0    0 -0.12857952281E+04 -0.18874822812E+03 -0.56102930220E+03  0.16775617710E+04  0.90031347625E+03 0.  0.
         23    2    4    4    0    0 -0.77185803865E+03 -0.52373666214E+03 -0.47712952954E+03  0.10515662732E+04  0.89856084751E+02 0.  0.
         23    2    4    4    0    0 -0.51393718943E+03  0.33498843402E+03 -0.83899772656E+02  0.62599549779E+03  0.92100520005E+02 0.  0.
          2    1    3    3  502    0  0.20709787182E+03  0.28643470217E+02 -0.11761936459E+03  0.23988391322E+03  0.00000000000E+00 0. -1.
         -1    1    3    3    0  502  0.10786973563E+04  0.16010475790E+03 -0.40976012301E+03  0.11649570285E+04  0.00000000000E+00 0.  1.
         11    1    5    5    0    0 -0.72810263834E+03 -0.46793259641E+03 -0.45128694097E+03  0.97609132249E+03  0.00000000000E+00 0.  1.
        -11    1    5    5    0    0 -0.43755400313E+02 -0.55804065725E+02 -0.25842588569E+02  0.75474950758E+02  0.00000000000E+00 0. -1.
          1    1    6    6  503    0 -0.35679566022E+03  0.18568368998E+03 -0.74272276827E+02  0.40902071706E+03  0.00000000000E+00 0. -1.
         -1    1    6    6    0  503 -0.15714152921E+03  0.14930474404E+03 -0.96274958294E+01  0.21697478073E+03  0.00000000000E+00 0.  1.
<mgrwt>
<rscale>  0 0.28838469E+04</rscale>
<asrwt>0</asrwt>
<pdfrwt beam="1">  1        2 0.32083165E+00 0.28838469E+04</pdfrwt>
<pdfrwt beam="2">  1       -1 0.15338415E+00 0.28838469E+04</pdfrwt>
<totfact> 0.19326610E+00</totfact>
</mgrwt>
</event>
<event>
12    6  0.1403409E-007  0.1487348E+04  0.7818608E-02  0.8892910E-01
         -1   -1    0    0    0  501 -0.00000000000E+00  0.00000000000E+00  0.57975443877E+03  0.57975443877E+03  0.00000000000E+00 0.  1.
          2   -1    0    0  501    0  0.00000000000E+00 -0.00000000000E+00 -0.95393997046E+03  0.95393997046E+03  0.00000000000E+00 0. -1.
         24    2    1    2    0    0  0.23053022465E+03 -0.39921792685E+03 -0.19232858086E+03  0.50570953514E+03  0.78947535249E+02 0.  0.
        254    2    1    2    0    0 -0.23053022465E+03  0.39921792685E+03 -0.18185695083E+03  0.10279848741E+04  0.90064522050E+03 0.  0.
         23    2    4    4    0    0  0.16078034952E+03  0.27190775360E+03 -0.42834743611E+03  0.53983474573E+03  0.90309907619E+02 0.  0.
         23    2    4    4    0    0 -0.39131057417E+03  0.12731017325E+03  0.24649048528E+03  0.48815012837E+03  0.90560161345E+02 0.  0.
          4    1    3    3  502    0  0.96413062850E+02 -0.22955255607E+03 -0.12868507062E+03  0.28026719767E+03  0.00000000000E+00 0. -1.
         -3    1    3    3    0  502  0.13411716180E+03 -0.16966537078E+03 -0.63643510235E+02  0.22544233747E+03  0.00000000000E+00 0.  1.
         11    1    5    5    0    0  0.15981886639E+03  0.21459242102E+03 -0.31886562159E+03  0.41625384304E+03  0.00000000000E+00 0. -1.
        -11    1    5    5    0    0  0.96148312977E+00  0.57315332573E+02 -0.10948181452E+03  0.12358090268E+03  0.00000000000E+00 0.  1.
          3    1    6    6  503    0 -0.32092542710E+03  0.73286900350E+02  0.16747825790E+03  0.36934139545E+03  0.00000000000E+00 0. -1.
         -3    1    6    6    0  503 -0.70385147070E+02  0.54023272903E+02  0.79012227373E+02  0.11880873292E+03  0.00000000000E+00 0.  1.
<mgrwt>
<rscale>  0 0.14873479E+04</rscale>
<asrwt>0</asrwt>
<pdfrwt beam="1">  1        2 0.14675999E+00 0.14873479E+04</pdfrwt>
<pdfrwt beam="2">  1       -1 0.89192991E-01 0.14873479E+04</pdfrwt>
<totfact> 0.36708725E+01</totfact>
</mgrwt>
</event>
<event>
12    6  0.1403409E-007  0.1471910E+04  0.7818608E-02  0.8903350E-01
          2   -1    0    0  501    0  0.00000000000E+00  0.00000000000E+00  0.48984154524E+03  0.48984154524E+03  0.00000000000E+00 0. -1.
         -1   -1    0    0    0  501 -0.00000000000E+00 -0.00000000000E+00 -0.11057243803E+04  0.11057243803E+04  0.00000000000E+00 0.  1.
         24    2    1    2    0    0  0.25544833699E+03  0.24924128180E+03  0.10840671344E+03  0.38187174922E+03  0.81847100778E+02 0.  0.
        254    2    1    2    0    0 -0.25544833699E+03 -0.24924128180E+03 -0.72428954851E+03  0.12136941763E+04  0.90613637724E+03 0.  0.
         23    2    4    4    0    0  0.31055017250E+03 -0.93173819740E+02 -0.98846130741E+02  0.35088382768E+03  0.90698029954E+02 0.  0.
         23    2    4    4    0    0 -0.56599850949E+03 -0.15606746206E+03 -0.62544341777E+03  0.86281034866E+03  0.92470878953E+02 0.  0.
          4    1    3    3  502    0  0.10063584007E+03  0.13645294768E+03  0.82600775842E+02  0.18859975452E+03  0.00000000000E+00 0. -1.
         -3    1    3    3    0  502  0.15481249693E+03  0.11278833412E+03  0.25805937603E+02  0.19327199470E+03  0.00000000000E+00 0.  1.
         11    1    5    5    0    0  0.15317131797E+03 -0.84175239296E+02 -0.79694210173E+02  0.19208875733E+03  0.00000000000E+00 0.  1.
        -11    1    5    5    0    0  0.15737885453E+03 -0.89985804436E+01 -0.19151920568E+02  0.15879507034E+03  0.00000000000E+00 0. -1.
          1    1    6    6  503    0 -0.18081392353E+03 -0.95315906112E+02 -0.21228482845E+03  0.29469245883E+03  0.00000000000E+00 0. -1.
         -1    1    6    6    0  503 -0.38518458596E+03 -0.60751555950E+02 -0.41315858932E+03  0.56811788983E+03  0.00000000000E+00 0.  1.
<mgrwt>
<rscale>  0 0.14719100E+04</rscale>
<asrwt>0</asrwt>
<pdfrwt beam="1">  1        2 0.75360238E-01 0.14719100E+04</pdfrwt>
<pdfrwt beam="2">  1       -1 0.17011144E+00 0.14719100E+04</pdfrwt>
<totfact> 0.17145972E+01</totfact>
</mgrwt>
</event>
<event>
12    6  0.1403409E-007  0.1111866E+04  0.7818608E-02  0.9193703E-01
         -1   -1    0    0    0  501 -0.00000000000E+00  0.00000000000E+00  0.17419814295E+03  0.17419814295E+03  0.00000000000E+00 0.  1.
          2   -1    0    0  501    0  0.00000000000E+00 -0.00000000000E+00 -0.17741947983E+04  0.17741947983E+04  0.00000000000E+00 0. -1.
         24    2    1    2    0    0  0.43954693757E+02 -0.16036560264E+03 -0.38382172795E+03  0.42568342261E+03  0.78981743632E+02 0.  0.
        254    2    1    2    0    0 -0.43954693757E+02  0.16036560264E+03 -0.12161749274E+04  0.15227095186E+04  0.90106252975E+03 0.  0.
         23    2    4    4    0    0  0.26626815356E+03  0.41468176677E+03 -0.58967415295E+03  0.77379602749E+03  0.90470924688E+02 0.  0.
         23    2    4    4    0    0 -0.31022284731E+03 -0.25431616413E+03 -0.62650077443E+03  0.74891349113E+03  0.86332325982E+02 0.  0.
          4    1    3    3  502    0  0.31819598761E+01 -0.13659848798E+03 -0.29481725085E+03  0.32494073796E+03  0.00000000000E+00 0. -1.
         -3    1    3    3    0  502  0.40772733881E+02 -0.23767114666E+02 -0.89004477100E+02  0.10074268465E+03  0.00000000000E+00 0.  1.
         11    1    5    5    0    0  0.17567990474E+03  0.24268896465E+03 -0.29264027718E+03  0.41880746689E+03  0.00000000000E+00 0. -1.
        -11    1    5    5    0    0  0.90588248819E+02  0.17199280212E+03 -0.29703387577E+03  0.35498856061E+03  0.00000000000E+00 0.  1.
          3    1    6    6  503    0 -0.28757469821E+03 -0.20350807705E+03 -0.56634988679E+03  0.66698346212E+03  0.00000000000E+00 0. -1.
         -3    1    6    6    0  503 -0.22648149106E+02 -0.50808087079E+02 -0.60150887642E+02  0.81930029017E+02  0.00000000000E+00 0.  1.
<mgrwt>
<rscale>  0 0.11118659E+04</rscale>
<asrwt>0</asrwt>
<pdfrwt beam="1">  1        2 0.27295304E+00 0.11118659E+04</pdfrwt>
<pdfrwt beam="2">  1       -1 0.26799715E-01 0.11118659E+04</pdfrwt>
<totfact> 0.12528718E+02</totfact>
</mgrwt>
</event>
<event>
12    6  0.1403409E-007  0.2276944E+04  0.7818608E-02  0.8487067E-01
         -1   -1    0    0    0  501 -0.00000000000E+00  0.00000000000E+00  0.12283288403E+04  0.12283288403E+04  0.00000000000E+00 0.  1.
          2   -1    0    0  501    0  0.00000000000E+00 -0.00000000000E+00 -0.10551888191E+04  0.10551888191E+04  0.00000000000E+00 0. -1.
         24    2    1    2    0    0  0.29875499957E+01  0.65739599312E+03 -0.62189802178E+03  0.90785314452E+03  0.72538026582E+02 0.  0.
        254    2    1    2    0    0 -0.29875499957E+01 -0.65739599312E+03  0.79503804292E+03  0.13756645148E+04  0.91004887258E+03 0.  0.
         23    2    4    4    0    0  0.75588317414E+02  0.11729373220E+03  0.51718041969E+03  0.54383540940E+03  0.93861348038E+02 0.  0.
         23    2    4    4    0    0 -0.78575867410E+02 -0.77468972531E+03  0.27785762323E+03  0.83182910545E+03  0.91741290792E+02 0.  0.
          4    1    3    3  502    0  0.20692878191E+02  0.60184768244E+02 -0.52332770817E+02  0.82396119070E+02  0.00000000000E+00 0. -1.
         -3    1    3    3    0  502 -0.17705328195E+02  0.59721122487E+03 -0.56956525097E+03  0.82545702545E+03  0.00000000000E+00 0.  1.
         11    1    5    5    0    0  0.14688992548E+02  0.10500709079E+03  0.32261684582E+03  0.33959370551E+03  0.00000000000E+00 0.  1.
        -11    1    5    5    0    0  0.60899324866E+02  0.12286641412E+02  0.19456357388E+03  0.20424170388E+03  0.00000000000E+00 0. -1.
          3    1    6    6  503    0 -0.29915089068E+02 -0.29157817883E+03  0.57886787940E+02  0.29877019118E+03  0.00000000000E+00 0. -1.
         -3    1    6    6    0  503 -0.48660778341E+02 -0.48311154649E+03  0.21997083529E+03  0.53305891426E+03  0.00000000000E+00 0.  1.
<mgrwt>
<rscale>  0 0.22769443E+04</rscale>
<asrwt>0</asrwt>
<pdfrwt beam="1">  1        2 0.16233674E+00 0.22769443E+04</pdfrwt>
<pdfrwt beam="2">  1       -1 0.18897367E+00 0.22769443E+04</pdfrwt>
<totfact> 0.43230759E+00</totfact>
</mgrwt>
</event>
<event>
12    6  0.1403409E-007  0.5271355E+04  0.7818608E-02  0.7787959E-01
         -1   -1    0    0    0  501 -0.00000000000E+00  0.00000000000E+00  0.26336602850E+04  0.26336602850E+04  0.00000000000E+00 0.  1.
          2   -1    0    0  501    0  0.00000000000E+00 -0.00000000000E+00 -0.26376962035E+04  0.26376962035E+04  0.00000000000E+00 0. -1.
         24    2    1    2    0    0  0.15809169004E+03 -0.23521358698E+04 -0.99553792119E+03  0.25602494711E+04  0.79028279555E+02 0.  0.
        254    2    1    2    0    0 -0.15809169004E+03  0.23521358698E+04  0.99150200275E+03  0.27111070174E+04  0.89971601392E+03 0.  0.
         23    2    4    4    0    0 -0.46339993775E+03  0.90392963635E+03  0.57511803562E+03  0.11709142937E+04  0.91930618189E+02 0.  0.
         23    2    4    4    0    0  0.30530824771E+03  0.14482062335E+04  0.41638396713E+03  0.15401927237E+04  0.91124075662E+02 0.  0.
          2    1    3    3  502    0  0.16037193111E+03 -0.19397938898E+04 -0.82382304995E+03  0.21135760949E+04  0.00000000000E+00 0. -1.
         -1    1    3    3    0  502 -0.22802410716E+01 -0.41234198003E+03 -0.17171487123E+03  0.44667337619E+03  0.00000000000E+00 0.  1.
         11    1    5    5    0    0 -0.24829502904E+03  0.57932721489E+03  0.36783072600E+03  0.72977385973E+03  0.00000000000E+00 0. -1.
        -11    1    5    5    0    0 -0.21510490871E+03  0.32460242147E+03  0.20728730962E+03  0.44114043399E+03  0.00000000000E+00 0.  1.
          3    1    6    6  503    0 -0.52031034272E+00  0.20173251229E+02 -0.37977670498E+01  0.20534211029E+02  0.00000000000E+00 0. -1.
         -3    1    6    6    0  503  0.30582855805E+03  0.14280329823E+04  0.42018173418E+03  0.15196585126E+04  0.00000000000E+00 0.  1.
<mgrwt>
<rscale>  0 0.52713549E+04</rscale>
<asrwt>0</asrwt>
<pdfrwt beam="1">  1        2 0.40579942E+00 0.52713549E+04</pdfrwt>
<pdfrwt beam="2">  1       -1 0.40517851E+00 0.52713549E+04</pdfrwt>
<totfact> 0.15468001E-02</totfact>
</mgrwt>
</event>
<event>
12    6  0.1403409E-007  0.1551795E+04  0.7818608E-02  0.8850722E-01
          2   -1    0    0  501    0  0.00000000000E+00  0.00000000000E+00  0.12886294356E+04  0.12886294356E+04  0.00000000000E+00 0. -1.
         -1   -1    0    0    0  501 -0.00000000000E+00 -0.00000000000E+00 -0.46717641794E+03  0.46717641794E+03  0.00000000000E+00 0.  1.
         24    2    1    2    0    0 -0.38147484732E+03  0.17196363546E+03 -0.60897499040E+02  0.43043782557E+03  0.80459090463E+02 0.  0.
        254    2    1    2    0    0  0.38147484732E+03 -0.17196363546E+03  0.88235051674E+03  0.13253680280E+04  0.89608226421E+03 0.  0.
         23    2    4    4    0    0  0.36668376661E+03  0.10379957529E+03 -0.42670881673E+01  0.39207968825E+03  0.92070284964E+02 0.  0.
         23    2    4    4    0    0  0.14791080713E+02 -0.27576321075E+03  0.88661760491E+03  0.93328833977E+03  0.93124772948E+02 0.  0.
          4    1    3    3  502    0 -0.60871990367E+01  0.12562078543E+02  0.90744022674E+01  0.16649462032E+02  0.00000000000E+00 0. -1.
         -1    1    3    3    0  502 -0.37538764828E+03  0.15940155691E+03 -0.69971901308E+02  0.41378836354E+03  0.00000000000E+00 0.  1.
         11    1    5    5    0    0  0.10929518782E+03  0.59689553139E+02  0.31621473641E+02  0.12848423417E+03  0.00000000000E+00 0.  1.
        -11    1    5    5    0    0  0.25738857879E+03  0.44110022153E+02 -0.35888561808E+02  0.26359545408E+03  0.00000000000E+00 0. -1.
          2    1    6    6  503    0  0.35742355300E+02 -0.22152632487E+03  0.59444696554E+03  0.63538856097E+03  0.00000000000E+00 0. -1.
         -2    1    6    6    0  503 -0.20951274587E+02 -0.54236885878E+02  0.29217063937E+03  0.29789977880E+03  0.00000000000E+00 0.  1.
<mgrwt>
<rscale>  0 0.15517955E+04</rscale>
<asrwt>0</asrwt>
<pdfrwt beam="1">  1        2 0.19825068E+00 0.15517955E+04</pdfrwt>
<pdfrwt beam="2">  1       -1 0.71873296E-01 0.15517955E+04</pdfrwt>
<totfact> 0.35985856E+01</totfact>
</mgrwt>
</event>
<event>
12    6  0.1403409E-007  0.1526182E+04  0.7818608E-02  0.8867227E-01
         -1   -1    0    0    0  501 -0.00000000000E+00  0.00000000000E+00  0.50382911901E+03  0.50382911901E+03  0.00000000000E+00 0.  1.
          2   -1    0    0  501    0  0.00000000000E+00 -0.00000000000E+00 -0.11557641975E+04  0.11557641975E+04  0.00000000000E+00 0. -1.
         24    2    1    2    0    0 -0.45735467787E+03 -0.34227678694E+02 -0.14301498701E+02  0.46581380063E+03  0.80206786700E+02 0.  0.
        254    2    1    2    0    0  0.45735467787E+03  0.34227678694E+02 -0.63763357982E+03  0.11937795159E+04  0.89899283375E+03 0.  0.
         23    2    4    4    0    0 -0.20108303753E+02  0.22111457980E+03 -0.62847317835E+03  0.67266804341E+03  0.90596685607E+02 0.  0.
         23    2    4    4    0    0  0.47746298162E+03 -0.18688690111E+03 -0.91604014654E+01  0.52111147249E+03  0.92604757878E+02 0.  0.
          2    1    3    3  502    0 -0.40880460756E+03 -0.10268676790E+02 -0.28242547082E+02  0.40990766564E+03  0.00000000000E+00 0. -1.
         -1    1    3    3    0  502 -0.48550070310E+02 -0.23959001904E+02  0.13941048381E+02  0.55906134988E+02  0.00000000000E+00 0.  1.
         11    1    5    5    0    0 -0.26524863250E+02  0.21813184362E+03 -0.62827057543E+03  0.66558920178E+03  0.00000000000E+00 0. -1.
        -11    1    5    5    0    0  0.64165594972E+01  0.29827361842E+01 -0.20260291653E+00  0.70788416332E+01  0.00000000000E+00 0.  1.
          1    1    6    6  503    0  0.35027452774E+03 -0.13011543464E+03 -0.47448600803E+02  0.37666117511E+03  0.00000000000E+00 0. -1.
         -1    1    6    6    0  503  0.12718845388E+03 -0.56771466464E+02  0.38288199337E+02  0.14445029738E+03  0.00000000000E+00 0.  1.
<mgrwt>
<rscale>  0 0.15261817E+04</rscale>
<asrwt>0</asrwt>
<pdfrwt beam="1">  1        2 0.17780988E+00 0.15261817E+04</pdfrwt>
<pdfrwt beam="2">  1       -1 0.77512172E-01 0.15261817E+04</pdfrwt>
<totfact> 0.36948873E+01</totfact>
</mgrwt>
</event>
<event>
12    6  0.1403409E-007  0.1699985E+04  0.7818608E-02  0.8761373E-01
          2   -1    0    0  501    0  0.00000000000E+00  0.00000000000E+00  0.20879500823E+04  0.20879500823E+04  0.00000000000E+00 0. -1.
         -1   -1    0    0    0  501 -0.00000000000E+00 -0.00000000000E+00 -0.34602702711E+03  0.34602702711E+03  0.00000000000E+00 0.  1.
         24    2    1    2    0    0 -0.17489797486E+03  0.34512182942E+03  0.13031824701E+04  0.13617940851E+04  0.80623824599E+02 0.  0.
        254    2    1    2    0    0  0.17489797486E+03 -0.34512182942E+03  0.43874058513E+03  0.10721830243E+04  0.89854591307E+03 0.  0.
         23    2    4    4    0    0  0.47641408695E+03 -0.30346606994E+03  0.48629228532E+03  0.75084738308E+03  0.90716966850E+02 0.  0.
         23    2    4    4    0    0 -0.30151611209E+03 -0.41655759479E+02 -0.47551700184E+02  0.32133564126E+03  0.91368824061E+02 0.  0.
          2    1    3    3  502    0 -0.54513883580E+02  0.11030845919E+03  0.55399645501E+03  0.56749607209E+03  0.00000000000E+00 0. -1.
         -1    1    3    3    0  502 -0.12038409128E+03  0.23481337023E+03  0.74918601509E+03  0.79429801302E+03  0.00000000000E+00 0.  1.
         11    1    5    5    0    0  0.35578146237E+03 -0.19456110567E+03  0.38615048488E+03  0.55995238171E+03  0.00000000000E+00 0. -1.
        -11    1    5    5    0    0  0.12063262458E+03 -0.10890496427E+03  0.10014180043E+03  0.19089500137E+03  0.00000000000E+00 0.  1.
          2    1    6    6  503    0 -0.20393448127E+03 -0.70774945225E+02 -0.28589199820E+02  0.21775148190E+03  0.00000000000E+00 0. -1.
         -2    1    6    6    0  503 -0.97581630817E+02  0.29119185746E+02 -0.18962500364E+02  0.10358415937E+03  0.00000000000E+00 0.  1.
<mgrwt>
<rscale>  0 0.16999849E+04</rscale>
<asrwt>0</asrwt>
<pdfrwt beam="1">  1        2 0.32122308E+00 0.16999849E+04</pdfrwt>
<pdfrwt beam="2">  1       -1 0.53234928E-01 0.16999849E+04</pdfrwt>
<totfact> 0.23023094E+01</totfact>
</mgrwt>
</event>
<event>
12    6  0.1403409E-007  0.2368464E+04  0.7818608E-02  0.8451406E-01
         -3   -1    0    0    0  501 -0.00000000000E+00  0.00000000000E+00  0.24048564766E+04  0.24048564766E+04  0.00000000000E+00 0.  1.
          2   -1    0    0  501    0  0.00000000000E+00 -0.00000000000E+00 -0.58315531682E+03  0.58315531682E+03  0.00000000000E+00 0. -1.
         24    2    1    2    0    0 -0.50541409129E+03 -0.77469115672E+03  0.13022664791E+04  0.16000866672E+04  0.93752696145E+02 0.  0.
        254    2    1    2    0    0  0.50541409129E+03  0.77469115672E+03  0.51943468066E+03  0.13879251262E+04  0.89494914740E+03 0.  0.
         23    2    4    4    0    0 -0.50349259639E+02  0.48985183515E+02 -0.19349990114E+03  0.22523635104E+03  0.91403533510E+02 0.  0.
         23    2    4    4    0    0  0.55576335093E+03  0.72570597321E+03  0.71293458180E+03  0.11626887751E+04  0.89707347079E+02 0.  0.
          2    1    3    3  502    0 -0.68698979635E+02 -0.14730348184E+03  0.18385575851E+03  0.24539927771E+03  0.00000000000E+00 0. -1.
         -1    1    3    3    0  502 -0.43671511166E+03 -0.62738767488E+03  0.11184107206E+04  0.13546873895E+04  0.00000000000E+00 0.  1.
         11    1    5    5    0    0  0.95398295293E+01  0.10734513353E+02 -0.12732923479E+03  0.12813653717E+03  0.00000000000E+00 0.  1.
        -11    1    5    5    0    0 -0.59889089168E+02  0.38250670163E+02 -0.66170666352E+02  0.97099813876E+02  0.00000000000E+00 0. -1.
          2    1    6    6  503    0  0.21093167890E+03  0.22148244720E+03  0.20451792754E+03  0.36793237186E+03  0.00000000000E+00 0. -1.
         -2    1    6    6    0  503  0.34483167204E+03  0.50422352601E+03  0.50841665426E+03  0.79475640328E+03  0.00000000000E+00 0.  1.
<mgrwt>
<rscale>  0 0.23684635E+04</rscale>
<asrwt>0</asrwt>
<pdfrwt beam="1">  1        2 0.89716204E-01 0.23684635E+04</pdfrwt>
<pdfrwt beam="2">  1       -3 0.36997791E+00 0.23684635E+04</pdfrwt>
<totfact> 0.44670845E-01</totfact>
</mgrwt>
</event>
<event>
12    6  0.1403409E-007  0.5099526E+04  0.7818608E-02  0.7813335E-01
          2   -1    0    0  501    0  0.00000000000E+00  0.00000000000E+00  0.30778256579E+04  0.30778256579E+04  0.00000000000E+00 0. -1.
         -1   -1    0    0    0  501 -0.00000000000E+00 -0.00000000000E+00 -0.21123004131E+04  0.21123004131E+04  0.00000000000E+00 0.  1.
         24    2    1    2    0    0 -0.16646423118E+04 -0.16347644486E+04  0.12911421571E+04  0.26677481203E+04  0.79643798603E+02 0.  0.
        254    2    1    2    0    0  0.16646423118E+04  0.16347644486E+04 -0.32561691234E+03  0.25223779507E+04  0.90159598691E+03 0.  0.
         23    2    4    4    0    0  0.15710088766E+04  0.10323422156E+04 -0.19323479161E+03  0.18918870801E+04  0.89987214999E+02 0.  0.
         23    2    4    4    0    0  0.93633435222E+02  0.60242223305E+03 -0.13238212072E+03  0.63049087054E+03  0.91180836184E+02 0.  0.
          4    1    3    3  502    0 -0.12142628519E+04 -0.12278810053E+04  0.98275998451E+03  0.19869431859E+04  0.00000000000E+00 0. -1.
         -3    1    3    3    0  502 -0.45037945988E+03 -0.40688344331E+03  0.30838217262E+03  0.68080493441E+03  0.00000000000E+00 0.  1.
         11    1    5    5    0    0  0.96310581504E+03  0.67429766433E+03 -0.14733453597E+03  0.11848871746E+04  0.00000000000E+00 0. -1.
        -11    1    5    5    0    0  0.60790306153E+03  0.35804455127E+03 -0.45900255645E+02  0.70699990550E+03  0.00000000000E+00 0.  1.
          4    1    6    6  503    0  0.12045511462E+02  0.50971474407E+02 -0.38928558933E+02  0.65258089539E+02  0.00000000000E+00 0. -1.
         -4    1    6    6    0  503  0.81587923760E+02  0.55145075864E+03 -0.93453561790E+02  0.56523278100E+03  0.00000000000E+00 0.  1.
<mgrwt>
<rscale>  0 0.50995264E+04</rscale>
<asrwt>0</asrwt>
<pdfrwt beam="1">  1        2 0.47351164E+00 0.50995264E+04</pdfrwt>
<pdfrwt beam="2">  1       -1 0.32496929E+00 0.50995264E+04</pdfrwt>
<totfact> 0.28971496E-02</totfact>
</mgrwt>
</event>
<event>
12    6  0.1403409E-007  0.1409248E+04  0.7818608E-02  0.8947151E-01
          2   -1    0    0  501    0  0.00000000000E+00  0.00000000000E+00  0.69036831625E+03  0.69036831625E+03  0.00000000000E+00 0. -1.
         -1   -1    0    0    0  501 -0.00000000000E+00 -0.00000000000E+00 -0.71917429099E+03  0.71917429099E+03  0.00000000000E+00 0.  1.
         24    2    1    2    0    0 -0.96928653652E+02  0.28609996334E+03 -0.28023216638E+03  0.41957284940E+03  0.79138839789E+02 0.  0.
        254    2    1    2    0    0  0.96928653652E+02 -0.28609996334E+03  0.25142619163E+03  0.98996975784E+03  0.90861247992E+03 0.  0.
         23    2    4    4    0    0 -0.25421517117E+01 -0.53677890119E+03 -0.82801552021E+02  0.55069682615E+03  0.90955186848E+02 0.  0.
         23    2    4    4    0    0  0.99470805364E+02  0.25067893785E+03  0.33422774365E+03  0.43927293169E+03  0.92293839899E+02 0.  0.
          2    1    3    3  502    0 -0.81114093691E+02  0.11849240741E+03 -0.11956121543E+03  0.18685510708E+03  0.00000000000E+00 0. -1.
         -1    1    3    3    0  502 -0.15814559962E+02  0.16760755593E+03 -0.16067095095E+03  0.23271774232E+03  0.00000000000E+00 0.  1.
         11    1    5    5    0    0 -0.33244168168E+01 -0.37546080534E+02  0.17386376588E+02  0.41509589271E+02  0.00000000000E+00 0.  1.
        -11    1    5    5    0    0  0.78226510507E+00 -0.49923282066E+03 -0.10018792861E+03  0.50918723688E+03  0.00000000000E+00 0. -1.
          2    1    6    6  503    0  0.66692968094E+02  0.24215375511E+03  0.29568946539E+03  0.38796733503E+03  0.00000000000E+00 0. -1.
         -2    1    6    6    0  503  0.32777837270E+02  0.85251827398E+01  0.38538278262E+02  0.51305596656E+02  0.00000000000E+00 0.  1.
<mgrwt>
<rscale>  0 0.14092482E+04</rscale>
<asrwt>0</asrwt>
<pdfrwt beam="1">  1        2 0.10621051E+00 0.14092482E+04</pdfrwt>
<pdfrwt beam="2">  1       -1 0.11064220E+00 0.14092482E+04</pdfrwt>
<totfact> 0.34886162E+01</totfact>
</mgrwt>
</event>
<event>
12    6  0.1403409E-007  0.3705403E+04  0.7818608E-02  0.8066765E-01
          2   -1    0    0  501    0  0.00000000000E+00  0.00000000000E+00  0.23833027108E+04  0.23833027108E+04  0.00000000000E+00 0. -1.
         -1   -1    0    0    0  501 -0.00000000000E+00 -0.00000000000E+00 -0.14402297721E+04  0.14402297721E+04  0.00000000000E+00 0.  1.
         24    2    1    2    0    0 -0.15117418807E+04  0.86106854089E+03  0.34503373327E+03  0.17752623116E+04  0.75534441936E+02 0.  0.
        254    2    1    2    0    0  0.15117418807E+04 -0.86106854089E+03  0.59803920546E+03  0.20482701713E+04  0.90053165270E+03 0.  0.
         23    2    4    4    0    0  0.96605564002E+03 -0.34403019641E+03 -0.79030571992E+02  0.10323803458E+04  0.89123911018E+02 0.  0.
         23    2    4    4    0    0  0.54568624069E+03 -0.51703834448E+03  0.67706977746E+03  0.10158898255E+04  0.92230857431E+02 0.  0.
          4    1    3    3  502    0 -0.30908519207E+03  0.20777790311E+03  0.59469241428E+02  0.37714970987E+03  0.00000000000E+00 0. -1.
         -3    1    3    3    0  502 -0.12026566886E+04  0.65329063777E+03  0.28556449184E+03  0.13981126017E+04  0.00000000000E+00 0.  1.
         11    1    5    5    0    0  0.55622778329E+03 -0.24445888548E+03 -0.43189483929E+02  0.60910986293E+03  0.00000000000E+00 0. -1.
        -11    1    5    5    0    0  0.40982785672E+03 -0.99571310922E+02 -0.35841088063E+02  0.42327048291E+03  0.00000000000E+00 0.  1.
          3    1    6    6  503    0  0.29019852512E+03 -0.25086176057E+03  0.40225986552E+03  0.55584152985E+03  0.00000000000E+00 0. -1.
         -3    1    6    6    0  503  0.25548771557E+03 -0.26617658391E+03  0.27480991194E+03  0.46004829564E+03  0.00000000000E+00 0.  1.
<mgrwt>
<rscale>  0 0.37054034E+04</rscale>
<asrwt>0</asrwt>
<pdfrwt beam="1">  1        2 0.36666195E+00 0.37054034E+04</pdfrwt>
<pdfrwt beam="2">  1       -1 0.22157381E+00 0.37054034E+04</pdfrwt>
<totfact> 0.40094407E-01</totfact>
</mgrwt>
</event>
<event>
12    6  0.1403409E-007  0.2324719E+04  0.7818608E-02  0.8468238E-01
         -1   -1    0    0    0  501 -0.00000000000E+00  0.00000000000E+00  0.10167579633E+04  0.10167579633E+04  0.00000000000E+00 0.  1.
          2   -1    0    0  501    0  0.00000000000E+00 -0.00000000000E+00 -0.13288114379E+04  0.13288114379E+04  0.00000000000E+00 0. -1.
         24    2    1    2    0    0  0.84880924027E+03 -0.46861579339E+03 -0.30912552321E+03  0.10209210478E+04  0.81506494451E+02 0.  0.
        254    2    1    2    0    0 -0.84880924027E+03  0.46861579339E+03 -0.29279514103E+01  0.13246483534E+04  0.90255570415E+03 0.  0.
         23    2    4    4    0    0 -0.65725494325E+03  0.45652787354E+03  0.37703030972E+03  0.88936444820E+03  0.91736075422E+02 0.  0.
         23    2    4    4    0    0 -0.19155429702E+03  0.12087919851E+02 -0.37995826113E+03  0.43528390520E+03  0.90910018210E+02 0.  0.
          2    1    3    3  502    0  0.10447294686E+03 -0.68150120489E+02 -0.67533293574E+02  0.14184421486E+03  0.00000000000E+00 0. -1.
         -1    1    3    3    0  502  0.74433629341E+03 -0.40046567290E+03 -0.24159222963E+03  0.87907683298E+03  0.00000000000E+00 0.  1.
         11    1    5    5    0    0 -0.34497977309E+03  0.18944766131E+03  0.16225069875E+03  0.42570735190E+03  0.00000000000E+00 0. -1.
        -11    1    5    5    0    0 -0.31227517016E+03  0.26708021223E+03  0.21477961097E+03  0.46365709630E+03  0.00000000000E+00 0.  1.
          1    1    6    6  503    0 -0.12154221962E+03  0.41661310894E+02 -0.17823099291E+03  0.21971450295E+03  0.00000000000E+00 0. -1.
         -1    1    6    6    0  503 -0.70012077403E+02 -0.29573391043E+02 -0.20172726823E+03  0.21556940225E+03  0.00000000000E+00 0.  1.
<mgrwt>
<rscale>  0 0.23247190E+04</rscale>
<asrwt>0</asrwt>
<pdfrwt beam="1">  1        2 0.20443253E+00 0.23247190E+04</pdfrwt>
<pdfrwt beam="2">  1       -1 0.15642430E+00 0.23247190E+04</pdfrwt>
<totfact> 0.51033445E+00</totfact>
</mgrwt>
</event>
<event>
12    6  0.1403409E-007  0.1087054E+04  0.7818608E-02  0.9217902E-01
         -3   -1    0    0    0  501 -0.00000000000E+00  0.00000000000E+00  0.10978464265E+03  0.10978464265E+03  0.00000000000E+00 0.  1.
          2   -1    0    0  501    0  0.00000000000E+00 -0.00000000000E+00 -0.26909215970E+04  0.26909215970E+04  0.00000000000E+00 0. -1.
         24    2    1    2    0    0 -0.39117362531E+02  0.13846294673E+03 -0.49695959406E+03  0.52366842603E+03  0.80979173970E+02 0.  0.
        254    2    1    2    0    0  0.39117362531E+02 -0.13846294673E+03 -0.20841773603E+04  0.22770378136E+04  0.90576143651E+03 0.  0.
         23    2    4    4    0    0  0.25263243981E+03 -0.37505800856E+03 -0.17344389504E+04  0.17945131911E+04  0.86645604693E+02 0.  0.
         23    2    4    4    0    0 -0.21351507728E+03  0.23659506182E+03 -0.34973840992E+03  0.48252462259E+03  0.94589346784E+02 0.  0.
          4    1    3    3  502    0 -0.15587236198E+02  0.85014795846E+01 -0.17171400894E+03  0.17262948171E+03  0.00000000000E+00 0. -1.
         -3    1    3    3    0  502 -0.23530126333E+02  0.12996146715E+03 -0.32524558512E+03  0.35103894432E+03  0.00000000000E+00 0.  1.
         11    1    5    5    0    0  0.13318215694E+03 -0.25782733678E+03 -0.10006553469E+04  0.10418846126E+04  0.00000000000E+00 0. -1.
        -11    1    5    5    0    0  0.11945028288E+03 -0.11723067178E+03 -0.73378360345E+03  0.75262857850E+03  0.00000000000E+00 0.  1.
          2    1    6    6  503    0 -0.15776324936E+03  0.10498214405E+03 -0.19922690878E+03  0.27495791424E+03  0.00000000000E+00 0.  1.
         -2    1    6    6    0  503 -0.55751827919E+02  0.13161291777E+03 -0.15051150114E+03  0.20756670835E+03  0.00000000000E+00 0. -1.
<mgrwt>
<rscale>  0 0.10870545E+04</rscale>
<asrwt>0</asrwt>
<pdfrwt beam="1">  1        2 0.41398790E+00 0.10870545E+04</pdfrwt>
<pdfrwt beam="2">  1       -3 0.16889947E-01 0.10870545E+04</pdfrwt>
<totfact> 0.54897335E+01</totfact>
</mgrwt>
</event>
<event>
12    6  0.1403409E-007  0.3008233E+04  0.7818608E-02  0.8241384E-01
          2   -1    0    0  501    0  0.00000000000E+00  0.00000000000E+00  0.22747520109E+04  0.22747520109E+04  0.00000000000E+00 0. -1.
         -1   -1    0    0    0  501 -0.00000000000E+00 -0.00000000000E+00 -0.99455518024E+03  0.99455518024E+03  0.00000000000E+00 0.  1.
         24    2    1    2    0    0 -0.13627602620E+04 -0.11169492656E+03  0.52695562184E+03  0.14674680700E+04  0.78670330111E+02 0.  0.
        254    2    1    2    0    0  0.13627602620E+04  0.11169492656E+03  0.75324120879E+03  0.18018391211E+04  0.89981143103E+03 0.  0.
         23    2    4    4    0    0  0.13207162658E+04  0.75656018351E+02  0.33125272976E+03  0.13666909629E+04  0.90002940033E+02 0.  0.
         23    2    4    4    0    0  0.42043996226E+02  0.36038908210E+02  0.42198847903E+03  0.43514815824E+03  0.90626390509E+02 0.  0.
          2    1    3    3  502    0 -0.34339406951E+03 -0.62306143020E+02  0.13015723577E+03  0.37248147398E+03  0.00000000000E+00 0. -1.
         -1    1    3    3    0  502 -0.10193661925E+04 -0.49388783541E+02  0.39679838607E+03  0.10949865960E+04  0.00000000000E+00 0.  1.
         11    1    5    5    0    0  0.69803500065E+03 -0.44339141405E+01  0.16691527235E+03  0.71772782437E+03  0.00000000000E+00 0. -1.
        -11    1    5    5    0    0  0.62268126512E+03  0.80089932492E+02  0.16433745741E+03  0.64896313849E+03  0.00000000000E+00 0.  1.
          4    1    6    6  503    0  0.21324455358E+01  0.19720901020E+02  0.12609083331E+02  0.23504260113E+02  0.00000000000E+00 0. -1.
         -4    1    6    6    0  503  0.39911550690E+02  0.16318007189E+02  0.40937939570E+03  0.41164389813E+03  0.00000000000E+00 0.  1.
<mgrwt>
<rscale>  0 0.30082330E+04</rscale>
<asrwt>0</asrwt>
<pdfrwt beam="1">  1        2 0.34996185E+00 0.30082330E+04</pdfrwt>
<pdfrwt beam="2">  1       -1 0.15300849E+00 0.30082330E+04</pdfrwt>
<totfact> 0.15064914E+00</totfact>
</mgrwt>
</event>
<event>
12    6  0.1403409E-007  0.2922903E+04  0.7818608E-02  0.8266096E-01
         -1   -1    0    0    0  501 -0.00000000000E+00  0.00000000000E+00  0.64699905459E+03  0.64699905459E+03  0.00000000000E+00 0.  1.
          2   -1    0    0  501    0  0.00000000000E+00 -0.00000000000E+00 -0.33011495874E+04  0.33011495874E+04  0.00000000000E+00 0. -1.
         24    2    1    2    0    0 -0.72107259989E+03 -0.64422704450E+03  0.82773916026E+01  0.96976621803E+03  0.73510701585E+02 0.  0.
        254    2    1    2    0    0  0.72107259989E+03  0.64422704450E+03 -0.26624279244E+04  0.29783824240E+04  0.92047011436E+03 0.  0.
         23    2    4    4    0    0  0.61105716644E+03  0.86159061100E+03 -0.23001419671E+04  0.25326850696E+04  0.90063040028E+02 0.  0.
         23    2    4    4    0    0  0.11001543345E+03 -0.21736356650E+03 -0.36228595732E+03  0.44569735439E+03  0.89692258295E+02 0.  0.
          4    1    3    3  502    0 -0.29876209860E+03 -0.31220892856E+03 -0.10257379859E+02  0.43224810060E+03  0.00000000000E+00 0. -1.
         -3    1    3    3    0  502 -0.42231050130E+03 -0.33201811594E+03  0.18534771462E+02  0.53751811743E+03  0.00000000000E+00 0.  1.
         11    1    5    5    0    0  0.18728699324E+02  0.63569915853E+02 -0.14720405229E+03  0.16143398462E+03  0.00000000000E+00 0.  1.
        -11    1    5    5    0    0  0.59232846712E+03  0.79802069515E+03 -0.21529379148E+04  0.23712510850E+04  0.00000000000E+00 0. -1.
          2    1    6    6  503    0  0.96750800981E+02 -0.16661337652E+03 -0.33528754208E+03  0.38670204370E+03  0.00000000000E+00 0. -1.
         -2    1    6    6    0  503  0.13264632468E+02 -0.50750189983E+02 -0.26998415234E+02  0.58995310686E+02  0.00000000000E+00 0.  1.
<mgrwt>
<rscale>  0 0.29229031E+04</rscale>
<asrwt>0</asrwt>
<pdfrwt beam="1">  1        2 0.50786917E+00 0.29229031E+04</pdfrwt>
<pdfrwt beam="2">  1       -1 0.99538316E-01 0.29229031E+04</pdfrwt>
<totfact> 0.10477082E+00</totfact>
</mgrwt>
</event>
<event>
12    6  0.1403409E-007  0.1876479E+04  0.7818608E-02  0.8666654E-01
          2   -1    0    0  501    0  0.00000000000E+00  0.00000000000E+00  0.93804569534E+03  0.93804569534E+03  0.00000000000E+00 0. -1.
         -1   -1    0    0    0  501 -0.00000000000E+00 -0.00000000000E+00 -0.93843363766E+03  0.93843363766E+03  0.00000000000E+00 0.  1.
         24    2    1    2    0    0 -0.94316896298E+01  0.26954373107E+03 -0.66761222982E+03  0.72423300780E+03  0.77875416269E+02 0.  0.
        254    2    1    2    0    0  0.94316896298E+01 -0.26954373107E+03  0.66722428750E+03  0.11522463252E+04  0.89985585756E+03 0.  0.
         23    2    4    4    0    0 -0.11509110841E+03  0.29849160593E+03  0.14341211019E+03  0.36468439920E+03  0.10042148987E+03 0.  0.
         23    2    4    4    0    0  0.12452279804E+03 -0.56803533700E+03  0.52381217731E+03  0.78756192600E+03  0.87775388764E+02 0.  0.
          2    1    3    3  502    0 -0.17026003602E+02  0.12068387662E+03 -0.20825005066E+03  0.24129352762E+03  0.00000000000E+00 0. -1.
         -3    1    3    3    0  502  0.75943139718E+01  0.14885985445E+03 -0.45936217916E+03  0.48293948018E+03  0.00000000000E+00 0.  1.
         11    1    5    5    0    0 -0.10367255338E+03  0.16478144046E+03  0.11933223309E+03  0.22834426487E+03  0.00000000000E+00 0. -1.
        -11    1    5    5    0    0 -0.11418555033E+02  0.13371016547E+03  0.24079877092E+02  0.13634013433E+03  0.00000000000E+00 0.  1.
          2    1    6    6  503    0  0.12333087030E+03 -0.46087194359E+03  0.39058204754E+03  0.61657747917E+03  0.00000000000E+00 0. -1.
         -2    1    6    6    0  503  0.11919277409E+01 -0.10716339341E+03  0.13323012978E+03  0.17098444683E+03  0.00000000000E+00 0.  1.
<mgrwt>
<rscale>  0 0.18764793E+04</rscale>
<asrwt>0</asrwt>
<pdfrwt beam="1">  1        2 0.14431472E+00 0.18764793E+04</pdfrwt>
<pdfrwt beam="2">  1       -1 0.14437441E+00 0.18764793E+04</pdfrwt>
<totfact> 0.11441675E+01</totfact>
</mgrwt>
</event>
<event>
12    6  0.1403409E-007  0.3147892E+04  0.7818608E-02  0.8202716E-01
         -1   -1    0    0    0  501 -0.00000000000E+00  0.00000000000E+00  0.24394100816E+04  0.24394100816E+04  0.00000000000E+00 0.  1.
          2   -1    0    0  501    0  0.00000000000E+00 -0.00000000000E+00 -0.10155348602E+04  0.10155348602E+04  0.00000000000E+00 0. -1.
         24    2    1    2    0    0 -0.12419046384E+04 -0.60045143369E+02  0.14626875741E+04  0.19213463888E+04  0.78641313603E+02 0.  0.
        254    2    1    2    0    0  0.12419046384E+04  0.60045143369E+02 -0.38812352637E+02  0.15335985530E+04  0.89693119734E+03 0.  0.
         23    2    4    4    0    0  0.50009451115E+03  0.33942162204E+03 -0.31697208638E+03  0.68858473641E+03  0.91520916112E+02 0.  0.
         23    2    4    4    0    0  0.74181012727E+03 -0.27937647867E+03  0.27815973374E+03  0.84501381655E+03  0.91334719224E+02 0.  0.
          4    1    3    3  502    0 -0.10943614553E+04 -0.36000294354E+02  0.13153522682E+04  0.17114539449E+04  0.00000000000E+00 0. -1.
         -3    1    3    3    0  502 -0.14754318308E+03 -0.24044849014E+02  0.14733530587E+03  0.20989244387E+03  0.00000000000E+00 0.  1.
         11    1    5    5    0    0  0.42158430557E+03  0.30855122125E+03 -0.30029878151E+03  0.60259152086E+03  0.00000000000E+00 0. -1.
        -11    1    5    5    0    0  0.78510205584E+02  0.30870400789E+02 -0.16673304865E+02  0.85993215551E+02  0.00000000000E+00 0.  1.
          2    1    6    6  503    0  0.62455162337E+03 -0.21903759509E+03  0.19860760938E+03  0.69100447235E+03  0.00000000000E+00 0. -1.
         -2    1    6    6    0  503  0.11725850390E+03 -0.60338883586E+02  0.79552124361E+02  0.15400934420E+03  0.00000000000E+00 0.  1.
<mgrwt>
<rscale>  0 0.31478920E+04</rscale>
<asrwt>0</asrwt>
<pdfrwt beam="1">  1        2 0.15623613E+00 0.31478920E+04</pdfrwt>
<pdfrwt beam="2">  1       -1 0.37529386E+00 0.31478920E+04</pdfrwt>
<totfact> 0.24958275E-01</totfact>
</mgrwt>
</event>
<event>
12    6  0.1403409E-007  0.1275847E+04  0.7818608E-02  0.9048941E-01
         -1   -1    0    0    0  501 -0.00000000000E+00  0.00000000000E+00  0.39977156305E+03  0.39977156305E+03  0.00000000000E+00 0.  1.
          2   -1    0    0  501    0  0.00000000000E+00 -0.00000000000E+00 -0.10179473901E+04  0.10179473901E+04  0.00000000000E+00 0. -1.
         24    2    1    2    0    0  0.13035605584E+03 -0.27621362102E+03 -0.87897140997E+02  0.32879027715E+03  0.84204947718E+02 0.  0.
        254    2    1    2    0    0 -0.13035605584E+03  0.27621362102E+03 -0.53027868608E+03  0.10889286760E+04  0.90071277933E+03 0.  0.
         23    2    4    4    0    0 -0.14590703245E+03 -0.28211697845E+01 -0.71922207335E+03  0.73975426892E+03  0.93054642455E+02 0.  0.
         23    2    4    4    0    0  0.15550976606E+02  0.27903479080E+03  0.18894338727E+03  0.34917440712E+03  0.90116123100E+02 0.  0.
          2    1    3    3  502    0  0.10772729787E+03 -0.27197945763E+03 -0.88899981895E+02  0.30574695887E+03  0.00000000000E+00 0. -1.
         -1    1    3    3    0  502  0.22628757977E+02 -0.42341633842E+01  0.10028408976E+01  0.23043318272E+02  0.00000000000E+00 0.  1.
         11    1    5    5    0    0 -0.66092084361E+02  0.43959579432E+02 -0.28937303967E+03  0.30006226741E+03  0.00000000000E+00 0.  1.
        -11    1    5    5    0    0 -0.79814948088E+02 -0.46780749217E+02 -0.42984903368E+03  0.43969200151E+03  0.00000000000E+00 0. -1.
          4    1    6    6  503    0 -0.24510447317E+02  0.19268768869E+03  0.98153102952E+02  0.21763119956E+03  0.00000000000E+00 0. -1.
         -4    1    6    6    0  503  0.40061423923E+02  0.86347102110E+02  0.90790284314E+02  0.13154320756E+03  0.00000000000E+00 0.  1.
<mgrwt>
<rscale>  0 0.12758470E+04</rscale>
<asrwt>0</asrwt>
<pdfrwt beam="1">  1        2 0.15660729E+00 0.12758470E+04</pdfrwt>
<pdfrwt beam="2">  1       -1 0.61503317E-01 0.12758470E+04</pdfrwt>
<totfact> 0.73664077E+01</totfact>
</mgrwt>
</event>
<event>
12    6  0.1403409E-007  0.2231761E+04  0.7818608E-02  0.8505324E-01
          2   -1    0    0  501    0  0.00000000000E+00  0.00000000000E+00  0.12899235200E+04  0.12899235200E+04  0.00000000000E+00 0. -1.
         -1   -1    0    0    0  501 -0.00000000000E+00 -0.00000000000E+00 -0.96531984537E+03  0.96531984537E+03  0.00000000000E+00 0.  1.
         24    2    1    2    0    0  0.64270825569E+03  0.65854732886E+03  0.29931022501E+03  0.97073880294E+03  0.77386862282E+02 0.  0.
        254    2    1    2    0    0 -0.64270825569E+03 -0.65854732886E+03  0.25293449589E+02  0.12845045624E+04  0.89585362974E+03 0.  0.
         23    2    4    4    0    0 -0.60242056064E+03 -0.82767183654E+03 -0.12850285799E+03  0.10354585912E+04  0.87808363550E+02 0.  0.
         23    2    4    4    0    0 -0.40287695056E+02  0.16912450768E+03  0.15379630758E+03  0.24904597118E+03  0.90246296696E+02 0.  0.
          2    1    3    3  502    0  0.27226881152E+03  0.27742196346E+03  0.16676646957E+03  0.42297081094E+03  0.00000000000E+00 0. -1.
         -1    1    3    3    0  502  0.37043944418E+03  0.38112536541E+03  0.13254375544E+03  0.54776799200E+03  0.00000000000E+00 0.  1.
         11    1    5    5    0    0 -0.22661993565E+03 -0.25658625797E+03 -0.69124300559E+02  0.34924385741E+03  0.00000000000E+00 0.  1.
        -11    1    5    5    0    0 -0.37580062499E+03 -0.57108557857E+03 -0.59378557427E+02  0.68621473380E+03  0.00000000000E+00 0. -1.
          3    1    6    6  503    0 -0.89123606853E+01  0.14929769264E+03  0.88077466174E+02  0.17357094010E+03  0.00000000000E+00 0. -1.
         -3    1    6    6    0  503 -0.31375334371E+02  0.19826815044E+02  0.65718841401E+02  0.75475031082E+02  0.00000000000E+00 0.  1.
<mgrwt>
<rscale>  0 0.22317605E+04</rscale>
<asrwt>0</asrwt>
<pdfrwt beam="1">  1        2 0.19844977E+00 0.22317605E+04</pdfrwt>
<pdfrwt beam="2">  1       -1 0.14851075E+00 0.22317605E+04</pdfrwt>
<totfact> 0.62407894E+00</totfact>
</mgrwt>
</event>
<event>
12    6  0.1403409E-007  0.1164129E+04  0.7818608E-02  0.9144847E-01
          2   -1    0    0  501    0  0.00000000000E+00  0.00000000000E+00  0.12923465928E+04  0.12923465928E+04  0.00000000000E+00 0. -1.
         -1   -1    0    0    0  501 -0.00000000000E+00 -0.00000000000E+00 -0.26215794953E+03  0.26215794953E+03  0.00000000000E+00 0.  1.
         24    2    1    2    0    0 -0.17962284210E+03 -0.12702572727E+03  0.27183582476E+03  0.35799999963E+03  0.76611900639E+02 0.  0.
        254    2    1    2    0    0  0.17962284210E+03  0.12702572727E+03  0.75835281851E+03  0.11965045427E+04  0.89895729741E+03 0.  0.
         23    2    4    4    0    0 -0.14041389083E+03  0.26000132193E+03 -0.50153287671E+02  0.31213543781E+03  0.87157507578E+02 0.  0.
         23    2    4    4    0    0  0.32003673293E+03 -0.13297559466E+03  0.80850610618E+03  0.88436910490E+03  0.91217162650E+02 0.  0.
          2    1    3    3  502    0 -0.16342418467E+03 -0.12907137214E+03  0.27083660753E+03  0.34164213912E+03  0.00000000000E+00 0. -1.
         -1    1    3    3    0  502 -0.16198657429E+02  0.20456448759E+01  0.99921723079E+00  0.16357860512E+02  0.00000000000E+00 0.  1.
         11    1    5    5    0    0 -0.59227160689E+02  0.19531512617E+03 -0.38231622283E+02  0.20764756684E+03  0.00000000000E+00 0.  1.
        -11    1    5    5    0    0 -0.81186730139E+02  0.64686195763E+02 -0.11921665389E+02  0.10448787096E+03  0.00000000000E+00 0. -1.
          4    1    6    6  503    0  0.24856869484E+03 -0.59061589467E+02  0.58390542241E+03  0.63735406936E+03  0.00000000000E+00 0. -1.
         -4    1    6    6    0  503  0.71468038095E+02 -0.73914005197E+02  0.22460068377E+03  0.24701503554E+03  0.00000000000E+00 0.  1.
<mgrwt>
<rscale>  0 0.11641287E+04</rscale>
<asrwt>0</asrwt>
<pdfrwt beam="1">  1        2 0.19882255E+00 0.11641287E+04</pdfrwt>
<pdfrwt beam="2">  1       -1 0.40331993E-01 0.11641287E+04</pdfrwt>
<totfact> 0.11287562E+02</totfact>
</mgrwt>
</event>
<event>
12    6  0.1403409E-007  0.2867252E+04  0.7818608E-02  0.8282688E-01
          2   -1    0    0  501    0  0.00000000000E+00  0.00000000000E+00  0.26994644224E+04  0.26994644224E+04  0.00000000000E+00 0. -1.
         -1   -1    0    0    0  501 -0.00000000000E+00 -0.00000000000E+00 -0.76136721665E+03  0.76136721665E+03  0.00000000000E+00 0.  1.
         24    2    1    2    0    0 -0.11091821972E+04  0.64350654424E+03  0.10800346963E+04  0.16784649696E+04  0.79899249229E+02 0.  0.
        254    2    1    2    0    0  0.11091821972E+04 -0.64350654424E+03  0.85806250949E+03  0.17823666694E+04  0.89228574733E+03 0.  0.
         23    2    4    4    0    0  0.11197298536E+04 -0.71812882169E+03  0.53224448969E+03  0.14355138267E+04  0.88948299996E+02 0.  0.
         23    2    4    4    0    0 -0.10547656389E+02  0.74622277453E+02  0.32581801979E+03  0.34685284275E+03  0.92031381367E+02 0.  0.
          4    1    3    3  502    0 -0.79291165945E+03  0.46690121504E+03  0.72771233942E+03  0.11731457255E+04  0.00000000000E+00 0. -1.
         -3    1    3    3    0  502 -0.31627053778E+03  0.17660532920E+03  0.35232235683E+03  0.50531924413E+03  0.00000000000E+00 0.  1.
         11    1    5    5    0    0  0.91865663365E+03 -0.62628110257E+03  0.43230672576E+03  0.11929153931E+04  0.00000000000E+00 0. -1.
        -11    1    5    5    0    0  0.20107321998E+03 -0.91847719124E+02  0.99937763932E+02  0.24259843355E+03  0.00000000000E+00 0.  1.
          2    1    6    6  503    0 -0.10599254900E+02  0.92131142796E+02  0.30884229331E+03  0.32246558547E+03  0.00000000000E+00 0. -1.
         -2    1    6    6    0  503  0.51598511130E-01 -0.17508865343E+02  0.16975726482E+02  0.24387257279E+02  0.00000000000E+00 0.  1.
<mgrwt>
<rscale>  0 0.28672521E+04</rscale>
<asrwt>0</asrwt>
<pdfrwt beam="1">  1        2 0.41530222E+00 0.28672521E+04</pdfrwt>
<pdfrwt beam="2">  1       -1 0.11713342E+00 0.28672521E+04</pdfrwt>
<totfact> 0.17157806E+00</totfact>
</mgrwt>
</event>
<event>
12    6  0.1403409E-007  0.4097260E+04  0.7818608E-02  0.7985208E-01
         -1   -1    0    0    0  501 -0.00000000000E+00  0.00000000000E+00  0.39590304903E+04  0.39590304903E+04  0.00000000000E+00 0.  1.
          2   -1    0    0  501    0  0.00000000000E+00 -0.00000000000E+00 -0.10600790675E+04  0.10600790675E+04  0.00000000000E+00 0. -1.
         24    2    1    2    0    0 -0.18950364712E+04  0.43424148093E+03  0.12120673380E+04  0.22925384057E+04  0.83043476808E+02 0.  0.
        254    2    1    2    0    0  0.18950364712E+04 -0.43424148093E+03  0.16868840848E+04  0.27265711521E+04  0.89937947541E+03 0.  0.
         23    2    4    4    0    0  0.80656129807E+02  0.14306561843E+03  0.35356404592E+03  0.40031385702E+03  0.90942108501E+02 0.  0.
         23    2    4    4    0    0  0.18143803414E+04 -0.57730709936E+03  0.13333200389E+04  0.23262572950E+04  0.92038940116E+02 0.  0.
          4    1    3    3  502    0 -0.15765697396E+04  0.37112085367E+03  0.97430120704E+03  0.18901231901E+04  0.00000000000E+00 0. -1.
         -3    1    3    3    0  502 -0.31846673158E+03  0.63120627260E+02  0.23776613098E+03  0.40241521560E+03  0.00000000000E+00 0.  1.
         11    1    5    5    0    0 -0.12949766803E+02 -0.19916098567E+01  0.12813567791E+02  0.18326224096E+02  0.00000000000E+00 0.  1.
        -11    1    5    5    0    0  0.93605896610E+02  0.14505722829E+03  0.34075047813E+03  0.38198763292E+03  0.00000000000E+00 0. -1.
          4    1    6    6  503    0  0.11862019158E+04 -0.41861389670E+03  0.90310810396E+03  0.15485208513E+04  0.00000000000E+00 0. -1.
         -4    1    6    6    0  503  0.62817842556E+03 -0.15869320266E+03  0.43021193493E+03  0.77773644371E+03  0.00000000000E+00 0.  1.
<mgrwt>
<rscale>  0 0.40972602E+04</rscale>
<asrwt>0</asrwt>
<pdfrwt beam="1">  1        2 0.16308909E+00 0.40972602E+04</pdfrwt>
<pdfrwt beam="2">  1       -1 0.60908161E+00 0.40972602E+04</pdfrwt>
<totfact> 0.83754568E-03</totfact>
</mgrwt>
</event>
<event>
12    6  0.1403409E-007  0.3238928E+04  0.7818608E-02  0.8178611E-01
         -1   -1    0    0    0  501 -0.00000000000E+00  0.00000000000E+00  0.12710775971E+04  0.12710775971E+04  0.00000000000E+00 0.  1.
          2   -1    0    0  501    0  0.00000000000E+00 -0.00000000000E+00 -0.20633388507E+04  0.20633388507E+04  0.00000000000E+00 0. -1.
         24    2    1    2    0    0 -0.10712623511E+04 -0.96778998811E+03  0.26393978054E+02  0.14460984179E+04  0.79268570139E+02 0.  0.
        254    2    1    2    0    0  0.10712623511E+04  0.96778998811E+03 -0.81865523165E+03  0.18883180299E+04  0.90073753532E+03 0.  0.
         23    2    4    4    0    0  0.94589763795E+03  0.30243670090E+03 -0.62741084071E+03  0.11783632031E+04  0.93301532187E+02 0.  0.
         23    2    4    4    0    0  0.12536471318E+03  0.66535328721E+03 -0.19124439095E+03  0.70995482673E+03  0.95132175523E+02 0.  0.
          4    1    3    3  502    0 -0.27339012731E+03 -0.21302364364E+03  0.28939033581E+02  0.34779117603E+03  0.00000000000E+00 0. -1.
         -3    1    3    3    0  502 -0.79787222381E+03 -0.75476634447E+03 -0.25450555270E+01  0.10983072419E+04  0.00000000000E+00 0.  1.
         11    1    5    5    0    0  0.48003932786E+03  0.13044109999E+03 -0.36260307851E+03  0.61557585187E+03  0.00000000000E+00 0.  1.
        -11    1    5    5    0    0  0.46585831009E+03  0.17199560091E+03 -0.26480776219E+03  0.56278735125E+03  0.00000000000E+00 0. -1.
          3    1    6    6  503    0  0.44474093453E+02  0.44633212454E+03 -0.14928692197E+03  0.47273342959E+03  0.00000000000E+00 0. -1.
         -3    1    6    6    0  503  0.80890619722E+02  0.21902116268E+03 -0.41957468971E+02  0.23722139714E+03  0.00000000000E+00 0.  1.
<mgrwt>
<rscale>  0 0.32389281E+04</rscale>
<asrwt>0</asrwt>
<pdfrwt beam="1">  1        2 0.31743674E+00 0.32389281E+04</pdfrwt>
<pdfrwt beam="2">  1       -1 0.19555040E+00 0.32389281E+04</pdfrwt>
<totfact> 0.95014150E-01</totfact>
</mgrwt>
</event>
<event>
12    6  0.1403409E-007  0.3969767E+04  0.7818608E-02  0.8010673E-01
         -1   -1    0    0    0  501 -0.00000000000E+00  0.00000000000E+00  0.22692079908E+04  0.22692079908E+04  0.00000000000E+00 0.  1.
          2   -1    0    0  501    0  0.00000000000E+00 -0.00000000000E+00 -0.17361839563E+04  0.17361839563E+04  0.00000000000E+00 0. -1.
         24    2    1    2    0    0 -0.76727467279E+03  0.99892283661E+03 -0.11583083894E+04  0.17131491060E+04  0.81512436436E+02 0.  0.
        254    2    1    2    0    0  0.76727467279E+03 -0.99892283661E+03  0.16913324239E+04  0.22922428411E+04  0.89845123268E+03 0.  0.
         23    2    4    4    0    0  0.41423193873E+02 -0.20988707329E+03  0.96868120111E+03  0.99598847684E+03  0.88776754186E+02 0.  0.
         23    2    4    4    0    0  0.72585147892E+03 -0.78903576332E+03  0.72265122276E+03  0.12962543643E+04  0.92805074520E+02 0.  0.
          2    1    3    3  502    0 -0.44254288315E+03  0.63749694927E+03 -0.69422813648E+03  0.10412488988E+04  0.00000000000E+00 0. -1.
         -1    1    3    3    0  502 -0.32473178964E+03  0.36142588734E+03 -0.46408025296E+03  0.67190020720E+03  0.00000000000E+00 0.  1.
         11    1    5    5    0    0  0.22727713228E+02 -0.20445432689E+03  0.93229725067E+03  0.95472314539E+03  0.00000000000E+00 0. -1.
        -11    1    5    5    0    0  0.18695480645E+02 -0.54327463979E+01  0.36383950442E+02  0.41265331451E+02  0.00000000000E+00 0.  1.
          4    1    6    6  503    0  0.31995137907E+03 -0.30664988349E+03  0.25497290945E+03  0.51128682808E+03  0.00000000000E+00 0. -1.
         -4    1    6    6    0  503  0.40590009985E+03 -0.48238587983E+03  0.46767831331E+03  0.78496753618E+03  0.00000000000E+00 0.  1.
<mgrwt>
<rscale>  0 0.39697670E+04</rscale>
<asrwt>0</asrwt>
<pdfrwt beam="1">  1        2 0.26710522E+00 0.39697670E+04</pdfrwt>
<pdfrwt beam="2">  1       -1 0.34910892E+00 0.39697670E+04</pdfrwt>
<totfact> 0.13270642E-01</totfact>
</mgrwt>
</event>
<event>
12    6  0.1403409E-007  0.2187367E+04  0.7818608E-02  0.8523705E-01
          2   -1    0    0  501    0  0.00000000000E+00  0.00000000000E+00  0.92389233397E+03  0.92389233397E+03  0.00000000000E+00 0. -1.
         -1   -1    0    0    0  501 -0.00000000000E+00 -0.00000000000E+00 -0.12946784056E+04  0.12946784056E+04  0.00000000000E+00 0.  1.
         24    2    1    2    0    0 -0.28967351551E+03  0.60412387909E+03  0.46484278585E+03  0.81915791355E+03  0.77874674303E+02 0.  0.
        254    2    1    2    0    0  0.28967351551E+03 -0.60412387909E+03 -0.83562885749E+03  0.13994128260E+04  0.90066878669E+03 0.  0.
         23    2    4    4    0    0 -0.22045725000E+03 -0.13778301702E+03 -0.60507407141E+03  0.66471741767E+03  0.90272114244E+02 0.  0.
         23    2    4    4    0    0  0.51013076551E+03 -0.46634086206E+03 -0.23055478609E+03  0.73469540836E+03  0.94417350789E+02 0.  0.
          2    1    3    3  502    0 -0.23161685040E+03  0.43988024256E+03  0.37793168842E+03  0.62447846583E+03  0.00000000000E+00 0. -1.
         -1    1    3    3    0  502 -0.58056665110E+02  0.16424363653E+03  0.86911097432E+02  0.19467944771E+03  0.00000000000E+00 0.  1.
         11    1    5    5    0    0 -0.54422918570E+02 -0.60685265727E+02 -0.11021126825E+03  0.13708055730E+03  0.00000000000E+00 0.  1.
        -11    1    5    5    0    0 -0.16603433143E+03 -0.77097751296E+02 -0.49486280316E+03  0.52763686037E+03  0.00000000000E+00 0. -1.
          1    1    6    6  503    0  0.43571283730E+03 -0.36665123019E+03 -0.15923579289E+03  0.59129928034E+03  0.00000000000E+00 0. -1.
         -1    1    6    6    0  503  0.74417928208E+02 -0.99689631869E+02 -0.71318993199E+02  0.14339612802E+03  0.00000000000E+00 0.  1.
<mgrwt>
<rscale>  0 0.21873669E+04</rscale>
<asrwt>0</asrwt>
<pdfrwt beam="1">  1        2 0.14213728E+00 0.21873669E+04</pdfrwt>
<pdfrwt beam="2">  1       -1 0.19918129E+00 0.21873669E+04</pdfrwt>
<totfact> 0.44963404E+00</totfact>
</mgrwt>
</event>
<event>
12    6  0.1403409E-007  0.1601712E+04  0.7818608E-02  0.8819497E-01
          2   -1    0    0  501    0  0.00000000000E+00  0.00000000000E+00  0.18752464100E+04  0.18752464100E+04  0.00000000000E+00 0. -1.
         -1   -1    0    0    0  501 -0.00000000000E+00 -0.00000000000E+00 -0.34201928258E+03  0.34201928258E+03  0.00000000000E+00 0.  1.
         24    2    1    2    0    0  0.40823319123E+03 -0.11275217817E+03  0.99964720524E+03  0.10885931072E+04  0.79831234234E+02 0.  0.
        254    2    1    2    0    0 -0.40823319123E+03  0.11275217817E+03  0.53357992216E+03  0.11286725854E+04  0.89990381682E+03 0.  0.
         23    2    4    4    0    0  0.27536709710E+03  0.89238374478E+02  0.18521832302E+03  0.35569561575E+03  0.91777002776E+02 0.  0.
         23    2    4    4    0    0 -0.68360028833E+03  0.23513803690E+02  0.34836159914E+03  0.77297696962E+03  0.90968888293E+02 0.  0.
          4    1    3    3  502    0  0.29807838782E+03 -0.93074076799E+02  0.81383817093E+03  0.87169150364E+03  0.00000000000E+00 0. -1.
         -3    1    3    3    0  502  0.11015480341E+03 -0.19678101369E+02  0.18580903431E+03  0.21690160355E+03  0.00000000000E+00 0.  1.
         11    1    5    5    0    0  0.14859312654E+03  0.95669707541E+02  0.10710652384E+03  0.20665047216E+03  0.00000000000E+00 0.  1.
        -11    1    5    5    0    0  0.12677397056E+03 -0.64313330630E+01  0.78111799177E+02  0.14904514359E+03  0.00000000000E+00 0. -1.
          1    1    6    6  503    0 -0.17391508162E+03 -0.15846778507E+02  0.52617819129E+02  0.18239027083E+03  0.00000000000E+00 0. -1.
         -1    1    6    6    0  503 -0.50968520671E+03  0.39360582198E+02  0.29574378001E+03  0.59058669878E+03  0.00000000000E+00 0.  1.
<mgrwt>
<rscale>  0 0.16017121E+04</rscale>
<asrwt>0</asrwt>
<pdfrwt beam="1">  1        2 0.28849944E+00 0.16017121E+04</pdfrwt>
<pdfrwt beam="2">  1       -1 0.52618352E-01 0.16017121E+04</pdfrwt>
<totfact> 0.31158548E+01</totfact>
</mgrwt>
</event>
<event>
12    6  0.1403409E-007  0.1223640E+04  0.7818608E-02  0.9092413E-01
          2   -1    0    0  501    0  0.00000000000E+00  0.00000000000E+00  0.68692956190E+03  0.68692956190E+03  0.00000000000E+00 0. -1.
         -1   -1    0    0    0  501 -0.00000000000E+00 -0.00000000000E+00 -0.54492260875E+03  0.54492260875E+03  0.00000000000E+00 0.  1.
         24    2    1    2    0    0 -0.20033558958E+03 -0.13732196495E+03  0.15487964832E+03  0.29894473259E+03  0.79928575416E+02 0.  0.
        254    2    1    2    0    0  0.20033558958E+03  0.13732196495E+03 -0.12872695173E+02  0.93290743806E+03  0.90064360943E+03 0.  0.
         23    2    4    4    0    0  0.59788339555E+02 -0.31788606895E+03 -0.22409569589E+03  0.40392718362E+03  0.91170666181E+02 0.  0.
         23    2    4    4    0    0  0.14054725002E+03  0.45520803390E+03  0.21122300072E+03  0.52898025444E+03  0.90758305072E+02 0.  0.
          4    1    3    3  502    0 -0.12869051966E+03 -0.11110134576E+03  0.14212211608E+03  0.22159299348E+03  0.00000000000E+00 0. -1.
         -3    1    3    3    0  502 -0.71645069913E+02 -0.26220619184E+02  0.12757532243E+02  0.77351739102E+02  0.00000000000E+00 0.  1.
         11    1    5    5    0    0  0.50839355710E+02 -0.30627815218E+03 -0.23171768976E+03  0.38740680729E+03  0.00000000000E+00 0.  1.
        -11    1    5    5    0    0  0.89489838447E+01 -0.11607916768E+02  0.76219938623E+01  0.16520376327E+02  0.00000000000E+00 0. -1.
          1    1    6    6  503    0  0.10456233117E+03  0.25235638509E+03  0.16044589249E+03  0.31679632355E+03  0.00000000000E+00 0.  1.
         -1    1    6    6    0  503  0.35984918848E+02  0.20285164881E+03  0.50777108231E+02  0.21218393089E+03  0.00000000000E+00 0. -1.
<mgrwt>
<rscale>  0 0.12236396E+04</rscale>
<asrwt>0</asrwt>
<pdfrwt beam="1">  1        2 0.10568147E+00 0.12236396E+04</pdfrwt>
<pdfrwt beam="2">  1       -1 0.83834248E-01 0.12236396E+04</pdfrwt>
<totfact> 0.66651576E+01</totfact>
</mgrwt>
</event>
<event>
12    6  0.1403409E-007  0.2150559E+04  0.7818608E-02  0.8539293E-01
          2   -1    0    0  501    0  0.00000000000E+00  0.00000000000E+00  0.16138390031E+04  0.16138390031E+04  0.00000000000E+00 0. -1.
         -1   -1    0    0    0  501 -0.00000000000E+00 -0.00000000000E+00 -0.71644443483E+03  0.71644443483E+03  0.00000000000E+00 0.  1.
         24    2    1    2    0    0  0.71167148990E+03 -0.45934185529E+03  0.64847728560E+03  0.10696344531E+04  0.78254864133E+02 0.  0.
        254    2    1    2    0    0 -0.71167148990E+03  0.45934185529E+03  0.24891728263E+03  0.12606489848E+04  0.89989154885E+03 0.  0.
         23    2    4    4    0    0  0.11130853873E+03  0.30175645103E+03 -0.99289152584E+02  0.34864062168E+03  0.90804188932E+02 0.  0.
         23    2    4    4    0    0 -0.82298002862E+03  0.15758540426E+03  0.34820643521E+03  0.91200836311E+03  0.91554605098E+02 0.  0.
          4    1    3    3  502    0  0.64383275757E+03 -0.38649321063E+03  0.57932734854E+03  0.94842912142E+03  0.00000000000E+00 0. -1.
         -3    1    3    3    0  502  0.67838732325E+02 -0.72848644661E+02  0.69149937058E+02  0.12120533168E+03  0.00000000000E+00 0.  1.
         11    1    5    5    0    0  0.79577734785E+02  0.11452674921E+03 -0.71494815477E+02  0.15671790197E+03  0.00000000000E+00 0. -1.
        -11    1    5    5    0    0  0.31730803942E+02  0.18722970182E+03 -0.27794337108E+02  0.19192271970E+03  0.00000000000E+00 0.  1.
          3    1    6    6  503    0 -0.62580742781E+03  0.15773932760E+03  0.25527887663E+03  0.69403453590E+03  0.00000000000E+00 0. -1.
         -3    1    6    6    0  503 -0.19717260082E+03 -0.15392333873E+00  0.92927558582E+02  0.21797382721E+03  0.00000000000E+00 0.  1.
<mgrwt>
<rscale>  0 0.21505590E+04</rscale>
<asrwt>0</asrwt>
<pdfrwt beam="1">  1        2 0.24828292E+00 0.21505590E+04</pdfrwt>
<pdfrwt beam="2">  1       -1 0.11022222E+00 0.21505590E+04</pdfrwt>
<totfact> 0.86976346E+00</totfact>
</mgrwt>
</event>
<event>
12    6  0.1403409E-007  0.2212133E+04  0.7818608E-02  0.8513395E-01
          2   -1    0    0  501    0  0.00000000000E+00  0.00000000000E+00  0.14204489646E+04  0.14204489646E+04  0.00000000000E+00 0. -1.
         -1   -1    0    0    0  501 -0.00000000000E+00 -0.00000000000E+00 -0.86126497052E+03  0.86126497052E+03  0.00000000000E+00 0.  1.
         24    2    1    2    0    0 -0.14089283338E+03  0.87945133708E+03 -0.16768883209E+01  0.89431228846E+03  0.80661096805E+02 0.  0.
        254    2    1    2    0    0  0.14089283338E+03 -0.87945133708E+03  0.56086088242E+03  0.13874016467E+04  0.90389875261E+03 0.  0.
         23    2    4    4    0    0  0.10812606386E+03 -0.46947451500E+03  0.77366258263E+03  0.91599491329E+03  0.91625997807E+02 0.  0.
         23    2    4    4    0    0  0.32766769520E+02 -0.40997682208E+03 -0.21280170022E+03  0.47140673339E+03  0.88233150485E+02 0.  0.
          4    1    3    3  502    0 -0.31056448711E+02  0.38007429108E+03 -0.27629287975E+02  0.38234061686E+03  0.00000000000E+00 0. -1.
         -3    1    3    3    0  502 -0.10983638467E+03  0.49937704600E+03  0.25952399654E+02  0.51197167159E+03  0.00000000000E+00 0.  1.
         11    1    5    5    0    0  0.43809264697E+02 -0.18158370428E+03  0.21960256290E+03  0.28830050115E+03  0.00000000000E+00 0.  1.
        -11    1    5    5    0    0  0.64316799160E+02 -0.28789081072E+03  0.55406001973E+03  0.62769441213E+03  0.00000000000E+00 0. -1.
          2    1    6    6  503    0  0.21447520333E+02 -0.28308063361E+03 -0.99232487646E+02  0.30073531196E+03  0.00000000000E+00 0. -1.
         -2    1    6    6    0  503  0.11319249187E+02 -0.12689618846E+03 -0.11356921257E+03  0.17067142143E+03  0.00000000000E+00 0.  1.
<mgrwt>
<rscale>  0 0.22121328E+04</rscale>
<asrwt>0</asrwt>
<pdfrwt beam="1">  1        2 0.21853061E+00 0.22121328E+04</pdfrwt>
<pdfrwt beam="2">  1       -1 0.13250230E+00 0.22121328E+04</pdfrwt>
<totfact> 0.70816064E+00</totfact>
</mgrwt>
</event>
<event>
12    6  0.1403409E-007  0.2482551E+04  0.7818608E-02  0.8409228E-01
         -1   -1    0    0    0  501 -0.00000000000E+00  0.00000000000E+00  0.32231944152E+03  0.32231944152E+03  0.00000000000E+00 0.  1.
          2   -1    0    0  501    0  0.00000000000E+00 -0.00000000000E+00 -0.47802427318E+04  0.47802427318E+04  0.00000000000E+00 0. -1.
         24    2    1    2    0    0  0.98832626789E+03  0.13816250458E+03 -0.11091984878E+04  0.14942288137E+04  0.80751303020E+02 0.  0.
        254    2    1    2    0    0 -0.98832626789E+03 -0.13816250458E+03 -0.33487248025E+04  0.36083333596E+04  0.90013006936E+03 0.  0.
         23    2    4    4    0    0 -0.68250426900E+03  0.20991336404E+03 -0.27670204855E+04  0.28591909057E+04  0.93244681549E+02 0.  0.
         23    2    4    4    0    0 -0.30582199889E+03 -0.34807586862E+03 -0.58170431704E+03  0.74914245393E+03  0.90280665088E+02 0.  0.
          2    1    3    3  502    0  0.41405265106E+03  0.84832267697E+02 -0.51364619447E+03  0.66518307599E+03  0.00000000000E+00 0. -1.
         -1    1    3    3    0  502  0.57427361684E+03  0.53330236880E+02 -0.59555229331E+03  0.82904573772E+03  0.00000000000E+00 0.  1.
         11    1    5    5    0    0 -0.53376656430E+03  0.18655987193E+03 -0.20510624992E+04  0.21275734315E+04  0.00000000000E+00 0. -1.
        -11    1    5    5    0    0 -0.14873770470E+03  0.23353492109E+02 -0.71595798628E+03  0.73161747417E+03  0.00000000000E+00 0.  1.
          4    1    6    6  503    0 -0.20730454055E+03 -0.28560127541E+03 -0.46891214718E+03  0.58687465683E+03  0.00000000000E+00 0. -1.
         -4    1    6    6    0  503 -0.98517458338E+02 -0.62474593208E+02 -0.11279216986E+03  0.16226779710E+03  0.00000000000E+00 0.  1.
<mgrwt>
<rscale>  0 0.24825512E+04</rscale>
<asrwt>0</asrwt>
<pdfrwt beam="1">  1        2 0.73542188E+00 0.24825512E+04</pdfrwt>
<pdfrwt beam="2">  1       -1 0.49587612E-01 0.24825512E+04</pdfrwt>
<totfact> 0.26169143E-01</totfact>
</mgrwt>
</event>
<event>
12    6  0.1403409E-007  0.2221624E+04  0.7818608E-02  0.8509481E-01
         -1   -1    0    0    0  501 -0.00000000000E+00  0.00000000000E+00  0.11167788400E+04  0.11167788400E+04  0.00000000000E+00 0.  1.
          2   -1    0    0  501    0  0.00000000000E+00 -0.00000000000E+00 -0.11048768616E+04  0.11048768616E+04  0.00000000000E+00 0. -1.
         24    2    1    2    0    0  0.49093536923E+03  0.76273762514E+03 -0.17981614306E+03  0.92818322075E+03  0.80025148670E+02 0.  0.
        254    2    1    2    0    0 -0.49093536923E+03 -0.76273762514E+03  0.19171812152E+03  0.12934724809E+04  0.90195842425E+03 0.  0.
         23    2    4    4    0    0 -0.16782947607E+03 -0.85081031933E+03 -0.45399456008E+02  0.87320097495E+03  0.91509013427E+02 0.  0.
         23    2    4    4    0    0 -0.32310589316E+03  0.88072694191E+02  0.23711757753E+03  0.42027150591E+03  0.90824971504E+02 0.  0.
          2    1    3    3  502    0  0.32513665440E+03  0.47804524537E+03 -0.78108040565E+02  0.58338834978E+03  0.00000000000E+00 0. -1.
         -1    1    3    3    0  502  0.16579871483E+03  0.28469237976E+03 -0.10170810250E+03  0.34479487097E+03  0.00000000000E+00 0.  1.
         11    1    5    5    0    0 -0.75645428538E+02 -0.46130251347E+03  0.18678663989E+02  0.46783665128E+03  0.00000000000E+00 0. -1.
        -11    1    5    5    0    0 -0.92184047531E+02 -0.38950780586E+03 -0.64078119997E+02  0.40536432367E+03  0.00000000000E+00 0.  1.
          1    1    6    6  503    0 -0.20046294608E+03  0.98930907451E+02  0.14415594655E+03  0.26599559042E+03  0.00000000000E+00 0. -1.
         -1    1    6    6    0  503 -0.12264294709E+03 -0.10858213260E+02  0.92961630986E+02  0.15427591549E+03  0.00000000000E+00 0.  1.
<mgrwt>
<rscale>  0 0.22216238E+04</rscale>
<asrwt>0</asrwt>
<pdfrwt beam="1">  1        2 0.16998106E+00 0.22216238E+04</pdfrwt>
<pdfrwt beam="2">  1       -1 0.17181213E+00 0.22216238E+04</pdfrwt>
<totfact> 0.53715237E+00</totfact>
</mgrwt>
</event>
<event>
12    6  0.1403409E-007  0.1707839E+04  0.7818608E-02  0.8756906E-01
         -1   -1    0    0    0  501 -0.00000000000E+00  0.00000000000E+00  0.33968300286E+03  0.33968300286E+03  0.00000000000E+00 0.  1.
          2   -1    0    0  501    0  0.00000000000E+00 -0.00000000000E+00 -0.21466431855E+04  0.21466431855E+04  0.00000000000E+00 0. -1.
         24    2    1    2    0    0  0.53875688228E+03  0.16402066871E+03 -0.99976186537E+03  0.11502691988E+04  0.80210249957E+02 0.  0.
        254    2    1    2    0    0 -0.53875688228E+03 -0.16402066871E+03 -0.80719831731E+03  0.13360569896E+04  0.90350284899E+03 0.  0.
         23    2    4    4    0    0 -0.11973703219E+03  0.68571569243E+01  0.18715206857E+03  0.23979858475E+03  0.89963809394E+02 0.  0.
         23    2    4    4    0    0 -0.41901985008E+03 -0.17087782564E+03 -0.99435038588E+03  0.10962584049E+04  0.90955672315E+02 0.  0.
          4    1    3    3  502    0  0.19929870889E+03  0.93423779632E+02 -0.43627376120E+03  0.48865404192E+03  0.00000000000E+00 0. -1.
         -3    1    3    3    0  502  0.33945817338E+03  0.70596889080E+02 -0.56348810417E+03  0.66161515684E+03  0.00000000000E+00 0.  1.
         11    1    5    5    0    0 -0.11194490089E+03  0.49707111346E+00  0.94206976511E+02  0.14631084150E+03  0.00000000000E+00 0. -1.
        -11    1    5    5    0    0 -0.77921312976E+01  0.63600858109E+01  0.92945092058E+02  0.93487743258E+02  0.00000000000E+00 0.  1.
          1    1    6    6  503    0 -0.22668566885E+03 -0.12178445226E+03 -0.64525312898E+03  0.69467218581E+03  0.00000000000E+00 0. -1.
         -1    1    6    6    0  503 -0.19233418123E+03 -0.49093373376E+02 -0.34909725690E+03  0.40158621908E+03  0.00000000000E+00 0.  1.
<mgrwt>
<rscale>  0 0.17078386E+04</rscale>
<asrwt>0</asrwt>
<pdfrwt beam="1">  1        2 0.33025280E+00 0.17078386E+04</pdfrwt>
<pdfrwt beam="2">  1       -1 0.52258924E-01 0.17078386E+04</pdfrwt>
<totfact> 0.22108424E+01</totfact>
</mgrwt>
</event>
<event>
12    6  0.1403409E-007  0.2840800E+04  0.7818608E-02  0.8290712E-01
          2   -1    0    0  501    0  0.00000000000E+00  0.00000000000E+00  0.13508964408E+04  0.13508964408E+04  0.00000000000E+00 0. -1.
         -1   -1    0    0    0  501 -0.00000000000E+00 -0.00000000000E+00 -0.14934793759E+04  0.14934793759E+04  0.00000000000E+00 0.  1.
         24    2    1    2    0    0  0.63282423354E+03  0.45655203235E+02  0.10458190223E+04  0.12256135725E+04  0.76421812814E+02 0.  0.
        254    2    1    2    0    0 -0.63282423354E+03 -0.45655203235E+02 -0.11884019574E+04  0.16187622442E+04  0.89751940519E+03 0.  0.
         23    2    4    4    0    0  0.19634246161E+03 -0.13792988135E+03 -0.23029706666E+03  0.34501048632E+03  0.91763186312E+02 0.  0.
         23    2    4    4    0    0 -0.82916669515E+03  0.92274678118E+02 -0.95810489076E+03  0.12737517579E+04  0.91905029288E+02 0.  0.
          2    1    3    3  502    0  0.38291297809E+03  0.64331468903E+02  0.64922624178E+03  0.75647577602E+03  0.00000000000E+00 0. -1.
         -1    1    3    3    0  502  0.24991125545E+03 -0.18676265668E+02  0.39659278051E+03  0.46913779645E+03  0.00000000000E+00 0.  1.
         11    1    5    5    0    0  0.59096889273E+02 -0.72919771765E+02 -0.41261261007E+02  0.10252915242E+03  0.00000000000E+00 0. -1.
        -11    1    5    5    0    0  0.13724557234E+03 -0.65010109588E+02 -0.18903580565E+03  0.24248133390E+03  0.00000000000E+00 0.  1.
          2    1    6    6  503    0 -0.24888106928E+03  0.45231233447E+02 -0.35050815790E+03  0.43225411493E+03  0.00000000000E+00 0. -1.
         -2    1    6    6    0  503 -0.58028562588E+03  0.47043444671E+02 -0.60759673286E+03  0.84149764293E+03  0.00000000000E+00 0.  1.
<mgrwt>
<rscale>  0 0.28407999E+04</rscale>
<asrwt>0</asrwt>
<pdfrwt beam="1">  1        2 0.20783022E+00 0.28407999E+04</pdfrwt>
<pdfrwt beam="2">  1       -1 0.22976606E+00 0.28407999E+04</pdfrwt>
<totfact> 0.14452121E+00</totfact>
</mgrwt>
</event>
<event>
12    6  0.1403409E-007  0.2127329E+04  0.7818608E-02  0.8549299E-01
         -1   -1    0    0    0  501 -0.00000000000E+00  0.00000000000E+00  0.65447479550E+03  0.65447479550E+03  0.00000000000E+00 0.  1.
          2   -1    0    0  501    0  0.00000000000E+00 -0.00000000000E+00 -0.17286876256E+04  0.17286876256E+04  0.00000000000E+00 0. -1.
         24    2    1    2    0    0  0.14117450667E+02  0.43660428498E+03  0.40252041063E+03  0.59933248686E+03  0.79712889521E+02 0.  0.
        254    2    1    2    0    0 -0.14117450667E+02 -0.43660428498E+03 -0.14767332407E+04  0.17838299342E+04  0.90026971842E+03 0.  0.
         23    2    4    4    0    0 -0.12502289700E+03 -0.34399890831E+03 -0.15525926498E+04  0.15977250601E+04  0.90639163176E+02 0.  0.
         23    2    4    4    0    0  0.11090544634E+03 -0.92605376674E+02  0.75859409062E+02  0.18610487409E+03  0.89468432437E+02 0.  0.
          4    1    3    3  502    0  0.30800286676E+02  0.32745688457E+03  0.26126198157E+03  0.42004105981E+03  0.00000000000E+00 0. -1.
         -3    1    3    3    0  502 -0.16682836010E+02  0.10914740041E+03  0.14125842906E+03  0.17929142705E+03  0.00000000000E+00 0.  1.
         11    1    5    5    0    0 -0.16869116590E+02 -0.17277331023E+03 -0.66032905681E+03  0.68276617307E+03  0.00000000000E+00 0. -1.
        -11    1    5    5    0    0 -0.10815378041E+03 -0.17122559807E+03 -0.89226359298E+03  0.91495888706E+03  0.00000000000E+00 0.  1.
          2    1    6    6  503    0  0.95431304132E+02 -0.48516946719E+02  0.13089613853E+02  0.10785344648E+03  0.00000000000E+00 0.  1.
         -2    1    6    6    0  503  0.15474142204E+02 -0.44088429955E+02  0.62769795209E+02  0.78251427612E+02  0.00000000000E+00 0. -1.
<mgrwt>
<rscale>  0 0.21273293E+04</rscale>
<asrwt>0</asrwt>
<pdfrwt beam="1">  1        2 0.26595194E+00 0.21273293E+04</pdfrwt>
<pdfrwt beam="2">  1       -1 0.10068843E+00 0.21273293E+04</pdfrwt>
<totfact> 0.92864597E+00</totfact>
</mgrwt>
</event>
<event>
12    6  0.1403409E-007  0.2201548E+04  0.7818608E-02  0.8517784E-01
          2   -1    0    0  501    0  0.00000000000E+00  0.00000000000E+00  0.94051316829E+03  0.94051316829E+03  0.00000000000E+00 0. -1.
         -1   -1    0    0    0  501 -0.00000000000E+00 -0.00000000000E+00 -0.12883431232E+04  0.12883431232E+04  0.00000000000E+00 0.  1.
         24    2    1    2    0    0 -0.65739202775E+03  0.61228674063E+03 -0.32020048767E+03  0.95706358689E+03  0.79893843012E+02 0.  0.
        254    2    1    2    0    0  0.65739202775E+03 -0.61228674063E+03 -0.27629467225E+02  0.12717927046E+04  0.89979662428E+03 0.  0.
         23    2    4    4    0    0  0.27779776371E+03 -0.49360432818E+03  0.38447856003E+03  0.69192696053E+03  0.10060976725E+03 0.  0.
         23    2    4    4    0    0  0.37959426404E+03 -0.11868241245E+03 -0.41210802725E+03  0.57986574405E+03  0.90741030860E+02 0.  0.
          2    1    3    3  502    0 -0.35530776640E+03  0.36669674813E+03 -0.21309133437E+03  0.55327934241E+03  0.00000000000E+00 0. -1.
         -1    1    3    3    0  502 -0.30208426136E+03  0.24558999250E+03 -0.10710915330E+03  0.40378424449E+03  0.00000000000E+00 0.  1.
         11    1    5    5    0    0  0.10849313195E+03 -0.27776230504E+03  0.23395967136E+03  0.37902478231E+03  0.00000000000E+00 0.  1.
        -11    1    5    5    0    0  0.16930463176E+03 -0.21584202314E+03  0.15051888866E+03  0.31290217822E+03  0.00000000000E+00 0. -1.
          4    1    6    6  503    0  0.76397251710E+02 -0.63273355946E+02 -0.11317487115E+03  0.15049454841E+03  0.00000000000E+00 0. -1.
         -4    1    6    6    0  503  0.30319701233E+03 -0.55409056506E+02 -0.29893315610E+03  0.42937119564E+03  0.00000000000E+00 0.  1.
<mgrwt>
<rscale>  0 0.22015482E+04</rscale>
<asrwt>0</asrwt>
<pdfrwt beam="1">  1        2 0.14469433E+00 0.22015482E+04</pdfrwt>
<pdfrwt beam="2">  1       -1 0.19820663E+00 0.22015482E+04</pdfrwt>
<totfact> 0.44464735E+00</totfact>
</mgrwt>
</event>
<event>
12    6  0.1403409E-007  0.1587307E+04  0.7818608E-02  0.8828384E-01
          2   -1    0    0  501    0  0.00000000000E+00  0.00000000000E+00  0.52501117186E+03  0.52501117186E+03  0.00000000000E+00 0. -1.
         -1   -1    0    0    0  501 -0.00000000000E+00 -0.00000000000E+00 -0.11997567533E+04  0.11997567533E+04  0.00000000000E+00 0.  1.
         24    2    1    2    0    0 -0.43378981957E+03  0.25961554308E+03 -0.42751556512E+02  0.51368308232E+03  0.80428699519E+02 0.  0.
        254    2    1    2    0    0  0.43378981957E+03 -0.25961554308E+03 -0.63199402489E+03  0.12110848428E+04  0.90096404545E+03 0.  0.
         23    2    4    4    0    0  0.41286251774E+03 -0.32158589918E+02  0.10289209383E+03  0.43644398377E+03  0.91689337111E+02 0.  0.
         23    2    4    4    0    0  0.20927301835E+02 -0.22745695316E+03 -0.73488611872E+03  0.77464085903E+03  0.88522514017E+02 0.  0.
          4    1    3    3  502    0 -0.23854820228E+03  0.10371933473E+03  0.49841730065E+00  0.26012149783E+03  0.00000000000E+00 0. -1.
         -3    1    3    3    0  502 -0.19524161729E+03  0.15589620835E+03 -0.43249973813E+02  0.25356158450E+03  0.00000000000E+00 0.  1.
         11    1    5    5    0    0  0.30418729951E+03 -0.34223592247E+01  0.11079851465E+03  0.32375598307E+03  0.00000000000E+00 0. -1.
        -11    1    5    5    0    0  0.10867521823E+03 -0.28736230694E+02 -0.79064208253E+01  0.11268800070E+03  0.00000000000E+00 0.  1.
          3    1    6    6  503    0  0.48206704809E+02 -0.16389317687E+03 -0.44625618577E+03  0.47783830230E+03  0.00000000000E+00 0. -1.
         -3    1    6    6    0  503 -0.27279402974E+02 -0.63563776296E+02 -0.28862993296E+03  0.29680255673E+03  0.00000000000E+00 0.  1.
<mgrwt>
<rscale>  0 0.15873068E+04</rscale>
<asrwt>0</asrwt>
<pdfrwt beam="1">  1        2 0.80770950E-01 0.15873068E+04</pdfrwt>
<pdfrwt beam="2">  1       -1 0.18457796E+00 0.15873068E+04</pdfrwt>
<totfact> 0.12313172E+01</totfact>
</mgrwt>
</event>
<event>
12    6  0.1403409E-007  0.1342432E+04  0.7818608E-02  0.8996577E-01
          2   -1    0    0  501    0  0.00000000000E+00  0.00000000000E+00  0.17227924793E+04  0.17227924793E+04  0.00000000000E+00 0. -1.
         -1   -1    0    0    0  501 -0.00000000000E+00 -0.00000000000E+00 -0.26151187680E+03  0.26151187680E+03  0.00000000000E+00 0.  1.
         24    2    1    2    0    0 -0.31743358707E+02 -0.24296349419E+03  0.79571367064E+03  0.83629940175E+03  0.78724477766E+02 0.  0.
        254    2    1    2    0    0  0.31743358707E+02  0.24296349419E+03  0.66556693185E+03  0.11480049543E+04  0.90271653030E+03 0.  0.
         23    2    4    4    0    0 -0.59272787843E+01  0.31000715595E+03  0.86017943070E+03  0.91894049941E+03  0.91670164615E+02 0.  0.
         23    2    4    4    0    0  0.37670637491E+02 -0.67043661766E+02 -0.19461249886E+03  0.22906445492E+03  0.93180310603E+02 0.  0.
          4    1    3    3  502    0 -0.17351186217E+02 -0.42327094414E+02  0.26147546894E+03  0.26544692020E+03  0.00000000000E+00 0. -1.
         -3    1    3    3    0  502 -0.14392172489E+02 -0.20063639977E+03  0.53423820170E+03  0.57085248155E+03  0.00000000000E+00 0.  1.
         11    1    5    5    0    0  0.33954118256E+02  0.99577330558E+02  0.35430881512E+03  0.36959878703E+03  0.00000000000E+00 0. -1.
        -11    1    5    5    0    0 -0.39881397040E+02  0.21042982539E+03  0.50587061559E+03  0.54934171238E+03  0.00000000000E+00 0.  1.
          1    1    6    6  503    0  0.32760365200E+01  0.23573425370E+02 -0.34916159394E+02  0.42256088151E+02  0.00000000000E+00 0. -1.
         -1    1    6    6    0  503  0.34394600971E+02 -0.90617087136E+02 -0.15969633946E+03  0.18680836677E+03  0.00000000000E+00 0.  1.
<mgrwt>
<rscale>  0 0.13424317E+04</rscale>
<asrwt>0</asrwt>
<pdfrwt beam="1">  1        2 0.26504499E+00 0.13424317E+04</pdfrwt>
<pdfrwt beam="2">  1       -1 0.40232597E-01 0.13424317E+04</pdfrwt>
<totfact> 0.63906388E+01</totfact>
</mgrwt>
</event>
<event>
12    6  0.1403409E-007  0.3091888E+04  0.7818608E-02  0.8217968E-01
         -1   -1    0    0    0  501 -0.00000000000E+00  0.00000000000E+00  0.15933025043E+04  0.15933025043E+04  0.00000000000E+00 0.  1.
          2   -1    0    0  501    0  0.00000000000E+00 -0.00000000000E+00 -0.14999933307E+04  0.14999933307E+04  0.00000000000E+00 0. -1.
         24    2    1    2    0    0 -0.36895955910E+03  0.12633515213E+04 -0.46022711905E+03  0.13967213879E+04  0.82664453272E+02 0.  0.
        254    2    1    2    0    0  0.36895955910E+03 -0.12633515213E+04  0.55353629260E+03  0.16965744471E+04  0.91639194926E+03 0.  0.
         23    2    4    4    0    0  0.30197432102E+03 -0.13244450135E+04  0.67762407796E+03  0.15208766949E+04  0.92457804862E+02 0.  0.
         23    2    4    4    0    0  0.66985238077E+02  0.61093492220E+02 -0.12408778536E+03  0.17569775219E+03  0.85161521445E+02 0.  0.
          4    1    3    3  502    0 -0.26751623104E+03  0.77718228644E+03 -0.29689450186E+03  0.87391280198E+03  0.00000000000E+00 0. -1.
         -3    1    3    3    0  502 -0.10144332806E+03  0.48616923485E+03 -0.16333261719E+03  0.52280858596E+03  0.00000000000E+00 0.  1.
         11    1    5    5    0    0  0.24852985897E+03 -0.10445219040E+04  0.49410840363E+03  0.11819205614E+04  0.00000000000E+00 0. -1.
        -11    1    5    5    0    0  0.53444462048E+02 -0.27992310947E+03  0.18351567433E+03  0.33895613354E+03  0.00000000000E+00 0.  1.
          3    1    6    6  503    0  0.30327788147E+02  0.74968586301E+01  0.45790718889E+01  0.31574444138E+02  0.00000000000E+00 0. -1.
         -3    1    6    6    0  503  0.36657449929E+02  0.53596633590E+02 -0.12866685725E+03  0.14412330805E+03  0.00000000000E+00 0.  1.
<mgrwt>
<rscale>  0 0.30918882E+04</rscale>
<asrwt>0</asrwt>
<pdfrwt beam="1">  1        2 0.23076821E+00 0.30918882E+04</pdfrwt>
<pdfrwt beam="2">  1       -1 0.24512346E+00 0.30918882E+04</pdfrwt>
<totfact> 0.92136389E-01</totfact>
</mgrwt>
</event>
<event>
12    6  0.1403409E-007  0.1998270E+04  0.7818608E-02  0.8607430E-01
          2   -1    0    0  501    0  0.00000000000E+00  0.00000000000E+00  0.14763908521E+04  0.14763908521E+04  0.00000000000E+00 0. -1.
         -1   -1    0    0    0  501 -0.00000000000E+00 -0.00000000000E+00 -0.67615594719E+03  0.67615594719E+03  0.00000000000E+00 0.  1.
         24    2    1    2    0    0  0.30716595296E+03  0.60653269316E+03 -0.12436660937E+03  0.69561090855E+03  0.78578954177E+02 0.  0.
        254    2    1    2    0    0 -0.30716595296E+03 -0.60653269316E+03  0.92460151431E+03  0.14569358908E+04  0.89751958142E+03 0.  0.
         23    2    4    4    0    0 -0.78864725018E+02 -0.36750089305E+03 -0.80049087839E+02  0.39519226664E+03  0.92154869115E+02 0.  0.
         23    2    4    4    0    0 -0.22830122794E+03 -0.23903180011E+03  0.10046506021E+04  0.10617436241E+04  0.93375793681E+02 0.  0.
          4    1    3    3  502    0  0.24222240105E+03  0.40327032855E+03 -0.72091323153E+02  0.47591575760E+03  0.00000000000E+00 0. -1.
         -3    1    3    3    0  502  0.64943551908E+02  0.20326236461E+03 -0.52275286221E+02  0.21969515095E+03  0.00000000000E+00 0.  1.
         11    1    5    5    0    0 -0.31996902707E+02 -0.82212140586E+02  0.17747442634E+02  0.89986718813E+02  0.00000000000E+00 0.  1.
        -11    1    5    5    0    0 -0.46867822311E+02 -0.28528875247E+03 -0.97796530473E+02  0.30520554783E+03  0.00000000000E+00 0. -1.
          2    1    6    6  503    0 -0.79426500765E+01 -0.46892877017E+02  0.94578909016E+02  0.10586405261E+03  0.00000000000E+00 0. -1.
         -2    1    6    6    0  503 -0.22035857786E+03 -0.19213892309E+03  0.91007169313E+03  0.95587957151E+03  0.00000000000E+00 0.  1.
<mgrwt>
<rscale>  0 0.19982697E+04</rscale>
<asrwt>0</asrwt>
<pdfrwt beam="1">  1        2 0.22713705E+00 0.19982697E+04</pdfrwt>
<pdfrwt beam="2">  1       -1 0.10402399E+00 0.19982697E+04</pdfrwt>
<totfact> 0.12059253E+01</totfact>
</mgrwt>
</event>
<event>
12    6  0.1403409E-007  0.3313867E+04  0.7818608E-02  0.8159376E-01
         -1   -1    0    0    0  501 -0.00000000000E+00  0.00000000000E+00  0.29766558136E+04  0.29766558136E+04  0.00000000000E+00 0.  1.
          2   -1    0    0  501    0  0.00000000000E+00 -0.00000000000E+00 -0.92231974409E+03  0.92231974409E+03  0.00000000000E+00 0. -1.
         24    2    1    2    0    0 -0.76211843914E+03  0.63007641506E+03 -0.42719108410E+03  0.10802458462E+04  0.81351471185E+02 0.  0.
        254    2    1    2    0    0  0.76211843914E+03 -0.63007641506E+03  0.24815271536E+04  0.28187297115E+04  0.89968848392E+03 0.  0.
         23    2    4    4    0    0  0.35835016571E+03 -0.59127624104E+03  0.22183625466E+04  0.23253886685E+04  0.90981522069E+02 0.  0.
         23    2    4    4    0    0  0.40376827343E+03 -0.38800174019E+02  0.26316460707E+03  0.49334104293E+03  0.97956633743E+02 0.  0.
          4    1    3    3  502    0 -0.51985213589E+03  0.43197892579E+03 -0.33264520671E+03  0.75332919037E+03  0.00000000000E+00 0. -1.
         -3    1    3    3    0  502 -0.24226630325E+03  0.19809748927E+03 -0.94545877392E+02  0.32691665586E+03  0.00000000000E+00 0.  1.
         11    1    5    5    0    0  0.10668347077E+03 -0.11940949109E+03  0.43334017904E+03  0.46197803007E+03  0.00000000000E+00 0.  1.
        -11    1    5    5    0    0  0.25166669494E+03 -0.47186674995E+03  0.17850223675E+04  0.18634106385E+04  0.00000000000E+00 0. -1.
          3    1    6    6  503    0  0.35780858336E+03 -0.65732957803E+02  0.23482720640E+03  0.43300302647E+03  0.00000000000E+00 0. -1.
         -3    1    6    6    0  503  0.45959690073E+02  0.26932783784E+02  0.28337400670E+02  0.60338016464E+02  0.00000000000E+00 0.  1.
<mgrwt>
<rscale>  0 0.33138669E+04</rscale>
<asrwt>0</asrwt>
<pdfrwt beam="1">  1        2 0.14189535E+00 0.33138669E+04</pdfrwt>
<pdfrwt beam="2">  1       -1 0.45794704E+00 0.33138669E+04</pdfrwt>
<totfact> 0.76742571E-02</totfact>
</mgrwt>
</event>
<event>
12    6  0.1403409E-007  0.1520182E+04  0.7818608E-02  0.8871142E-01
         -1   -1    0    0    0  501 -0.00000000000E+00  0.00000000000E+00  0.16869014395E+03  0.16869014395E+03  0.00000000000E+00 0.  1.
          2   -1    0    0  501    0  0.00000000000E+00 -0.00000000000E+00 -0.34248510932E+04  0.34248510932E+04  0.00000000000E+00 0. -1.
         24    2    1    2    0    0 -0.19595973594E+03  0.30789279337E+03 -0.18364356973E+04  0.18737935777E+04  0.73539861464E+02 0.  0.
        254    2    1    2    0    0  0.19595973594E+03 -0.30789279337E+03 -0.14197252519E+04  0.17197476594E+04  0.89928528887E+03 0.  0.
         23    2    4    4    0    0  0.22371829006E+03  0.27828779038E+03 -0.44083749692E+03  0.57473102880E+03  0.92109115677E+02 0.  0.
         23    2    4    4    0    0 -0.27758554120E+02 -0.58618058375E+03 -0.97888775501E+03  0.11450166306E+04  0.91998007512E+02 0.  0.
          4    1    3    3  502    0 -0.57451578938E+02  0.15695845648E+03 -0.78781868132E+03  0.80535390706E+03  0.00000000000E+00 0. -1.
         -3    1    3    3    0  502 -0.13850815700E+03  0.15093433689E+03 -0.10486170160E+04  0.10684396706E+04  0.00000000000E+00 0.  1.
         11    1    5    5    0    0  0.17574028371E+03  0.26368196682E+03 -0.39825375985E+03  0.50893897884E+03  0.00000000000E+00 0. -1.
        -11    1    5    5    0    0  0.47978006352E+02  0.14605823560E+02 -0.42583737068E+02  0.65792049961E+02  0.00000000000E+00 0.  1.
          3    1    6    6  503    0 -0.25781610481E+02 -0.47319736040E+03 -0.71313546025E+03  0.85623747757E+03  0.00000000000E+00 0. -1.
         -3    1    6    6    0  503 -0.19769436391E+01 -0.11298322336E+03 -0.26575229475E+03  0.28877915304E+03  0.00000000000E+00 0.  1.
<mgrwt>
<rscale>  0 0.15201824E+04</rscale>
<asrwt>0</asrwt>
<pdfrwt beam="1">  1        2 0.52690010E+00 0.15201824E+04</pdfrwt>
<pdfrwt beam="2">  1       -1 0.25952333E-01 0.15201824E+04</pdfrwt>
<totfact> 0.13393291E+01</totfact>
</mgrwt>
</event>
<event>
12    6  0.1403409E-007  0.2179869E+04  0.7818608E-02  0.8526854E-01
          2   -1    0    0  501    0  0.00000000000E+00  0.00000000000E+00  0.19139866227E+04  0.19139866227E+04  0.00000000000E+00 0. -1.
         -1   -1    0    0    0  501 -0.00000000000E+00 -0.00000000000E+00 -0.62067158123E+03  0.62067158123E+03  0.00000000000E+00 0.  1.
         24    2    1    2    0    0  0.74116534465E+03 -0.51153030975E+03  0.49927078394E+03  0.10330624454E+04  0.83410878125E+02 0.  0.
        254    2    1    2    0    0 -0.74116534465E+03  0.51153030975E+03  0.79404425752E+03  0.15015957585E+04  0.90182826142E+03 0.  0.
         23    2    4    4    0    0 -0.49713870576E+03  0.75243163760E+03  0.46994918809E+03  0.10209116840E+04  0.90045350541E+02 0.  0.
         23    2    4    4    0    0 -0.24402663889E+03 -0.24090132785E+03  0.32409506943E+03  0.48068407447E+03  0.91853770579E+02 0.  0.
          4    1    3    3  502    0  0.15978577007E+03 -0.73072324038E+02  0.11111145659E+03  0.20788653791E+03  0.00000000000E+00 0. -1.
         -3    1    3    3    0  502  0.58137957457E+03 -0.43845798571E+03  0.38815932736E+03  0.82517590754E+03  0.00000000000E+00 0.  1.
         11    1    5    5    0    0 -0.12957872692E+03  0.14907111338E+03  0.13340388168E+03  0.23834730743E+03  0.00000000000E+00 0. -1.
        -11    1    5    5    0    0 -0.36755997884E+03  0.60336052422E+03  0.33654530641E+03  0.78256437658E+03  0.00000000000E+00 0.  1.
          3    1    6    6  503    0 -0.88252827297E+02 -0.14417737610E+03  0.12661152755E+03  0.21120169557E+03  0.00000000000E+00 0. -1.
         -3    1    6    6    0  503 -0.15577381159E+03 -0.96723951754E+02  0.19748354189E+03  0.26948237890E+03  0.00000000000E+00 0.  1.
<mgrwt>
<rscale>  0 0.21798689E+04</rscale>
<asrwt>0</asrwt>
<pdfrwt beam="1">  1        2 0.29445948E+00 0.21798689E+04</pdfrwt>
<pdfrwt beam="2">  1       -1 0.95487937E-01 0.21798689E+04</pdfrwt>
<totfact> 0.82282090E+00</totfact>
</mgrwt>
</event>
<event>
12    6  0.1403409E-007  0.2049183E+04  0.7818608E-02  0.8583965E-01
          2   -1    0    0  501    0  0.00000000000E+00  0.00000000000E+00  0.77246741257E+03  0.77246741257E+03  0.00000000000E+00 0. -1.
         -1   -1    0    0    0  501 -0.00000000000E+00 -0.00000000000E+00 -0.13590054086E+04  0.13590054086E+04  0.00000000000E+00 0.  1.
         24    2    1    2    0    0 -0.86041807027E+02  0.72110446041E+03 -0.64363803360E+03  0.97361507468E+03  0.79130019379E+02 0.  0.
        254    2    1    2    0    0  0.86041807027E+02 -0.72110446041E+03  0.57100037580E+02  0.11578577465E+04  0.89998850625E+03 0.  0.
         23    2    4    4    0    0  0.23097233731E+03 -0.37823292035E+03  0.43062730002E+03  0.62385007924E+03  0.85677810445E+02 0.  0.
         23    2    4    4    0    0 -0.14493053029E+03 -0.34287154006E+03 -0.37352726244E+03  0.53400766723E+03  0.84117901028E+02 0.  0.
          2    1    3    3  502    0 -0.17187530076E+02  0.19235548563E+03 -0.12681599805E+03  0.23103753246E+03  0.00000000000E+00 0. -1.
         -1    1    3    3    0  502 -0.68854276951E+02  0.52874897479E+03 -0.51682203555E+03  0.74257754223E+03  0.00000000000E+00 0.  1.
         11    1    5    5    0    0  0.60523022840E+02 -0.13974366883E+03  0.10101361773E+03  0.18274320846E+03  0.00000000000E+00 0. -1.
        -11    1    5    5    0    0  0.17044931447E+03 -0.23848925153E+03  0.32961368229E+03  0.44110687078E+03  0.00000000000E+00 0.  1.
          4    1    6    6  503    0 -0.11711378361E+03 -0.23451217148E+03 -0.30765485517E+03  0.40418202186E+03  0.00000000000E+00 0. -1.
         -4    1    6    6    0  503 -0.27816746678E+02 -0.10835936858E+03 -0.65872407275E+02  0.12982564537E+03  0.00000000000E+00 0.  1.
<mgrwt>
<rscale>  0 0.20491827E+04</rscale>
<asrwt>0</asrwt>
<pdfrwt beam="1">  1        2 0.11884114E+00 0.20491827E+04</pdfrwt>
<pdfrwt beam="2">  1       -1 0.20907775E+00 0.20491827E+04</pdfrwt>
<totfact> 0.49693626E+00</totfact>
</mgrwt>
</event>
<event>
12    6  0.1403409E-007  0.2002434E+04  0.7818608E-02  0.8605484E-01
         -1   -1    0    0    0  501 -0.00000000000E+00  0.00000000000E+00  0.83163433918E+03  0.83163433918E+03  0.00000000000E+00 0.  1.
          2   -1    0    0  501    0  0.00000000000E+00 -0.00000000000E+00 -0.12053797922E+04  0.12053797922E+04  0.00000000000E+00 0. -1.
         24    2    1    2    0    0 -0.54751464259E+03 -0.49554556595E+03 -0.45361434074E+03  0.87038739907E+03  0.80439806937E+02 0.  0.
        254    2    1    2    0    0  0.54751464259E+03  0.49554556595E+03  0.79868887709E+02  0.11666267323E+04  0.89961169488E+03 0.  0.
         23    2    4    4    0    0 -0.22485027702E+03  0.96113247924E+01  0.55561737209E+02  0.24953139585E+03  0.92351427882E+02 0.  0.
         23    2    4    4    0    0  0.77236491962E+03  0.48593424116E+03  0.24307150500E+02  0.91709533648E+03  0.88280025109E+02 0.  0.
          4    1    3    3  502    0 -0.22011806995E+03 -0.16797442181E+03 -0.20681379523E+03  0.34559993779E+03  0.00000000000E+00 0. -1.
         -3    1    3    3    0  502 -0.32739657265E+03 -0.32757114414E+03 -0.24680054551E+03  0.52478746128E+03  0.00000000000E+00 0.  1.
         11    1    5    5    0    0 -0.14838806984E+03 -0.11222606635E+02  0.76833572490E+02  0.16747645814E+03  0.00000000000E+00 0. -1.
        -11    1    5    5    0    0 -0.76462207186E+02  0.20833931428E+02 -0.21271835280E+02  0.82054937711E+02  0.00000000000E+00 0.  1.
          1    1    6    6  503    0  0.26739075021E+03  0.12335852821E+03 -0.81798895616E+01  0.29458793317E+03  0.00000000000E+00 0. -1.
         -1    1    6    6    0  503  0.50497416941E+03  0.36257571295E+03  0.32487040061E+02  0.62250740330E+03  0.00000000000E+00 0.  1.
<mgrwt>
<rscale>  0 0.20024337E+04</rscale>
<asrwt>0</asrwt>
<pdfrwt beam="1">  1        2 0.18544304E+00 0.20024337E+04</pdfrwt>
<pdfrwt beam="2">  1       -1 0.12794375E+00 0.20024337E+04</pdfrwt>
<totfact> 0.10513083E+01</totfact>
</mgrwt>
</event>
<event>
12    6  0.1403409E-007  0.3278694E+04  0.7818608E-02  0.8168338E-01
          2   -1    0    0  501    0  0.00000000000E+00  0.00000000000E+00  0.23696238785E+04  0.23696238785E+04  0.00000000000E+00 0. -1.
         -1   -1    0    0    0  501 -0.00000000000E+00 -0.00000000000E+00 -0.11341286871E+04  0.11341286871E+04  0.00000000000E+00 0.  1.
         24    2    1    2    0    0  0.13429758636E+04  0.44040865556E+03 -0.14830307812E+02  0.14156640574E+04  0.79629336470E+02 0.  0.
        254    2    1    2    0    0 -0.13429758636E+04 -0.44040865556E+03  0.12503254992E+04  0.20880885082E+04  0.89401107934E+03 0.  0.
         23    2    4    4    0    0 -0.56832180635E+03 -0.29170873692E+03  0.47627079136E+02  0.64685241194E+03  0.89811142941E+02 0.  0.
         23    2    4    4    0    0 -0.77465405729E+03 -0.14869991864E+03  0.12026984201E+04  0.14412360963E+04  0.92072912846E+02 0.  0.
          2    1    3    3  502    0  0.80351746494E+03  0.26824539899E+03  0.29880107184E+02  0.84763714604E+03  0.00000000000E+00 0. -1.
         -1    1    3    3    0  502  0.53945839870E+03  0.17216325657E+03 -0.44710414996E+02  0.56802691138E+03  0.00000000000E+00 0.  1.
         11    1    5    5    0    0 -0.52679890435E+02 -0.52228808265E+02 -0.12180861282E+02  0.75175745095E+02  0.00000000000E+00 0. -1.
        -11    1    5    5    0    0 -0.51564191591E+03 -0.23947992866E+03  0.59807940419E+02  0.57167666684E+03  0.00000000000E+00 0.  1.
          2    1    6    6  503    0 -0.16783696731E+03 -0.68814903911E+02  0.30100531665E+03  0.35143838613E+03  0.00000000000E+00 0. -1.
         -2    1    6    6    0  503 -0.60681708998E+03 -0.79885014724E+02  0.90169310346E+03  0.10897977102E+04  0.00000000000E+00 0.  1.
<mgrwt>
<rscale>  0 0.32786939E+04</rscale>
<asrwt>0</asrwt>
<pdfrwt beam="1">  1        2 0.36455752E+00 0.32786939E+04</pdfrwt>
<pdfrwt beam="2">  1       -1 0.17448134E+00 0.32786939E+04</pdfrwt>
<totfact> 0.89777650E-01</totfact>
</mgrwt>
</event>
<event>
12    6  0.1403409E-007  0.3114773E+04  0.7818608E-02  0.8211695E-01
         -1   -1    0    0    0  501 -0.00000000000E+00  0.00000000000E+00  0.13437430113E+04  0.13437430113E+04  0.00000000000E+00 0.  1.
          2   -1    0    0  501    0  0.00000000000E+00 -0.00000000000E+00 -0.18049977425E+04  0.18049977425E+04  0.00000000000E+00 0. -1.
         24    2    1    2    0    0 -0.48508639994E+03  0.11126955740E+04  0.54546428726E+03  0.13331003504E+04  0.78898667624E+02 0.  0.
        254    2    1    2    0    0  0.48508639994E+03 -0.11126955740E+04 -0.10067190185E+04  0.18156404035E+04  0.89981477932E+03 0.  0.
         23    2    4    4    0    0  0.51553772925E+03 -0.90089914387E+03 -0.31872546736E+03  0.10893780371E+04  0.88091806779E+02 0.  0.
         23    2    4    4    0    0 -0.30451329312E+02 -0.21179643008E+03 -0.68799355110E+03  0.72626236645E+03  0.91306556779E+02 0.  0.
          2    1    3    3  502    0 -0.26197446661E+03  0.54333686986E+03  0.23575474311E+03  0.64763097069E+03  0.00000000000E+00 0. -1.
         -1    1    3    3    0  502 -0.22311193333E+03  0.56935870410E+03  0.30970954415E+03  0.68546937967E+03  0.00000000000E+00 0.  1.
         11    1    5    5    0    0  0.14382805480E+03 -0.17824388463E+03 -0.66989671882E+02  0.23863153164E+03  0.00000000000E+00 0. -1.
        -11    1    5    5    0    0  0.37170967445E+03 -0.72265525924E+03 -0.25173579548E+03  0.85074650544E+03  0.00000000000E+00 0.  1.
          3    1    6    6  503    0 -0.78087648268E+01 -0.61396262573E+01 -0.25247844470E+01  0.10249212419E+02  0.00000000000E+00 0. -1.
         -3    1    6    6    0  503 -0.22642564485E+02 -0.20565680383E+03 -0.68546876666E+03  0.71601315403E+03  0.00000000000E+00 0.  1.
<mgrwt>
<rscale>  0 0.31147733E+04</rscale>
<asrwt>0</asrwt>
<pdfrwt beam="1">  1        2 0.27769196E+00 0.31147733E+04</pdfrwt>
<pdfrwt beam="2">  1       -1 0.20672969E+00 0.31147733E+04</pdfrwt>
<totfact> 0.11195734E+00</totfact>
</mgrwt>
</event>
<event>
12    6  0.1403409E-007  0.1058326E+04  0.7818608E-02  0.9246790E-01
         -1   -1    0    0    0  501 -0.00000000000E+00  0.00000000000E+00  0.89794192046E+03  0.89794192046E+03  0.00000000000E+00 0.  1.
          2   -1    0    0  501    0  0.00000000000E+00 -0.00000000000E+00 -0.31183937752E+03  0.31183937752E+03  0.00000000000E+00 0. -1.
         24    2    1    2    0    0 -0.10197534320E+03  0.43133062395E+02  0.12789470290E+02  0.13690711916E+03  0.79501931003E+02 0.  0.
        254    2    1    2    0    0  0.10197534320E+03 -0.43133062395E+02  0.57331307265E+03  0.10728741788E+04  0.90006204931E+03 0.  0.
         23    2    4    4    0    0 -0.11758109283E+03 -0.37476462851E+03  0.52536173378E+03  0.66227293351E+03  0.91250462857E+02 0.  0.
         23    2    4    4    0    0  0.21955643603E+03  0.33163156611E+03  0.47951338870E+02  0.41060124530E+03  0.90052914995E+02 0.  0.
          2    1    3    3  502    0 -0.25298885902E+02  0.17128055038E+02 -0.32112090936E+02  0.44323698870E+02  0.00000000000E+00 0. -1.
         -1    1    3    3    0  502 -0.76676457299E+02  0.26005007357E+02  0.44901561226E+02  0.92583420287E+02  0.00000000000E+00 0.  1.
         11    1    5    5    0    0 -0.12479861837E+03 -0.35458509172E+03  0.51712117235E+03  0.63931180914E+03  0.00000000000E+00 0.  1.
        -11    1    5    5    0    0  0.72175255317E+01 -0.20179536788E+02  0.82405614332E+01  0.22961124374E+02  0.00000000000E+00 0. -1.
          2    1    6    6  503    0  0.12327037755E+03  0.25684486933E+03  0.20502511056E+02  0.28563127602E+03  0.00000000000E+00 0.  1.
         -2    1    6    6    0  503  0.96286058486E+02  0.74786696789E+02  0.27448827815E+02  0.12496996929E+03  0.00000000000E+00 0. -1.
<mgrwt>
<rscale>  0 0.10583263E+04</rscale>
<asrwt>0</asrwt>
<pdfrwt beam="1">  1        2 0.47975289E-01 0.10583263E+04</pdfrwt>
<pdfrwt beam="2">  1       -1 0.13814491E+00 0.10583263E+04</pdfrwt>
<totfact> 0.52054446E+01</totfact>
</mgrwt>
</event>
<event>
12    6  0.1403409E-007  0.1804056E+04  0.7818608E-02  0.8704146E-01
          4   -1    0    0  501    0  0.00000000000E+00  0.00000000000E+00  0.16359380006E+04  0.16359380006E+04  0.00000000000E+00 0. -1.
         -3   -1    0    0    0  501 -0.00000000000E+00 -0.00000000000E+00 -0.49736266681E+03  0.49736266681E+03  0.00000000000E+00 0.  1.
         24    2    1    2    0    0 -0.64689388689E+03 -0.84871859963E+02  0.23247675557E+03  0.69897679128E+03  0.94064761484E+02 0.  0.
        254    2    1    2    0    0  0.64689388689E+03  0.84871859963E+02  0.90609857825E+03  0.14343238762E+04  0.90033072519E+03 0.  0.
         23    2    4    4    0    0  0.17420046358E+03  0.43385590673E+03  0.21517546659E+03  0.52282458345E+03  0.92023444408E+02 0.  0.
         23    2    4    4    0    0  0.47269342331E+03 -0.34898404677E+03  0.69092311166E+03  0.91149929272E+03  0.90704338717E+02 0.  0.
          4    1    3    3  502    0 -0.82304374490E+02 -0.22849062997E+02  0.63350378383E+02  0.10634547560E+03  0.00000000000E+00 0. -1.
         -3    1    3    3    0  502 -0.56458951240E+03 -0.62022796966E+02  0.16912637719E+03  0.59263131568E+03  0.00000000000E+00 0.  1.
         11    1    5    5    0    0  0.49969207944E+02  0.95226069353E+02  0.10375801216E+02  0.10803973009E+03  0.00000000000E+00 0.  1.
        -11    1    5    5    0    0  0.12423125564E+03  0.33862983738E+03  0.20479966538E+03  0.41478485336E+03  0.00000000000E+00 0. -1.
          1    1    6    6  503    0  0.33539916430E+03 -0.26812576907E+03  0.44435055971E+03  0.61792511469E+03  0.00000000000E+00 0. -1.
         -1    1    6    6    0  503  0.13729425902E+03 -0.80858277701E+02  0.24657255195E+03  0.29357417803E+03  0.00000000000E+00 0.  1.
<mgrwt>
<rscale>  0 0.18040560E+04</rscale>
<asrwt>0</asrwt>
<pdfrwt beam="1">  1        4 0.25168277E+00 0.18040560E+04</pdfrwt>
<pdfrwt beam="2">  1       -3 0.76517334E-01 0.18040560E+04</pdfrwt>
<totfact> 0.21345166E-01</totfact>
</mgrwt>
</event>
<event>
12    6  0.1403409E-007  0.2327450E+04  0.7818608E-02  0.8467176E-01
          2   -1    0    0  501    0  0.00000000000E+00  0.00000000000E+00  0.55603540656E+03  0.55603540656E+03  0.00000000000E+00 0. -1.
         -1   -1    0    0    0  501 -0.00000000000E+00 -0.00000000000E+00 -0.24355572108E+04  0.24355572108E+04  0.00000000000E+00 0.  1.
         24    2    1    2    0    0 -0.66419035560E+03 -0.35831408491E+03 -0.16190809470E+04  0.17881121817E+04  0.79901498039E+02 0.  0.
        254    2    1    2    0    0  0.66419035560E+03  0.35831408491E+03 -0.26044085724E+03  0.12034804357E+04  0.90055422217E+03 0.  0.
         23    2    4    4    0    0  0.74924585051E+03  0.12260836904E+03 -0.43987251978E+03  0.88219022859E+03  0.91485567671E+02 0.  0.
         23    2    4    4    0    0 -0.85055494918E+02  0.23570571588E+03  0.17943166254E+03  0.32129020711E+03  0.90774742895E+02 0.  0.
          2    1    3    3  502    0 -0.95495236194E+02 -0.52310060270E+02 -0.17347386230E+03  0.20481421690E+03  0.00000000000E+00 0. -1.
         -1    1    3    3    0  502 -0.56869511940E+03 -0.30600402464E+03 -0.14456070847E+04  0.15832979648E+04  0.00000000000E+00 0.  1.
         11    1    5    5    0    0  0.16539839341E+03  0.48040846917E+02 -0.63573829100E+02  0.18359243792E+03  0.00000000000E+00 0.  1.
        -11    1    5    5    0    0  0.58384745711E+03  0.74567522120E+02 -0.37629869068E+03  0.69859779067E+03  0.00000000000E+00 0. -1.
          4    1    6    6  503    0 -0.90033009282E+02  0.24048295110E+03  0.18106374182E+03  0.31420068608E+03  0.00000000000E+00 0. -1.
         -4    1    6    6    0  503  0.49775143641E+01 -0.47772352223E+01 -0.16320792821E+01  0.70895210273E+01  0.00000000000E+00 0.  1.
<mgrwt>
<rscale>  0 0.23274501E+04</rscale>
<asrwt>0</asrwt>
<pdfrwt beam="1">  1        2 0.85543910E-01 0.23274501E+04</pdfrwt>
<pdfrwt beam="2">  1       -1 0.37470110E+00 0.23274501E+04</pdfrwt>
<totfact> 0.59651616E-01</totfact>
</mgrwt>
</event>
<event>
12    6  0.1403409E-007  0.2629512E+04  0.7818608E-02  0.8358245E-01
          2   -1    0    0  501    0  0.00000000000E+00  0.00000000000E+00  0.14468231646E+04  0.14468231646E+04  0.00000000000E+00 0. -1.
         -1   -1    0    0    0  501 -0.00000000000E+00 -0.00000000000E+00 -0.11947440477E+04  0.11947440477E+04  0.00000000000E+00 0.  1.
         24    2    1    2    0    0 -0.35204786321E+03  0.88559592286E+03  0.77500592095E+03  0.12308467505E+04  0.78305230776E+02 0.  0.
        254    2    1    2    0    0  0.35204786321E+03 -0.88559592286E+03 -0.52292680410E+03  0.14107204618E+04  0.89914511749E+03 0.  0.
         23    2    4    4    0    0  0.46887349570E+03 -0.57330793601E+03  0.43179808852E+02  0.74793748022E+03  0.94982282336E+02 0.  0.
         23    2    4    4    0    0 -0.11682563249E+03 -0.31228798685E+03 -0.56610661295E+03  0.66278298158E+03  0.87364571244E+02 0.  0.
          4    1    3    3  502    0 -0.21367078405E+03  0.63222900340E+03  0.53043696704E+03  0.85248583138E+03  0.00000000000E+00 0. -1.
         -3    1    3    3    0  502 -0.13837707916E+03  0.25336691946E+03  0.24456895391E+03  0.37836091914E+03  0.00000000000E+00 0.  1.
         11    1    5    5    0    0  0.30420989059E+03 -0.42507109859E+03  0.57787167144E+02  0.52589775914E+03  0.00000000000E+00 0. -1.
        -11    1    5    5    0    0  0.16466360511E+03 -0.14823683742E+03 -0.14607358292E+02  0.22203972107E+03  0.00000000000E+00 0.  1.
          3    1    6    6  503    0  0.84227384877E+01 -0.13348027518E+02 -0.87775626568E+01  0.18059844087E+02  0.00000000000E+00 0. -1.
         -3    1    6    6    0  503 -0.12524837098E+03 -0.29893995933E+03 -0.55732905029E+03  0.64472313749E+03  0.00000000000E+00 0.  1.
<mgrwt>
<rscale>  0 0.26295120E+04</rscale>
<asrwt>0</asrwt>
<pdfrwt beam="1">  1        2 0.22258818E+00 0.26295120E+04</pdfrwt>
<pdfrwt beam="2">  1       -1 0.18380678E+00 0.26295120E+04</pdfrwt>
<totfact> 0.26731022E+00</totfact>
</mgrwt>
</event>
<event>
12    6  0.1403409E-007  0.1088865E+04  0.7818608E-02  0.9216113E-01
         -1   -1    0    0    0  501 -0.00000000000E+00  0.00000000000E+00  0.10764959704E+03  0.10764959704E+03  0.00000000000E+00 0.  1.
          2   -1    0    0  501    0  0.00000000000E+00 -0.00000000000E+00 -0.27534403725E+04  0.27534403725E+04  0.00000000000E+00 0. -1.
         24    2    1    2    0    0  0.67174738117E+02  0.87205825253E+02 -0.68770638364E+03  0.70285842775E+03  0.94618169228E+02 0.  0.
        254    2    1    2    0    0 -0.67174738117E+02 -0.87205825253E+02 -0.19580843918E+04  0.21582315418E+04  0.90097258624E+03 0.  0.
         23    2    4    4    0    0 -0.59217237750E+02 -0.38069132809E+03 -0.37219256829E+03  0.54271186057E+03  0.87041870324E+02 0.  0.
         23    2    4    4    0    0 -0.79575003669E+01  0.29348550283E+03 -0.15858918235E+04  0.16155196812E+04  0.93026352876E+02 0.  0.
          2    1    3    3  502    0  0.48613224983E+02  0.91873956109E+02 -0.66538591425E+03  0.67345562908E+03  0.00000000000E+00 0. -1.
         -1    1    3    3    0  502  0.18561513134E+02 -0.46681308563E+01 -0.22320469396E+02  0.29402798669E+02  0.00000000000E+00 0.  1.
         11    1    5    5    0    0 -0.29397630374E+02 -0.58819214387E+02 -0.10225940907E+03  0.12157675517E+03  0.00000000000E+00 0. -1.
        -11    1    5    5    0    0 -0.29819607376E+02 -0.32187211370E+03 -0.26993315921E+03  0.42113510540E+03  0.00000000000E+00 0.  1.
          2    1    6    6  503    0 -0.41522261808E+02  0.23717869078E+03 -0.11732299207E+04  0.11976837130E+04  0.00000000000E+00 0.  1.
         -2    1    6    6    0  503  0.33564761441E+02  0.56306812057E+02 -0.41266190277E+03  0.41783596817E+03  0.00000000000E+00 0. -1.
<mgrwt>
<rscale>  0 0.10888650E+04</rscale>
<asrwt>0</asrwt>
<pdfrwt beam="1">  1        2 0.42360619E+00 0.10888650E+04</pdfrwt>
<pdfrwt beam="2">  1       -1 0.16561477E-01 0.10888650E+04</pdfrwt>
<totfact> 0.79200034E+01</totfact>
</mgrwt>
</event>
<event>
12    6  0.1403409E-007  0.5382397E+04  0.7818608E-02  0.7772082E-01
         -1   -1    0    0    0  501 -0.00000000000E+00  0.00000000000E+00  0.18080085181E+04  0.18080085181E+04  0.00000000000E+00 0.  1.
          2   -1    0    0  501    0  0.00000000000E+00 -0.00000000000E+00 -0.40058166009E+04  0.40058166009E+04  0.00000000000E+00 0. -1.
         24    2    1    2    0    0 -0.13210757858E+04 -0.62067603373E+03  0.12757375590E+04  0.19400762818E+04  0.76874501585E+02 0.  0.
        254    2    1    2    0    0  0.13210757858E+04  0.62067603373E+03 -0.34735456418E+04  0.38737488372E+04  0.89996153089E+03 0.  0.
         23    2    4    4    0    0  0.93663632003E+02  0.36319270482E+03 -0.13695722296E+04  0.14227397405E+04  0.88195580870E+02 0.  0.
         23    2    4    4    0    0  0.12274121538E+04  0.25748332891E+03 -0.21039734123E+04  0.24510090967E+04  0.88900013565E+02 0.  0.
          2    1    3    3  502    0 -0.28361451538E+03 -0.14571567463E+03  0.24007736157E+03  0.39913329942E+03  0.00000000000E+00 0. -1.
         -1    1    3    3    0  502 -0.10374612705E+04 -0.47496035910E+03  0.10356601974E+04  0.15409429824E+04  0.00000000000E+00 0.  1.
         11    1    5    5    0    0 -0.13042347803E+02  0.10071744249E+03 -0.33310904275E+03  0.34824666606E+03  0.00000000000E+00 0.  1.
        -11    1    5    5    0    0  0.10670597981E+03  0.26247526233E+03 -0.10364631868E+04  0.10744930745E+04  0.00000000000E+00 0. -1.
          4    1    6    6  503    0  0.68444441371E+03  0.12621775690E+03 -0.12461952316E+04  0.14273743842E+04  0.00000000000E+00 0. -1.
         -4    1    6    6    0  503  0.54296774013E+03  0.13126557201E+03 -0.85777818073E+03  0.10236347125E+04  0.00000000000E+00 0.  1.
<mgrwt>
<rscale>  0 0.53823974E+04</rscale>
<asrwt>0</asrwt>
<pdfrwt beam="1">  1        2 0.61627948E+00 0.53823974E+04</pdfrwt>
<pdfrwt beam="2">  1       -1 0.27815516E+00 0.53823974E+04</pdfrwt>
<totfact> 0.12353382E-02</totfact>
</mgrwt>
</event>
<event>
12    6  0.1403409E-007  0.1853279E+04  0.7818608E-02  0.8678469E-01
         -1   -1    0    0    0  501 -0.00000000000E+00  0.00000000000E+00  0.54551895301E+03  0.54551895301E+03  0.00000000000E+00 0.  1.
          2   -1    0    0  501    0  0.00000000000E+00 -0.00000000000E+00 -0.15740247150E+04  0.15740247150E+04  0.00000000000E+00 0. -1.
         24    2    1    2    0    0 -0.63732317908E+03  0.20006919371E+03 -0.65436350133E+03  0.93858356209E+03  0.80864048091E+02 0.  0.
        254    2    1    2    0    0  0.63732317908E+03 -0.20006919371E+03 -0.37414226067E+03  0.11809601059E+04  0.89915283670E+03 0.  0.
         23    2    4    4    0    0  0.31539505799E+03 -0.53119396822E+03 -0.89663268124E+02  0.63080024450E+03  0.90710376089E+02 0.  0.
         23    2    4    4    0    0  0.32192812109E+03  0.33112477451E+03 -0.28447899255E+03  0.55015986145E+03  0.92012197615E+02 0.  0.
          2    1    3    3  502    0 -0.36393419264E+03  0.75547421664E+02 -0.38398577667E+03  0.53441611706E+03  0.00000000000E+00 0. -1.
         -1    1    3    3    0  502 -0.27338898644E+03  0.12452177205E+03 -0.27037772466E+03  0.40416744502E+03  0.00000000000E+00 0.  1.
         11    1    5    5    0    0  0.60739644331E+02 -0.18071226956E+03 -0.15569759807E+02  0.19128158872E+03  0.00000000000E+00 0. -1.
        -11    1    5    5    0    0  0.25465541366E+03 -0.35048169866E+03 -0.74093508317E+02  0.43951865577E+03  0.00000000000E+00 0.  1.
          3    1    6    6  503    0  0.10041173994E+03  0.78094679707E+02 -0.36548403074E+02  0.13235211477E+03  0.00000000000E+00 0. -1.
         -3    1    6    6    0  503  0.22151638116E+03  0.25303009480E+03 -0.24793058947E+03  0.41780774668E+03  0.00000000000E+00 0.  1.
<mgrwt>
<rscale>  0 0.18532785E+04</rscale>
<asrwt>0</asrwt>
<pdfrwt beam="1">  1        2 0.24215765E+00 0.18532785E+04</pdfrwt>
<pdfrwt beam="2">  1       -1 0.83925993E-01 0.18532785E+04</pdfrwt>
<totfact> 0.17381716E+01</totfact>
</mgrwt>
</event>
<event>
12    6  0.1403409E-007  0.2518937E+04  0.7818608E-02  0.8396270E-01
          2   -1    0    0  501    0  0.00000000000E+00  0.00000000000E+00  0.25685385349E+04  0.25685385349E+04  0.00000000000E+00 0. -1.
         -1   -1    0    0    0  501 -0.00000000000E+00 -0.00000000000E+00 -0.61757336206E+03  0.61757336206E+03  0.00000000000E+00 0.  1.
         24    2    1    2    0    0  0.10902809497E+04 -0.59543997003E+02  0.98273037930E+03  0.14710172784E+04  0.76647231038E+02 0.  0.
        254    2    1    2    0    0 -0.10902809497E+04  0.59543997003E+02  0.96823479358E+03  0.17150946186E+04  0.90100660285E+03 0.  0.
         23    2    4    4    0    0 -0.12182287237E+04 -0.52358885416E+02  0.84714470059E+03  0.14874282435E+04  0.89252225746E+02 0.  0.
         23    2    4    4    0    0  0.12794777398E+03  0.11190288242E+03  0.12109009299E+03  0.22766637507E+03  0.90974060900E+02 0.  0.
          2    1    3    3  502    0  0.60852322159E+03 -0.66776158954E+02  0.52558798258E+03  0.80684713177E+03  0.00000000000E+00 0. -1.
         -1    1    3    3    0  502  0.48175772813E+03  0.72321619516E+01  0.45714239672E+03  0.66417014662E+03  0.00000000000E+00 0.  1.
         11    1    5    5    0    0 -0.36868979225E+03  0.25156357743E+02  0.25665333438E+03  0.44992881580E+03  0.00000000000E+00 0.  1.
        -11    1    5    5    0    0 -0.84953893146E+03 -0.77515243158E+02  0.59049136621E+03  0.10374994277E+04  0.00000000000E+00 0. -1.
          1    1    6    6  503    0  0.12543255055E+03  0.11425936217E+03  0.13279785685E+03  0.21546182345E+03  0.00000000000E+00 0. -1.
         -1    1    6    6    0  503  0.25152234297E+01 -0.23564797515E+01 -0.11707763856E+02  0.12204551619E+02  0.00000000000E+00 0.  1.
<mgrwt>
<rscale>  0 0.25189371E+04</rscale>
<asrwt>0</asrwt>
<pdfrwt beam="1">  1        2 0.39515977E+00 0.25189371E+04</pdfrwt>
<pdfrwt beam="2">  1       -1 0.95011288E-01 0.25189371E+04</pdfrwt>
<totfact> 0.34418189E+00</totfact>
</mgrwt>
</event>
<event>
12    6  0.1403409E-007  0.1547471E+04  0.7818608E-02  0.8853485E-01
         -1   -1    0    0    0  501 -0.00000000000E+00  0.00000000000E+00  0.35623082562E+03  0.35623082562E+03  0.00000000000E+00 0.  1.
          2   -1    0    0  501    0  0.00000000000E+00 -0.00000000000E+00 -0.16805589368E+04  0.16805589368E+04  0.00000000000E+00 0. -1.
         24    2    1    2    0    0  0.29206785384E+03  0.32785005250E+03 -0.78344887401E+03  0.90060107656E+03  0.67088544077E+02 0.  0.
        254    2    1    2    0    0 -0.29206785384E+03 -0.32785005250E+03 -0.54087923717E+03  0.11361886859E+04  0.89754392232E+03 0.  0.
         23    2    4    4    0    0 -0.31855636726E+03 -0.57894711298E+03 -0.18532276178E+03  0.69129076210E+03  0.82948616509E+02 0.  0.
         23    2    4    4    0    0  0.26488513419E+02  0.25109706048E+03 -0.35555647538E+03  0.44489792375E+03  0.88104371314E+02 0.  0.
          2    1    3    3  502    0  0.95965521124E+02  0.10336928869E+03 -0.31816591430E+03  0.34802893574E+03  0.00000000000E+00 0. -1.
         -1    1    3    3    0  502  0.19610233272E+03  0.22448076381E+03 -0.46528295971E+03  0.55257214082E+03  0.00000000000E+00 0.  1.
         11    1    5    5    0    0 -0.29022264939E+03 -0.46314391204E+03 -0.15866893213E+03  0.56912854392E+03  0.00000000000E+00 0. -1.
        -11    1    5    5    0    0 -0.28333717874E+02 -0.11580320094E+03 -0.26653829647E+02  0.12216221818E+03  0.00000000000E+00 0.  1.
          2    1    6    6  503    0  0.33976221421E+01  0.14608966747E+02 -0.78430884113E+02  0.79852171720E+02  0.00000000000E+00 0. -1.
         -2    1    6    6    0  503  0.23090891277E+02  0.23648809374E+03 -0.27712559127E+03  0.36504575203E+03  0.00000000000E+00 0.  1.
<mgrwt>
<rscale>  0 0.15474714E+04</rscale>
<asrwt>0</asrwt>
<pdfrwt beam="1">  1        2 0.25854752E+00 0.15474714E+04</pdfrwt>
<pdfrwt beam="2">  1       -1 0.54804744E-01 0.15474714E+04</pdfrwt>
<totfact> 0.37099096E+01</totfact>
</mgrwt>
</event>
<event>
12    6  0.1403409E-007  0.1902620E+04  0.7818608E-02  0.8653553E-01
          2   -1    0    0  501    0  0.00000000000E+00  0.00000000000E+00  0.23707973765E+04  0.23707973765E+04  0.00000000000E+00 0. -1.
         -1   -1    0    0    0  501 -0.00000000000E+00 -0.00000000000E+00 -0.38172438218E+03  0.38172438218E+03  0.00000000000E+00 0.  1.
         24    2    1    2    0    0 -0.14997116112E+03 -0.58906008585E+03  0.17675377695E+03  0.63931032841E+03  0.89401702626E+02 0.  0.
        254    2    1    2    0    0  0.14997116112E+03  0.58906008585E+03  0.18123192174E+04  0.21132114303E+04  0.90093200048E+03 0.  0.
         23    2    4    4    0    0  0.39804872404E+03  0.66532420502E+02  0.36441297045E+03  0.55123721415E+03  0.90533438838E+02 0.  0.
         23    2    4    4    0    0 -0.24807756292E+03  0.52252766535E+03  0.14479062469E+04  0.15619742161E+04  0.93559145335E+02 0.  0.
          2    1    3    3  502    0 -0.32657268722E+01 -0.53237308586E+01  0.14722987678E+02  0.15992918696E+02  0.00000000000E+00 0. -1.
         -1    1    3    3    0  502 -0.14670543425E+03 -0.58373635499E+03  0.16203078927E+03  0.62331740971E+03  0.00000000000E+00 0.  1.
         11    1    5    5    0    0  0.10340452347E+03 -0.22304538440E+02  0.97760686836E+02  0.14403867467E+03  0.00000000000E+00 0. -1.
        -11    1    5    5    0    0  0.29464420057E+03  0.88836958942E+02  0.26665228361E+03  0.40719853949E+03  0.00000000000E+00 0.  1.
          4    1    6    6  503    0 -0.19830614295E+03  0.32370923522E+03  0.99018281251E+03  0.10604598048E+04  0.00000000000E+00 0.  1.
         -4    1    6    6    0  503 -0.49771419966E+02  0.19881843013E+03  0.45772343444E+03  0.50151441140E+03  0.00000000000E+00 0. -1.
<mgrwt>
<rscale>  0 0.19026205E+04</rscale>
<asrwt>0</asrwt>
<pdfrwt beam="1">  1        2 0.36473805E+00 0.19026205E+04</pdfrwt>
<pdfrwt beam="2">  1       -1 0.58726830E-01 0.19026205E+04</pdfrwt>
<totfact> 0.12949036E+01</totfact>
</mgrwt>
</event>
<event>
12    6  0.1403409E-007  0.2601140E+04  0.7818608E-02  0.8367814E-01
         -1   -1    0    0    0  501 -0.00000000000E+00  0.00000000000E+00  0.67479125306E+03  0.67479125306E+03  0.00000000000E+00 0.  1.
          2   -1    0    0  501    0  0.00000000000E+00 -0.00000000000E+00 -0.25066747168E+04  0.25066747168E+04  0.00000000000E+00 0. -1.
         24    2    1    2    0    0  0.11374617256E+04  0.28210215763E+02 -0.66945783557E+03  0.13225062424E+04  0.78955520536E+02 0.  0.
        254    2    1    2    0    0 -0.11374617256E+04 -0.28210215763E+02 -0.11624256282E+04  0.18589597275E+04  0.89993496088E+03 0.  0.
         23    2    4    4    0    0 -0.93465253977E+03  0.31901281347E+03 -0.59137893986E+03  0.11546856863E+04  0.90694202141E+02 0.  0.
         23    2    4    4    0    0 -0.20280918580E+03 -0.34722302923E+03 -0.57104668834E+03  0.70427404119E+03  0.90621227964E+02 0.  0.
          4    1    3    3  502    0  0.30996727339E+03  0.12242450561E+01 -0.22315679091E+03  0.38194261700E+03  0.00000000000E+00 0. -1.
         -3    1    3    3    0  502  0.82749445218E+03  0.26985970707E+02 -0.44630104465E+03  0.94056362542E+03  0.00000000000E+00 0.  1.
         11    1    5    5    0    0 -0.27755121836E+02  0.26601622990E+02 -0.16568041379E+02  0.41862789312E+02  0.00000000000E+00 0. -1.
        -11    1    5    5    0    0 -0.90689741794E+03  0.29241119048E+03 -0.57481089848E+03  0.11128228970E+04  0.00000000000E+00 0.  1.
          3    1    6    6  503    0  0.23298646325E+01 -0.27875617929E+02 -0.72324423721E+02  0.77545474470E+02  0.00000000000E+00 0. -1.
         -3    1    6    6    0  503 -0.20513905043E+03 -0.31934741130E+03 -0.49872226462E+03  0.62672856672E+03  0.00000000000E+00 0.  1.
<mgrwt>
<rscale>  0 0.26011399E+04</rscale>
<asrwt>0</asrwt>
<pdfrwt beam="1">  1        2 0.38564227E+00 0.26011399E+04</pdfrwt>
<pdfrwt beam="2">  1       -1 0.10381404E+00 0.26011399E+04</pdfrwt>
<totfact> 0.30329175E+00</totfact>
</mgrwt>
</event>
<event>
12    6  0.1403409E-007  0.2147100E+04  0.7818608E-02  0.8540775E-01
          2   -1    0    0  501    0  0.00000000000E+00  0.00000000000E+00  0.11307544089E+04  0.11307544089E+04  0.00000000000E+00 0. -1.
         -1   -1    0    0    0  501 -0.00000000000E+00 -0.00000000000E+00 -0.10192392511E+04  0.10192392511E+04  0.00000000000E+00 0.  1.
         24    2    1    2    0    0 -0.81010080521E+02  0.85120203327E+03  0.27107524121E+03  0.90035074270E+03  0.77731196476E+02 0.  0.
        254    2    1    2    0    0  0.81010080521E+02 -0.85120203327E+03 -0.15956008341E+03  0.12496429173E+04  0.89724047274E+03 0.  0.
         23    2    4    4    0    0  0.11771770298E+03 -0.20482101412E+03 -0.46311215954E+03  0.52897277207E+03  0.97622824503E+02 0.  0.
         23    2    4    4    0    0 -0.36707622457E+02 -0.64638101914E+03  0.30355207613E+03  0.72067014522E+03  0.89809374950E+02 0.  0.
          4    1    3    3  502    0 -0.91135012199E+02  0.78417250846E+03  0.23569553963E+03  0.82388379088E+03  0.00000000000E+00 0. -1.
         -3    1    3    3    0  502  0.10124931677E+02  0.67029524810E+02  0.35379701581E+02  0.76466951826E+02  0.00000000000E+00 0.  1.
         11    1    5    5    0    0  0.17399791052E+02 -0.82614405274E+02 -0.24820471495E+03  0.26217069480E+03  0.00000000000E+00 0.  1.
        -11    1    5    5    0    0  0.10031791193E+03 -0.12220660885E+03 -0.21490744458E+03  0.26680207727E+03  0.00000000000E+00 0. -1.
          1    1    6    6  503    0 -0.58117420973E+02 -0.26543790175E+03  0.13794214140E+03  0.30473422630E+03  0.00000000000E+00 0. -1.
         -1    1    6    6    0  503  0.21409798516E+02 -0.38094311740E+03  0.16560993473E+03  0.41593591891E+03  0.00000000000E+00 0.  1.
<mgrwt>
<rscale>  0 0.21470997E+04</rscale>
<asrwt>0</asrwt>
<pdfrwt beam="1">  1        2 0.17396222E+00 0.21470997E+04</pdfrwt>
<pdfrwt beam="2">  1       -1 0.15680604E+00 0.21470997E+04</pdfrwt>
<totfact> 0.67487076E+00</totfact>
</mgrwt>
</event>
<event>
12    6  0.1403409E-007  0.2045872E+04  0.7818608E-02  0.8585469E-01
          2   -1    0    0  501    0  0.00000000000E+00  0.00000000000E+00  0.16141773830E+04  0.16141773830E+04  0.00000000000E+00 0. -1.
         -1   -1    0    0    0  501 -0.00000000000E+00 -0.00000000000E+00 -0.64825445494E+03  0.64825445494E+03  0.00000000000E+00 0.  1.
         24    2    1    2    0    0  0.19366446956E+03 -0.27675470493E+02 -0.49364407599E+03  0.53640665466E+03  0.75998466878E+02 0.  0.
        254    2    1    2    0    0 -0.19366446956E+03  0.27675470493E+02  0.14595670040E+04  0.17260251832E+04  0.90030841136E+03 0.  0.
         23    2    4    4    0    0  0.39415779844E+02 -0.33524272068E+03  0.11085204950E+04  0.11624063252E+04  0.91812263284E+02 0.  0.
         23    2    4    4    0    0 -0.23308024941E+03  0.36291819117E+03  0.35104650902E+03  0.56361885800E+03  0.91632687680E+02 0.  0.
          4    1    3    3  502    0  0.15403129182E+03  0.70627213478E+01 -0.32506575637E+03  0.35978224922E+03  0.00000000000E+00 0. -1.
         -3    1    3    3    0  502  0.39633177743E+02 -0.34738191840E+02 -0.16857831962E+03  0.17662440544E+03  0.00000000000E+00 0.  1.
         11    1    5    5    0    0 -0.94633474152E+01 -0.37525158057E+02  0.60464296793E+02  0.71788742977E+02  0.00000000000E+00 0. -1.
        -11    1    5    5    0    0  0.48879127260E+02 -0.29771756262E+03  0.10480561982E+04  0.10906175823E+04  0.00000000000E+00 0.  1.
          1    1    6    6  503    0 -0.96829491035E+02  0.14253432043E+03  0.19885753915E+03  0.26312792271E+03  0.00000000000E+00 0. -1.
         -1    1    6    6    0  503 -0.13625075837E+03  0.22038387074E+03  0.15218896988E+03  0.30049093529E+03  0.00000000000E+00 0.  1.
<mgrwt>
<rscale>  0 0.20458716E+04</rscale>
<asrwt>0</asrwt>
<pdfrwt beam="1">  1        2 0.24833498E+00 0.20458716E+04</pdfrwt>
<pdfrwt beam="2">  1       -1 0.99731455E-01 0.20458716E+04</pdfrwt>
<totfact> 0.11071858E+01</totfact>
</mgrwt>
</event>
<event>
12    6  0.1403409E-007  0.3022449E+04  0.7818608E-02  0.8237349E-01
          2   -1    0    0  501    0  0.00000000000E+00  0.00000000000E+00  0.11340024963E+04  0.11340024963E+04  0.00000000000E+00 0. -1.
         -1   -1    0    0    0  501 -0.00000000000E+00 -0.00000000000E+00 -0.20139278863E+04  0.20139278863E+04  0.00000000000E+00 0.  1.
         24    2    1    2    0    0  0.90757670349E+03  0.93472463343E+03  0.58310401557E+02  0.13067984384E+04  0.83165152243E+02 0.  0.
        254    2    1    2    0    0 -0.90757670349E+03 -0.93472463343E+03 -0.93823579156E+03  0.18411319442E+04  0.90115194197E+03 0.  0.
         23    2    4    4    0    0 -0.35696865763E+03 -0.94469752292E+03 -0.49606802086E+03  0.11290274245E+04  0.93484820338E+02 0.  0.
         23    2    4    4    0    0 -0.55060804585E+03  0.99728894965E+01 -0.44216777071E+03  0.71210451974E+03  0.91169243123E+02 0.  0.
          2    1    3    3  502    0  0.35362379373E+03  0.42259846813E+03  0.30286730632E+02  0.55186641392E+03  0.00000000000E+00 0. -1.
         -1    1    3    3    0  502  0.55395290976E+03  0.51212616529E+03  0.28023670925E+02  0.75493202445E+03  0.00000000000E+00 0.  1.
         11    1    5    5    0    0 -0.33704653856E+03 -0.80386835379E+03 -0.41667790317E+03  0.96613931417E+03  0.00000000000E+00 0. -1.
        -11    1    5    5    0    0 -0.19922119075E+02 -0.14082916913E+03 -0.79390117684E+02  0.16288811035E+03  0.00000000000E+00 0.  1.
          1    1    6    6  503    0 -0.24785908313E+03  0.46047940608E+02 -0.22347894504E+03  0.33689371736E+03  0.00000000000E+00 0. -1.
         -1    1    6    6    0  503 -0.30274896273E+03 -0.36075051112E+02 -0.21868882567E+03  0.37521080237E+03  0.00000000000E+00 0.  1.
<mgrwt>
<rscale>  0 0.30224488E+04</rscale>
<asrwt>0</asrwt>
<pdfrwt beam="1">  1        2 0.17446192E+00 0.30224488E+04</pdfrwt>
<pdfrwt beam="2">  1       -1 0.30983506E+00 0.30224488E+04</pdfrwt>
<totfact> 0.57614843E-01</totfact>
</mgrwt>
</event>
<event>
12    6  0.1403409E-007  0.1309613E+04  0.7818608E-02  0.9021976E-01
         -1   -1    0    0    0  501 -0.00000000000E+00  0.00000000000E+00  0.21584842828E+03  0.21584842828E+03  0.00000000000E+00 0.  1.
          2   -1    0    0  501    0  0.00000000000E+00 -0.00000000000E+00 -0.19864481554E+04  0.19864481554E+04  0.00000000000E+00 0. -1.
         24    2    1    2    0    0  0.15332769703E+03  0.29275993134E+03 -0.48693279086E+03  0.59595860911E+03  0.94049778764E+02 0.  0.
        254    2    1    2    0    0 -0.15332769703E+03 -0.29275993134E+03 -0.12836669362E+04  0.16063379746E+04  0.90736052661E+03 0.  0.
         23    2    4    4    0    0  0.21968722429E+03 -0.16212467164E+02 -0.10520979062E+04  0.10792328389E+04  0.96478990182E+02 0.  0.
         23    2    4    4    0    0 -0.37301492131E+03 -0.27654746417E+03 -0.23156902999E+03  0.52710513570E+03  0.92719884394E+02 0.  0.
          4    1    3    3  502    0  0.11322098015E+03  0.21820176310E+03 -0.42531930206E+03  0.49125096282E+03  0.00000000000E+00 0. -1.
         -3    1    3    3    0  502  0.40106716873E+02  0.74558168239E+02 -0.61613488798E+02  0.10470764629E+03  0.00000000000E+00 0.  1.
         11    1    5    5    0    0  0.20263590521E+03 -0.44486750515E+02 -0.91031931504E+03  0.93366034316E+03  0.00000000000E+00 0. -1.
        -11    1    5    5    0    0  0.17051319076E+02  0.28274283351E+02 -0.14177859120E+03  0.14557249570E+03  0.00000000000E+00 0.  1.
          4    1    6    6  503    0 -0.24530241645E+03 -0.17212946068E+03 -0.99404835475E+02  0.31572638164E+03  0.00000000000E+00 0. -1.
         -4    1    6    6    0  503 -0.12771250486E+03 -0.10441800350E+03 -0.13216419452E+03  0.21137875405E+03  0.00000000000E+00 0.  1.
<mgrwt>
<rscale>  0 0.13096132E+04</rscale>
<asrwt>0</asrwt>
<pdfrwt beam="1">  1        2 0.30560740E+00 0.13096132E+04</pdfrwt>
<pdfrwt beam="2">  1       -1 0.33207451E-01 0.13096132E+04</pdfrwt>
<totfact> 0.64718087E+01</totfact>
</mgrwt>
</event>
<event>
12    6  0.1403409E-007  0.2999481E+04  0.7818608E-02  0.8243879E-01
          2   -1    0    0  501    0  0.00000000000E+00  0.00000000000E+00  0.15492680052E+04  0.15492680052E+04  0.00000000000E+00 0. -1.
         -1   -1    0    0    0  501 -0.00000000000E+00 -0.00000000000E+00 -0.14517961928E+04  0.14517961928E+04  0.00000000000E+00 0.  1.
         24    2    1    2    0    0  0.85363668431E+03  0.12980198220E+03 -0.10118379501E+04  0.13326949524E+04  0.81949102976E+02 0.  0.
        254    2    1    2    0    0 -0.85363668431E+03 -0.12980198220E+03  0.11093097626E+04  0.16683692456E+04  0.89852303640E+03 0.  0.
         23    2    4    4    0    0  0.61357647465E+02  0.23307867076E+03  0.23829317652E+03  0.35087014581E+03  0.90751273150E+02 0.  0.
         23    2    4    4    0    0 -0.91499433177E+03 -0.36288065296E+03  0.87101658605E+03  0.13174990998E+04  0.90757860801E+02 0.  0.
          2    1    3    3  502    0  0.75955025298E+03  0.13248515426E+03 -0.87019684228E+03  0.11626312602E+04  0.00000000000E+00 0. -1.
         -1    1    3    3    0  502  0.94086431327E+02 -0.26831720641E+01 -0.14164110784E+03  0.17006369219E+03  0.00000000000E+00 0.  1.
         11    1    5    5    0    0  0.56359850988E+02  0.18588031500E+03  0.23264916266E+03  0.30307351781E+03  0.00000000000E+00 0. -1.
        -11    1    5    5    0    0  0.49977964767E+01  0.47198355760E+02  0.56440138576E+01  0.47796628003E+02  0.00000000000E+00 0.  1.
          3    1    6    6  503    0 -0.70317400533E+03 -0.28269828604E+03  0.61786406047E+03  0.97781797893E+03  0.00000000000E+00 0. -1.
         -3    1    6    6    0  503 -0.21182032645E+03 -0.80182366925E+02  0.25315252557E+03  0.33968112086E+03  0.00000000000E+00 0.  1.
<mgrwt>
<rscale>  0 0.29994809E+04</rscale>
<asrwt>0</asrwt>
<pdfrwt beam="1">  1        2 0.23834892E+00 0.29994809E+04</pdfrwt>
<pdfrwt beam="2">  1       -1 0.22335326E+00 0.29994809E+04</pdfrwt>
<totfact> 0.12129161E+00</totfact>
</mgrwt>
</event>
<event>
12    6  0.1403409E-007  0.2920670E+04  0.7818608E-02  0.8266754E-01
          2   -1    0    0  501    0  0.00000000000E+00  0.00000000000E+00  0.23459749740E+04  0.23459749740E+04  0.00000000000E+00 0. -1.
         -1   -1    0    0    0  501 -0.00000000000E+00 -0.00000000000E+00 -0.90903727731E+03  0.90903727731E+03  0.00000000000E+00 0.  1.
         24    2    1    2    0    0 -0.10345338770E+04 -0.87574012351E+02  0.15591091097E+04  0.18751772156E+04  0.86826399917E+02 0.  0.
        254    2    1    2    0    0  0.10345338770E+04  0.87574012351E+02 -0.12217141307E+03  0.13798350356E+04  0.90060497512E+03 0.  0.
         23    2    4    4    0    0  0.11431272338E+04 -0.27846133655E+02  0.19187916502E+02  0.11466258012E+04  0.82869005193E+02 0.  0.
         23    2    4    4    0    0 -0.10859335683E+03  0.11542014601E+03 -0.14135932958E+03  0.23320923446E+03  0.96383399631E+02 0.  0.
          2    1    3    3  502    0 -0.66590435635E+03 -0.57676523101E+02  0.10769924704E+04  0.12675440720E+04  0.00000000000E+00 0. -1.
         -1    1    3    3    0  502 -0.36862952061E+03 -0.29897489250E+02  0.48211663934E+03  0.60763314364E+03  0.00000000000E+00 0.  1.
         11    1    5    5    0    0  0.16541084837E+03 -0.26218030995E+02 -0.16278240829E+02  0.16826501428E+03  0.00000000000E+00 0. -1.
        -11    1    5    5    0    0  0.97771638543E+03 -0.16281026605E+01  0.35466157331E+02  0.97836078691E+03  0.00000000000E+00 0.  1.
          1    1    6    6  503    0 -0.25074764599E+02  0.47932076069E+02  0.19563483881E+01  0.54129982773E+02  0.00000000000E+00 0. -1.
         -1    1    6    6    0  503 -0.83518592234E+02  0.67488069938E+02 -0.14331567796E+03  0.17907925168E+03  0.00000000000E+00 0.  1.
<mgrwt>
<rscale>  0 0.29206703E+04</rscale>
<asrwt>0</asrwt>
<pdfrwt beam="1">  1        2 0.36091923E+00 0.29206703E+04</pdfrwt>
<pdfrwt beam="2">  1       -1 0.13985189E+00 0.29206703E+04</pdfrwt>
<totfact> 0.17572756E+00</totfact>
</mgrwt>
</event>
<event>
12    6  0.1403409E-007  0.2034242E+04  0.7818608E-02  0.8590776E-01
          2   -1    0    0  501    0  0.00000000000E+00  0.00000000000E+00  0.18247422371E+04  0.18247422371E+04  0.00000000000E+00 0. -1.
         -1   -1    0    0    0  501 -0.00000000000E+00 -0.00000000000E+00 -0.56694887702E+03  0.56694887702E+03  0.00000000000E+00 0.  1.
         24    2    1    2    0    0 -0.34487202657E+03 -0.71584195434E+03  0.28655544462E+03  0.84843468857E+03  0.79755749757E+02 0.  0.
        254    2    1    2    0    0  0.34487202657E+03  0.71584195434E+03  0.97123791549E+03  0.15432564256E+04  0.89831558394E+03 0.  0.
         23    2    4    4    0    0 -0.60379825661E+02 -0.56834308238E+02  0.56143691233E+03  0.57473259951E+03  0.90720959386E+02 0.  0.
         23    2    4    4    0    0  0.40525185223E+03  0.77267626258E+03  0.40980100316E+03  0.96852382608E+03  0.94041847139E+02 0.  0.
          4    1    3    3  502    0 -0.17612361130E+03 -0.45306166596E+03  0.16541361465E+03  0.51346476367E+03  0.00000000000E+00 0. -1.
         -3    1    3    3    0  502 -0.16874841526E+03 -0.26278028838E+03  0.12114182997E+03  0.33496992489E+03  0.00000000000E+00 0.  1.
         11    1    5    5    0    0 -0.44195869125E+02  0.14351544932E+02  0.15591586310E+03  0.16269295638E+03  0.00000000000E+00 0.  1.
        -11    1    5    5    0    0 -0.16183956535E+02 -0.71185853170E+02  0.40552104923E+03  0.41203964313E+03  0.00000000000E+00 0. -1.
          4    1    6    6  503    0  0.14329817165E+03  0.36936848746E+03  0.16968554620E+03  0.43099957090E+03  0.00000000000E+00 0. -1.
         -4    1    6    6    0  503  0.26195368057E+03  0.40330777512E+03  0.24011545696E+03  0.53752425518E+03  0.00000000000E+00 0.  1.
<mgrwt>
<rscale>  0 0.20342424E+04</rscale>
<asrwt>0</asrwt>
<pdfrwt beam="1">  1        2 0.28072957E+00 0.20342424E+04</pdfrwt>
<pdfrwt beam="2">  1       -1 0.87222904E-01 0.20342424E+04</pdfrwt>
<totfact> 0.11413888E+01</totfact>
</mgrwt>
</event>
<event>
12    6  0.1403409E-007  0.2779131E+04  0.7818608E-02  0.8309777E-01
         -1   -1    0    0    0  501 -0.00000000000E+00  0.00000000000E+00  0.86598233367E+03  0.86598233367E+03  0.00000000000E+00 0.  1.
          2   -1    0    0  501    0  0.00000000000E+00 -0.00000000000E+00 -0.22297126752E+04  0.22297126752E+04  0.00000000000E+00 0. -1.
         24    2    1    2    0    0 -0.49341511196E+03  0.11071295699E+04 -0.30843700846E+03  0.12532570552E+04  0.79533017919E+02 0.  0.
        254    2    1    2    0    0  0.49341511196E+03 -0.11071295699E+04 -0.10552933331E+04  0.18424379537E+04  0.90096572463E+03 0.  0.
         23    2    4    4    0    0  0.40167740465E+03 -0.10907326993E+04 -0.49549618585E+03  0.12670103290E+04  0.93574274844E+02 0.  0.
         23    2    4    4    0    0  0.91737707302E+02 -0.16396870600E+02 -0.55979714721E+03  0.57542762462E+03  0.95181094997E+02 0.  0.
          2    1    3    3  502    0 -0.37646631135E+03  0.75584519374E+03 -0.22011765876E+03  0.87262857172E+03  0.00000000000E+00 0. -1.
         -1    1    3    3    0  502 -0.11694880061E+03  0.35128437618E+03 -0.88319349703E+02  0.38062848349E+03  0.00000000000E+00 0.  1.
         11    1    5    5    0    0  0.10088161787E+03 -0.24944351730E+03 -0.15743804816E+03  0.31174654474E+03  0.00000000000E+00 0. -1.
        -11    1    5    5    0    0  0.30079578678E+03 -0.84128918202E+03 -0.33805813769E+03  0.95526378430E+03  0.00000000000E+00 0.  1.
          2    1    6    6  503    0  0.29628310990E+02 -0.52401258771E+02 -0.29444815844E+03  0.30053859443E+03  0.00000000000E+00 0.  1.
         -2    1    6    6    0  503  0.62109396312E+02  0.36004388171E+02 -0.26534898876E+03  0.27488903018E+03  0.00000000000E+00 0. -1.
<mgrwt>
<rscale>  0 0.27791306E+04</rscale>
<asrwt>0</asrwt>
<pdfrwt beam="1">  1        2 0.34303271E+00 0.27791306E+04</pdfrwt>
<pdfrwt beam="2">  1       -1 0.13322806E+00 0.27791306E+04</pdfrwt>
<totfact> 0.23464708E+00</totfact>
</mgrwt>
</event>
<event>
12    6  0.1403409E-007  0.3803221E+04  0.7818608E-02  0.8045464E-01
         -1   -1    0    0    0  501 -0.00000000000E+00  0.00000000000E+00  0.13405695637E+04  0.13405695637E+04  0.00000000000E+00 0.  1.
          2   -1    0    0  501    0  0.00000000000E+00 -0.00000000000E+00 -0.26974529685E+04  0.26974529685E+04  0.00000000000E+00 0. -1.
         24    2    1    2    0    0 -0.17274687692E+04  0.12699694841E+03 -0.14328850504E+03  0.17398782225E+04  0.79800124035E+02 0.  0.
        254    2    1    2    0    0  0.17274687692E+04 -0.12699694841E+03 -0.12135948998E+04  0.22981443098E+04  0.89909850087E+03 0.  0.
         23    2    4    4    0    0  0.94952469284E+02 -0.13255115392E+03  0.89272203455E+02  0.20749467663E+03  0.92188582227E+02 0.  0.
         23    2    4    4    0    0  0.16325162999E+04  0.55542055116E+01 -0.13028671033E+04  0.20906496332E+04  0.90624947512E+02 0.  0.
          4    1    3    3  502    0 -0.83369262477E+03  0.48411680292E+02 -0.31201691564E+02  0.83567974066E+03  0.00000000000E+00 0. -1.
         -3    1    3    3    0  502 -0.89377614444E+03  0.78585268118E+02 -0.11208681347E+03  0.90419848180E+03  0.00000000000E+00 0.  1.
         11    1    5    5    0    0  0.12313695800E+02 -0.64551149186E+01  0.49724055447E+02  0.51631166005E+02  0.00000000000E+00 0. -1.
        -11    1    5    5    0    0  0.82638773483E+02 -0.12609603900E+03  0.39548148008E+02  0.15586351063E+03  0.00000000000E+00 0.  1.
          3    1    6    6  503    0  0.14792400282E+04  0.19236005162E+02 -0.12075728224E+04  0.19096474037E+04  0.00000000000E+00 0.  1.
         -3    1    6    6    0  503  0.15327627170E+03 -0.13681799650E+02 -0.95294280884E+02  0.18100222948E+03  0.00000000000E+00 0. -1.
<mgrwt>
<rscale>  0 0.38032214E+04</rscale>
<asrwt>0</asrwt>
<pdfrwt beam="1">  1        2 0.41499276E+00 0.38032214E+04</pdfrwt>
<pdfrwt beam="2">  1       -1 0.20624147E+00 0.38032214E+04</pdfrwt>
<totfact> 0.33086212E-01</totfact>
</mgrwt>
</event>
<event>
12    6  0.1403409E-007  0.1809546E+04  0.7818608E-02  0.8701239E-01
          2   -1    0    0  501    0  0.00000000000E+00  0.00000000000E+00  0.13651350042E+04  0.13651350042E+04  0.00000000000E+00 0. -1.
         -3   -1    0    0    0  501 -0.00000000000E+00 -0.00000000000E+00 -0.59965811477E+03  0.59965811477E+03  0.00000000000E+00 0.  1.
         24    2    1    2    0    0 -0.32088719900E+03  0.59550866719E+03  0.33976643892E+03  0.76109564247E+03  0.78906126385E+02 0.  0.
        254    2    1    2    0    0  0.32088719900E+03 -0.59550866719E+03  0.42571045052E+03  0.12036974765E+04  0.90003281058E+03 0.  0.
         23    2    4    4    0    0  0.18130864054E+03 -0.38417889303E+03  0.69722366262E+03  0.82149298348E+03  0.90904571885E+02 0.  0.
         23    2    4    4    0    0  0.13957855846E+03 -0.21132977416E+03 -0.27151321210E+03  0.38220449305E+03  0.90655406531E+02 0.  0.
          2    1    3    3  502    0 -0.24538798438E+02  0.15033987361E+02  0.85818074593E+01  0.30030331734E+02  0.00000000000E+00 0. -1.
         -1    1    3    3    0  502 -0.29634840057E+03  0.58047467983E+03  0.33118463146E+03  0.73106531073E+03  0.00000000000E+00 0.  1.
         11    1    5    5    0    0  0.88657372484E+02 -0.91922740404E+02  0.21424730337E+03  0.24942298792E+03  0.00000000000E+00 0.  1.
        -11    1    5    5    0    0  0.92651268058E+02 -0.29225615263E+03  0.48297635925E+03  0.57206999556E+03  0.00000000000E+00 0. -1.
          4    1    6    6  503    0  0.12452662331E+03 -0.21131411809E+03 -0.22330521277E+03  0.33170130308E+03  0.00000000000E+00 0. -1.
         -4    1    6    6    0  503  0.15051935150E+02 -0.15656064882E-01 -0.48207999332E+02  0.50503189964E+02  0.00000000000E+00 0.  1.
<mgrwt>
<rscale>  0 0.18095461E+04</rscale>
<asrwt>0</asrwt>
<pdfrwt beam="1">  1        2 0.21002077E+00 0.18095461E+04</pdfrwt>
<pdfrwt beam="2">  1       -3 0.92255095E-01 0.18095461E+04</pdfrwt>
<totfact> 0.95797254E+00</totfact>
</mgrwt>
</event>
<event>
12    6  0.1403409E-007  0.2968429E+04  0.7818608E-02  0.8252804E-01
         -1   -1    0    0    0  501 -0.00000000000E+00  0.00000000000E+00  0.30768295239E+04  0.30768295239E+04  0.00000000000E+00 0.  1.
          2   -1    0    0  501    0  0.00000000000E+00 -0.00000000000E+00 -0.71596206565E+03  0.71596206565E+03  0.00000000000E+00 0. -1.
         24    2    1    2    0    0 -0.85497428695E+03  0.72913201637E+03  0.20183509115E+04  0.23114177255E+04  0.79353455890E+02 0.  0.
        254    2    1    2    0    0  0.85497428695E+03 -0.72913201637E+03  0.34251654673E+03  0.14813738641E+04  0.90251670998E+03 0.  0.
         23    2    4    4    0    0  0.59284935541E+03 -0.91983375909E+03  0.20213041744E+03  0.11165131059E+04  0.90445052537E+02 0.  0.
         23    2    4    4    0    0  0.26212493154E+03  0.19070174271E+03  0.14038612929E+03  0.36486075814E+03  0.91315240399E+02 0.  0.
          4    1    3    3  502    0 -0.49693812446E+03  0.37222853768E+03  0.11037543623E+04  0.12664024937E+04  0.00000000000E+00 0. -1.
         -3    1    3    3    0  502 -0.35803616249E+03  0.35690347869E+03  0.91459654927E+03  0.10450152318E+04  0.00000000000E+00 0.  1.
         11    1    5    5    0    0  0.54040016539E+03 -0.80450853358E+03  0.20117831569E+03  0.98981767719E+03  0.00000000000E+00 0.  1.
        -11    1    5    5    0    0  0.52449190014E+02 -0.11532522551E+03  0.95210175107E+00  0.12669542876E+03  0.00000000000E+00 0. -1.
          2    1    6    6  503    0  0.65174548162E+02  0.42095310648E+02  0.78756823672E+02  0.11055484694E+03  0.00000000000E+00 0. -1.
         -2    1    6    6    0  503  0.19695038338E+03  0.14860643207E+03  0.61629305614E+02  0.25430591120E+03  0.00000000000E+00 0.  1.
<mgrwt>
<rscale>  0 0.29684294E+04</rscale>
<asrwt>0</asrwt>
<pdfrwt beam="1">  1        2 0.11014801E+00 0.29684294E+04</pdfrwt>
<pdfrwt beam="2">  1       -1 0.47335838E+00 0.29684294E+04</pdfrwt>
<totfact> 0.87081422E-02</totfact>
</mgrwt>
</event>
<event>
12    6  0.1403409E-007  0.1846346E+04  0.7818608E-02  0.8682034E-01
         -1   -1    0    0    0  501 -0.00000000000E+00  0.00000000000E+00  0.11412684179E+04  0.11412684179E+04  0.00000000000E+00 0.  1.
          2   -1    0    0  501    0  0.00000000000E+00 -0.00000000000E+00 -0.74675536722E+03  0.74675536722E+03  0.00000000000E+00 0. -1.
         24    2    1    2    0    0 -0.16515627426E+03 -0.66195456854E+03  0.31241955690E+03  0.75515151631E+03  0.84778460149E+02 0.  0.
        254    2    1    2    0    0  0.16515627426E+03  0.66195456854E+03  0.82093493736E+02  0.11328722688E+04  0.90066630330E+03 0.  0.
         23    2    4    4    0    0  0.26701474537E+03  0.72284545824E+03  0.33038258447E+03  0.84338998529E+03  0.91387003522E+02 0.  0.
         23    2    4    4    0    0 -0.10185847112E+03 -0.60890889701E+02 -0.24828909073E+03  0.28948228348E+03  0.89831349137E+02 0.  0.
          2    1    3    3  502    0 -0.87641497795E+02 -0.25747914221E+03  0.86448203076E+02  0.28539417062E+03  0.00000000000E+00 0. -1.
         -1    1    3    3    0  502 -0.77514776461E+02 -0.40447542633E+03  0.22597135382E+03  0.46975734568E+03  0.00000000000E+00 0.  1.
         11    1    5    5    0    0  0.24702528630E+03  0.62054028394E+03  0.31340508317E+03  0.73777671569E+03  0.00000000000E+00 0.  1.
        -11    1    5    5    0    0  0.19989459068E+02  0.10230517431E+03  0.16977501296E+02  0.10561326959E+03  0.00000000000E+00 0. -1.
          1    1    6    6  503    0 -0.74462005116E+02 -0.26205307369E+02 -0.69060766296E+02  0.10488421131E+03  0.00000000000E+00 0. -1.
         -1    1    6    6    0  503 -0.27396466000E+02 -0.34685582332E+02 -0.17922832443E+03  0.18459807217E+03  0.00000000000E+00 0.  1.
<mgrwt>
<rscale>  0 0.18463459E+04</rscale>
<asrwt>0</asrwt>
<pdfrwt beam="1">  1        2 0.11488544E+00 0.18463459E+04</pdfrwt>
<pdfrwt beam="2">  1       -1 0.17557976E+00 0.18463459E+04</pdfrwt>
<totfact> 0.90701889E+00</totfact>
</mgrwt>
</event>
<event>
12    6  0.1403409E-007  0.1661340E+04  0.7818608E-02  0.8783726E-01
         -1   -1    0    0    0  501 -0.00000000000E+00  0.00000000000E+00  0.14525217584E+04  0.14525217584E+04  0.00000000000E+00 0.  1.
          2   -1    0    0  501    0  0.00000000000E+00 -0.00000000000E+00 -0.47504489147E+03  0.47504489147E+03  0.00000000000E+00 0. -1.
         24    2    1    2    0    0 -0.24398240735E+03  0.16139239651E+03  0.93157100704E+03  0.98052096671E+03  0.89565083869E+02 0.  0.
        254    2    1    2    0    0  0.24398240735E+03 -0.16139239651E+03  0.45905859919E+02  0.94704568319E+03  0.89956281455E+03 0.  0.
         23    2    4    4    0    0 -0.24021136606E+03  0.62976898617E+02 -0.21977762952E+03  0.34399785386E+03  0.91458880794E+02 0.  0.
         23    2    4    4    0    0  0.48419377341E+03 -0.22436929513E+03  0.26568348944E+03  0.60304782933E+03  0.91070176775E+02 0.  0.
          4    1    3    3  502    0 -0.16141911509E+03  0.14247032153E+03  0.57387530574E+03  0.61293294068E+03  0.00000000000E+00 0. -1.
         -3    1    3    3    0  502 -0.82563292257E+02  0.18922074984E+02  0.35769570130E+03  0.36758802603E+03  0.00000000000E+00 0.  1.
         11    1    5    5    0    0 -0.23978396732E+03  0.65103358293E+02 -0.22694481858E+03  0.33650965651E+03  0.00000000000E+00 0. -1.
        -11    1    5    5    0    0 -0.42739874003E+00 -0.21264596762E+01  0.71671890606E+01  0.74881973444E+01  0.00000000000E+00 0.  1.
          3    1    6    6  503    0  0.30220629017E+03 -0.12368079526E+03  0.20820868950E+03  0.38726791672E+03  0.00000000000E+00 0. -1.
         -3    1    6    6    0  503  0.18198748323E+03 -0.10068849987E+03  0.57474799945E+02  0.21577991262E+03  0.00000000000E+00 0.  1.
<mgrwt>
<rscale>  0 0.16613405E+04</rscale>
<asrwt>0</asrwt>
<pdfrwt beam="1">  1        2 0.73083830E-01 0.16613405E+04</pdfrwt>
<pdfrwt beam="2">  1       -1 0.22346488E+00 0.16613405E+04</pdfrwt>
<totfact> 0.74380243E+00</totfact>
</mgrwt>
</event>
<event>
12    6  0.1403409E-007  0.1560657E+04  0.7818608E-02  0.8845089E-01
         -3   -1    0    0    0  501 -0.00000000000E+00  0.00000000000E+00  0.15742225522E+04  0.15742225522E+04  0.00000000000E+00 0.  1.
          4   -1    0    0  501    0  0.00000000000E+00 -0.00000000000E+00 -0.38680188795E+03  0.38680188795E+03  0.00000000000E+00 0. -1.
         24    2    1    2    0    0  0.47206542704E+02 -0.45070950740E+03  0.71012623220E+03  0.84615713708E+03  0.79593449705E+02 0.  0.
        254    2    1    2    0    0 -0.47206542704E+02  0.45070950740E+03  0.47729443205E+03  0.11148673031E+04  0.89986199546E+03 0.  0.
         23    2    4    4    0    0 -0.56890928077E+02  0.23193261079E+03  0.72646036853E+03  0.77070739730E+03  0.95999539437E+02 0.  0.
         23    2    4    4    0    0  0.96843853725E+01  0.21877689661E+03 -0.24916593648E+03  0.34415990578E+03  0.91680199797E+02 0.  0.
          4    1    3    3  502    0  0.61170072980E+02 -0.38360686966E+03  0.56492302724E+03  0.68559028216E+03  0.00000000000E+00 0. -1.
         -3    1    3    3    0  502 -0.13963530276E+02 -0.67102637738E+02  0.14520320496E+03  0.16056685493E+03  0.00000000000E+00 0.  1.
         11    1    5    5    0    0  0.17814611715E+02  0.57923505714E+02  0.10724097504E+03  0.12317921753E+03  0.00000000000E+00 0.  1.
        -11    1    5    5    0    0 -0.74705539791E+02  0.17400910508E+03  0.61921939349E+03  0.64752817977E+03  0.00000000000E+00 0. -1.
          4    1    6    6  503    0  0.18416001866E+02  0.19590470260E+03 -0.25176933545E+03  0.31953966874E+03  0.00000000000E+00 0. -1.
         -4    1    6    6    0  503 -0.87316164939E+01  0.22872194010E+02  0.26033989778E+01  0.24620237035E+02  0.00000000000E+00 0.  1.
<mgrwt>
<rscale>  0 0.15606566E+04</rscale>
<asrwt>0</asrwt>
<pdfrwt beam="1">  1        4 0.59507983E-01 0.15606566E+04</pdfrwt>
<pdfrwt beam="2">  1       -3 0.24218808E+00 0.15606566E+04</pdfrwt>
<totfact> 0.47815312E-01</totfact>
</mgrwt>
</event>
<event>
12    6  0.1403409E-007  0.2014881E+04  0.7818608E-02  0.8599695E-01
         -1   -1    0    0    0  501 -0.00000000000E+00  0.00000000000E+00  0.49180457505E+03  0.49180457505E+03  0.00000000000E+00 0.  1.
          2   -1    0    0  501    0  0.00000000000E+00 -0.00000000000E+00 -0.20636983927E+04  0.20636983927E+04  0.00000000000E+00 0. -1.
         24    2    1    2    0    0  0.24701254167E+03 -0.49301207650E+03 -0.13783584008E+04  0.14867783546E+04  0.81005502741E+02 0.  0.
        254    2    1    2    0    0 -0.24701254167E+03  0.49301207650E+03 -0.19353541684E+03  0.10687246131E+04  0.89478502321E+03 0.  0.
         23    2    4    4    0    0 -0.14925099522E+03  0.35014613664E+03 -0.54266900523E+03  0.66850848045E+03  0.86808770389E+02 0.  0.
         23    2    4    4    0    0 -0.97761546452E+02  0.14286593986E+03  0.34913358839E+03  0.40021613265E+03  0.91163005399E+02 0.  0.
          2    1    3    3  502    0  0.29516197941E+02 -0.87305372990E+02 -0.16435087752E+03  0.18842676305E+03  0.00000000000E+00 0. -1.
         -1    1    3    3    0  502  0.21749634373E+03 -0.40570670351E+03 -0.12140075233E+04  0.12983515916E+04  0.00000000000E+00 0.  1.
         11    1    5    5    0    0 -0.18565596477E+02  0.12317142601E+03 -0.13255020776E+03  0.18189403271E+03  0.00000000000E+00 0.  1.
        -11    1    5    5    0    0 -0.13068539874E+03  0.22697471062E+03 -0.41011879747E+03  0.48661444774E+03  0.00000000000E+00 0. -1.
          3    1    6    6  503    0 -0.90178530243E+02  0.15393382736E+03  0.34006958860E+03  0.38402488932E+03  0.00000000000E+00 0. -1.
         -3    1    6    6    0  503 -0.75830162086E+01 -0.11067887498E+02  0.90639997868E+01  0.16191243332E+02  0.00000000000E+00 0.  1.
<mgrwt>
<rscale>  0 0.20148810E+04</rscale>
<asrwt>0</asrwt>
<pdfrwt beam="1">  1        2 0.31749206E+00 0.20148810E+04</pdfrwt>
<pdfrwt beam="2">  1       -1 0.75662242E-01 0.20148810E+04</pdfrwt>
<totfact> 0.11416224E+01</totfact>
</mgrwt>
</event>
<event>
12    6  0.1403409E-007  0.3392120E+04  0.7818608E-02  0.8139843E-01
          2   -1    0    0  501    0  0.00000000000E+00  0.00000000000E+00  0.28821514547E+04  0.28821514547E+04  0.00000000000E+00 0. -1.
         -1   -1    0    0    0  501 -0.00000000000E+00 -0.00000000000E+00 -0.99808046017E+03  0.99808046017E+03  0.00000000000E+00 0.  1.
         24    2    1    2    0    0 -0.45851926227E+02  0.12922614627E+04  0.19068811949E+04  0.23053701358E+04  0.80582158815E+02 0.  0.
        254    2    1    2    0    0  0.45851926227E+02 -0.12922614627E+04 -0.22810200334E+02  0.15748617791E+04  0.89868082810E+03 0.  0.
         23    2    4    4    0    0 -0.32838257157E+03 -0.92735178207E+03  0.18448829134E+03  0.10051063201E+04  0.91576984646E+02 0.  0.
         23    2    4    4    0    0  0.37423449779E+03 -0.36490968068E+03 -0.20729849167E+03  0.56975545897E+03  0.91859044106E+02 0.  0.
          4    1    3    3  502    0 -0.38490523503E+02  0.54589967732E+03  0.74495853337E+03  0.92436529280E+03  0.00000000000E+00 0. -1.
         -3    1    3    3    0  502 -0.73614027234E+01  0.74636178543E+03  0.11619226615E+04  0.13810048430E+04  0.00000000000E+00 0.  1.
         11    1    5    5    0    0 -0.41801740326E+02 -0.16352289881E+03  0.63654722294E+02  0.18038582982E+03  0.00000000000E+00 0. -1.
        -11    1    5    5    0    0 -0.28658083124E+03 -0.76382888326E+03  0.12083356904E+03  0.82472049031E+03  0.00000000000E+00 0.  1.
          2    1    6    6  503    0  0.15522284882E+03 -0.15434316568E+03 -0.38694464257E+02  0.22229081662E+03  0.00000000000E+00 0. -1.
         -2    1    6    6    0  503  0.21901164897E+03 -0.21056651500E+03 -0.16860402741E+03  0.34746464235E+03  0.00000000000E+00 0.  1.
<mgrwt>
<rscale>  0 0.33921197E+04</rscale>
<asrwt>0</asrwt>
<pdfrwt beam="1">  1        2 0.44340791E+00 0.33921197E+04</pdfrwt>
<pdfrwt beam="2">  1       -1 0.15355084E+00 0.33921197E+04</pdfrwt>
<totfact> 0.63489353E-01</totfact>
</mgrwt>
</event>
<event>
12    6  0.1403409E-007  0.1731506E+04  0.7818608E-02  0.8743597E-01
          2   -1    0    0  501    0  0.00000000000E+00  0.00000000000E+00  0.89203477641E+03  0.89203477641E+03  0.00000000000E+00 0. -1.
         -1   -1    0    0    0  501 -0.00000000000E+00 -0.00000000000E+00 -0.84024514768E+03  0.84024514768E+03  0.00000000000E+00 0.  1.
         24    2    1    2    0    0  0.61891124428E+03  0.11002286208E+03  0.34218375675E+02  0.63472394899E+03  0.80916226505E+02 0.  0.
        254    2    1    2    0    0 -0.61891124428E+03 -0.11002286208E+03  0.17571253056E+02  0.10975559751E+04  0.89953555297E+03 0.  0.
         23    2    4    4    0    0  0.17620745139E+03 -0.13516160600E+03  0.15426175225E+03  0.28542200246E+03  0.91385478154E+02 0.  0.
         23    2    4    4    0    0 -0.79511869566E+03  0.25138743923E+02 -0.13669049920E+03  0.81213397264E+03  0.89619196075E+02 0.  0.
          4    1    3    3  502    0  0.59010244648E+01 -0.75187558712E+01 -0.59433002720E+00  0.95763775911E+01  0.00000000000E+00 0. -1.
         -3    1    3    3    0  502  0.61301021981E+03  0.11754161795E+03  0.34812705702E+02  0.62514757140E+03  0.00000000000E+00 0.  1.
         11    1    5    5    0    0  0.13815125061E+03 -0.11004116148E+03  0.16141009910E+03  0.23926563764E+03  0.00000000000E+00 0. -1.
        -11    1    5    5    0    0  0.38056200771E+02 -0.25120444518E+02 -0.71483468459E+01  0.46156364811E+02  0.00000000000E+00 0.  1.
          1    1    6    6  503    0 -0.36310686116E+03  0.44540045648E+02 -0.93142425991E+02  0.37749956266E+03  0.00000000000E+00 0. -1.
         -1    1    6    6    0  503 -0.43201183451E+03 -0.19401301725E+02 -0.43548073206E+02  0.43463440998E+03  0.00000000000E+00 0.  1.
<mgrwt>
<rscale>  0 0.17315056E+04</rscale>
<asrwt>0</asrwt>
<pdfrwt beam="1">  1        2 0.13723612E+00 0.17315056E+04</pdfrwt>
<pdfrwt beam="2">  1       -1 0.12926848E+00 0.17315056E+04</pdfrwt>
<totfact> 0.16547343E+01</totfact>
</mgrwt>
</event>
<event>
12    6  0.1403409E-007  0.3914929E+04  0.7818608E-02  0.8021931E-01
         -1   -1    0    0    0  501 -0.00000000000E+00  0.00000000000E+00  0.14719620278E+04  0.14719620278E+04  0.00000000000E+00 0.  1.
          2   -1    0    0  501    0  0.00000000000E+00 -0.00000000000E+00 -0.26031021512E+04  0.26031021512E+04  0.00000000000E+00 0. -1.
         24    2    1    2    0    0 -0.12007715480E+03  0.10410050132E+04 -0.21262054372E+04  0.23724624631E+04  0.98583045608E+02 0.  0.
        254    2    1    2    0    0  0.12007715480E+03 -0.10410050132E+04  0.99506531383E+03  0.17026017158E+04  0.90032642041E+03 0.  0.
         23    2    4    4    0    0 -0.14716123589E+03 -0.10821840040E+04  0.77308904372E+03  0.13410233551E+04  0.88872501781E+02 0.  0.
         23    2    4    4    0    0  0.26723839070E+03  0.41178990789E+02  0.22197627012E+03  0.36157836071E+03  0.91396825390E+02 0.  0.
          2    1    3    3  502    0 -0.10161526854E+03  0.56526836704E+03 -0.12368789969E+04  0.13637168483E+04  0.00000000000E+00 0. -1.
         -3    1    3    3    0  502 -0.18461886265E+02  0.47573664619E+03 -0.88932644036E+03  0.10087456148E+04  0.00000000000E+00 0.  1.
         11    1    5    5    0    0 -0.26972845185E+02 -0.50172188351E+03  0.33385086791E+03  0.60324852654E+03  0.00000000000E+00 0. -1.
        -11    1    5    5    0    0 -0.12018839071E+03 -0.58046212052E+03  0.43923817580E+03  0.73777482859E+03  0.00000000000E+00 0.  1.
          4    1    6    6  503    0  0.16276941614E+02  0.11199819605E-01  0.54970029524E+02  0.57329251693E+02  0.00000000000E+00 0. -1.
         -4    1    6    6    0  503  0.25096144908E+03  0.41167790969E+02  0.16700624059E+03  0.30424910901E+03  0.00000000000E+00 0.  1.
<mgrwt>
<rscale>  0 0.39149291E+04</rscale>
<asrwt>0</asrwt>
<pdfrwt beam="1">  1        2 0.40047725E+00 0.39149291E+04</pdfrwt>
<pdfrwt beam="2">  1       -1 0.22645570E+00 0.39149291E+04</pdfrwt>
<totfact> 0.27255666E-01</totfact>
</mgrwt>
</event>
<event>
12    6  0.1403409E-007  0.1425895E+04  0.7818608E-02  0.8935285E-01
         -1   -1    0    0    0  501 -0.00000000000E+00  0.00000000000E+00  0.33403311474E+03  0.33403311474E+03  0.00000000000E+00 0.  1.
          2   -1    0    0  501    0  0.00000000000E+00 -0.00000000000E+00 -0.15216883454E+04  0.15216883454E+04  0.00000000000E+00 0. -1.
         24    2    1    2    0    0 -0.30556268377E+03 -0.23812805608E+03 -0.13742958871E+03  0.41866812041E+03  0.79514642572E+02 0.  0.
        254    2    1    2    0    0  0.30556268377E+03  0.23812805608E+03 -0.10502256419E+04  0.14370533397E+04  0.90115197243E+03 0.  0.
         23    2    4    4    0    0  0.60464929931E+02  0.44841900701E+03 -0.16501307150E+03  0.49019106367E+03  0.91226923278E+02 0.  0.
         23    2    4    4    0    0  0.24509775384E+03 -0.21029095093E+03 -0.88521257040E+03  0.94686227602E+03  0.93014418148E+02 0.  0.
          4    1    3    3  502    0 -0.16814936089E+03 -0.12308387200E+03 -0.11512794071E+03  0.23807202660E+03  0.00000000000E+00 0. -1.
         -3    1    3    3    0  502 -0.13741332288E+03 -0.11504418408E+03 -0.22301648001E+02  0.18059609381E+03  0.00000000000E+00 0.  1.
         11    1    5    5    0    0  0.50297405341E+02  0.44770607286E+03 -0.16557014171E+03  0.47998336272E+03  0.00000000000E+00 0.  1.
        -11    1    5    5    0    0  0.10167524591E+02  0.71293415147E+00  0.55707021181E+00  0.10207700947E+02  0.00000000000E+00 0. -1.
          2    1    6    6  503    0  0.35128236216E+02 -0.13994174627E+02 -0.20425668822E+03  0.20772728416E+03  0.00000000000E+00 0. -1.
         -2    1    6    6    0  503  0.20996951763E+03 -0.19629677630E+03 -0.68095588218E+03  0.73913499186E+03  0.00000000000E+00 0.  1.
<mgrwt>
<rscale>  0 0.14258952E+04</rscale>
<asrwt>0</asrwt>
<pdfrwt beam="1">  1        2 0.23410590E+00 0.14258952E+04</pdfrwt>
<pdfrwt beam="2">  1       -1 0.51389710E-01 0.14258952E+04</pdfrwt>
<totfact> 0.52027957E+01</totfact>
</mgrwt>
</event>
<event>
12    6  0.1403409E-007  0.1481255E+04  0.7818608E-02  0.8897015E-01
         -3   -1    0    0    0  501 -0.00000000000E+00  0.00000000000E+00  0.48518711426E+03  0.48518711426E+03  0.00000000000E+00 0.  1.
          2   -1    0    0  501    0  0.00000000000E+00 -0.00000000000E+00 -0.11305511335E+04  0.11305511335E+04  0.00000000000E+00 0. -1.
         24    2    1    2    0    0  0.23871772748E+03  0.21528655999E+03 -0.56833845478E+03  0.65786136112E+03  0.80240357306E+02 0.  0.
        254    2    1    2    0    0 -0.23871772748E+03 -0.21528655999E+03 -0.77025564457E+02  0.95787688663E+03  0.89903322299E+03 0.  0.
         23    2    4    4    0    0 -0.56721788999E+02 -0.40551553673E+03 -0.36483743698E+03  0.55722447567E+03  0.98653682105E+02 0.  0.
         23    2    4    4    0    0 -0.18199593849E+03  0.19022897674E+03  0.28781187252E+03  0.40065241096E+03  0.91526472821E+02 0.  0.
          4    1    3    3  502    0  0.74189297290E+01  0.30721071450E+02 -0.90050790749E+02  0.95435683389E+02  0.00000000000E+00 0. -1.
         -3    1    3    3    0  502  0.23129879776E+03  0.18456548854E+03 -0.47828766403E+03  0.56242567773E+03  0.00000000000E+00 0.  1.
         11    1    5    5    0    0 -0.74534209070E+02 -0.36176765092E+03 -0.29402530200E+03  0.47210386547E+03  0.00000000000E+00 0. -1.
        -11    1    5    5    0    0  0.17812420070E+02 -0.43747885810E+02 -0.70812134980E+02  0.85120610207E+02  0.00000000000E+00 0.  1.
          3    1    6    6  503    0 -0.17913971000E+02  0.60731222262E+02  0.10671904267E+03  0.12408926538E+03  0.00000000000E+00 0. -1.
         -3    1    6    6    0  503 -0.16408196748E+03  0.12949775448E+03  0.18109282985E+03  0.27656314557E+03  0.00000000000E+00 0.  1.
<mgrwt>
<rscale>  0 0.14812547E+04</rscale>
<asrwt>0</asrwt>
<pdfrwt beam="1">  1        2 0.17393094E+00 0.14812547E+04</pdfrwt>
<pdfrwt beam="2">  1       -3 0.74644172E-01 0.14812547E+04</pdfrwt>
<totfact> 0.21776523E+01</totfact>
</mgrwt>
</event>
<event>
12    6  0.1403409E-007  0.2898369E+04  0.7818608E-02  0.8273363E-01
         -1   -1    0    0    0  501 -0.00000000000E+00  0.00000000000E+00  0.14873236372E+04  0.14873236372E+04  0.00000000000E+00 0.  1.
          2   -1    0    0  501    0  0.00000000000E+00 -0.00000000000E+00 -0.14120235023E+04  0.14120235023E+04  0.00000000000E+00 0. -1.
         24    2    1    2    0    0  0.94205567556E+03 -0.58811387780E+03  0.72545524694E+03  0.13288999962E+04  0.79643301311E+02 0.  0.
        254    2    1    2    0    0 -0.94205567556E+03  0.58811387780E+03 -0.65015511205E+03  0.15704471433E+04  0.90014206165E+03 0.  0.
         23    2    4    4    0    0 -0.14592391669E+03  0.48863679122E+03 -0.55187401150E+03  0.75690963828E+03  0.91036106873E+02 0.  0.
         23    2    4    4    0    0 -0.79613175887E+03  0.99477086580E+02 -0.98281100541E+02  0.81353750504E+03  0.91992549437E+02 0.  0.
          2    1    3    3  502    0  0.31666876742E+03 -0.18531424289E+03  0.19727891059E+03  0.41658065899E+03  0.00000000000E+00 0. -1.
         -1    1    3    3    0  502  0.62538690814E+03 -0.40279963491E+03  0.52817633635E+03  0.91231933720E+03  0.00000000000E+00 0.  1.
         11    1    5    5    0    0 -0.61978399204E+02  0.15260855684E+03 -0.23835706743E+03  0.28973226466E+03  0.00000000000E+00 0.  1.
        -11    1    5    5    0    0 -0.83945517483E+02  0.33602823438E+03 -0.31351694407E+03  0.46717737363E+03  0.00000000000E+00 0. -1.
          3    1    6    6  503    0 -0.26597054825E+02 -0.98940012698E+01 -0.14207818141E+02  0.31735731957E+02  0.00000000000E+00 0. -1.
         -3    1    6    6    0  503 -0.76953470404E+03  0.10937108785E+03 -0.84073282400E+02  0.78180177308E+03  0.00000000000E+00 0.  1.
<mgrwt>
<rscale>  0 0.28983691E+04</rscale>
<asrwt>0</asrwt>
<pdfrwt beam="1">  1        2 0.21723438E+00 0.28983691E+04</pdfrwt>
<pdfrwt beam="2">  1       -1 0.22881902E+00 0.28983691E+04</pdfrwt>
<totfact> 0.13457728E+00</totfact>
</mgrwt>
</event>
<event>
12    6  0.1403409E-007  0.2797610E+04  0.7818608E-02  0.8304011E-01
          2   -1    0    0  501    0  0.00000000000E+00  0.00000000000E+00  0.15904098767E+04  0.15904098767E+04  0.00000000000E+00 0. -1.
         -1   -1    0    0    0  501 -0.00000000000E+00 -0.00000000000E+00 -0.12302836290E+04  0.12302836290E+04  0.00000000000E+00 0.  1.
         24    2    1    2    0    0 -0.12089072685E+04 -0.32594407356E+03  0.20177780316E+03  0.12708002080E+04  0.80762391141E+02 0.  0.
        254    2    1    2    0    0  0.12089072685E+04  0.32594407356E+03  0.15834844453E+03  0.15498932977E+04  0.89966587211E+03 0.  0.
         23    2    4    4    0    0  0.32252560607E+03  0.18649677268E+03  0.45969110598E+03  0.59865804506E+03  0.90949047296E+02 0.  0.
         23    2    4    4    0    0  0.88638166245E+03  0.13944730088E+03 -0.30134266145E+03  0.95123525266E+03  0.94462188427E+02 0.  0.
          4    1    3    3  502    0 -0.24556151416E+03 -0.41815174184E+02  0.62492557225E+02  0.25681566490E+03  0.00000000000E+00 0. -1.
         -3    1    3    3    0  502 -0.96334575437E+03 -0.28412889938E+03  0.13928524594E+03  0.10139845431E+04  0.00000000000E+00 0.  1.
         11    1    5    5    0    0  0.11763325573E+03  0.38357787984E+02  0.20724317060E+03  0.24136825498E+03  0.00000000000E+00 0.  1.
        -11    1    5    5    0    0  0.20489235034E+03  0.14813898469E+03  0.25244793538E+03  0.35728979008E+03  0.00000000000E+00 0. -1.
          3    1    6    6  503    0  0.38967482750E+03  0.30265368563E+02 -0.16838667374E+03  0.42557788431E+03  0.00000000000E+00 0. -1.
         -3    1    6    6    0  503  0.49670683495E+03  0.10918193232E+03 -0.13295598770E+03  0.52565736834E+03  0.00000000000E+00 0.  1.
<mgrwt>
<rscale>  0 0.27976099E+04</rscale>
<asrwt>0</asrwt>
<pdfrwt beam="1">  1        2 0.24467844E+00 0.27976099E+04</pdfrwt>
<pdfrwt beam="2">  1       -1 0.18927441E+00 0.27976099E+04</pdfrwt>
<totfact> 0.20003988E+00</totfact>
</mgrwt>
</event>
<event>
12    6  0.1403409E-007  0.2863746E+04  0.7818608E-02  0.8283746E-01
         -1   -1    0    0    0  501 -0.00000000000E+00  0.00000000000E+00  0.71020592648E+03  0.71020592648E+03  0.00000000000E+00 0.  1.
          2   -1    0    0  501    0  0.00000000000E+00 -0.00000000000E+00 -0.28868541517E+04  0.28868541517E+04  0.00000000000E+00 0. -1.
         24    2    1    2    0    0 -0.10828225159E+04  0.65165992264E+03 -0.13038220477E+04  0.18175876861E+04  0.80670991386E+02 0.  0.
        254    2    1    2    0    0  0.10828225159E+04 -0.65165992264E+03 -0.87282617755E+03  0.17794723921E+04  0.89862739917E+03 0.  0.
         23    2    4    4    0    0  0.94498924076E+03 -0.43190996461E+03 -0.10276777570E+04  0.14641960946E+04  0.90541418902E+02 0.  0.
         23    2    4    4    0    0  0.13783327510E+03 -0.21974995803E+03  0.15485157947E+03  0.31527629752E+03  0.90178025817E+02 0.  0.
          4    1    3    3  502    0 -0.97013326473E+03  0.60501328637E+03 -0.11551573202E+04  0.16252962999E+04  0.00000000000E+00 0. -1.
         -3    1    3    3    0  502 -0.11268925113E+03  0.46646636271E+02 -0.14866472754E+03  0.19229138621E+03  0.00000000000E+00 0.  1.
         11    1    5    5    0    0  0.70283824601E+03 -0.34971519508E+03 -0.81497307859E+03  0.11315756433E+04  0.00000000000E+00 0. -1.
        -11    1    5    5    0    0  0.24215099475E+03 -0.82194769539E+02 -0.21270467843E+03  0.33262045130E+03  0.00000000000E+00 0.  1.
          4    1    6    6  503    0  0.13021301286E+03 -0.15784038168E+03  0.14798142353E+03  0.25252230895E+03  0.00000000000E+00 0. -1.
         -4    1    6    6    0  503  0.76202622450E+01 -0.61909576345E+02  0.68701559391E+01  0.62753988579E+02  0.00000000000E+00 0.  1.
<mgrwt>
<rscale>  0 0.28637464E+04</rscale>
<asrwt>0</asrwt>
<pdfrwt beam="1">  1        2 0.44413141E+00 0.28637464E+04</pdfrwt>
<pdfrwt beam="2">  1       -1 0.10926245E+00 0.28637464E+04</pdfrwt>
<totfact> 0.15606914E+00</totfact>
</mgrwt>
</event>
<event>
12    6  0.1403409E-007  0.1428697E+04  0.7818608E-02  0.8933304E-01
         -1   -1    0    0    0  501 -0.00000000000E+00  0.00000000000E+00  0.98777107263E+03  0.98777107263E+03  0.00000000000E+00 0.  1.
          2   -1    0    0  501    0  0.00000000000E+00 -0.00000000000E+00 -0.51661120566E+03  0.51661120566E+03  0.00000000000E+00 0. -1.
         24    2    1    2    0    0 -0.25936747197E+03 -0.21601091248E+03 -0.13157664488E+03  0.37080278853E+03  0.79057540335E+02 0.  0.
        254    2    1    2    0    0  0.25936747197E+03  0.21601091248E+03  0.60273651185E+03  0.11335794898E+04  0.89876524023E+03 0.  0.
         23    2    4    4    0    0  0.20622562519E+03  0.24622306885E+03 -0.15540033804E+03  0.36852501357E+03  0.92231298639E+02 0.  0.
         23    2    4    4    0    0  0.53141846779E+02 -0.30212156370E+02  0.75813684989E+03  0.76505447619E+03  0.82462343542E+02 0.  0.
          4    1    3    3  502    0 -0.16103920630E+03 -0.13303055803E+03 -0.12173305667E+03  0.24176371196E+03  0.00000000000E+00 0. -1.
         -3    1    3    3    0  502 -0.98328265662E+02 -0.82980354450E+02 -0.98435882026E+01  0.12903907657E+03  0.00000000000E+00 0.  1.
         11    1    5    5    0    0  0.16432322851E+02  0.58353071176E+02 -0.59035925404E+02  0.84618807828E+02  0.00000000000E+00 0.  1.
        -11    1    5    5    0    0  0.18979330234E+03  0.18786999767E+03 -0.96364412631E+02  0.28390620574E+03  0.00000000000E+00 0. -1.
          3    1    6    6  503    0  0.32533977883E+02  0.13803923924E+02  0.55734534765E+03  0.55846472098E+03  0.00000000000E+00 0. -1.
         -3    1    6    6    0  503  0.20607868896E+02 -0.44016080294E+02  0.20079150223E+03  0.20658975520E+03  0.00000000000E+00 0.  1.
<mgrwt>
<rscale>  0 0.14286968E+04</rscale>
<asrwt>0</asrwt>
<pdfrwt beam="1">  1        2 0.79478647E-01 0.14286968E+04</pdfrwt>
<pdfrwt beam="2">  1       -1 0.15196478E+00 0.14286968E+04</pdfrwt>
<totfact> 0.22170365E+01</totfact>
</mgrwt>
</event>
<event>
12    6  0.1403409E-007  0.2715109E+04  0.7818608E-02  0.8330119E-01
         -1   -1    0    0    0  501 -0.00000000000E+00  0.00000000000E+00  0.10542873017E+04  0.10542873017E+04  0.00000000000E+00 0.  1.
          2   -1    0    0  501    0  0.00000000000E+00 -0.00000000000E+00 -0.17480569703E+04  0.17480569703E+04  0.00000000000E+00 0. -1.
         24    2    1    2    0    0  0.18091320949E+03  0.62597714646E+03 -0.13549752575E+04  0.15055007922E+04  0.77444879872E+02 0.  0.
        254    2    1    2    0    0 -0.18091320949E+03 -0.62597714646E+03  0.66120558897E+03  0.12968434798E+04  0.90555684695E+03 0.  0.
         23    2    4    4    0    0  0.18195091146E+03 -0.55520701197E+03  0.69748903049E+03  0.91431635335E+03  0.90124835733E+02 0.  0.
         23    2    4    4    0    0 -0.36286412095E+03 -0.70770134487E+02 -0.36283441520E+02  0.38252712649E+03  0.91278322539E+02 0.  0.
          2    1    3    3  502    0  0.38508333201E+02  0.19760419627E+03 -0.49176148103E+03  0.53137525755E+03  0.00000000000E+00 0. -1.
         -1    1    3    3    0  502  0.14240487629E+03  0.42837295018E+03 -0.86321377652E+03  0.97412553463E+03  0.00000000000E+00 0.  1.
         11    1    5    5    0    0  0.15666650340E+03 -0.50555366287E+03  0.66464556541E+03  0.84963676177E+03  0.00000000000E+00 0.  1.
        -11    1    5    5    0    0  0.25284408063E+02 -0.49653349101E+02  0.32843465080E+02  0.64679591576E+02  0.00000000000E+00 0. -1.
          2    1    6    6  503    0 -0.20967215433E+03 -0.53009760736E+02  0.22606390583E+02  0.21744768550E+03  0.00000000000E+00 0. -1.
         -2    1    6    6    0  503 -0.15319196662E+03 -0.17760373751E+02 -0.58889832103E+02  0.16507944099E+03  0.00000000000E+00 0.  1.
<mgrwt>
<rscale>  0 0.27151090E+04</rscale>
<asrwt>0</asrwt>
<pdfrwt beam="1">  1        2 0.26893184E+00 0.27151090E+04</pdfrwt>
<pdfrwt beam="2">  1       -1 0.16219805E+00 0.27151090E+04</pdfrwt>
<totfact> 0.25869661E+00</totfact>
</mgrwt>
</event>
<event>
12    6  0.1403409E-007  0.3915288E+04  0.7818608E-02  0.8021857E-01
          2   -1    0    0  501    0  0.00000000000E+00  0.00000000000E+00  0.23598461745E+04  0.23598461745E+04  0.00000000000E+00 0. -1.
         -3   -1    0    0    0  501 -0.00000000000E+00 -0.00000000000E+00 -0.16239917917E+04  0.16239917917E+04  0.00000000000E+00 0.  1.
         24    2    1    2    0    0  0.16990515248E+04  0.13658919072E+03 -0.39105866752E+03  0.17507252826E+04  0.81727858083E+02 0.  0.
        254    2    1    2    0    0 -0.16990515248E+04 -0.13658919072E+03  0.11269130503E+04  0.22331126836E+04  0.90079217566E+03 0.  0.
         23    2    4    4    0    0 -0.82925976523E+03  0.77163048165E+02  0.64082510717E+02  0.84031695717E+03  0.91652201809E+02 0.  0.
         23    2    4    4    0    0 -0.86979175960E+03 -0.21375223888E+03  0.10628305396E+04  0.13927957264E+04  0.89685311224E+02 0.  0.
          4    1    3    3  502    0  0.11870058966E+04  0.11456441656E+03 -0.30647199785E+03  0.12312729550E+04  0.00000000000E+00 0. -1.
         -3    1    3    3    0  502  0.51204562821E+03  0.22024774157E+02 -0.84586669669E+02  0.51945232768E+03  0.00000000000E+00 0.  1.
         11    1    5    5    0    0 -0.32385978070E+03 -0.94159559479E+01  0.37574621907E+01  0.32401841970E+03  0.00000000000E+00 0. -1.
        -11    1    5    5    0    0 -0.50539998453E+03  0.86579004113E+02  0.60325048526E+02  0.51629853747E+03  0.00000000000E+00 0.  1.
          4    1    6    6  503    0 -0.59334235284E+03 -0.11381794001E+03  0.67022552071E+03  0.90233692142E+03  0.00000000000E+00 0. -1.
         -4    1    6    6    0  503 -0.27644940675E+03 -0.99934298875E+02  0.39260501885E+03  0.49045880501E+03  0.00000000000E+00 0.  1.
<mgrwt>
<rscale>  0 0.39152884E+04</rscale>
<asrwt>0</asrwt>
<pdfrwt beam="1">  1        2 0.36305326E+00 0.39152884E+04</pdfrwt>
<pdfrwt beam="2">  1       -3 0.24984489E+00 0.39152884E+04</pdfrwt>
<totfact> 0.15395444E-01</totfact>
</mgrwt>
</event>
<event>
12    6  0.1403409E-007  0.2072314E+04  0.7818608E-02  0.8573538E-01
         -1   -1    0    0    0  501 -0.00000000000E+00  0.00000000000E+00  0.62209640316E+03  0.62209640316E+03  0.00000000000E+00 0.  1.
          2   -1    0    0  501    0  0.00000000000E+00 -0.00000000000E+00 -0.17258116131E+04  0.17258116131E+04  0.00000000000E+00 0. -1.
         24    2    1    2    0    0  0.79833593605E+03  0.23270740172E+03 -0.58830746444E+03  0.10216044688E+04  0.77955219670E+02 0.  0.
        254    2    1    2    0    0 -0.79833593605E+03 -0.23270740172E+03 -0.51540774548E+03  0.13263035475E+04  0.89551267682E+03 0.  0.
         23    2    4    4    0    0 -0.94411029738E+03 -0.70466665771E+02 -0.52846508431E+03  0.10874105814E+04  0.82925403839E+02 0.  0.
         23    2    4    4    0    0  0.14577436133E+03 -0.16224073595E+03  0.13057338828E+02  0.23889296608E+03  0.96577090051E+02 0.  0.
          2    1    3    3  502    0  0.14730378170E+03  0.66114111344E+02 -0.14077483523E+03  0.21421259079E+03  0.00000000000E+00 0. -1.
         -1    1    3    3    0  502  0.65103215436E+03  0.16659329038E+03 -0.44753262922E+03  0.80739187798E+03  0.00000000000E+00 0.  1.
         11    1    5    5    0    0 -0.19645366994E+03  0.12827630773E+02 -0.13223523516E+03  0.23715975620E+03  0.00000000000E+00 0. -1.
        -11    1    5    5    0    0 -0.74765662744E+03 -0.83294296544E+02 -0.39622984915E+03  0.85025082520E+03  0.00000000000E+00 0.  1.
          4    1    6    6  503    0 -0.39071800944E+01  0.13235356353E+01 -0.14864254848E+02  0.15426077760E+02  0.00000000000E+00 0. -1.
         -4    1    6    6    0  503  0.14968154142E+03 -0.16356427159E+03  0.27921593676E+02  0.22346688832E+03  0.00000000000E+00 0.  1.
<mgrwt>
<rscale>  0 0.20723139E+04</rscale>
<asrwt>0</asrwt>
<pdfrwt beam="1">  1        2 0.26550947E+00 0.20723139E+04</pdfrwt>
<pdfrwt beam="2">  1       -1 0.95707141E-01 0.20723139E+04</pdfrwt>
<totfact> 0.10508798E+01</totfact>
</mgrwt>
</event>
<event>
12    6  0.1403409E-007  0.5780758E+04  0.7818608E-02  0.7718196E-01
          2   -1    0    0  501    0  0.00000000000E+00  0.00000000000E+00  0.28187716591E+04  0.28187716591E+04  0.00000000000E+00 0. -1.
         -1   -1    0    0    0  501 -0.00000000000E+00 -0.00000000000E+00 -0.29638054068E+04  0.29638054068E+04  0.00000000000E+00 0.  1.
         24    2    1    2    0    0 -0.13696234586E+04 -0.22161545020E+04  0.10086967554E+04  0.27948187708E+04  0.79584057166E+02 0.  0.
        254    2    1    2    0    0  0.13696234586E+04  0.22161545020E+04 -0.11537305032E+04  0.29877582951E+04  0.89910864784E+03 0.  0.
         23    2    4    4    0    0  0.23963680916E+03  0.12060364956E+04 -0.60358672154E+03  0.13728430970E+04  0.91822706672E+02 0.  0.
         23    2    4    4    0    0  0.11299866495E+04  0.10101180064E+04 -0.55014378163E+03  0.16149151981E+04  0.89914969281E+02 0.  0.
          2    1    3    3  502    0 -0.78932547067E+03 -0.13077068274E+04  0.62963698034E+03  0.16521424189E+04  0.00000000000E+00 0. -1.
         -1    1    3    3    0  502 -0.58029798795E+03 -0.90844767457E+03  0.37905977510E+03  0.11426763520E+04  0.00000000000E+00 0.  1.
         11    1    5    5    0    0  0.41183677748E+02  0.15245828842E+03 -0.46428004482E+02  0.16460615001E+03  0.00000000000E+00 0.  1.
        -11    1    5    5    0    0  0.19845313141E+03  0.10535782072E+04 -0.55715871706E+03  0.12082369470E+04  0.00000000000E+00 0. -1.
          4    1    6    6  503    0  0.42640565259E+02  0.64425368738E+02 -0.28090801011E+02  0.82206684911E+02  0.00000000000E+00 0.  1.
         -4    1    6    6    0  503  0.10873460842E+04  0.94569263762E+03 -0.52205298062E+03  0.15327085131E+04  0.00000000000E+00 0. -1.
<mgrwt>
<rscale>  0 0.57807580E+04</rscale>
<asrwt>0</asrwt>
<pdfrwt beam="1">  1        2 0.43365718E+00 0.57807580E+04</pdfrwt>
<pdfrwt beam="2">  1       -1 0.45597006E+00 0.57807580E+04</pdfrwt>
<totfact> 0.51889908E-03</totfact>
</mgrwt>
</event>
<event>
12    6  0.1403409E-007  0.1498589E+04  0.7818608E-02  0.8885392E-01
          2   -1    0    0  501    0  0.00000000000E+00  0.00000000000E+00  0.92880073696E+03  0.92880073696E+03  0.00000000000E+00 0. -1.
         -1   -1    0    0    0  501 -0.00000000000E+00 -0.00000000000E+00 -0.60448056022E+03  0.60448056022E+03  0.00000000000E+00 0.  1.
         24    2    1    2    0    0 -0.42500116467E+03  0.45193465093E+02  0.31467844227E+03  0.53681755074E+03  0.80511623366E+02 0.  0.
        254    2    1    2    0    0  0.42500116467E+03 -0.45193465093E+02  0.96417344713E+01  0.99646374644E+03  0.90009921435E+03 0.  0.
         23    2    4    4    0    0  0.42555192194E+03 -0.18783622118E+03 -0.35651407723E+03  0.59291263254E+03  0.89812127869E+02 0.  0.
         23    2    4    4    0    0 -0.55075726622E+00  0.14264275609E+03  0.36615581170E+03  0.40355111391E+03  0.91848592240E+02 0.  0.
          4    1    3    3  502    0 -0.71919205530E+02 -0.10817562173E+02  0.85139515618E+02  0.11197378664E+03  0.00000000000E+00 0. -1.
         -3    1    3    3    0  502 -0.35308195914E+03  0.56011027266E+02  0.22953892665E+03  0.42484376410E+03  0.00000000000E+00 0.  1.
         11    1    5    5    0    0  0.26010651018E+03 -0.66715592981E+02 -0.21035627045E+03  0.34111013984E+03  0.00000000000E+00 0. -1.
        -11    1    5    5    0    0  0.16544541175E+03 -0.12112062820E+03 -0.14615780677E+03  0.25180249269E+03  0.00000000000E+00 0.  1.
          2    1    6    6  503    0 -0.36503403385E+02  0.11467667921E+03  0.22407719638E+03  0.25434981650E+03  0.00000000000E+00 0.  1.
         -2    1    6    6    0  503  0.35952646118E+02  0.27966076882E+02  0.14207861531E+03  0.14920129741E+03  0.00000000000E+00 0. -1.
<mgrwt>
<rscale>  0 0.14985887E+04</rscale>
<asrwt>0</asrwt>
<pdfrwt beam="1">  1        2 0.14289242E+00 0.14985887E+04</pdfrwt>
<pdfrwt beam="2">  1       -1 0.92997009E-01 0.14985887E+04</pdfrwt>
<totfact> 0.34742168E+01</totfact>
</mgrwt>
</event>
<event>
12    6  0.1403409E-007  0.1158479E+04  0.7818608E-02  0.9149997E-01
          2   -1    0    0  501    0  0.00000000000E+00  0.00000000000E+00  0.25516539032E+04  0.25516539032E+04  0.00000000000E+00 0. -1.
         -1   -1    0    0    0  501 -0.00000000000E+00 -0.00000000000E+00 -0.13149058608E+03  0.13149058608E+03  0.00000000000E+00 0.  1.
         24    2    1    2    0    0  0.77397927192E+02  0.52934201810E+02  0.94525545210E+03  0.95278823931E+03  0.74196296256E+02 0.  0.
        254    2    1    2    0    0 -0.77397927192E+02 -0.52934201810E+02  0.14749078650E+04  0.17303562499E+04  0.89999281813E+03 0.  0.
         23    2    4    4    0    0 -0.98237872623E+01  0.12822118061E+03 -0.68895157599E+02  0.17174871579E+03  0.90630572547E+02 0.  0.
         23    2    4    4    0    0 -0.67574139929E+02 -0.18115538242E+03  0.15438030226E+04  0.15586075341E+04  0.92445313780E+02 0.  0.
          2    1    3    3  502    0  0.78064268942E+02  0.13842468010E+02  0.69310028425E+03  0.69761998827E+03  0.00000000000E+00 0. -1.
         -1    1    3    3    0  502 -0.66634175039E+00  0.39091733801E+02  0.25215516785E+03  0.25516825104E+03  0.00000000000E+00 0.  1.
         11    1    5    5    0    0 -0.11194528999E+02  0.24197440986E+01 -0.41420464437E+02  0.42974731124E+02  0.00000000000E+00 0. -1.
        -11    1    5    5    0    0  0.13707417362E+01  0.12580143651E+03 -0.27474693162E+02  0.12877398466E+03  0.00000000000E+00 0.  1.
          1    1    6    6  503    0  0.17393527638E+02 -0.24207402508E+02  0.38376009419E+03  0.38491602075E+03  0.00000000000E+00 0. -1.
         -1    1    6    6    0  503 -0.84967667568E+02 -0.15694797991E+03  0.11600429284E+04  0.11736915134E+04  0.00000000000E+00 0.  1.
<mgrwt>
<rscale>  0 0.11584791E+04</rscale>
<asrwt>0</asrwt>
<pdfrwt beam="1">  1        2 0.39256210E+00 0.11584791E+04</pdfrwt>
<pdfrwt beam="2">  1       -1 0.20229323E-01 0.11584791E+04</pdfrwt>
<totfact> 0.74051291E+01</totfact>
</mgrwt>
</event>
<event>
12    6  0.1403409E-007  0.1243999E+04  0.7818608E-02  0.9075193E-01
          2   -1    0    0  501    0  0.00000000000E+00  0.00000000000E+00  0.65975109436E+03  0.65975109436E+03  0.00000000000E+00 0. -1.
         -3   -1    0    0    0  501 -0.00000000000E+00 -0.00000000000E+00 -0.58640764250E+03  0.58640764250E+03  0.00000000000E+00 0.  1.
         24    2    1    2    0    0 -0.11249600023E+03 -0.22404668363E+03  0.16001734516E+03  0.30767760633E+03  0.78788908929E+02 0.  0.
        254    2    1    2    0    0  0.11249600023E+03  0.22404668363E+03 -0.86673893303E+02  0.93848113053E+03  0.90021230944E+03 0.  0.
         23    2    4    4    0    0 -0.29357005616E+03  0.61406695683E+02  0.23148562484E+03  0.38967269465E+03  0.91132070617E+02 0.  0.
         23    2    4    4    0    0  0.40606605640E+03  0.16263998795E+03 -0.31815951814E+03  0.54880843588E+03  0.92864484466E+02 0.  0.
          4    1    3    3  502    0 -0.11232340090E+03 -0.16520104910E+03  0.14529107433E+03  0.24701706276E+03  0.00000000000E+00 0. -1.
         -3    1    3    3    0  502 -0.17259932868E+00 -0.58845634532E+02  0.14726270837E+02  0.60660543574E+02  0.00000000000E+00 0.  1.
         11    1    5    5    0    0 -0.75959122657E+02  0.52783768400E+02  0.95341493623E+02  0.13283792729E+03  0.00000000000E+00 0. -1.
        -11    1    5    5    0    0 -0.21761093351E+03  0.86229272827E+01  0.13614413122E+03  0.25683476735E+03  0.00000000000E+00 0.  1.
          3    1    6    6  503    0  0.33612288083E+03  0.96155764437E+02 -0.23327502606E+03  0.42028771079E+03  0.00000000000E+00 0. -1.
         -3    1    6    6    0  503  0.69943175564E+02  0.66484223510E+02 -0.84884492081E+02  0.12852072510E+03  0.00000000000E+00 0.  1.
<mgrwt>
<rscale>  0 0.12439985E+04</rscale>
<asrwt>0</asrwt>
<pdfrwt beam="1">  1        2 0.10150017E+00 0.12439985E+04</pdfrwt>
<pdfrwt beam="2">  1       -3 0.90216560E-01 0.12439985E+04</pdfrwt>
<totfact> 0.30423716E+01</totfact>
</mgrwt>
</event>
<event>
12    6  0.1403409E-007  0.2731989E+04  0.7818608E-02  0.8324700E-01
         -1   -1    0    0    0  501 -0.00000000000E+00  0.00000000000E+00  0.84215744045E+03  0.84215744045E+03  0.00000000000E+00 0.  1.
          2   -1    0    0  501    0  0.00000000000E+00 -0.00000000000E+00 -0.22156673804E+04  0.22156673804E+04  0.00000000000E+00 0. -1.
         24    2    1    2    0    0 -0.51148469630E+03 -0.10928502896E+04 -0.78298389019E+03  0.14406837847E+04  0.81041008744E+02 0.  0.
        254    2    1    2    0    0  0.51148469630E+03  0.10928502896E+04 -0.59052604975E+03  0.16171410362E+04  0.90026982925E+03 0.  0.
         23    2    4    4    0    0  0.12263080814E+03  0.26404634758E+03  0.23185167215E+03  0.38338747625E+03  0.92043306592E+02 0.  0.
         23    2    4    4    0    0  0.38885388816E+03  0.82880394200E+03 -0.82237772190E+03  0.12337535599E+04  0.87860164681E+02 0.  0.
          4    1    3    3  502    0 -0.20253771928E+03 -0.34574660876E+03 -0.27108302781E+03  0.48378533790E+03  0.00000000000E+00 0. -1.
         -3    1    3    3    0  502 -0.30894697702E+03 -0.74710368083E+03 -0.51190086237E+03  0.95689844676E+03  0.00000000000E+00 0.  1.
         11    1    5    5    0    0  0.11940260425E+03  0.19784561673E+03  0.14022462572E+03  0.27030134225E+03  0.00000000000E+00 0.  1.
        -11    1    5    5    0    0  0.32282038846E+01  0.66200730849E+02  0.91627046430E+02  0.11308613400E+03  0.00000000000E+00 0. -1.
          2    1    6    6  503    0  0.10575786787E+03  0.14990182209E+03 -0.14554199523E+03  0.23417462556E+03  0.00000000000E+00 0. -1.
         -2    1    6    6    0  503  0.28309602029E+03  0.67890211991E+03 -0.67683572667E+03  0.99957893436E+03  0.00000000000E+00 0.  1.
<mgrwt>
<rscale>  0 0.27319889E+04</rscale>
<asrwt>0</asrwt>
<pdfrwt beam="1">  1        2 0.34087190E+00 0.27319889E+04</pdfrwt>
<pdfrwt beam="2">  1       -1 0.12956269E+00 0.27319889E+04</pdfrwt>
<totfact> 0.25751781E+00</totfact>
</mgrwt>
</event>
<event>
12    6  0.1403409E-007  0.3235514E+04  0.7818608E-02  0.8179500E-01
          2   -1    0    0  501    0  0.00000000000E+00  0.00000000000E+00  0.30497917000E+04  0.30497917000E+04  0.00000000000E+00 0. -1.
         -1   -1    0    0    0  501 -0.00000000000E+00 -0.00000000000E+00 -0.85813654828E+03  0.85813654828E+03  0.00000000000E+00 0.  1.
         24    2    1    2    0    0 -0.91986812453E+03 -0.93259333128E+03  0.15112462024E+03  0.13214268419E+04  0.86270270935E+02 0.  0.
        254    2    1    2    0    0  0.91986812453E+03  0.93259333128E+03  0.20405305315E+04  0.25865014064E+04  0.90018719558E+03 0.  0.
         23    2    4    4    0    0  0.53822763812E+03  0.10397451084E+04  0.16342672120E+04  0.20124368900E+04  0.91181331813E+02 0.  0.
         23    2    4    4    0    0  0.38164048641E+03 -0.10715177707E+03  0.40626331948E+03  0.57406451634E+03  0.85844160967E+02 0.  0.
          4    1    3    3  502    0 -0.11497415858E+03 -0.15519975657E+03  0.82062942254E+01  0.19332192024E+03  0.00000000000E+00 0. -1.
         -3    1    3    3    0  502 -0.80489396595E+03 -0.77739357472E+03  0.14291832602E+03  0.11281049217E+04  0.00000000000E+00 0.  1.
         11    1    5    5    0    0  0.51298478505E+03  0.10213300853E+04  0.15849958313E+04  0.19540932215E+04  0.00000000000E+00 0.  1.
        -11    1    5    5    0    0  0.25242853072E+02  0.18415023012E+02  0.49271380715E+02  0.58343668563E+02  0.00000000000E+00 0. -1.
          3    1    6    6  503    0  0.50832633242E+02  0.39715338887E+01  0.88278940693E+02  0.10194557888E+03  0.00000000000E+00 0. -1.
         -3    1    6    6    0  503  0.33080785317E+03 -0.11112331096E+03  0.31798437879E+03  0.47211893746E+03  0.00000000000E+00 0.  1.
<mgrwt>
<rscale>  0 0.32355140E+04</rscale>
<asrwt>0</asrwt>
<pdfrwt beam="1">  1        2 0.46919872E+00 0.32355140E+04</pdfrwt>
<pdfrwt beam="2">  1       -1 0.13202101E+00 0.32355140E+04</pdfrwt>
<totfact> 0.75268342E-01</totfact>
</mgrwt>
</event>
<event>
12    6  0.1403409E-007  0.2156601E+04  0.7818608E-02  0.8536712E-01
          2   -1    0    0  501    0  0.00000000000E+00  0.00000000000E+00  0.65001453980E+03  0.65001453980E+03  0.00000000000E+00 0. -1.
         -1   -1    0    0    0  501 -0.00000000000E+00 -0.00000000000E+00 -0.17887782196E+04  0.17887782196E+04  0.00000000000E+00 0.  1.
         24    2    1    2    0    0 -0.84905521149E+03  0.11872278866E+03 -0.22612347054E+03  0.89037076176E+03  0.81476479832E+02 0.  0.
        254    2    1    2    0    0  0.84905521149E+03 -0.11872278866E+03 -0.91264020930E+03  0.15484219977E+04  0.91088346049E+03 0.  0.
         23    2    4    4    0    0  0.37334983932E+03  0.33691911542E+03 -0.14172203743E+03  0.53032115459E+03  0.90833904763E+02 0.  0.
         23    2    4    4    0    0  0.47570537217E+03 -0.45564190408E+03 -0.77091817187E+03  0.10181008431E+04  0.91155653419E+02 0.  0.
          4    1    3    3  502    0 -0.61570918351E+03  0.10256115005E+03 -0.13058180035E+03  0.63770541376E+03  0.00000000000E+00 0. -1.
         -3    1    3    3    0  502 -0.23334602798E+03  0.16161638603E+02 -0.95541670196E+02  0.25266534800E+03  0.00000000000E+00 0.  1.
         11    1    5    5    0    0  0.24696502369E+03  0.16905635804E+03 -0.62369167862E+02  0.30571504415E+03  0.00000000000E+00 0. -1.
        -11    1    5    5    0    0  0.12638481563E+03  0.16786275738E+03 -0.79352869568E+02  0.22460611044E+03  0.00000000000E+00 0.  1.
          2    1    6    6  503    0  0.79505441007E+02 -0.52095414404E+02 -0.15591745511E+03  0.18260695540E+03  0.00000000000E+00 0. -1.
         -2    1    6    6    0  503  0.39619993116E+03 -0.40354648967E+03 -0.61500071676E+03  0.83549388770E+03  0.00000000000E+00 0.  1.
<mgrwt>
<rscale>  0 0.21566009E+04</rscale>
<asrwt>0</asrwt>
<pdfrwt beam="1">  1        2 0.10000224E+00 0.21566009E+04</pdfrwt>
<pdfrwt beam="2">  1       -1 0.27519664E+00 0.21566009E+04</pdfrwt>
<totfact> 0.22512384E+00</totfact>
</mgrwt>
</event>
<event>
12    6  0.1403409E-007  0.2508856E+04  0.7818608E-02  0.8399837E-01
         -1   -1    0    0    0  501 -0.00000000000E+00  0.00000000000E+00  0.71702702601E+03  0.71702702601E+03  0.00000000000E+00 0.  1.
          2   -1    0    0  501    0  0.00000000000E+00 -0.00000000000E+00 -0.21946026090E+04  0.21946026090E+04  0.00000000000E+00 0. -1.
         24    2    1    2    0    0 -0.65342104625E+03 -0.86334717567E+03 -0.47916676709E+03  0.11867095164E+04  0.79694894957E+02 0.  0.
        254    2    1    2    0    0  0.65342104625E+03  0.86334717567E+03 -0.99840881589E+03  0.17249201186E+04  0.89788743306E+03 0.  0.
         23    2    4    4    0    0  0.74141853030E+03  0.98095084333E+03 -0.84745342266E+03  0.14960465113E+04  0.89509029812E+02 0.  0.
         23    2    4    4    0    0 -0.87997484059E+02 -0.11760366766E+03 -0.15095539323E+03  0.22887360724E+03  0.89562366532E+02 0.  0.
          2    1    3    3  502    0 -0.32490817565E+03 -0.38964813417E+03 -0.18963410549E+03  0.54161987134E+03  0.00000000000E+00 0. -1.
         -1    1    3    3    0  502 -0.32851287060E+03 -0.47369904150E+03 -0.28953266160E+03  0.64508964509E+03  0.00000000000E+00 0.  1.
         11    1    5    5    0    0  0.13795987793E+03  0.20724550367E+03 -0.13284790448E+03  0.28219176536E+03  0.00000000000E+00 0. -1.
        -11    1    5    5    0    0  0.60345865237E+03  0.77370533966E+03 -0.71460551818E+03  0.12138547460E+04  0.00000000000E+00 0.  1.
          3    1    6    6  503    0 -0.40833975544E+02 -0.79482007314E+02 -0.14170789516E+03  0.16752889481E+03  0.00000000000E+00 0. -1.
         -3    1    6    6    0  503 -0.47163508515E+02 -0.38121660347E+02 -0.92474980718E+01  0.61344712434E+02  0.00000000000E+00 0.  1.
<mgrwt>
<rscale>  0 0.25088558E+04</rscale>
<asrwt>0</asrwt>
<pdfrwt beam="1">  1        2 0.33763117E+00 0.25088558E+04</pdfrwt>
<pdfrwt beam="2">  1       -1 0.11031185E+00 0.25088558E+04</pdfrwt>
<totfact> 0.39961488E+00</totfact>
</mgrwt>
</event>
<event>
12    6  0.1403409E-007  0.2234426E+04  0.7818608E-02  0.8504234E-01
         -1   -1    0    0    0  501 -0.00000000000E+00  0.00000000000E+00  0.12590752519E+04  0.12590752519E+04  0.00000000000E+00 0.  1.
          2   -1    0    0  501    0  0.00000000000E+00 -0.00000000000E+00 -0.99133458780E+03  0.99133458780E+03  0.00000000000E+00 0. -1.
         24    2    1    2    0    0  0.71334795794E+03 -0.56250061198E+03  0.33084480712E+03  0.97000553062E+03  0.78614219179E+02 0.  0.
        254    2    1    2    0    0 -0.71334795794E+03  0.56250061198E+03 -0.63104143062E+02  0.12804043090E+04  0.90010044671E+03 0.  0.
         23    2    4    4    0    0 -0.17013369843E+03 -0.17834857751E+03  0.18860605676E+03  0.32340129308E+03  0.90898081820E+02 0.  0.
         23    2    4    4    0    0 -0.54321425951E+03  0.74084918949E+03 -0.25171019982E+03  0.95700301596E+03  0.92506727150E+02 0.  0.
          4    1    3    3  502    0  0.17354102137E+03 -0.17004977967E+03  0.64083593506E+02  0.25127697989E+03  0.00000000000E+00 0. -1.
         -1    1    3    3    0  502  0.53980693657E+03 -0.39245083232E+03  0.26676121362E+03  0.71872855074E+03  0.00000000000E+00 0.  1.
         11    1    5    5    0    0 -0.27289795963E+02 -0.91279492134E+02  0.63225124670E+02  0.11434200907E+03  0.00000000000E+00 0.  1.
        -11    1    5    5    0    0 -0.14284390247E+03 -0.87069085372E+02  0.12538093209E+03  0.20905928401E+03  0.00000000000E+00 0. -1.
          1    1    6    6  503    0 -0.18368823737E+03  0.32033466465E+03 -0.81421836935E+02  0.37813381422E+03  0.00000000000E+00 0. -1.
         -1    1    6    6    0  503 -0.35952602214E+03  0.42051452484E+03 -0.17028836289E+03  0.57886920175E+03  0.00000000000E+00 0.  1.
<mgrwt>
<rscale>  0 0.22344260E+04</rscale>
<asrwt>0</asrwt>
<pdfrwt beam="1">  1        2 0.15251301E+00 0.22344260E+04</pdfrwt>
<pdfrwt beam="2">  1       -1 0.19370388E+00 0.22344260E+04</pdfrwt>
<totfact> 0.44144101E+00</totfact>
</mgrwt>
</event>
<event>
12    6  0.1403409E-007  0.1998464E+04  0.7818608E-02  0.8607339E-01
          2   -1    0    0  501    0  0.00000000000E+00  0.00000000000E+00  0.25206819377E+04  0.25206819377E+04  0.00000000000E+00 0. -1.
         -1   -1    0    0    0  501 -0.00000000000E+00 -0.00000000000E+00 -0.39610885329E+03  0.39610885329E+03  0.00000000000E+00 0.  1.
         24    2    1    2    0    0  0.94726788870E+02  0.52952405216E+03  0.17003476886E+04  0.17852174155E+04  0.80312340869E+02 0.  0.
        254    2    1    2    0    0 -0.94726788870E+02 -0.52952405216E+03  0.42422539578E+03  0.11315733755E+04  0.90062324603E+03 0.  0.
         23    2    4    4    0    0  0.26602158548E+03 -0.40885066794E+03 -0.71929072063E+02  0.49970204171E+03  0.81252608938E+02 0.  0.
         23    2    4    4    0    0 -0.36074837435E+03 -0.12067338422E+03  0.49615446784E+03  0.63187133376E+03  0.91600607059E+02 0.  0.
          2    1    3    3  502    0  0.61928950431E+02  0.28646762961E+03  0.10508442992E+04  0.10909503375E+04  0.00000000000E+00 0. -1.
         -1    1    3    3    0  502  0.32797838439E+02  0.24305642255E+03  0.64950338946E+03  0.69426707806E+03  0.00000000000E+00 0.  1.
         11    1    5    5    0    0  0.20617927744E+03 -0.25538798166E+03 -0.29142975409E+02  0.32951817649E+03  0.00000000000E+00 0.  1.
        -11    1    5    5    0    0  0.59842308037E+02 -0.15346268628E+03 -0.42786096654E+02  0.17018386521E+03  0.00000000000E+00 0. -1.
          3    1    6    6  503    0 -0.44399967112E+02 -0.44602800421E+01  0.11353493497E+03  0.12198947756E+03  0.00000000000E+00 0. -1.
         -3    1    6    6    0  503 -0.31634840724E+03 -0.11621310417E+03  0.38261953288E+03  0.50988185620E+03  0.00000000000E+00 0.  1.
<mgrwt>
<rscale>  0 0.19984638E+04</rscale>
<asrwt>0</asrwt>
<pdfrwt beam="1">  1        2 0.38779721E+00 0.19984638E+04</pdfrwt>
<pdfrwt beam="2">  1       -1 0.60939825E-01 0.19984638E+04</pdfrwt>
<totfact> 0.97867876E+00</totfact>
</mgrwt>
</event>
<event>
12    6  0.1403409E-007  0.2453005E+04  0.7818608E-02  0.8419922E-01
          2   -1    0    0  501    0  0.00000000000E+00  0.00000000000E+00  0.10566028765E+04  0.10566028765E+04  0.00000000000E+00 0. -1.
         -1   -1    0    0    0  501 -0.00000000000E+00 -0.00000000000E+00 -0.14237218898E+04  0.14237218898E+04  0.00000000000E+00 0.  1.
         24    2    1    2    0    0  0.65852154360E+02  0.91501536220E+03 -0.69609825751E+03  0.11546382813E+04  0.83947347866E+02 0.  0.
        254    2    1    2    0    0 -0.65852154360E+02 -0.91501536220E+03  0.32897924423E+03  0.13256864850E+04  0.89868108589E+03 0.  0.
         23    2    4    4    0    0 -0.58232126468E+02 -0.82529845312E+02 -0.26591674501E+03  0.29835306970E+03  0.90003794368E+02 0.  0.
         23    2    4    4    0    0 -0.76200278922E+01 -0.83248551688E+03  0.59489598924E+03  0.10273334153E+04  0.91774220595E+02 0.  0.
          2    1    3    3  502    0  0.74010766073E+02  0.80166239423E+03 -0.58050187385E+03  0.99253343186E+03  0.00000000000E+00 0. -1.
         -3    1    3    3    0  502 -0.81586117130E+01  0.11335296797E+03 -0.11559638366E+03  0.16210484943E+03  0.00000000000E+00 0.  1.
         11    1    5    5    0    0 -0.58972334236E+02 -0.10073934010E+03 -0.22236800054E+03  0.25114473618E+03  0.00000000000E+00 0.  1.
        -11    1    5    5    0    0  0.74020776800E+00  0.18209494790E+02 -0.43548744474E+02  0.47208333515E+02  0.00000000000E+00 0. -1.
          2    1    6    6  503    0 -0.16121617740E+02 -0.53624894828E+03  0.33011186788E+03  0.62991799974E+03  0.00000000000E+00 0. -1.
         -2    1    6    6    0  503  0.85015898474E+01 -0.29623656861E+03  0.26478412136E+03  0.39741541557E+03  0.00000000000E+00 0.  1.
<mgrwt>
<rscale>  0 0.24530052E+04</rscale>
<asrwt>0</asrwt>
<pdfrwt beam="1">  1        2 0.16255429E+00 0.24530052E+04</pdfrwt>
<pdfrwt beam="2">  1       -1 0.21903414E+00 0.24530052E+04</pdfrwt>
<totfact> 0.26434963E+00</totfact>
</mgrwt>
</event>
<event>
12    6  0.1403409E-007  0.1053873E+04  0.7818608E-02  0.9251355E-01
          2   -1    0    0  501    0  0.00000000000E+00  0.00000000000E+00  0.12312111673E+04  0.12312111673E+04  0.00000000000E+00 0. -1.
         -1   -1    0    0    0  501 -0.00000000000E+00 -0.00000000000E+00 -0.22551937136E+03  0.22551937136E+03  0.00000000000E+00 0.  1.
         24    2    1    2    0    0  0.10235108334E+03 -0.68901436058E+02  0.15814727159E+03  0.21636613065E+03  0.81120840913E+02 0.  0.
        254    2    1    2    0    0 -0.10235108334E+03  0.68901436058E+02  0.84754452436E+03  0.12403644080E+04  0.89718949602E+03 0.  0.
         23    2    4    4    0    0 -0.33086851954E+03  0.68382904299E+02  0.91823479160E+03  0.98229841070E+03  0.87205712775E+02 0.  0.
         23    2    4    4    0    0  0.22851743620E+03  0.51853175808E+00 -0.70690267242E+02  0.25806599732E+03  0.96852762314E+02 0.  0.
          2    1    3    3  502    0  0.97025337914E+02 -0.82850457763E+02  0.15559885174E+03  0.20121907765E+03  0.00000000000E+00 0. -1.
         -1    1    3    3    0  502  0.53257454239E+01  0.13949021706E+02  0.25484198543E+01  0.15147053001E+02  0.00000000000E+00 0.  1.
         11    1    5    5    0    0 -0.58454959218E+02  0.36984393139E+02  0.26417568178E+03  0.27308170652E+03  0.00000000000E+00 0.  1.
        -11    1    5    5    0    0 -0.27241356032E+03  0.31398511160E+02  0.65405910982E+03  0.70921670418E+03  0.00000000000E+00 0. -1.
          1    1    6    6  503    0  0.63315767060E+02  0.25620756610E+02  0.15513351388E+02  0.70042655568E+02  0.00000000000E+00 0. -1.
         -1    1    6    6    0  503  0.16520166914E+03 -0.25102224852E+02 -0.86203618630E+02  0.18802334175E+03  0.00000000000E+00 0.  1.
<mgrwt>
<rscale>  0 0.10538728E+04</rscale>
<asrwt>0</asrwt>
<pdfrwt beam="1">  1        2 0.18941710E+00 0.10538728E+04</pdfrwt>
<pdfrwt beam="2">  1       -1 0.34695289E-01 0.10538728E+04</pdfrwt>
<totfact> 0.16211158E+02</totfact>
</mgrwt>
</event>
<event>
12    6  0.1403409E-007  0.1797085E+04  0.7818608E-02  0.8707851E-01
         -1   -1    0    0    0  501 -0.00000000000E+00  0.00000000000E+00  0.12605828651E+04  0.12605828651E+04  0.00000000000E+00 0.  1.
          2   -1    0    0  501    0  0.00000000000E+00 -0.00000000000E+00 -0.64048041095E+03  0.64048041095E+03  0.00000000000E+00 0. -1.
         24    2    1    2    0    0 -0.55909405439E+02 -0.50289854735E+03 -0.23282635662E+03  0.56282710356E+03  0.80829608563E+02 0.  0.
        254    2    1    2    0    0  0.55909405439E+02  0.50289854735E+03  0.85292881076E+03  0.13382361725E+04  0.89852973606E+03 0.  0.
         23    2    4    4    0    0  0.14106020901E+03  0.30897007006E+03  0.10030266270E+04  0.10631195257E+04  0.93809513561E+02 0.  0.
         23    2    4    4    0    0 -0.85150803572E+02  0.19392847729E+03 -0.15009781621E+03  0.27511664675E+03  0.91109281846E+02 0.  0.
          4    1    3    3  502    0 -0.70605002450E+02 -0.30118010667E+03 -0.15620852452E+03  0.34654815849E+03  0.00000000000E+00 0. -1.
         -3    1    3    3    0  502  0.14695597011E+02 -0.20171844068E+03 -0.76617832107E+02  0.21627894507E+03  0.00000000000E+00 0.  1.
         11    1    5    5    0    0  0.98028342116E+02  0.21753627317E+03  0.82046494912E+03  0.85445556861E+03  0.00000000000E+00 0. -1.
        -11    1    5    5    0    0  0.43031866896E+02  0.91433796895E+02  0.18256167785E+03  0.20866395712E+03  0.00000000000E+00 0.  1.
          3    1    6    6  503    0 -0.44862822948E+02  0.16029771987E+03 -0.72785238024E+02  0.18167477192E+03  0.00000000000E+00 0. -1.
         -3    1    6    6    0  503 -0.40287980624E+02  0.33630757421E+02 -0.77312578182E+02  0.93441874834E+02  0.00000000000E+00 0.  1.
<mgrwt>
<rscale>  0 0.17970850E+04</rscale>
<asrwt>0</asrwt>
<pdfrwt beam="1">  1        2 0.98535448E-01 0.17970850E+04</pdfrwt>
<pdfrwt beam="2">  1       -1 0.19393583E+00 0.17970850E+04</pdfrwt>
<totfact> 0.81878985E+00</totfact>
</mgrwt>
</event>
<event>
12    6  0.1403409E-007  0.2637944E+04  0.7818608E-02  0.8355426E-01
          2   -1    0    0  501    0  0.00000000000E+00  0.00000000000E+00  0.27924269296E+04  0.27924269296E+04  0.00000000000E+00 0. -1.
         -1   -1    0    0    0  501 -0.00000000000E+00 -0.00000000000E+00 -0.62300179063E+03  0.62300179063E+03  0.00000000000E+00 0.  1.
         24    2    1    2    0    0 -0.63968315113E+03  0.95495950426E+03  0.11976708145E+04  0.16618906206E+04  0.79516452872E+02 0.  0.
        254    2    1    2    0    0  0.63968315113E+03 -0.95495950426E+03  0.97175432446E+03  0.17535380996E+04  0.89969284263E+03 0.  0.
         23    2    4    4    0    0  0.70057906337E+03 -0.66011738099E+03  0.30115475289E+03  0.10124283535E+04  0.88039792308E+02 0.  0.
         23    2    4    4    0    0 -0.60895912237E+02 -0.29484212328E+03  0.67059957157E+03  0.74110974614E+03  0.94338118732E+02 0.  0.
          2    1    3    3  502    0 -0.17174190190E+03  0.19943197004E+03  0.25880443434E+03  0.36911803908E+03  0.00000000000E+00 0. -1.
         -1    1    3    3    0  502 -0.46794124923E+03  0.75552753423E+03  0.93886638015E+03  0.12927725815E+04  0.00000000000E+00 0.  1.
         11    1    5    5    0    0  0.58897058309E+02 -0.36276854856E+02  0.34341334052E+01  0.69257973894E+02  0.00000000000E+00 0.  1.
        -11    1    5    5    0    0  0.64168200506E+03 -0.62384052613E+03  0.29772061948E+03  0.94317037959E+03  0.00000000000E+00 0. -1.
          2    1    6    6  503    0 -0.49037806315E+02 -0.10263876400E+03  0.33989240389E+03  0.35842191416E+03  0.00000000000E+00 0. -1.
         -2    1    6    6    0  503 -0.11858105921E+02 -0.19220335928E+03  0.33070716767E+03  0.38268783198E+03  0.00000000000E+00 0.  1.
<mgrwt>
<rscale>  0 0.26379439E+04</rscale>
<asrwt>0</asrwt>
<pdfrwt beam="1">  1        2 0.42960414E+00 0.26379439E+04</pdfrwt>
<pdfrwt beam="2">  1       -1 0.95846431E-01 0.26379439E+04</pdfrwt>
<totfact> 0.24584803E+00</totfact>
</mgrwt>
</event>
<event>
12    6  0.1403409E-007  0.1624678E+04  0.7818608E-02  0.8805529E-01
          2   -1    0    0  501    0  0.00000000000E+00  0.00000000000E+00  0.14533958849E+04  0.14533958849E+04  0.00000000000E+00 0. -1.
         -1   -1    0    0    0  501 -0.00000000000E+00 -0.00000000000E+00 -0.45403641645E+03  0.45403641645E+03  0.00000000000E+00 0.  1.
         24    2    1    2    0    0  0.54647190724E+03  0.10461110365E+03  0.41262201214E+03  0.69747806021E+03  0.81508840962E+02 0.  0.
        254    2    1    2    0    0 -0.54647190724E+03 -0.10461110365E+03  0.58673745636E+03  0.12099542412E+04  0.90008521522E+03 0.  0.
         23    2    4    4    0    0 -0.21449320760E+03 -0.36192474644E+03 -0.58762337003E+02  0.43441800619E+03  0.90934776949E+02 0.  0.
         23    2    4    4    0    0 -0.33197869964E+03  0.25731364279E+03  0.64549979336E+03  0.77553623500E+03  0.91467484879E+02 0.  0.
          2    1    3    3  502    0  0.50187740193E+03  0.11607695616E+03  0.39041349679E+03  0.64635708768E+03  0.00000000000E+00 0. -1.
         -1    1    3    3    0  502  0.44594505318E+02 -0.11465852508E+02  0.22208515345E+02  0.51120972527E+02  0.00000000000E+00 0.  1.
         11    1    5    5    0    0 -0.85440660460E+02 -0.94907625212E+02  0.15650987901E+02  0.12865658633E+03  0.00000000000E+00 0.  1.
        -11    1    5    5    0    0 -0.12905254714E+03 -0.26701712123E+03 -0.74413324904E+02  0.30576141986E+03  0.00000000000E+00 0. -1.
          4    1    6    6  503    0 -0.27067556344E+03  0.24721448203E+03  0.57081003802E+03  0.67838363798E+03  0.00000000000E+00 0. -1.
         -4    1    6    6    0  503 -0.61303136198E+02  0.10099160760E+02  0.74689755342E+02  0.97152597025E+02  0.00000000000E+00 0.  1.
<mgrwt>
<rscale>  0 0.16246780E+04</rscale>
<asrwt>0</asrwt>
<pdfrwt beam="1">  1        2 0.22359936E+00 0.16246780E+04</pdfrwt>
<pdfrwt beam="2">  1       -1 0.69851757E-01 0.16246780E+04</pdfrwt>
<totfact> 0.30491101E+01</totfact>
</mgrwt>
</event>
<event>
12    6  0.1403409E-007  0.3199581E+04  0.7818608E-02  0.8188928E-01
         -1   -1    0    0    0  501 -0.00000000000E+00  0.00000000000E+00  0.26643256828E+04  0.26643256828E+04  0.00000000000E+00 0.  1.
          2   -1    0    0  501    0  0.00000000000E+00 -0.00000000000E+00 -0.96059187143E+03  0.96059187143E+03  0.00000000000E+00 0. -1.
         24    2    1    2    0    0  0.93969471053E+03 -0.92357006344E+03  0.15303145308E+04  0.20209828576E+04  0.80630864393E+02 0.  0.
        254    2    1    2    0    0 -0.93969471053E+03  0.92357006344E+03  0.17341928052E+03  0.16039346966E+04  0.89806706492E+03 0.  0.
         23    2    4    4    0    0 -0.76476821611E+03  0.24094830080E+03 -0.15403148227E+03  0.82156036910E+03  0.91155002655E+02 0.  0.
         23    2    4    4    0    0 -0.17492649441E+03  0.68262176264E+03  0.32745076279E+03  0.78237432752E+03  0.91180244791E+02 0.  0.
          2    1    3    3  502    0  0.46466711917E+03 -0.49989915867E+03  0.83153920058E+03  0.10757658400E+04  0.00000000000E+00 0. -1.
         -1    1    3    3    0  502  0.47502759136E+03 -0.42367090477E+03  0.69877533023E+03  0.94521701753E+03  0.00000000000E+00 0.  1.
         11    1    5    5    0    0 -0.29766863892E+03  0.13857664298E+03 -0.49079764352E+02  0.33199236113E+03  0.00000000000E+00 0. -1.
        -11    1    5    5    0    0 -0.46709957719E+03  0.10237165782E+03 -0.10495171792E+03  0.48956800798E+03  0.00000000000E+00 0.  1.
          4    1    6    6  503    0 -0.15462443500E+02  0.72677942837E+02  0.55697988895E+01  0.74513040427E+02  0.00000000000E+00 0. -1.
         -4    1    6    6    0  503 -0.15946405091E+03  0.60994381980E+03  0.32188096390E+03  0.70786128710E+03  0.00000000000E+00 0.  1.
<mgrwt>
<rscale>  0 0.31995810E+04</rscale>
<asrwt>0</asrwt>
<pdfrwt beam="1">  1        2 0.14778337E+00 0.31995810E+04</pdfrwt>
<pdfrwt beam="2">  1       -1 0.40989626E+00 0.31995810E+04</pdfrwt>
<totfact> 0.15675652E-01</totfact>
</mgrwt>
</event>
<event>
12    6  0.1403409E-007  0.3554660E+04  0.7818608E-02  0.8100957E-01
         -1   -1    0    0    0  501 -0.00000000000E+00  0.00000000000E+00  0.16593465502E+04  0.16593465502E+04  0.00000000000E+00 0.  1.
          2   -1    0    0  501    0  0.00000000000E+00 -0.00000000000E+00 -0.19037024591E+04  0.19037024591E+04  0.00000000000E+00 0. -1.
         24    2    1    2    0    0  0.11440962587E+04 -0.12049753772E+04 -0.69162760796E+02  0.16649787419E+04  0.80304513226E+02 0.  0.
        254    2    1    2    0    0 -0.11440962587E+04  0.12049753772E+04 -0.17519314809E+03  0.18980702674E+04  0.90058658226E+03 0.  0.
         23    2    4    4    0    0 -0.91521808046E+01  0.53840409633E+02 -0.25512381578E+03  0.27679768530E+03  0.92445903568E+02 0.  0.
         23    2    4    4    0    0 -0.11349440779E+04  0.11511349675E+04  0.79930667699E+02  0.16212725821E+04  0.94478042065E+02 0.  0.
          4    1    3    3  502    0  0.67012549758E+03 -0.75010998815E+03 -0.17118754604E+02  0.10059951434E+04  0.00000000000E+00 0. -1.
         -3    1    3    3    0  502  0.47397076108E+03 -0.45486538901E+03 -0.52044006192E+02  0.65898359848E+03  0.00000000000E+00 0.  1.
         11    1    5    5    0    0  0.19136485111E+02  0.66688937917E+02 -0.12447098676E+03  0.14250138963E+03  0.00000000000E+00 0.  1.
        -11    1    5    5    0    0 -0.28288665916E+02 -0.12848528284E+02 -0.13065282903E+03  0.13429629567E+03  0.00000000000E+00 0. -1.
          4    1    6    6  503    0 -0.85139204915E+03  0.87713008862E+03  0.20865654249E+02  0.12225632864E+04  0.00000000000E+00 0. -1.
         -4    1    6    6    0  503 -0.28355202870E+03  0.27400487891E+03  0.59065013450E+02  0.39870929568E+03  0.00000000000E+00 0.  1.
<mgrwt>
<rscale>  0 0.35546601E+04</rscale>
<asrwt>0</asrwt>
<pdfrwt beam="1">  1        2 0.29287730E+00 0.35546601E+04</pdfrwt>
<pdfrwt beam="2">  1       -1 0.25528409E+00 0.35546601E+04</pdfrwt>
<totfact> 0.45296008E-01</totfact>
</mgrwt>
</event>
<event>
12    6  0.1403409E-007  0.2557383E+04  0.7818608E-02  0.8382823E-01
          2   -1    0    0  501    0  0.00000000000E+00  0.00000000000E+00  0.14957123966E+04  0.14957123966E+04  0.00000000000E+00 0. -1.
         -1   -1    0    0    0  501 -0.00000000000E+00 -0.00000000000E+00 -0.10931593690E+04  0.10931593690E+04  0.00000000000E+00 0.  1.
         24    2    1    2    0    0 -0.85873106322E+03  0.65989635208E+03 -0.84299014676E+02  0.10885674415E+04  0.70643587035E+02 0.  0.
        254    2    1    2    0    0  0.85873106322E+03 -0.65989635208E+03  0.48685204233E+03  0.15003043241E+04  0.91706374889E+03 0.  0.
         23    2    4    4    0    0 -0.16491789058E+03 -0.17770170105E+03  0.20963327166E+03  0.33174969370E+03  0.85650134263E+02 0.  0.
         23    2    4    4    0    0  0.10236489538E+04 -0.48219465103E+03  0.27721877067E+03  0.11685546304E+04  0.91108810995E+02 0.  0.
          2    1    3    3  502    0 -0.17258129297E+03  0.13495039917E+03  0.11277377043E+02  0.21936976125E+03  0.00000000000E+00 0. -1.
         -1    1    3    3    0  502 -0.68614977025E+03  0.52494595290E+03 -0.95576391719E+02  0.86919768024E+03  0.00000000000E+00 0.  1.
         11    1    5    5    0    0 -0.17310022498E+03 -0.17100372675E+03  0.18737731237E+03  0.30710945873E+03  0.00000000000E+00 0. -1.
        -11    1    5    5    0    0  0.81823343997E+01 -0.66979742992E+01  0.22255959284E+02  0.24640234975E+02  0.00000000000E+00 0.  1.
          4    1    6    6  503    0  0.72743895554E+03 -0.38554088105E+03  0.18861556163E+03  0.84462123765E+03  0.00000000000E+00 0. -1.
         -4    1    6    6    0  503  0.29620999826E+03 -0.96653769978E+02  0.88603209043E+02  0.32393339280E+03  0.00000000000E+00 0.  1.
<mgrwt>
<rscale>  0 0.25573831E+04</rscale>
<asrwt>0</asrwt>
<pdfrwt beam="1">  1        2 0.23010960E+00 0.25573831E+04</pdfrwt>
<pdfrwt beam="2">  1       -1 0.16817836E+00 0.25573831E+04</pdfrwt>
<totfact> 0.32755680E+00</totfact>
</mgrwt>
</event>
<event>
12    6  0.1403409E-007  0.4334029E+04  0.7818608E-02  0.7940356E-01
         -3   -1    0    0    0  501 -0.00000000000E+00  0.00000000000E+00  0.11472940925E+04  0.11472940925E+04  0.00000000000E+00 0.  1.
          2   -1    0    0  501    0  0.00000000000E+00 -0.00000000000E+00 -0.40930667141E+04  0.40930667141E+04  0.00000000000E+00 0. -1.
         24    2    1    2    0    0 -0.12766928026E+04 -0.41139102865E+03  0.50082308312E+03  0.14341785647E+04  0.82808842627E+02 0.  0.
        254    2    1    2    0    0  0.12766928026E+04  0.41139102865E+03 -0.34465957047E+04  0.38061822419E+04  0.89934099000E+03 0.  0.
         23    2    4    4    0    0  0.11950616359E+04  0.83425578013E+02 -0.30455430182E+04  0.32737719196E+04  0.84369218870E+02 0.  0.
         23    2    4    4    0    0  0.81631166679E+02  0.32796545063E+03 -0.40105268655E+03  0.53241032237E+03  0.91610642325E+02 0.  0.
          2    1    3    3  502    0 -0.33847610632E+03 -0.12786129714E+03  0.10109977758E+03  0.37568038395E+03  0.00000000000E+00 0. -1.
         -1    1    3    3    0  502 -0.93821669623E+03 -0.28352973151E+03  0.39972330554E+03  0.10584981808E+04  0.00000000000E+00 0.  1.
         11    1    5    5    0    0  0.11057699726E+04  0.63877495417E+02 -0.28585228096E+04  0.30656092738E+04  0.00000000000E+00 0.  1.
        -11    1    5    5    0    0  0.89291663282E+02  0.19548082597E+02 -0.18702020861E+03  0.20816264577E+03  0.00000000000E+00 0. -1.
          1    1    6    6  503    0  0.18047596613E+00 -0.15733262068E+00  0.44521984836E+01  0.44586316808E+01  0.00000000000E+00 0. -1.
         -1    1    6    6    0  503  0.81450690713E+02  0.32812278325E+03 -0.40550488504E+03  0.52795169068E+03  0.00000000000E+00 0.  1.
<mgrwt>
<rscale>  0 0.43340287E+04</rscale>
<asrwt>0</asrwt>
<pdfrwt beam="1">  1        2 0.62970257E+00 0.43340287E+04</pdfrwt>
<pdfrwt beam="2">  1       -3 0.17650678E+00 0.43340287E+04</pdfrwt>
<totfact> 0.29126693E-02</totfact>
</mgrwt>
</event>
<event>
12    6  0.1403409E-007  0.4710471E+04  0.7818608E-02  0.7874791E-01
         -1   -1    0    0    0  501 -0.00000000000E+00  0.00000000000E+00  0.18070022465E+04  0.18070022465E+04  0.00000000000E+00 0.  1.
          2   -1    0    0  501    0  0.00000000000E+00 -0.00000000000E+00 -0.30697995897E+04  0.30697995897E+04  0.00000000000E+00 0. -1.
         24    2    1    2    0    0  0.11036016458E+04 -0.16248876546E+04  0.56802945746E+03  0.20463362813E+04  0.81475327482E+02 0.  0.
        254    2    1    2    0    0 -0.11036016458E+04  0.16248876546E+04 -0.18308268006E+04  0.28304655549E+04  0.89521617566E+03 0.  0.
         23    2    4    4    0    0 -0.11869908358E+04  0.16288543054E+04 -0.16274134186E+04  0.25921971289E+04  0.94328826485E+02 0.  0.
         23    2    4    4    0    0  0.83389190012E+02 -0.39666508582E+01 -0.20341338201E+03  0.23826842600E+03  0.91789691803E+02 0.  0.
          4    1    3    3  502    0  0.38814633785E+03 -0.60073949553E+03  0.16986175365E+03  0.73511804252E+03  0.00000000000E+00 0. -1.
         -3    1    3    3    0  502  0.71545530793E+03 -0.10241481590E+04  0.39816770380E+03  0.13112182388E+04  0.00000000000E+00 0.  1.
         11    1    5    5    0    0 -0.11098750100E+04  0.14799775726E+04 -0.14848378480E+04  0.23721086797E+04  0.00000000000E+00 0. -1.
        -11    1    5    5    0    0 -0.77115825798E+02  0.14887673278E+03 -0.14257557061E+03  0.22008844924E+03  0.00000000000E+00 0.  1.
          3    1    6    6  503    0  0.45702325766E+01 -0.14294328019E+02 -0.12740218352E+03  0.12828301214E+03  0.00000000000E+00 0. -1.
         -3    1    6    6    0  503  0.78818957436E+02  0.10327677161E+02 -0.76011198491E+02  0.10998541386E+03  0.00000000000E+00 0.  1.
<mgrwt>
<rscale>  0 0.47104712E+04</rscale>
<asrwt>0</asrwt>
<pdfrwt beam="1">  1        2 0.47227685E+00 0.47104712E+04</pdfrwt>
<pdfrwt beam="2">  1       -1 0.27800035E+00 0.47104712E+04</pdfrwt>
<totfact> 0.61011074E-02</totfact>
</mgrwt>
</event>
<event>
12    6  0.1403409E-007  0.3586724E+04  0.7818608E-02  0.8093539E-01
          2   -1    0    0  501    0  0.00000000000E+00  0.00000000000E+00  0.24608951706E+04  0.24608951706E+04  0.00000000000E+00 0. -1.
         -1   -1    0    0    0  501 -0.00000000000E+00 -0.00000000000E+00 -0.13069015321E+04  0.13069015321E+04  0.00000000000E+00 0.  1.
         24    2    1    2    0    0 -0.14138894930E+04  0.78910125132E+03  0.73070627061E+02  0.16227963114E+04  0.79776365111E+02 0.  0.
        254    2    1    2    0    0  0.14138894930E+04 -0.78910125132E+03  0.10809230115E+04  0.21450003913E+04  0.90048200341E+03 0.  0.
         23    2    4    4    0    0  0.45919973435E+03 -0.71051269933E+03  0.72615289561E+03  0.11194691247E+04  0.10109600074E+03 0.  0.
         23    2    4    4    0    0  0.95468975869E+03 -0.78588551988E+02  0.35477011589E+03  0.10255312666E+04  0.90795637626E+02 0.  0.
          4    1    3    3  502    0 -0.84495049476E+03  0.50556152890E+03  0.19144088531E+02  0.98483516094E+03  0.00000000000E+00 0. -1.
         -3    1    3    3    0  502 -0.56893899828E+03  0.28353972242E+03  0.53926538530E+02  0.63796115047E+03  0.00000000000E+00 0.  1.
         11    1    5    5    0    0  0.14279781868E+03 -0.16984526203E+03  0.23706002794E+03  0.32470923439E+03  0.00000000000E+00 0.  1.
        -11    1    5    5    0    0  0.31640191567E+03 -0.54066743731E+03  0.48909286767E+03  0.79475989029E+03  0.00000000000E+00 0. -1.
          3    1    6    6  503    0  0.81074838496E+03 -0.64607814978E+02  0.33482993050E+03  0.87954431147E+03  0.00000000000E+00 0. -1.
         -3    1    6    6    0  503  0.14394137373E+03 -0.13980737010E+02  0.19940185388E+02  0.14598695514E+03  0.00000000000E+00 0.  1.
<mgrwt>
<rscale>  0 0.35867242E+04</rscale>
<asrwt>0</asrwt>
<pdfrwt beam="1">  1        2 0.37859926E+00 0.35867242E+04</pdfrwt>
<pdfrwt beam="2">  1       -1 0.20106177E+00 0.35867242E+04</pdfrwt>
<totfact> 0.50321935E-01</totfact>
</mgrwt>
</event>
<event>
12    6  0.1403409E-007  0.2262800E+04  0.7818608E-02  0.8492735E-01
         -1   -1    0    0    0  501 -0.00000000000E+00  0.00000000000E+00  0.41140002439E+03  0.41140002439E+03  0.00000000000E+00 0.  1.
          2   -1    0    0  501    0  0.00000000000E+00 -0.00000000000E+00 -0.31114874778E+04  0.31114874778E+04  0.00000000000E+00 0. -1.
         24    2    1    2    0    0  0.24287182211E+03  0.52105982064E+03 -0.23169525785E+04  0.23885074108E+04  0.78793029822E+02 0.  0.
        254    2    1    2    0    0 -0.24287182211E+03 -0.52105982064E+03 -0.38313487492E+03  0.11343800915E+04  0.89974207462E+03 0.  0.
         23    2    4    4    0    0 -0.88091229332E+02  0.46342874067E+02 -0.50802455447E+03  0.52590278883E+03  0.92612465154E+02 0.  0.
         23    2    4    4    0    0 -0.15478059277E+03 -0.56740269471E+03  0.12488967954E+03  0.60847730262E+03  0.93511207272E+02 0.  0.
          2    1    3    3  502    0  0.17105500908E+03  0.33073704019E+03 -0.16348768011E+04  0.16767435584E+04  0.00000000000E+00 0. -1.
         -1    1    3    3    0  502  0.71816813022E+02  0.19032278045E+03 -0.68207577743E+03  0.71176385238E+03  0.00000000000E+00 0.  1.
         11    1    5    5    0    0  0.76244764027E+01  0.24622831364E+02 -0.39205963850E+02  0.46920401386E+02  0.00000000000E+00 0.  1.
        -11    1    5    5    0    0 -0.95715705734E+02  0.21720042703E+02 -0.46881859062E+03  0.47898238745E+03  0.00000000000E+00 0. -1.
          4    1    6    6  503    0  0.28992999401E+01  0.56886374275E+00  0.66578426356E+01  0.72839834336E+01  0.00000000000E+00 0.  1.
         -4    1    6    6    0  503 -0.15767989271E+03 -0.56797155845E+03  0.11823183691E+03  0.60119331918E+03  0.00000000000E+00 0. -1.
<mgrwt>
<rscale>  0 0.22628001E+04</rscale>
<asrwt>0</asrwt>
<pdfrwt beam="1">  1        2 0.47869039E+00 0.22628001E+04</pdfrwt>
<pdfrwt beam="2">  1       -1 0.63292310E-01 0.22628001E+04</pdfrwt>
<totfact> 0.38807844E+00</totfact>
</mgrwt>
</event>
<event>
12    6  0.1403409E-007  0.3109096E+04  0.7818608E-02  0.8213246E-01
          2   -1    0    0  501    0  0.00000000000E+00  0.00000000000E+00  0.15559518823E+04  0.15559518823E+04  0.00000000000E+00 0. -1.
         -1   -1    0    0    0  501 -0.00000000000E+00 -0.00000000000E+00 -0.15531456813E+04  0.15531456813E+04  0.00000000000E+00 0.  1.
         24    2    1    2    0    0 -0.19708718097E+03  0.55251534093E+03  0.12978251689E+04  0.14263370318E+04  0.77269660536E+02 0.  0.
        254    2    1    2    0    0  0.19708718097E+03 -0.55251534093E+03 -0.12950189679E+04  0.16827605318E+04  0.90027347019E+03 0.  0.
         23    2    4    4    0    0  0.79415434010E+02  0.23496042469E+03 -0.22940810091E+03  0.34952418606E+03  0.89587206396E+02 0.  0.
         23    2    4    4    0    0  0.11767174696E+03 -0.78747576562E+03 -0.10656108670E+04  0.13332363457E+04  0.89598616892E+02 0.  0.
          4    1    3    3  502    0 -0.18280331508E+03  0.42286975065E+03  0.98501518244E+03  0.10874239227E+04  0.00000000000E+00 0. -1.
         -3    1    3    3    0  502 -0.14283865887E+02  0.12964559027E+03  0.31280998647E+03  0.33891310912E+03  0.00000000000E+00 0.  1.
         11    1    5    5    0    0  0.66855610452E+02  0.23761390316E+03 -0.22896054034E+03  0.33667932614E+03  0.00000000000E+00 0.  1.
        -11    1    5    5    0    0  0.12559823558E+02 -0.26534784692E+01 -0.44756057362E+00  0.12844859916E+02  0.00000000000E+00 0. -1.
          3    1    6    6  503    0  0.25745547534E+02 -0.10030220527E+03 -0.95590531049E+02  0.14092875940E+03  0.00000000000E+00 0. -1.
         -3    1    6    6    0  503  0.91926199425E+02 -0.68717356035E+03 -0.97002033596E+03  0.11923075863E+04  0.00000000000E+00 0.  1.
<mgrwt>
<rscale>  0 0.31090963E+04</rscale>
<asrwt>0</asrwt>
<pdfrwt beam="1">  1        2 0.23937721E+00 0.31090963E+04</pdfrwt>
<pdfrwt beam="2">  1       -1 0.23894549E+00 0.31090963E+04</pdfrwt>
<totfact> 0.93927263E-01</totfact>
</mgrwt>
</event>
<event>
12    6  0.1403409E-007  0.1893602E+04  0.7818608E-02  0.8658047E-01
         -1   -1    0    0    0  501 -0.00000000000E+00  0.00000000000E+00  0.15761418708E+04  0.15761418708E+04  0.00000000000E+00 0.  1.
          2   -1    0    0  501    0  0.00000000000E+00 -0.00000000000E+00 -0.56875116336E+03  0.56875116336E+03  0.00000000000E+00 0. -1.
         24    2    1    2    0    0 -0.30372591786E+03  0.18212498918E+01  0.11395703916E+04  0.11820276155E+04  0.79472360444E+02 0.  0.
        254    2    1    2    0    0  0.30372591786E+03 -0.18212498918E+01 -0.13217968422E+03  0.96286541869E+03  0.90409379793E+03 0.  0.
         23    2    4    4    0    0  0.11386089078E+03  0.43390785186E+03  0.11702204543E+02  0.45773019816E+03  0.90220099528E+02 0.  0.
         23    2    4    4    0    0  0.18986502708E+03 -0.43572910176E+03 -0.14388188876E+03  0.50513522053E+03  0.92471695555E+02 0.  0.
          2    1    3    3  502    0 -0.83086574505E+02 -0.34992293402E+02  0.34183878070E+03  0.35352735602E+03  0.00000000000E+00 0. -1.
         -1    1    3    3    0  502 -0.22063934336E+03  0.36813543294E+02  0.79773161093E+03  0.82850025943E+03  0.00000000000E+00 0.  1.
         11    1    5    5    0    0 -0.56052251309E+01  0.32516679152E+02 -0.18538502861E+02  0.37847444566E+02  0.00000000000E+00 0. -1.
        -11    1    5    5    0    0  0.11946611591E+03  0.40139117271E+03  0.30240707404E+02  0.41988275359E+03  0.00000000000E+00 0.  1.
          3    1    6    6  503    0  0.74306328891E+01 -0.29445384689E+02  0.12881356243E+02  0.32987487374E+02  0.00000000000E+00 0. -1.
         -3    1    6    6    0  503  0.18243439419E+03 -0.40628371707E+03 -0.15676324501E+03  0.47214773315E+03  0.00000000000E+00 0.  1.
<mgrwt>
<rscale>  0 0.18936024E+04</rscale>
<asrwt>0</asrwt>
<pdfrwt beam="1">  1        2 0.87500180E-01 0.18936024E+04</pdfrwt>
<pdfrwt beam="2">  1       -1 0.24248336E+00 0.18936024E+04</pdfrwt>
<totfact> 0.44208029E+00</totfact>
</mgrwt>
</event>
<event>
12    6  0.1403409E-007  0.1372339E+04  0.7818608E-02  0.8974088E-01
          2   -1    0    0  501    0  0.00000000000E+00  0.00000000000E+00  0.50879108258E+03  0.50879108258E+03  0.00000000000E+00 0. -1.
         -1   -1    0    0    0  501 -0.00000000000E+00 -0.00000000000E+00 -0.92538713636E+03  0.92538713636E+03  0.00000000000E+00 0.  1.
         24    2    1    2    0    0  0.16067798830E+02  0.27130724929E+03 -0.41562364401E+03  0.50294273097E+03  0.79640313283E+02 0.  0.
        254    2    1    2    0    0 -0.16067798830E+02 -0.27130724929E+03 -0.97240977448E+00  0.93123548797E+03  0.89069230983E+03 0.  0.
         23    2    4    4    0    0 -0.18501031245E+03 -0.33007721281E+03  0.35210503347E+03  0.52488759475E+03  0.91374232685E+02 0.  0.
         23    2    4    4    0    0  0.16894251362E+03  0.58769963522E+02 -0.35307744325E+03  0.40634789321E+03  0.91975256840E+02 0.  0.
          4    1    3    3  502    0 -0.70091210693E+01  0.20697246110E+03 -0.35782753821E+03  0.41343351888E+03  0.00000000000E+00 0. -1.
         -3    1    3    3    0  502  0.23076919899E+02  0.64334788195E+02 -0.57796105803E+02  0.89509212096E+02  0.00000000000E+00 0.  1.
         11    1    5    5    0    0 -0.25869171878E+02 -0.67266287078E+02  0.25409187670E+02  0.76417237904E+02  0.00000000000E+00 0.  1.
        -11    1    5    5    0    0 -0.15914114057E+03 -0.26281092574E+03  0.32669584580E+03  0.44847035685E+03  0.00000000000E+00 0. -1.
          1    1    6    6  503    0  0.13997333513E+03  0.61325526692E+02 -0.34311377728E+03  0.37560673441E+03  0.00000000000E+00 0. -1.
         -1    1    6    6    0  503  0.28969178487E+02 -0.25555631698E+01 -0.99636659637E+01  0.30741158807E+02  0.00000000000E+00 0.  1.
<mgrwt>
<rscale>  0 0.13723392E+04</rscale>
<asrwt>0</asrwt>
<pdfrwt beam="1">  1        2 0.78275551E-01 0.13723392E+04</pdfrwt>
<pdfrwt beam="2">  1       -1 0.14236725E+00 0.13723392E+04</pdfrwt>
<totfact> 0.26990654E+01</totfact>
</mgrwt>
</event>
<event>
12    6  0.1403409E-007  0.2744638E+04  0.7818608E-02  0.8320665E-01
          2   -1    0    0  501    0  0.00000000000E+00  0.00000000000E+00  0.25152583087E+04  0.25152583087E+04  0.00000000000E+00 0. -1.
         -1   -1    0    0    0  501 -0.00000000000E+00 -0.00000000000E+00 -0.74873423695E+03  0.74873423695E+03  0.00000000000E+00 0.  1.
         24    2    1    2    0    0  0.40704822765E+03 -0.11406995134E+04  0.99387994297E+03  0.15687883082E+04  0.80098534392E+02 0.  0.
        254    2    1    2    0    0 -0.40704822765E+03  0.11406995134E+04  0.77264412880E+03  0.16952042375E+04  0.89991933948E+03 0.  0.
         23    2    4    4    0    0 -0.44900958498E+01  0.34395217300E+03  0.71205610952E+03  0.79585354667E+03  0.89642101540E+02 0.  0.
         23    2    4    4    0    0 -0.40255813180E+03  0.79674734043E+03  0.60588019278E+02  0.89935069085E+03  0.91111926160E+02 0.  0.
          4    1    3    3  502    0  0.28006006987E+03 -0.80351158349E+03  0.74402092663E+03  0.11303236912E+04  0.00000000000E+00 0. -1.
         -3    1    3    3    0  502  0.12698815779E+03 -0.33718792994E+03  0.24985901634E+03  0.43846461700E+03  0.00000000000E+00 0.  1.
         11    1    5    5    0    0 -0.39530014004E+02  0.26730753462E+03  0.56692377915E+03  0.62802747666E+03  0.00000000000E+00 0. -1.
        -11    1    5    5    0    0  0.35039918154E+02  0.76644638379E+02  0.14513233037E+03  0.16782607001E+03  0.00000000000E+00 0.  1.
          3    1    6    6  503    0 -0.17545608351E+03  0.44340006861E+03  0.45933442843E+02  0.47905984935E+03  0.00000000000E+00 0. -1.
         -3    1    6    6    0  503 -0.22710204829E+03  0.35334727181E+03  0.14654576435E+02  0.42029084149E+03  0.00000000000E+00 0.  1.
<mgrwt>
<rscale>  0 0.27446384E+04</rscale>
<asrwt>0</asrwt>
<pdfrwt beam="1">  1        2 0.38696281E+00 0.27446384E+04</pdfrwt>
<pdfrwt beam="2">  1       -1 0.11518988E+00 0.27446384E+04</pdfrwt>
<totfact> 0.23168602E+00</totfact>
</mgrwt>
</event>
<event>
12    6  0.1403409E-007  0.2510935E+04  0.7818608E-02  0.8399100E-01
          2   -1    0    0  501    0  0.00000000000E+00  0.00000000000E+00  0.29831734162E+04  0.29831734162E+04  0.00000000000E+00 0. -1.
         -1   -1    0    0    0  501 -0.00000000000E+00 -0.00000000000E+00 -0.52836314471E+03  0.52836314471E+03  0.00000000000E+00 0.  1.
         24    2    1    2    0    0  0.40376650863E+03 -0.83733842266E+03  0.26379281704E+03  0.96956097537E+03  0.79365024318E+02 0.  0.
        254    2    1    2    0    0 -0.40376650863E+03  0.83733842266E+03  0.21910174544E+04  0.25419755855E+04  0.89270340217E+03 0.  0.
         23    2    4    4    0    0 -0.47195237818E+03  0.91134547236E+03  0.13953103185E+04  0.17344886135E+04  0.90940905266E+02 0.  0.
         23    2    4    4    0    0  0.68185869555E+02 -0.74007049703E+02  0.79570713589E+03  0.80748697198E+03  0.93589569860E+02 0.  0.
          4    1    3    3  502    0  0.43058544663E+02 -0.13978142254E+03  0.22196542921E+02  0.14793772633E+03  0.00000000000E+00 0. -1.
         -3    1    3    3    0  502  0.36070796397E+03 -0.69755700012E+03  0.24159627412E+03  0.82162324903E+03  0.00000000000E+00 0.  1.
         11    1    5    5    0    0 -0.26272707881E+03  0.53218469175E+03  0.87902432287E+03  0.10606270901E+04  0.00000000000E+00 0.  1.
        -11    1    5    5    0    0 -0.20922529938E+03  0.37916078061E+03  0.51628599564E+03  0.67386152342E+03  0.00000000000E+00 0. -1.
          3    1    6    6  503    0  0.36880648351E+02  0.17409875196E+02  0.24108807637E+03  0.24451328501E+03  0.00000000000E+00 0. -1.
         -3    1    6    6    0  503  0.31305221204E+02 -0.91416924900E+02  0.55461905952E+03  0.56297368697E+03  0.00000000000E+00 0.  1.
<mgrwt>
<rscale>  0 0.25109352E+04</rscale>
<asrwt>0</asrwt>
<pdfrwt beam="1">  1        2 0.45894975E+00 0.25109352E+04</pdfrwt>
<pdfrwt beam="2">  1       -1 0.81286639E-01 0.25109352E+04</pdfrwt>
<totfact> 0.27256138E+00</totfact>
</mgrwt>
</event>
<event>
12    6  0.1403409E-007  0.2296412E+04  0.7818608E-02  0.8479337E-01
         -1   -1    0    0    0  501 -0.00000000000E+00  0.00000000000E+00  0.18905805764E+04  0.18905805764E+04  0.00000000000E+00 0.  1.
          2   -1    0    0  501    0  0.00000000000E+00 -0.00000000000E+00 -0.69733954193E+03  0.69733954193E+03  0.00000000000E+00 0. -1.
         24    2    1    2    0    0 -0.67720831650E+03  0.16491216381E+03  0.12665368131E+04  0.14472292496E+04  0.67452770694E+02 0.  0.
        254    2    1    2    0    0  0.67720831650E+03 -0.16491216381E+03 -0.73295778599E+02  0.11406908688E+04  0.89999792289E+03 0.  0.
         23    2    4    4    0    0  0.28968252720E+03  0.53437183925E+02  0.38637447681E+03  0.49432410230E+03  0.91102044950E+02 0.  0.
         23    2    4    4    0    0  0.38752578929E+03 -0.21834934774E+03 -0.45967025541E+03  0.64636676646E+03  0.92954709717E+02 0.  0.
          4    1    3    3  502    0 -0.58408179092E+03  0.14373726390E+03  0.10406613022E+04  0.12019932967E+04  0.00000000000E+00 0. -1.
         -3    1    3    3    0  502 -0.93126525579E+02  0.21174899907E+02  0.22587551092E+03  0.24523595288E+03  0.00000000000E+00 0.  1.
         11    1    5    5    0    0  0.66753126331E+02 -0.18813477499E+02  0.12744279318E+03  0.14509166876E+03  0.00000000000E+00 0.  1.
        -11    1    5    5    0    0  0.22292940087E+03  0.72250661424E+02  0.25893168363E+03  0.34923243354E+03  0.00000000000E+00 0. -1.
          2    1    6    6  503    0  0.69399714064E+02 -0.35308143527E+02 -0.35873740842E+02  0.85731619567E+02  0.00000000000E+00 0. -1.
         -2    1    6    6    0  503  0.31812607523E+03 -0.18304120421E+03 -0.42379651456E+03  0.56063514690E+03  0.00000000000E+00 0.  1.
<mgrwt>
<rscale>  0 0.22964116E+04</rscale>
<asrwt>0</asrwt>
<pdfrwt beam="1">  1        2 0.10728301E+00 0.22964116E+04</pdfrwt>
<pdfrwt beam="2">  1       -1 0.29085855E+00 0.22964116E+04</pdfrwt>
<totfact> 0.16130402E+00</totfact>
</mgrwt>
</event>
<event>
12    6  0.1403409E-007  0.5290267E+04  0.7818608E-02  0.7785227E-01
         -1   -1    0    0    0  501 -0.00000000000E+00  0.00000000000E+00  0.23345660767E+04  0.23345660767E+04  0.00000000000E+00 0.  1.
          2   -1    0    0  501    0  0.00000000000E+00 -0.00000000000E+00 -0.29970158437E+04  0.29970158437E+04  0.00000000000E+00 0. -1.
         24    2    1    2    0    0  0.94529900307E+03  0.25764484901E+03 -0.27139225161E+04  0.28864312325E+04  0.78350259797E+02 0.  0.
        254    2    1    2    0    0 -0.94529900307E+03 -0.25764484901E+03  0.20514727490E+04  0.24451506879E+04  0.90013908554E+03 0.  0.
         23    2    4    4    0    0 -0.96765831281E+02  0.23567336295E+03  0.16508759649E+03  0.31680612816E+03  0.90590552587E+02 0.  0.
         23    2    4    4    0    0 -0.84853317179E+03 -0.49331821197E+03  0.18863851525E+04  0.21283445597E+04  0.89611492323E+02 0.  0.
          4    1    3    3  502    0  0.47774785002E+03  0.90266120879E+02 -0.13219995711E+04  0.14085715625E+04  0.00000000000E+00 0. -1.
         -3    1    3    3    0  502  0.46755115305E+03  0.16737872813E+03 -0.13919229450E+04  0.14778596700E+04  0.00000000000E+00 0.  1.
         11    1    5    5    0    0 -0.10201489902E+03  0.19315372240E+03  0.16534896149E+03  0.27396291567E+03  0.00000000000E+00 0. -1.
        -11    1    5    5    0    0  0.52490677352E+01  0.42519640555E+02 -0.26136499890E+00  0.42843212492E+02  0.00000000000E+00 0.  1.
          2    1    6    6  503    0 -0.11892734613E+02 -0.11530467555E+02  0.62964030897E+02  0.65106512772E+02  0.00000000000E+00 0.  1.
         -2    1    6    6    0  503 -0.83664043718E+03 -0.48178774441E+03  0.18234211216E+04  0.20632380470E+04  0.00000000000E+00 0. -1.
<mgrwt>
<rscale>  0 0.52902671E+04</rscale>
<asrwt>0</asrwt>
<pdfrwt beam="1">  1        2 0.46107936E+00 0.52902671E+04</pdfrwt>
<pdfrwt beam="2">  1       -1 0.35916401E+00 0.52902671E+04</pdfrwt>
<totfact> 0.19097373E-02</totfact>
</mgrwt>
</event>
<event>
12    6  0.1403409E-007  0.3473772E+04  0.7818608E-02  0.8120034E-01
         -1   -1    0    0    0  501 -0.00000000000E+00  0.00000000000E+00  0.77280825564E+03  0.77280825564E+03  0.00000000000E+00 0.  1.
          2   -1    0    0  501    0  0.00000000000E+00 -0.00000000000E+00 -0.39036500572E+04  0.39036500572E+04  0.00000000000E+00 0. -1.
         24    2    1    2    0    0 -0.74991666810E+03  0.13637590602E+04 -0.86039147550E+03  0.17801316445E+04  0.79883649506E+02 0.  0.
        254    2    1    2    0    0  0.74991666810E+03 -0.13637590602E+04 -0.22704503260E+04  0.28963266683E+04  0.90086053468E+03 0.  0.
         23    2    4    4    0    0 -0.41898865721E+02 -0.49335619045E+03 -0.26402613997E+03  0.56846930117E+03  0.91058762197E+02 0.  0.
         23    2    4    4    0    0  0.79181553382E+03 -0.87040286974E+03 -0.20064241861E+04  0.23278573671E+04  0.92784222137E+02 0.  0.
          2    1    3    3  502    0 -0.25413434694E+03  0.43695418975E+03 -0.32018380956E+03  0.59835683513E+03  0.00000000000E+00 0. -1.
         -1    1    3    3    0  502 -0.49578232116E+03  0.92680487044E+03 -0.54020766594E+03  0.11817748094E+04  0.00000000000E+00 0.  1.
         11    1    5    5    0    0 -0.39314278567E+02 -0.35949664975E+03 -0.14603599205E+03  0.39001277499E+03  0.00000000000E+00 0. -1.
        -11    1    5    5    0    0 -0.25845871538E+01 -0.13385954070E+03 -0.11799014793E+03  0.17845652618E+03  0.00000000000E+00 0.  1.
          4    1    6    6  503    0  0.76509305171E+03 -0.86075941054E+03 -0.19654839990E+04  0.22780257880E+04  0.00000000000E+00 0. -1.
         -4    1    6    6    0  503  0.26722482107E+02 -0.96434591983E+01 -0.40940187061E+02  0.49831579062E+02  0.00000000000E+00 0.  1.
<mgrwt>
<rscale>  0 0.34737720E+04</rscale>
<asrwt>0</asrwt>
<pdfrwt beam="1">  1        2 0.60056155E+00 0.34737720E+04</pdfrwt>
<pdfrwt beam="2">  1       -1 0.11889358E+00 0.34737720E+04</pdfrwt>
<totfact> 0.24114015E-01</totfact>
</mgrwt>
</event>
<event>
12    6  0.1403409E-007  0.3851859E+04  0.7818608E-02  0.8035117E-01
          2   -1    0    0  501    0  0.00000000000E+00  0.00000000000E+00  0.16658090331E+04  0.16658090331E+04  0.00000000000E+00 0. -1.
         -1   -1    0    0    0  501 -0.00000000000E+00 -0.00000000000E+00 -0.22266679298E+04  0.22266679298E+04  0.00000000000E+00 0.  1.
         24    2    1    2    0    0 -0.18132384731E+04  0.15315318717E+03 -0.29813203141E+03  0.18457886348E+04  0.82239389443E+02 0.  0.
        254    2    1    2    0    0  0.18132384731E+04 -0.15315318717E+03 -0.26272686529E+03  0.20466883281E+04  0.89923192100E+03 0.  0.
         23    2    4    4    0    0  0.15284588610E+04  0.10742784573E+03  0.58674491062E+02  0.15361009256E+04  0.91848384624E+02 0.  0.
         23    2    4    4    0    0  0.28477961205E+03 -0.26058103290E+03 -0.32140135635E+03  0.51058740255E+03  0.91644757803E+02 0.  0.
          4    1    3    3  502    0 -0.80801281049E+03  0.10885824243E+03 -0.12747542430E+03  0.82521803341E+03  0.00000000000E+00 0. -1.
         -3    1    3    3    0  502 -0.10052256626E+04  0.44294944738E+02 -0.17065660711E+03  0.10205706014E+04  0.00000000000E+00 0.  1.
         11    1    5    5    0    0  0.60961864433E+03  0.17068888995E+02 -0.13547424108E+02  0.61000800912E+03  0.00000000000E+00 0.  1.
        -11    1    5    5    0    0  0.91884021671E+03  0.90358956738E+02  0.72221915170E+02  0.92609291647E+03  0.00000000000E+00 0. -1.
          2    1    6    6  503    0 -0.87062133823E+00  0.29195171495E+01 -0.16093889824E+02  0.16379708531E+02  0.00000000000E+00 0.  1.
         -2    1    6    6    0  503  0.28565023339E+03 -0.26350055005E+03 -0.30530746652E+03  0.49420769402E+03  0.00000000000E+00 0. -1.
<mgrwt>
<rscale>  0 0.38518585E+04</rscale>
<asrwt>0</asrwt>
<pdfrwt beam="1">  1        2 0.25627831E+00 0.38518585E+04</pdfrwt>
<pdfrwt beam="2">  1       -1 0.34256430E+00 0.38518585E+04</pdfrwt>
<totfact> 0.16201873E-01</totfact>
</mgrwt>
</event>
<event>
12    6  0.1403409E-007  0.3123835E+04  0.7818608E-02  0.8209227E-01
         -1   -1    0    0    0  501 -0.00000000000E+00  0.00000000000E+00  0.67415160257E+03  0.67415160257E+03  0.00000000000E+00 0.  1.
          2   -1    0    0  501    0  0.00000000000E+00 -0.00000000000E+00 -0.36187507285E+04  0.36187507285E+04  0.00000000000E+00 0. -1.
         24    2    1    2    0    0  0.15785670731E+03 -0.14219343141E+04 -0.13154427806E+04  0.19450942460E+04  0.78651021822E+02 0.  0.
        254    2    1    2    0    0 -0.15785670731E+03  0.14219343141E+04 -0.16291563453E+04  0.23478080851E+04  0.90068666750E+03 0.  0.
         23    2    4    4    0    0  0.24769301589E+03  0.17749235724E+03 -0.60612408925E+03  0.68431476627E+03  0.89693482289E+02 0.  0.
         23    2    4    4    0    0 -0.40554972320E+03  0.12444419569E+04 -0.10230322561E+04  0.16634933188E+04  0.86652539771E+02 0.  0.
          2    1    3    3  502    0  0.68986859483E+02 -0.60783129434E+03 -0.61553437160E+03  0.86781370800E+03  0.00000000000E+00 0. -1.
         -3    1    3    3    0  502  0.88869847830E+02 -0.81410301976E+03 -0.69990840900E+03  0.10772805380E+04  0.00000000000E+00 0.  1.
         11    1    5    5    0    0  0.47952539803E+02  0.46487493941E+02 -0.22335598089E+03  0.23312749165E+03  0.00000000000E+00 0. -1.
        -11    1    5    5    0    0  0.19974047608E+03  0.13100486330E+03 -0.38276810837E+03  0.45118727462E+03  0.00000000000E+00 0.  1.
          3    1    6    6  503    0 -0.13421293276E+03  0.52622538205E+03 -0.39379309865E+03  0.67081984808E+03  0.00000000000E+00 0. -1.
         -3    1    6    6    0  503 -0.27133679044E+03  0.71821657482E+03 -0.62923915744E+03  0.99267347071E+03  0.00000000000E+00 0.  1.
<mgrwt>
<rscale>  0 0.31238352E+04</rscale>
<asrwt>0</asrwt>
<pdfrwt beam="1">  1        2 0.55673087E+00 0.31238352E+04</pdfrwt>
<pdfrwt beam="2">  1       -1 0.10371563E+00 0.31238352E+04</pdfrwt>
<totfact> 0.56359989E-01</totfact>
</mgrwt>
</event>
<event>
12    6  0.1403409E-007  0.1685551E+04  0.7818608E-02  0.8769648E-01
         -1   -1    0    0    0  501 -0.00000000000E+00  0.00000000000E+00  0.12266701368E+04  0.12266701368E+04  0.00000000000E+00 0.  1.
          2   -1    0    0  501    0  0.00000000000E+00 -0.00000000000E+00 -0.57902317470E+03  0.57902317470E+03  0.00000000000E+00 0. -1.
         24    2    1    2    0    0 -0.13112061547E+03  0.26614615702E+03 -0.32493305514E+03  0.44713997140E+03  0.79537858900E+02 0.  0.
        254    2    1    2    0    0  0.13112061547E+03 -0.26614615702E+03  0.97258001729E+03  0.13585533402E+04  0.90095998541E+03 0.  0.
         23    2    4    4    0    0  0.19855337032E+03 -0.18456111854E+03  0.11196432079E+04  0.11555228910E+04  0.90255144496E+02 0.  0.
         23    2    4    4    0    0 -0.67432754850E+02 -0.81585038479E+02 -0.14706319064E+03  0.20303044920E+03  0.91599597875E+02 0.  0.
          4    1    3    3  502    0 -0.88361544837E+02  0.24265830895E+03 -0.26830755187E+03  0.37239731457E+03  0.00000000000E+00 0. -1.
         -3    1    3    3    0  502 -0.42759070633E+02  0.23487848065E+02 -0.56625503276E+02  0.74742656826E+02  0.00000000000E+00 0.  1.
         11    1    5    5    0    0  0.13588965992E+03 -0.11175613068E+03  0.53903789848E+03  0.56702494515E+03  0.00000000000E+00 0. -1.
        -11    1    5    5    0    0  0.62663710398E+02 -0.72804987860E+02  0.58060530945E+03  0.58849794581E+03  0.00000000000E+00 0.  1.
          3    1    6    6  503    0 -0.50988760550E+02 -0.17809253295E+01 -0.26434718461E+02  0.57461463065E+02  0.00000000000E+00 0. -1.
         -3    1    6    6    0  503 -0.16443994300E+02 -0.79804113150E+02 -0.12062847218E+03  0.14556898614E+03  0.00000000000E+00 0.  1.
<mgrwt>
<rscale>  0 0.16855509E+04</rscale>
<asrwt>0</asrwt>
<pdfrwt beam="1">  1        2 0.89080489E-01 0.16855509E+04</pdfrwt>
<pdfrwt beam="2">  1       -1 0.18871848E+00 0.16855509E+04</pdfrwt>
<totfact> 0.10164246E+01</totfact>
</mgrwt>
</event>
<event>
12    6  0.1403409E-007  0.2238079E+04  0.7818608E-02  0.8502744E-01
          2   -1    0    0  501    0  0.00000000000E+00  0.00000000000E+00  0.16730113287E+04  0.16730113287E+04  0.00000000000E+00 0. -1.
         -1   -1    0    0    0  501 -0.00000000000E+00 -0.00000000000E+00 -0.74850014934E+03  0.74850014934E+03  0.00000000000E+00 0.  1.
         24    2    1    2    0    0  0.62576159813E+03  0.50940686812E+03  0.88930407596E+03  0.12032003206E+04  0.75870527538E+02 0.  0.
        254    2    1    2    0    0 -0.62576159813E+03 -0.50940686812E+03  0.35207103422E+02  0.12183111575E+04  0.91212367655E+03 0.  0.
         23    2    4    4    0    0  0.43672020848E+02  0.20070383177E+03 -0.62432710842E+02  0.23331102113E+03  0.91361456346E+02 0.  0.
         23    2    4    4    0    0 -0.66943361898E+03 -0.71011069990E+03  0.97639814264E+02  0.98500013635E+03  0.91066782908E+02 0.  0.
          2    1    3    3  502    0  0.35014907793E+03  0.26950279768E+03  0.53957088991E+03  0.69740438770E+03  0.00000000000E+00 0. -1.
         -3    1    3    3    0  502  0.27561252019E+03  0.23990407044E+03  0.34973318604E+03  0.50579593288E+03  0.00000000000E+00 0.  1.
         11    1    5    5    0    0 -0.15685462477E+02  0.11870501335E+03 -0.12352460310E+02  0.12037232739E+03  0.00000000000E+00 0. -1.
        -11    1    5    5    0    0  0.59357483325E+02  0.81998818427E+02 -0.50080250532E+02  0.11293869374E+03  0.00000000000E+00 0.  1.
          1    1    6    6  503    0 -0.15111279535E+03 -0.20533992521E+03  0.53891798276E-01  0.25495012200E+03  0.00000000000E+00 0. -1.
         -1    1    6    6    0  503 -0.51832082363E+03 -0.50477077469E+03  0.97585922465E+02  0.73005001435E+03  0.00000000000E+00 0.  1.
<mgrwt>
<rscale>  0 0.22380788E+04</rscale>
<asrwt>0</asrwt>
<pdfrwt beam="1">  1        2 0.25738636E+00 0.22380788E+04</pdfrwt>
<pdfrwt beam="2">  1       -1 0.11515387E+00 0.22380788E+04</pdfrwt>
<totfact> 0.72077819E+00</totfact>
</mgrwt>
</event>
<event>
12    6  0.1403409E-007  0.2468973E+04  0.7818608E-02  0.8414123E-01
         -1   -1    0    0    0  501 -0.00000000000E+00  0.00000000000E+00  0.77450673272E+03  0.77450673272E+03  0.00000000000E+00 0.  1.
          2   -1    0    0  501    0  0.00000000000E+00 -0.00000000000E+00 -0.19676489404E+04  0.19676489404E+04  0.00000000000E+00 0. -1.
         24    2    1    2    0    0 -0.57164012538E+02 -0.61724539457E+03 -0.14851698531E+04  0.16113525907E+04  0.80424359021E+02 0.  0.
        254    2    1    2    0    0  0.57164012538E+02  0.61724539457E+03  0.29202764535E+03  0.11308030825E+04  0.89954203030E+03 0.  0.
         23    2    4    4    0    0 -0.16970251296E+03 -0.16907562409E+03  0.14401728963E+03  0.29377046823E+03  0.90413487500E+02 0.  0.
         23    2    4    4    0    0  0.22686652550E+03  0.78632101866E+03  0.14801035572E+03  0.83703261426E+03  0.94590523637E+02 0.  0.
          2    1    3    3  502    0  0.91116015453E+01 -0.94331314971E+02 -0.29056762385E+03  0.30563207014E+03  0.00000000000E+00 0. -1.
         -1    1    3    3    0  502 -0.66275614083E+02 -0.52291407960E+03 -0.11946022292E+04  0.13057205205E+04  0.00000000000E+00 0.  1.
         11    1    5    5    0    0 -0.55493510512E+02 -0.57493413912E+01  0.21278155886E+02  0.59710506222E+02  0.00000000000E+00 0. -1.
        -11    1    5    5    0    0 -0.11420900245E+03 -0.16332628270E+03  0.12273913375E+03  0.23405996201E+03  0.00000000000E+00 0.  1.
          2    1    6    6  503    0  0.14965584067E+03  0.34878059455E+03  0.70194036362E+02  0.38596888025E+03  0.00000000000E+00 0. -1.
         -2    1    6    6    0  503  0.77210684826E+02  0.43754042411E+03  0.77816319359E+02  0.45106373401E+03  0.00000000000E+00 0.  1.
<mgrwt>
<rscale>  0 0.24689734E+04</rscale>
<asrwt>0</asrwt>
<pdfrwt beam="1">  1        2 0.30271522E+00 0.24689734E+04</pdfrwt>
<pdfrwt beam="2">  1       -1 0.11915488E+00 0.24689734E+04</pdfrwt>
<totfact> 0.44632516E+00</totfact>
</mgrwt>
</event>
<event>
12    6  0.1403409E-007  0.3049600E+04  0.7818608E-02  0.8229707E-01
         -1   -1    0    0    0  501 -0.00000000000E+00  0.00000000000E+00  0.82462339710E+03  0.82462339710E+03  0.00000000000E+00 0.  1.
          2   -1    0    0  501    0  0.00000000000E+00 -0.00000000000E+00 -0.28194872235E+04  0.28194872235E+04  0.00000000000E+00 0. -1.
         24    2    1    2    0    0 -0.11282055056E+04 -0.81298141118E+03 -0.94440026997E+03  0.16828513902E+04  0.79438616919E+02 0.  0.
        254    2    1    2    0    0  0.11282055056E+04  0.81298141118E+03 -0.10504635564E+04  0.19612592304E+04  0.89959860357E+03 0.  0.
         23    2    4    4    0    0  0.98124733966E+03  0.98728133258E+03 -0.98340015420E+03  0.17068688746E+04  0.93566664194E+02 0.  0.
         23    2    4    4    0    0  0.14695816594E+03 -0.17429992140E+03 -0.67063402219E+02  0.25439035574E+03  0.90773278226E+02 0.  0.
          2    1    3    3  502    0 -0.41213247500E+03 -0.32348676985E+03 -0.39446252303E+03  0.65581822886E+03  0.00000000000E+00 0. -1.
         -1    1    3    3    0  502 -0.71607303060E+03 -0.48949464133E+03 -0.54993774693E+03  0.10270331614E+04  0.00000000000E+00 0.  1.
         11    1    5    5    0    0  0.49809883020E+03  0.56410163567E+03 -0.54813080611E+03  0.93099972106E+03  0.00000000000E+00 0. -1.
        -11    1    5    5    0    0  0.48314850946E+03  0.42317969691E+03 -0.43526934809E+03  0.77586915357E+03  0.00000000000E+00 0.  1.
          3    1    6    6  503    0  0.15781946253E+03 -0.15482829416E+03 -0.50947608015E+02  0.22687979678E+03  0.00000000000E+00 0. -1.
         -3    1    6    6    0  503 -0.10861296596E+02 -0.19471627239E+02 -0.16115794205E+02  0.27510558953E+02  0.00000000000E+00 0.  1.
<mgrwt>
<rscale>  0 0.30496001E+04</rscale>
<asrwt>0</asrwt>
<pdfrwt beam="1">  1        2 0.43376727E+00 0.30496001E+04</pdfrwt>
<pdfrwt beam="2">  1       -1 0.12686514E+00 0.30496001E+04</pdfrwt>
<totfact> 0.11749975E+00</totfact>
</mgrwt>
</event>
<event>
12    6  0.1403409E-007  0.1377756E+04  0.7818608E-02  0.8970079E-01
         -1   -1    0    0    0  501 -0.00000000000E+00  0.00000000000E+00  0.43263678232E+03  0.43263678232E+03  0.00000000000E+00 0.  1.
          2   -1    0    0  501    0  0.00000000000E+00 -0.00000000000E+00 -0.10968856058E+04  0.10968856058E+04  0.00000000000E+00 0. -1.
         24    2    1    2    0    0  0.10940716807E+03  0.27695264521E+03  0.85208992172E+02  0.31988488154E+03  0.79956669383E+02 0.  0.
        254    2    1    2    0    0 -0.10940716807E+03 -0.27695264521E+03 -0.74945781566E+03  0.12096375066E+04  0.90158925446E+03 0.  0.
         23    2    4    4    0    0  0.26123303635E+03 -0.33221541922E+03 -0.83324962303E+02  0.43982982230E+03  0.88867537337E+02 0.  0.
         23    2    4    4    0    0 -0.37064020442E+03  0.55262774012E+02 -0.66613285335E+03  0.76980768428E+03  0.91884477098E+02 0.  0.
          4    1    3    3  502    0  0.17394948313E+02  0.14876043960E+03  0.30296933011E+02  0.15280758086E+03  0.00000000000E+00 0. -1.
         -1    1    3    3    0  502  0.92012219755E+02  0.12819220561E+03  0.54912059161E+02  0.16707730068E+03  0.00000000000E+00 0.  1.
         11    1    5    5    0    0  0.16888697761E+02 -0.72131130862E+02 -0.35714807141E+01  0.74167942037E+02  0.00000000000E+00 0. -1.
        -11    1    5    5    0    0  0.24434433859E+03 -0.26008428836E+03 -0.79753481589E+02  0.36566188026E+03  0.00000000000E+00 0.  1.
          2    1    6    6  503    0 -0.62028820464E+02 -0.12580964783E+02 -0.17208111179E+03  0.18335147744E+03  0.00000000000E+00 0. -1.
         -2    1    6    6    0  503 -0.30861138395E+03  0.67843738795E+02 -0.49405174156E+03  0.58645620684E+03  0.00000000000E+00 0.  1.
<mgrwt>
<rscale>  0 0.13777562E+04</rscale>
<asrwt>0</asrwt>
<pdfrwt beam="1">  1        2 0.16875163E+00 0.13777562E+04</pdfrwt>
<pdfrwt beam="2">  1       -1 0.66559506E-01 0.13777562E+04</pdfrwt>
<totfact> 0.55652783E+01</totfact>
</mgrwt>
</event>
<event>
12    6  0.1403409E-007  0.2531511E+04  0.7818608E-02  0.8391845E-01
         -1   -1    0    0    0  501 -0.00000000000E+00  0.00000000000E+00  0.73637023442E+03  0.73637023442E+03  0.00000000000E+00 0.  1.
          2   -1    0    0  501    0  0.00000000000E+00 -0.00000000000E+00 -0.21757215311E+04  0.21757215311E+04  0.00000000000E+00 0. -1.
         24    2    1    2    0    0 -0.80568418627E+03 -0.51271191300E+03  0.84061391742E+01  0.95849634910E+03  0.81511191473E+02 0.  0.
        254    2    1    2    0    0  0.80568418627E+03  0.51271191300E+03 -0.14477574359E+04  0.19535954165E+04  0.89918459967E+03 0.  0.
         23    2    4    4    0    0  0.23439697081E+03 -0.10799056404E+03  0.13108812614E+01  0.27430084359E+03  0.92926489991E+02 0.  0.
         23    2    4    4    0    0  0.57128721546E+03  0.62070247704E+03 -0.14490683171E+04  0.16792945729E+04  0.92685635978E+02 0.  0.
          2    1    3    3  502    0 -0.21011167006E+03 -0.17520473083E+03  0.13715091437E+02  0.27391917664E+03  0.00000000000E+00 0. -1.
         -1    1    3    3    0  502 -0.59557251621E+03 -0.33750718218E+03 -0.53089522627E+01  0.68457717246E+03  0.00000000000E+00 0.  1.
         11    1    5    5    0    0  0.70403821400E+02  0.39593406621E+01  0.23908404654E+02  0.74457949604E+02  0.00000000000E+00 0. -1.
        -11    1    5    5    0    0  0.16399314941E+03 -0.11194990470E+03 -0.22597523392E+02  0.19984289399E+03  0.00000000000E+00 0.  1.
          1    1    6    6  503    0  0.25561918149E+03  0.31160141904E+03 -0.77115462539E+03  0.87012416732E+03  0.00000000000E+00 0. -1.
         -1    1    6    6    0  503  0.31566803397E+03  0.30910105800E+03 -0.67791369176E+03  0.80917040554E+03  0.00000000000E+00 0.  1.
<mgrwt>
<rscale>  0 0.25315107E+04</rscale>
<asrwt>0</asrwt>
<pdfrwt beam="1">  1        2 0.33472638E+00 0.25315107E+04</pdfrwt>
<pdfrwt beam="2">  1       -1 0.11328773E+00 0.25315107E+04</pdfrwt>
<totfact> 0.38364662E+00</totfact>
</mgrwt>
</event>
<event>
12    6  0.1403409E-007  0.1368265E+04  0.7818608E-02  0.8977115E-01
          2   -1    0    0  501    0  0.00000000000E+00  0.00000000000E+00  0.34645835633E+04  0.34645835633E+04  0.00000000000E+00 0. -1.
         -1   -1    0    0    0  501 -0.00000000000E+00 -0.00000000000E+00 -0.13509202404E+03  0.13509202404E+03  0.00000000000E+00 0.  1.
         24    2    1    2    0    0  0.52585016601E+02 -0.36004823774E+03  0.12675475639E+04  0.13212721347E+04  0.81751511952E+02 0.  0.
        254    2    1    2    0    0 -0.52585016601E+02  0.36004823774E+03  0.20619439754E+04  0.22784034527E+04  0.89839268587E+03 0.  0.
         23    2    4    4    0    0  0.26306888549E+03 -0.13013504355E+03  0.33470964771E+03  0.45354314562E+03  0.86778272637E+02 0.  0.
         23    2    4    4    0    0 -0.31565390209E+03  0.49018328129E+03  0.17272343277E+04  0.18248603070E+04  0.82823199387E+02 0.  0.
          2    1    3    3  502    0  0.12748079197E+02 -0.85467348210E+02  0.44138033180E+03  0.44975968965E+03  0.00000000000E+00 0. -1.
         -1    1    3    3    0  502  0.39836937405E+02 -0.27458088953E+03  0.82616723211E+03  0.87151244506E+03  0.00000000000E+00 0.  1.
         11    1    5    5    0    0  0.14573820489E+03 -0.53161741022E+02  0.11607653893E+03  0.19375127861E+03  0.00000000000E+00 0. -1.
        -11    1    5    5    0    0  0.11733068059E+03 -0.76973302527E+02  0.21863310878E+03  0.25979186701E+03  0.00000000000E+00 0.  1.
          3    1    6    6  503    0 -0.88200229065E+02  0.15456055354E+03  0.64773083306E+03  0.67173170032E+03  0.00000000000E+00 0. -1.
         -3    1    6    6    0  503 -0.22745367302E+03  0.33562272775E+03  0.10795034946E+04  0.11531286067E+04  0.00000000000E+00 0.  1.
<mgrwt>
<rscale>  0 0.13682655E+04</rscale>
<asrwt>0</asrwt>
<pdfrwt beam="1">  1        2 0.53301279E+00 0.13682655E+04</pdfrwt>
<pdfrwt beam="2">  1       -1 0.20783391E-01 0.13682655E+04</pdfrwt>
<totfact> 0.18659135E+01</totfact>
</mgrwt>
</event>
<event>
12    6  0.1403409E-007  0.2850869E+04  0.7818608E-02  0.8287647E-01
          2   -1    0    0  501    0  0.00000000000E+00  0.00000000000E+00  0.25195974622E+04  0.25195974622E+04  0.00000000000E+00 0. -1.
         -1   -1    0    0    0  501 -0.00000000000E+00 -0.00000000000E+00 -0.80642402494E+03  0.80642402494E+03  0.00000000000E+00 0.  1.
         24    2    1    2    0    0 -0.40812092164E+03 -0.12084526222E+04  0.60958231712E+03  0.14159027057E+04  0.79179820176E+02 0.  0.
        254    2    1    2    0    0  0.40812092164E+03  0.12084526222E+04  0.11035911202E+04  0.19101187814E+04  0.89650430664E+03 0.  0.
         23    2    4    4    0    0 -0.17484644089E+03  0.81356599846E+03  0.47727642110E+03  0.96372460151E+03  0.92257323207E+02 0.  0.
         23    2    4    4    0    0  0.58296736253E+03  0.39488662377E+03  0.62631469908E+03  0.94639417993E+03  0.87209231814E+02 0.  0.
          2    1    3    3  502    0 -0.13205520588E+03 -0.38482035360E+03  0.23569928550E+03  0.47019084969E+03  0.00000000000E+00 0. -1.
         -1    1    3    3    0  502 -0.27606571577E+03 -0.82363226862E+03  0.37388303162E+03  0.94571185605E+03  0.00000000000E+00 0.  1.
         11    1    5    5    0    0 -0.16886073671E+03  0.81385922969E+03  0.47476729128E+03  0.95722765057E+03  0.00000000000E+00 0.  1.
        -11    1    5    5    0    0 -0.59857041751E+01 -0.29323123286E+00  0.25091298136E+01  0.64969509348E+01  0.00000000000E+00 0. -1.
          1    1    6    6  503    0  0.73397119699E+02  0.68620666378E+02  0.12674087066E+03  0.16173800212E+03  0.00000000000E+00 0. -1.
         -1    1    6    6    0  503  0.50957024283E+03  0.32626595739E+03  0.49957382842E+03  0.78465617781E+03  0.00000000000E+00 0.  1.
<mgrwt>
<rscale>  0 0.28508693E+04</rscale>
<asrwt>0</asrwt>
<pdfrwt beam="1">  1        2 0.38763037E+00 0.28508693E+04</pdfrwt>
<pdfrwt beam="2">  1       -1 0.12406524E+00 0.28508693E+04</pdfrwt>
<totfact> 0.19041551E+00</totfact>
</mgrwt>
</event>
<event>
12    6  0.1403409E-007  0.1309613E+04  0.7818608E-02  0.9021976E-01
         -1   -1    0    0    0  501 -0.00000000000E+00  0.00000000000E+00  0.12961195548E+04  0.12961195548E+04  0.00000000000E+00 0.  1.
          2   -1    0    0  501    0  0.00000000000E+00 -0.00000000000E+00 -0.33081175735E+03  0.33081175735E+03  0.00000000000E+00 0. -1.
         24    2    1    2    0    0  0.69733671565E+01 -0.76022643294E+01  0.67601003554E+03  0.68078699402E+03  0.79843226451E+02 0.  0.
        254    2    1    2    0    0 -0.69733671565E+01  0.76022643294E+01  0.28929776187E+03  0.94614431809E+03  0.90077158778E+03 0.  0.
         23    2    4    4    0    0  0.40495829144E+03 -0.84786517884E+02 -0.62622855007E+01  0.42308550974E+03  0.88216556902E+02 0.  0.
         23    2    4    4    0    0 -0.41193165859E+03  0.92388782213E+02  0.29556004737E+03  0.52305880835E+03  0.89506407380E+02 0.  0.
          4    1    3    3  502    0  0.35164968589E+02 -0.14350085286E+02  0.55715577604E+03  0.55844879688E+03  0.00000000000E+00 0. -1.
         -3    1    3    3    0  502 -0.28191601432E+02  0.67478209562E+01  0.11885425950E+03  0.12233819714E+03  0.00000000000E+00 0.  1.
         11    1    5    5    0    0  0.23646934289E+02 -0.70278692203E+01  0.21792845956E+02  0.32916509260E+02  0.00000000000E+00 0. -1.
        -11    1    5    5    0    0  0.38131135715E+03 -0.77758648663E+02 -0.28055131456E+02  0.39016900048E+03  0.00000000000E+00 0.  1.
          1    1    6    6  503    0 -0.20905258833E+03  0.91235320623E+02  0.14295317695E+03  0.26918855699E+03  0.00000000000E+00 0. -1.
         -1    1    6    6    0  503 -0.20287907026E+03  0.11534615906E+01  0.15260687042E+03  0.25387025136E+03  0.00000000000E+00 0.  1.
<mgrwt>
<rscale>  0 0.13096131E+04</rscale>
<asrwt>0</asrwt>
<pdfrwt beam="1">  1        2 0.50894117E-01 0.13096131E+04</pdfrwt>
<pdfrwt beam="2">  1       -1 0.19940301E+00 0.13096131E+04</pdfrwt>
<totfact> 0.16776729E+01</totfact>
</mgrwt>
</event>
<event>
12    6  0.1403409E-007  0.1632063E+04  0.7818608E-02  0.8801089E-01
          2   -1    0    0  501    0  0.00000000000E+00  0.00000000000E+00  0.16772481408E+04  0.16772481408E+04  0.00000000000E+00 0. -1.
         -1   -1    0    0    0  501 -0.00000000000E+00 -0.00000000000E+00 -0.39702370716E+03  0.39702370716E+03  0.00000000000E+00 0.  1.
         24    2    1    2    0    0 -0.39651795686E+03 -0.27446768598E+03  0.81706342774E+03  0.95217708373E+03  0.80557762339E+02 0.  0.
        254    2    1    2    0    0  0.39651795686E+03  0.27446768598E+03  0.46316100586E+03  0.11220947642E+04  0.90112126915E+03 0.  0.
         23    2    4    4    0    0 -0.10349551372E+03  0.70103909481E+02 -0.20578008023E+03  0.25746339960E+03  0.91192550288E+02 0.  0.
         23    2    4    4    0    0  0.50001347058E+03  0.20436377650E+03  0.66894108610E+03  0.86463136459E+03  0.91253471534E+02 0.  0.
          4    1    3    3  502    0 -0.35585904518E+03 -0.21152396563E+03  0.69440590278E+03  0.80844146720E+03  0.00000000000E+00 0. -1.
         -3    1    3    3    0  502 -0.40658911679E+02 -0.62943720347E+02  0.12265752496E+03  0.14373561653E+03  0.00000000000E+00 0.  1.
         11    1    5    5    0    0 -0.22805335896E+02  0.23942295790E+02 -0.13931626251E+03  0.14318637460E+03  0.00000000000E+00 0. -1.
        -11    1    5    5    0    0 -0.80690177822E+02  0.46161613691E+02 -0.66463817730E+02  0.11427702500E+03  0.00000000000E+00 0.  1.
          3    1    6    6  503    0  0.17566838661E+03  0.11980154804E+03  0.25897731212E+03  0.33508363308E+03  0.00000000000E+00 0. -1.
         -3    1    6    6    0  503  0.32434508397E+03  0.84562228460E+02  0.40996377398E+03  0.52954773151E+03  0.00000000000E+00 0.  1.
<mgrwt>
<rscale>  0 0.16320628E+04</rscale>
<asrwt>0</asrwt>
<pdfrwt beam="1">  1        2 0.25803817E+00 0.16320628E+04</pdfrwt>
<pdfrwt beam="2">  1       -1 0.61080571E-01 0.16320628E+04</pdfrwt>
<totfact> 0.29911137E+01</totfact>
</mgrwt>
</event>
<event>
12    6  0.1403409E-007  0.4108836E+04  0.7818608E-02  0.7982944E-01
         -1   -1    0    0    0  501 -0.00000000000E+00  0.00000000000E+00  0.20814917919E+04  0.20814917919E+04  0.00000000000E+00 0.  1.
          2   -1    0    0  501    0  0.00000000000E+00 -0.00000000000E+00 -0.20276959578E+04  0.20276959578E+04  0.00000000000E+00 0. -1.
         24    2    1    2    0    0  0.10900751970E+04  0.69965704227E+03  0.14894053453E+04  0.19755056454E+04  0.80686805446E+02 0.  0.
        254    2    1    2    0    0 -0.10900751970E+04 -0.69965704227E+03 -0.14356095112E+04  0.21336821042E+04  0.90213122190E+03 0.  0.
         23    2    4    4    0    0 -0.10780850688E+04 -0.60389950631E+03 -0.15312390443E+04  0.19698313684E+04  0.92631419036E+02 0.  0.
         23    2    4    4    0    0 -0.11990128148E+02 -0.95757535967E+02  0.95629533187E+02  0.16385073580E+03  0.91590322289E+02 0.  0.
          2    1    3    3  502    0  0.30903827489E+03  0.18531126165E+03  0.36296716886E+03  0.51145878105E+03  0.00000000000E+00 0. -1.
         -1    1    3    3    0  502  0.78103692208E+03  0.51434578062E+03  0.11264381764E+04  0.14640468643E+04  0.00000000000E+00 0.  1.
         11    1    5    5    0    0 -0.34430515852E+03 -0.14539113536E+03 -0.47709069096E+03  0.60605292824E+03  0.00000000000E+00 0.  1.
        -11    1    5    5    0    0 -0.73377991030E+03 -0.45850837095E+03 -0.10541483534E+04  0.13637784402E+04  0.00000000000E+00 0. -1.
          2    1    6    6  503    0  0.35039278326E+02 -0.23305690561E+02  0.52560698201E+02  0.67331517386E+02  0.00000000000E+00 0. -1.
         -2    1    6    6    0  503 -0.47029406474E+02 -0.72451845407E+02  0.43068834986E+02  0.96519218413E+02  0.00000000000E+00 0.  1.
<mgrwt>
<rscale>  0 0.41088356E+04</rscale>
<asrwt>0</asrwt>
<pdfrwt beam="1">  1        2 0.31195323E+00 0.41088356E+04</pdfrwt>
<pdfrwt beam="2">  1       -1 0.32022951E+00 0.41088356E+04</pdfrwt>
<totfact> 0.13992172E-01</totfact>
</mgrwt>
</event>
<event>
12    6  0.1403409E-007  0.2026134E+04  0.7818608E-02  0.8594499E-01
          2   -1    0    0  501    0  0.00000000000E+00  0.00000000000E+00  0.17639979141E+04  0.17639979141E+04  0.00000000000E+00 0. -1.
         -1   -1    0    0    0  501 -0.00000000000E+00 -0.00000000000E+00 -0.58180591716E+03  0.58180591716E+03  0.00000000000E+00 0.  1.
         24    2    1    2    0    0 -0.60082839575E+03 -0.16115239473E+03  0.10794454952E+04  0.12484880666E+04  0.80963075909E+02 0.  0.
        254    2    1    2    0    0  0.60082839575E+03  0.16115239473E+03  0.10274650167E+03  0.10973157647E+04  0.89809809505E+03 0.  0.
         23    2    4    4    0    0 -0.94773662581E+02  0.34323614134E+03  0.21025627598E+02  0.36797039284E+03  0.90371661207E+02 0.  0.
         23    2    4    4    0    0  0.69560205833E+03 -0.18208374661E+03  0.81720874075E+02  0.72934537184E+03  0.90827615988E+02 0.  0.
          2    1    3    3  502    0 -0.49013788804E+03 -0.15676327379E+03  0.92359992045E+03  0.10572826899E+04  0.00000000000E+00 0. -1.
         -1    1    3    3    0  502 -0.11069050771E+03 -0.43891209414E+01  0.15584557480E+03  0.19120537666E+03  0.00000000000E+00 0.  1.
         11    1    5    5    0    0 -0.51411882651E+02  0.52759063929E+02  0.32849698970E+01  0.73739348598E+02  0.00000000000E+00 0. -1.
        -11    1    5    5    0    0 -0.43361779930E+02  0.29047707741E+03  0.17740657701E+02  0.29423104424E+03  0.00000000000E+00 0.  1.
          3    1    6    6  503    0  0.93757598039E+02 -0.18953085083E+01 -0.10541731322E+02  0.94367406893E+02  0.00000000000E+00 0. -1.
         -3    1    6    6    0  503  0.60184446029E+03 -0.18018843810E+03  0.92262605397E+02  0.63497796495E+03  0.00000000000E+00 0.  1.
<mgrwt>
<rscale>  0 0.20261337E+04</rscale>
<asrwt>0</asrwt>
<pdfrwt beam="1">  1        2 0.27138429E+00 0.20261337E+04</pdfrwt>
<pdfrwt beam="2">  1       -1 0.89508603E-01 0.20261337E+04</pdfrwt>
<totfact> 0.11662795E+01</totfact>
</mgrwt>
</event>
<event>
12    6  0.1403409E-007  0.1455692E+04  0.7818608E-02  0.8914464E-01
          2   -1    0    0  501    0  0.00000000000E+00  0.00000000000E+00  0.18260814978E+04  0.18260814978E+04  0.00000000000E+00 0. -1.
         -1   -1    0    0    0  501 -0.00000000000E+00 -0.00000000000E+00 -0.29010758730E+03  0.29010758730E+03  0.00000000000E+00 0.  1.
         24    2    1    2    0    0  0.28276990632E+01 -0.41137994015E+03  0.23218731385E+03  0.47890515325E+03  0.78725764905E+02 0.  0.
        254    2    1    2    0    0 -0.28276990632E+01  0.41137994015E+03  0.13037865967E+04  0.16372839319E+04  0.90088719210E+03 0.  0.
         23    2    4    4    0    0  0.41769484337E+03  0.26750403349E+03  0.89186878412E+03  0.10245791380E+04  0.91132276756E+02 0.  0.
         23    2    4    4    0    0 -0.42052254243E+03  0.14387590666E+03  0.41191781256E+03  0.61270479386E+03  0.90506325258E+02 0.  0.
          2    1    3    3  502    0  0.36603822916E+02 -0.12078216704E+03  0.65350020700E+02  0.14212247160E+03  0.00000000000E+00 0. -1.
         -1    1    3    3    0  502 -0.33776123853E+02 -0.29059777311E+03  0.16683729315E+03  0.33678268165E+03  0.00000000000E+00 0.  1.
         11    1    5    5    0    0  0.20609497269E+03  0.11172192381E+03  0.50691326628E+03  0.55849618223E+03  0.00000000000E+00 0.  1.
        -11    1    5    5    0    0  0.21159987067E+03  0.15578210968E+03  0.38495551784E+03  0.46608295579E+03  0.00000000000E+00 0. -1.
          2    1    6    6  503    0 -0.13251380860E+03  0.20377513855E+01  0.12173883029E+03  0.17995667451E+03  0.00000000000E+00 0. -1.
         -2    1    6    6    0  503 -0.28800873383E+03  0.14183815527E+03  0.29017898227E+03  0.43274811935E+03  0.00000000000E+00 0.  1.
<mgrwt>
<rscale>  0 0.14556924E+04</rscale>
<asrwt>0</asrwt>
<pdfrwt beam="1">  1        2 0.28093561E+00 0.14556924E+04</pdfrwt>
<pdfrwt beam="2">  1       -1 0.44631938E-01 0.14556924E+04</pdfrwt>
<totfact> 0.45838300E+01</totfact>
</mgrwt>
</event>
<event>
12    6  0.1403409E-007  0.2548838E+04  0.7818608E-02  0.8385791E-01
          2   -1    0    0  501    0  0.00000000000E+00  0.00000000000E+00  0.30509666133E+04  0.30509666133E+04  0.00000000000E+00 0. -1.
         -1   -1    0    0    0  501 -0.00000000000E+00 -0.00000000000E+00 -0.53233734637E+03  0.53233734637E+03  0.00000000000E+00 0.  1.
         24    2    1    2    0    0 -0.15223174466E+03  0.90210210462E+03  0.20995653013E+03  0.94205975220E+03  0.80200504582E+02 0.  0.
        254    2    1    2    0    0  0.15223174466E+03 -0.90210210462E+03  0.23086727368E+04  0.26412442074E+04  0.89957681529E+03 0.  0.
         23    2    4    4    0    0  0.24760088591E+03 -0.60293810394E+03  0.21974800531E+04  0.22938774632E+04  0.90081499385E+02 0.  0.
         23    2    4    4    0    0 -0.95369141245E+02 -0.29916400068E+03  0.11119268363E+03  0.34736674420E+03  0.98516342209E+02 0.  0.
          2    1    3    3  502    0 -0.37371840361E+02  0.80252968189E+02  0.20599286017E+02  0.90892925684E+02  0.00000000000E+00 0. -1.
         -1    1    3    3    0  502 -0.11485990430E+03  0.82184913643E+03  0.18935724411E+03  0.85116682652E+03  0.00000000000E+00 0.  1.
         11    1    5    5    0    0  0.22376348864E+03 -0.48515266591E+03  0.18789575255E+04  0.19534391699E+04  0.00000000000E+00 0. -1.
        -11    1    5    5    0    0  0.23837397267E+02 -0.11778543803E+03  0.31852252767E+03  0.34043829332E+03  0.00000000000E+00 0.  1.
          2    1    6    6  503    0 -0.70214205825E+02 -0.19014235349E+03  0.21234414091E+02  0.20380149566E+03  0.00000000000E+00 0. -1.
         -2    1    6    6    0  503 -0.25154935420E+02 -0.10902164718E+03  0.89958269538E+02  0.14356524854E+03  0.00000000000E+00 0.  1.
<mgrwt>
<rscale>  0 0.25488378E+04</rscale>
<asrwt>0</asrwt>
<pdfrwt beam="1">  1        2 0.46937947E+00 0.25488378E+04</pdfrwt>
<pdfrwt beam="2">  1       -1 0.81898056E-01 0.25488378E+04</pdfrwt>
<totfact> 0.24233501E+00</totfact>
</mgrwt>
</event>
<event>
12    6  0.1403409E-007  0.2342076E+04  0.7818608E-02  0.8461513E-01
         -3   -1    0    0    0  501 -0.00000000000E+00  0.00000000000E+00  0.10230032447E+04  0.10230032447E+04  0.00000000000E+00 0.  1.
          2   -1    0    0  501    0  0.00000000000E+00 -0.00000000000E+00 -0.13404947369E+04  0.13404947369E+04  0.00000000000E+00 0. -1.
         24    2    1    2    0    0 -0.37817823767E+03 -0.34756853918E+03 -0.99750788958E+03  0.11244779873E+04  0.74873795802E+02 0.  0.
        254    2    1    2    0    0  0.37817823767E+03  0.34756853918E+03  0.68001639738E+03  0.12390199943E+04  0.89940290003E+03 0.  0.
         23    2    4    4    0    0 -0.17819276106E+03  0.32568371453E+03  0.53290468369E+03  0.65589494199E+03  0.91587286431E+02 0.  0.
         23    2    4    4    0    0  0.55637099873E+03  0.21884824647E+02  0.14711171369E+03  0.58312505226E+03  0.91462213438E+02 0.  0.
          2    1    3    3  502    0 -0.23335668925E+03 -0.18805620571E+03 -0.64713106755E+03  0.71316134185E+03  0.00000000000E+00 0. -1.
         -1    1    3    3    0  502 -0.14482154842E+03 -0.15951233347E+03 -0.35037682203E+03  0.41131664546E+03  0.00000000000E+00 0.  1.
         11    1    5    5    0    0 -0.47346000082E+02  0.50456848906E+02  0.51965920233E+02  0.86533197046E+02  0.00000000000E+00 0.  1.
        -11    1    5    5    0    0 -0.13084676098E+03  0.27522686562E+03  0.48093876345E+03  0.56936174495E+03  0.00000000000E+00 0. -1.
          1    1    6    6  503    0  0.37528125170E+03 -0.28296420994E+02  0.97263832267E+02  0.38871192210E+03  0.00000000000E+00 0. -1.
         -1    1    6    6    0  503  0.18108974703E+03  0.50181245641E+02  0.49847881425E+02  0.19441313016E+03  0.00000000000E+00 0.  1.
<mgrwt>
<rscale>  0 0.23420764E+04</rscale>
<asrwt>0</asrwt>
<pdfrwt beam="1">  1        2 0.20622996E+00 0.23420764E+04</pdfrwt>
<pdfrwt beam="2">  1       -3 0.15738512E+00 0.23420764E+04</pdfrwt>
<totfact> 0.25458860E+00</totfact>
</mgrwt>
</event>
<event>
12    6  0.1403409E-007  0.1337053E+04  0.7818608E-02  0.9000687E-01
         -1   -1    0    0    0  501 -0.00000000000E+00  0.00000000000E+00  0.38422924871E+03  0.38422924871E+03  0.00000000000E+00 0.  1.
          2   -1    0    0  501    0  0.00000000000E+00 -0.00000000000E+00 -0.11631801983E+04  0.11631801983E+04  0.00000000000E+00 0. -1.
         24    2    1    2    0    0  0.22624305317E+03  0.22332765876E+03 -0.40726408241E+03  0.52344607879E+03  0.84086873555E+02 0.  0.
        254    2    1    2    0    0 -0.22624305317E+03 -0.22332765876E+03 -0.37168686719E+03  0.10239633682E+04  0.89960474096E+03 0.  0.
         23    2    4    4    0    0  0.55959143823E+02  0.21277932309E+03  0.15160309540E+03  0.28071815422E+03  0.86097139680E+02 0.  0.
         23    2    4    4    0    0 -0.28220219699E+03 -0.43610698185E+03 -0.52328996259E+03  0.74324521401E+03  0.93561122238E+02 0.  0.
          4    1    3    3  502    0  0.54593446227E+02  0.10023416484E+03 -0.18038978229E+03  0.21346616999E+03  0.00000000000E+00 0. -1.
         -3    1    3    3    0  502  0.17164960694E+03  0.12309349391E+03 -0.22687430012E+03  0.30997990880E+03  0.00000000000E+00 0.  1.
         11    1    5    5    0    0  0.57816554936E+02  0.20191459168E+03  0.10883589019E+03  0.23655339218E+03  0.00000000000E+00 0.  1.
        -11    1    5    5    0    0 -0.18574111123E+01  0.10864731411E+02  0.42767205208E+02  0.44164762039E+02  0.00000000000E+00 0. -1.
          4    1    6    6  503    0 -0.16481648681E+03 -0.32585577413E+03 -0.33587242094E+03  0.49614185774E+03  0.00000000000E+00 0.  1.
         -4    1    6    6    0  503 -0.11738571019E+03 -0.11025120772E+03 -0.18741754165E+03  0.24710335626E+03  0.00000000000E+00 0. -1.
<mgrwt>
<rscale>  0 0.13370533E+04</rscale>
<asrwt>0</asrwt>
<pdfrwt beam="1">  1        2 0.17895080E+00 0.13370533E+04</pdfrwt>
<pdfrwt beam="2">  1       -1 0.59112194E-01 0.13370533E+04</pdfrwt>
<totfact> 0.64456060E+01</totfact>
</mgrwt>
</event>
<event>
12    6  0.1403409E-007  0.2253642E+04  0.7818608E-02  0.8496427E-01
         -1   -1    0    0    0  501 -0.00000000000E+00  0.00000000000E+00  0.75214168638E+03  0.75214168638E+03  0.00000000000E+00 0.  1.
          2   -1    0    0  501    0  0.00000000000E+00 -0.00000000000E+00 -0.16881461743E+04  0.16881461743E+04  0.00000000000E+00 0. -1.
         24    2    1    2    0    0  0.93680955204E+03 -0.73641273740E+02 -0.49860088175E+03  0.10666906720E+04  0.78682758784E+02 0.  0.
        254    2    1    2    0    0 -0.93680955204E+03  0.73641273740E+02 -0.43740360617E+03  0.13735971886E+04  0.90133908600E+03 0.  0.
         23    2    4    4    0    0 -0.24701491076E+03  0.26117474946E+03  0.19130563794E+03  0.41719452315E+03  0.90690722519E+02 0.  0.
         23    2    4    4    0    0 -0.68979464129E+03 -0.18753347572E+03 -0.62870924411E+03  0.95640266548E+03  0.91898276627E+02 0.  0.
          2    1    3    3  502    0  0.60542539482E+02 -0.23804512348E+02 -0.40757644744E+02  0.76767437759E+02  0.00000000000E+00 0. -1.
         -3    1    3    3    0  502  0.87626701256E+03 -0.49836761391E+02 -0.45784323701E+03  0.98992323428E+03  0.00000000000E+00 0.  1.
         11    1    5    5    0    0 -0.14557756919E+03  0.88255289213E+02  0.90519621970E+02  0.19280982000E+03  0.00000000000E+00 0.  1.
        -11    1    5    5    0    0 -0.10143734156E+03  0.17291946024E+03  0.10078601597E+03  0.22438470316E+03  0.00000000000E+00 0. -1.
          1    1    6    6  503    0 -0.62644564614E+03 -0.19020949770E+03 -0.59462514609E+03  0.88441668062E+03  0.00000000000E+00 0. -1.
         -1    1    6    6    0  503 -0.63348995142E+02  0.26760219813E+01 -0.34084098019E+02  0.71985984865E+02  0.00000000000E+00 0.  1.
<mgrwt>
<rscale>  0 0.22536416E+04</rscale>
<asrwt>0</asrwt>
<pdfrwt beam="1">  1        2 0.25971479E+00 0.22536416E+04</pdfrwt>
<pdfrwt beam="2">  1       -1 0.11571411E+00 0.22536416E+04</pdfrwt>
<totfact> 0.69779759E+00</totfact>
</mgrwt>
</event>
<event>
12    6  0.1403409E-007  0.1078678E+04  0.7818608E-02  0.9226226E-01
          2   -1    0    0  501    0  0.00000000000E+00  0.00000000000E+00  0.34099627425E+03  0.34099627425E+03  0.00000000000E+00 0. -1.
         -1   -1    0    0    0  501 -0.00000000000E+00 -0.00000000000E+00 -0.85304962404E+03  0.85304962404E+03  0.00000000000E+00 0.  1.
         24    2    1    2    0    0 -0.19251361783E+02 -0.15528895810E+03 -0.11196590748E+03  0.20997339927E+03  0.84066571988E+02 0.  0.
        254    2    1    2    0    0  0.19251361783E+02  0.15528895810E+03 -0.40008744231E+03  0.98407249902E+03  0.88534933580E+03 0.  0.
         23    2    4    4    0    0  0.22368500678E+03  0.26290482878E+03  0.14470912662E+03  0.38500686466E+03  0.90197689822E+02 0.  0.
         23    2    4    4    0    0 -0.20443364500E+03 -0.10761587068E+03 -0.54479656893E+03  0.59906563437E+03  0.93284735773E+02 0.  0.
          2    1    3    3  502    0  0.30139256384E+02 -0.66785747426E+02 -0.28290176029E+02  0.78543267658E+02  0.00000000000E+00 0. -1.
         -1    1    3    3    0  502 -0.49390618167E+02 -0.88503210677E+02 -0.83675731448E+02  0.13143013162E+03  0.00000000000E+00 0.  1.
         11    1    5    5    0    0  0.21853069080E+03  0.27028983612E+03  0.13899938608E+03  0.37434354230E+03  0.00000000000E+00 0.  1.
        -11    1    5    5    0    0  0.51543159819E+01 -0.73850073388E+01  0.57097405347E+01  0.10663322353E+02  0.00000000000E+00 0. -1.
          1    1    6    6  503    0 -0.11196974528E+03 -0.41221121459E+02 -0.38359968930E+03  0.40172767685E+03  0.00000000000E+00 0. -1.
         -1    1    6    6    0  503 -0.92463899718E+02 -0.66394749222E+02 -0.16119687963E+03  0.19733795752E+03  0.00000000000E+00 0.  1.
<mgrwt>
<rscale>  0 0.10786783E+04</rscale>
<asrwt>0</asrwt>
<pdfrwt beam="1">  1        2 0.52460966E-01 0.10786783E+04</pdfrwt>
<pdfrwt beam="2">  1       -1 0.13123840E+00 0.10786783E+04</pdfrwt>
<totfact> 0.53653316E+01</totfact>
</mgrwt>
</event>
<event>
12    6  0.1403409E-007  0.2274474E+04  0.7818608E-02  0.8488054E-01
          2   -1    0    0  501    0  0.00000000000E+00  0.00000000000E+00  0.71885628744E+03  0.71885628744E+03  0.00000000000E+00 0. -1.
         -1   -1    0    0    0  501 -0.00000000000E+00 -0.00000000000E+00 -0.17991188825E+04  0.17991188825E+04  0.00000000000E+00 0.  1.
         24    2    1    2    0    0 -0.80224242115E+03  0.50419723760E+03 -0.29507527463E+03  0.99515674732E+03  0.73890306144E+02 0.  0.
        254    2    1    2    0    0  0.80224242115E+03 -0.50419723760E+03 -0.78518732047E+03  0.15228184227E+04  0.89702233166E+03 0.  0.
         23    2    4    4    0    0  0.39174205615E+03  0.21853857997E+03 -0.18535045861E+03  0.49382183642E+03  0.91017932971E+02 0.  0.
         23    2    4    4    0    0  0.41050036499E+03 -0.72273581757E+03 -0.59983686186E+03  0.10289965862E+04  0.90399679178E+02 0.  0.
          4    1    3    3  502    0 -0.52196419888E+03  0.29618079713E+03 -0.21083213904E+03  0.63609738276E+03  0.00000000000E+00 0. -1.
         -3    1    3    3    0  502 -0.28027822227E+03  0.20801644047E+03 -0.84243135586E+02  0.35905936455E+03  0.00000000000E+00 0.  1.
         11    1    5    5    0    0  0.25866385604E+02  0.30323859021E+01  0.80030910151E+01  0.27245453461E+02  0.00000000000E+00 0.  1.
        -11    1    5    5    0    0  0.36587567055E+03  0.21550619407E+03 -0.19335354962E+03  0.46657638296E+03  0.00000000000E+00 0. -1.
          2    1    6    6  503    0  0.35536671781E+03 -0.65306324265E+03 -0.56394562388E+03  0.93317295810E+03  0.00000000000E+00 0. -1.
         -2    1    6    6    0  503  0.55133647185E+02 -0.69672574924E+02 -0.35891237985E+02  0.95823628154E+02  0.00000000000E+00 0.  1.
<mgrwt>
<rscale>  0 0.22744739E+04</rscale>
<asrwt>0</asrwt>
<pdfrwt beam="1">  1        2 0.11059328E+00 0.22744739E+04</pdfrwt>
<pdfrwt beam="2">  1       -1 0.27678752E+00 0.22744739E+04</pdfrwt>
<totfact> 0.19173422E+00</totfact>
</mgrwt>
</event>
<event>
12    6  0.1403409E-007  0.1877473E+04  0.7818608E-02  0.8666151E-01
         -1   -1    0    0    0  501 -0.00000000000E+00  0.00000000000E+00  0.42669610274E+03  0.42669610274E+03  0.00000000000E+00 0.  1.
          2   -1    0    0  501    0  0.00000000000E+00 -0.00000000000E+00 -0.20652318468E+04  0.20652318468E+04  0.00000000000E+00 0. -1.
         24    2    1    2    0    0 -0.43836000133E+02  0.71071992188E+03 -0.77786292004E+03  0.10575615113E+04  0.79506135645E+02 0.  0.
        254    2    1    2    0    0  0.43836000133E+02 -0.71071992188E+03 -0.86067282400E+03  0.14343664382E+04  0.89978051031E+03 0.  0.
         23    2    4    4    0    0 -0.35346280580E+03 -0.18154279958E+03 -0.58200226603E+03  0.71062341334E+03  0.91461766654E+02 0.  0.
         23    2    4    4    0    0  0.39729880594E+03 -0.52917712230E+03 -0.27867055797E+03  0.72374302484E+03  0.90950086058E+02 0.  0.
          4    1    3    3  502    0 -0.72758421228E+01  0.36953224434E+03 -0.34922401887E+03  0.50849231346E+03  0.00000000000E+00 0. -1.
         -1    1    3    3    0  502 -0.36560158010E+02  0.34118767754E+03 -0.42863890116E+03  0.54906919787E+03  0.00000000000E+00 0.  1.
         11    1    5    5    0    0 -0.10798054750E+03 -0.24311713597E+02 -0.21604589194E+03  0.24274819357E+03  0.00000000000E+00 0. -1.
        -11    1    5    5    0    0 -0.24548225830E+03 -0.15723108598E+03 -0.36595637409E+03  0.46787521977E+03  0.00000000000E+00 0.  1.
          4    1    6    6  503    0  0.50159965060E+02 -0.64420741362E+02 -0.35612037713E+01  0.81723535073E+02  0.00000000000E+00 0. -1.
         -4    1    6    6    0  503  0.34713884088E+03 -0.46475638094E+03 -0.27510935419E+03  0.64201948976E+03  0.00000000000E+00 0.  1.
<mgrwt>
<rscale>  0 0.18774732E+04</rscale>
<asrwt>0</asrwt>
<pdfrwt beam="1">  1        2 0.31772798E+00 0.18774732E+04</pdfrwt>
<pdfrwt beam="2">  1       -1 0.65645553E-01 0.18774732E+04</pdfrwt>
<totfact> 0.15442053E+01</totfact>
</mgrwt>
</event>
<event>
12    6  0.1403409E-007  0.1972992E+04  0.7818608E-02  0.8619353E-01
          2   -1    0    0  501    0  0.00000000000E+00  0.00000000000E+00  0.17961051094E+04  0.17961051094E+04  0.00000000000E+00 0. -1.
         -1   -1    0    0    0  501 -0.00000000000E+00 -0.00000000000E+00 -0.54182497540E+03  0.54182497540E+03  0.00000000000E+00 0.  1.
         24    2    1    2    0    0 -0.46341475434E+03  0.57559350074E+03  0.78971133370E+03  0.10844962332E+04  0.80168427184E+02 0.  0.
        254    2    1    2    0    0  0.46341475434E+03 -0.57559350074E+03  0.46456880033E+03  0.12534338516E+04  0.89956163625E+03 0.  0.
         23    2    4    4    0    0  0.12471543431E+03 -0.24017831105E+03 -0.25696593869E+03  0.38417306938E+03  0.91202483197E+02 0.  0.
         23    2    4    4    0    0  0.33869932003E+03 -0.33541518970E+03  0.72153473903E+03  0.86926078220E+03  0.88211954874E+02 0.  0.
          4    1    3    3  502    0 -0.36684965371E+03  0.41137344633E+03  0.55493792244E+03  0.78215272073E+03  0.00000000000E+00 0. -1.
         -3    1    3    3    0  502 -0.96565100629E+02  0.16422005441E+03  0.23477341126E+03  0.30234351252E+03  0.00000000000E+00 0.  1.
         11    1    5    5    0    0  0.13630493909E+03 -0.22390724870E+03 -0.22027043087E+03  0.34239239938E+03  0.00000000000E+00 0.  1.
        -11    1    5    5    0    0 -0.11589504788E+02 -0.16271062347E+02 -0.36695507827E+02  0.41780670002E+02  0.00000000000E+00 0. -1.
          2    1    6    6  503    0  0.18354171105E+03 -0.17943855558E+03  0.46641290790E+03  0.53237839511E+03  0.00000000000E+00 0.  1.
         -2    1    6    6    0  503  0.15515760898E+03 -0.15597663412E+03  0.25512183113E+03  0.33688238709E+03  0.00000000000E+00 0. -1.
<mgrwt>
<rscale>  0 0.19729923E+04</rscale>
<asrwt>0</asrwt>
<pdfrwt beam="1">  1        2 0.27632386E+00 0.19729923E+04</pdfrwt>
<pdfrwt beam="2">  1       -1 0.83357689E-01 0.19729923E+04</pdfrwt>
<totfact> 0.13131608E+01</totfact>
</mgrwt>
</event>
<event>
12    6  0.1403409E-007  0.1146961E+04  0.7818608E-02  0.9160591E-01
         -1   -1    0    0    0  501 -0.00000000000E+00  0.00000000000E+00  0.40825668768E+03  0.40825668768E+03  0.00000000000E+00 0.  1.
          2   -1    0    0  501    0  0.00000000000E+00 -0.00000000000E+00 -0.80557181496E+03  0.80557181496E+03  0.00000000000E+00 0. -1.
         24    2    1    2    0    0  0.74137725076E+02 -0.66558309132E+02  0.11620215796E+03  0.17234767802E+03  0.79210919763E+02 0.  0.
        254    2    1    2    0    0 -0.74137725076E+02  0.66558309132E+02 -0.51351728525E+03  0.10414808246E+04  0.90058641730E+03 0.  0.
         23    2    4    4    0    0 -0.12405381700E+03  0.34095919882E+03 -0.62421003825E+03  0.72821458132E+03  0.94951460313E+02 0.  0.
         23    2    4    4    0    0  0.49916091923E+02 -0.27440088969E+03  0.11069275301E+03  0.31326624331E+03  0.89974380428E+02 0.  0.
          4    1    3    3  502    0 -0.17172932715E+02 -0.99244523011E+01  0.18169578399E+02  0.26898660760E+02  0.00000000000E+00 0. -1.
         -3    1    3    3    0  502  0.91310657791E+02 -0.56633856831E+02  0.98032579560E+02  0.14544901726E+03  0.00000000000E+00 0.  1.
         11    1    5    5    0    0 -0.10124867935E+03  0.25543184563E+03 -0.38371137896E+03  0.47194400640E+03  0.00000000000E+00 0.  1.
        -11    1    5    5    0    0 -0.22805137650E+02  0.85527353186E+02 -0.24049865930E+03  0.25627057492E+03  0.00000000000E+00 0. -1.
          4    1    6    6  503    0 -0.19780436193E+02 -0.12499407755E+03  0.31722326745E+02  0.13046490369E+03  0.00000000000E+00 0.  1.
         -4    1    6    6    0  503  0.69696528117E+02 -0.14940681213E+03  0.78970426263E+02  0.18280133962E+03  0.00000000000E+00 0. -1.
<mgrwt>
<rscale>  0 0.11469613E+04</rscale>
<asrwt>0</asrwt>
<pdfrwt beam="1">  1        2 0.12393412E+00 0.11469613E+04</pdfrwt>
<pdfrwt beam="2">  1       -1 0.62808722E-01 0.11469613E+04</pdfrwt>
<totfact> 0.99185632E+01</totfact>
</mgrwt>
</event>
<event>
12    6  0.1403409E-007  0.2017669E+04  0.7818608E-02  0.8598404E-01
          2   -1    0    0  501    0  0.00000000000E+00  0.00000000000E+00  0.14235750219E+04  0.14235750219E+04  0.00000000000E+00 0. -1.
         -1   -1    0    0    0  501 -0.00000000000E+00 -0.00000000000E+00 -0.71492303380E+03  0.71492303380E+03  0.00000000000E+00 0.  1.
         24    2    1    2    0    0  0.44854097451E+03  0.55496300795E+03  0.67909350430E+03  0.98832341325E+03  0.80263538325E+02 0.  0.
        254    2    1    2    0    0 -0.44854097451E+03 -0.55496300795E+03  0.29558483818E+02  0.11501746425E+04  0.90158474821E+03 0.  0.
         23    2    4    4    0    0 -0.32138440526E+02 -0.23588020431E+03 -0.39441812879E+03  0.46915033442E+03  0.88679342729E+02 0.  0.
         23    2    4    4    0    0 -0.41640253398E+03 -0.31908280365E+03  0.42397661261E+03  0.68102430805E+03  0.93984223260E+02 0.  0.
          4    1    3    3  502    0  0.82673204279E+02  0.13448944811E+03  0.18779766321E+03  0.24533697778E+03  0.00000000000E+00 0. -1.
         -3    1    3    3    0  502  0.36586777023E+03  0.42047355985E+03  0.49129584109E+03  0.74298643547E+03  0.00000000000E+00 0.  1.
         11    1    5    5    0    0 -0.13298265739E+02 -0.10592491389E+03 -0.97869090059E+02  0.14482848492E+03  0.00000000000E+00 0. -1.
        -11    1    5    5    0    0 -0.18840174787E+02 -0.12995529041E+03 -0.29654903873E+03  0.32432184950E+03  0.00000000000E+00 0.  1.
          3    1    6    6  503    0 -0.31067425084E+02  0.12668184873E+01  0.33829737297E+02  0.45948241054E+02  0.00000000000E+00 0. -1.
         -3    1    6    6    0  503 -0.38533510890E+03 -0.32034962213E+03  0.39014687531E+03  0.63507606699E+03  0.00000000000E+00 0.  1.
<mgrwt>
<rscale>  0 0.20176685E+04</rscale>
<asrwt>0</asrwt>
<pdfrwt beam="1">  1        2 0.21901154E+00 0.20176685E+04</pdfrwt>
<pdfrwt beam="2">  1       -1 0.10998816E+00 0.20176685E+04</pdfrwt>
<totfact> 0.11321776E+01</totfact>
</mgrwt>
</event>
<event>
12    6  0.1403409E-007  0.1193453E+04  0.7818608E-02  0.9118606E-01
          2   -1    0    0  501    0  0.00000000000E+00  0.00000000000E+00  0.23473617878E+04  0.23473617878E+04  0.00000000000E+00 0. -1.
         -1   -1    0    0    0  501 -0.00000000000E+00 -0.00000000000E+00 -0.15169477349E+03  0.15169477349E+03  0.00000000000E+00 0.  1.
         24    2    1    2    0    0 -0.24376250352E+03  0.35418644143E+02  0.42717979353E+03  0.49948484325E+03  0.79548061955E+02 0.  0.
        254    2    1    2    0    0  0.24376250352E+03 -0.35418644143E+02  0.17684872208E+04  0.19995717180E+04  0.90003631432E+03 0.  0.
         23    2    4    4    0    0  0.10711206580E+02  0.25506222944E+03  0.15182258288E+04  0.15422191451E+04  0.90877682927E+02 0.  0.
         23    2    4    4    0    0  0.23305129693E+03 -0.29048087358E+03  0.25026139196E+03  0.45735257299E+03  0.88592137334E+02 0.  0.
          4    1    3    3  502    0 -0.31341694445E+02 -0.18629327702E+02  0.36949332414E+02  0.51909602456E+02  0.00000000000E+00 0. -1.
         -3    1    3    3    0  502 -0.21242080907E+03  0.54047971845E+02  0.39023046112E+03  0.44757524079E+03  0.00000000000E+00 0.  1.
         11    1    5    5    0    0  0.38810216277E+02  0.61819882129E+02  0.32285892322E+03  0.33100727336E+03  0.00000000000E+00 0. -1.
        -11    1    5    5    0    0 -0.28099009697E+02  0.19324234731E+03  0.11953669056E+04  0.12112118717E+04  0.00000000000E+00 0.  1.
          3    1    6    6  503    0  0.36878316139E+02 -0.64674342488E+02  0.13035839145E+02  0.75582497179E+02  0.00000000000E+00 0. -1.
         -3    1    6    6    0  503  0.19617298080E+03 -0.22580653109E+03  0.23722555281E+03  0.38177007581E+03  0.00000000000E+00 0.  1.
<mgrwt>
<rscale>  0 0.11934530E+04</rscale>
<asrwt>0</asrwt>
<pdfrwt beam="1">  1        2 0.36113256E+00 0.11934530E+04</pdfrwt>
<pdfrwt beam="2">  1       -1 0.23337659E-01 0.11934530E+04</pdfrwt>
<totfact> 0.75844361E+01</totfact>
</mgrwt>
</event>
<event>
12    6  0.1403409E-007  0.1602053E+04  0.7818608E-02  0.8819288E-01
         -1   -1    0    0    0  501 -0.00000000000E+00  0.00000000000E+00  0.47832218173E+03  0.47832218173E+03  0.00000000000E+00 0.  1.
          2   -1    0    0  501    0  0.00000000000E+00 -0.00000000000E+00 -0.13414463192E+04  0.13414463192E+04  0.00000000000E+00 0. -1.
         24    2    1    2    0    0 -0.49489462237E+03  0.63560148038E+02 -0.54295171049E+02  0.50832369628E+03  0.80525989225E+02 0.  0.
        254    2    1    2    0    0  0.49489462237E+03 -0.63560148038E+02 -0.80882896646E+03  0.13114448047E+04  0.90372706005E+03 0.  0.
         23    2    4    4    0    0  0.36982176558E+03 -0.51572272131E+02 -0.99636226047E+03  0.10681180331E+04  0.93330278666E+02 0.  0.
         23    2    4    4    0    0  0.12507285678E+03 -0.11987875907E+02  0.18753329401E+03  0.24332677162E+03  0.90841910771E+02 0.  0.
          2    1    3    3  502    0 -0.18246476532E+03  0.23320291260E+02 -0.59307036665E+02  0.19327325518E+03  0.00000000000E+00 0. -1.
         -1    1    3    3    0  502 -0.31242985704E+03  0.40239856779E+02  0.50118656168E+01  0.31505044111E+03  0.00000000000E+00 0.  1.
         11    1    5    5    0    0  0.25685564638E+03 -0.55641401325E+02 -0.79346013117E+03  0.83585271931E+03  0.00000000000E+00 0. -1.
        -11    1    5    5    0    0  0.11296611920E+03  0.40691291943E+01 -0.20290212930E+03  0.23226531375E+03  0.00000000000E+00 0.  1.
          2    1    6    6  503    0  0.12019878095E+03 -0.67028686439E+00  0.10417231316E+03  0.15905994799E+03  0.00000000000E+00 0. -1.
         -2    1    6    6    0  503  0.48740758380E+01 -0.11317589043E+02  0.83360980842E+02  0.84266823626E+02  0.00000000000E+00 0.  1.
<mgrwt>
<rscale>  0 0.16020531E+04</rscale>
<asrwt>0</asrwt>
<pdfrwt beam="1">  1        2 0.20637635E+00 0.16020531E+04</pdfrwt>
<pdfrwt beam="2">  1       -1 0.73588030E-01 0.16020531E+04</pdfrwt>
<totfact> 0.31797852E+01</totfact>
</mgrwt>
</event>
<event>
12    6  0.1403409E-007  0.2046302E+04  0.7818608E-02  0.8585274E-01
         -1   -1    0    0    0  501 -0.00000000000E+00  0.00000000000E+00  0.88840816765E+03  0.88840816765E+03  0.00000000000E+00 0.  1.
          2   -1    0    0  501    0  0.00000000000E+00 -0.00000000000E+00 -0.11783304206E+04  0.11783304206E+04  0.00000000000E+00 0. -1.
         24    2    1    2    0    0  0.72657336326E+03  0.27167797090E+03  0.16028833413E+03  0.79614278122E+03  0.80207268733E+02 0.  0.
        254    2    1    2    0    0 -0.72657336326E+03 -0.27167797090E+03 -0.45021058712E+03  0.12705958071E+04  0.90000353338E+03 0.  0.
         23    2    4    4    0    0 -0.72148239577E+03 -0.52850483597E+03 -0.43188411723E+03  0.99771925571E+03  0.95213515054E+02 0.  0.
         23    2    4    4    0    0 -0.50909674827E+01  0.25682686506E+03 -0.18326469887E+02  0.27287655135E+03  0.90220819151E+02 0.  0.
          2    1    3    3  502    0  0.51442483603E+02 -0.49717798472E+00  0.38166697036E+01  0.51586270197E+02  0.00000000000E+00 0. -1.
         -1    1    3    3    0  502  0.67513087965E+03  0.27217514889E+03  0.15647166443E+03  0.74455651102E+03  0.00000000000E+00 0.  1.
         11    1    5    5    0    0 -0.69661302678E+03 -0.50326843628E+03 -0.43292091408E+03  0.96227301006E+03  0.00000000000E+00 0. -1.
        -11    1    5    5    0    0 -0.24869368992E+02 -0.25236399683E+02  0.10367968506E+01  0.35446245651E+02  0.00000000000E+00 0.  1.
          1    1    6    6  503    0 -0.12424093139E+02  0.26225392698E+03 -0.14394479153E+02  0.26294235364E+03  0.00000000000E+00 0. -1.
         -1    1    6    6    0  503  0.73331256560E+01 -0.54270619184E+01 -0.39319907335E+01  0.99341977069E+01  0.00000000000E+00 0.  1.
<mgrwt>
<rscale>  0 0.20463024E+04</rscale>
<asrwt>0</asrwt>
<pdfrwt beam="1">  1        2 0.18128160E+00 0.20463024E+04</pdfrwt>
<pdfrwt beam="2">  1       -1 0.13667818E+00 0.20463024E+04</pdfrwt>
<totfact> 0.91914971E+00</totfact>
</mgrwt>
</event>
<event>
12    6  0.1403409E-007  0.2551827E+04  0.7818608E-02  0.8384751E-01
         -1   -1    0    0    0  501 -0.00000000000E+00  0.00000000000E+00  0.93119515992E+03  0.93119515992E+03  0.00000000000E+00 0.  1.
          2   -1    0    0  501    0  0.00000000000E+00 -0.00000000000E+00 -0.17482429620E+04  0.17482429620E+04  0.00000000000E+00 0. -1.
         24    2    1    2    0    0 -0.76197203121E+03 -0.39109467405E+03 -0.11085679835E+04  0.14031513724E+04  0.79714362114E+02 0.  0.
        254    2    1    2    0    0  0.76197203121E+03  0.39109467405E+03  0.29152018137E+03  0.12762867495E+04  0.90020410489E+03 0.  0.
         23    2    4    4    0    0 -0.11764105531E+03  0.90394801631E+02  0.29342403010E+03  0.34253230545E+03  0.96021251727E+02 0.  0.
         23    2    4    4    0    0  0.87961308652E+03  0.30069987242E+03 -0.19038487224E+01  0.93375444408E+03  0.88057605834E+02 0.  0.
          4    1    3    3  502    0 -0.11792920926E+03 -0.89617523048E+02 -0.21685504652E+03  0.26261132884E+03  0.00000000000E+00 0. -1.
         -3    1    3    3    0  502 -0.64404282195E+03 -0.30147715100E+03 -0.89171293698E+03  0.11405400436E+04  0.00000000000E+00 0.  1.
         11    1    5    5    0    0 -0.85739670884E+02  0.26768727286E+02  0.90583332572E+02  0.12756643784E+03  0.00000000000E+00 0. -1.
        -11    1    5    5    0    0 -0.31901384427E+02  0.63626074345E+02  0.20284069752E+03  0.21496586761E+03  0.00000000000E+00 0.  1.
          4    1    6    6  503    0  0.76651077519E+03  0.26112595405E+03  0.28002902464E+02  0.81025285862E+03  0.00000000000E+00 0. -1.
         -4    1    6    6    0  503  0.11310231134E+03  0.39573918364E+02 -0.29906751187E+02  0.12350158546E+03  0.00000000000E+00 0.  1.
<mgrwt>
<rscale>  0 0.25518271E+04</rscale>
<asrwt>0</asrwt>
<pdfrwt beam="1">  1        2 0.26896045E+00 0.25518271E+04</pdfrwt>
<pdfrwt beam="2">  1       -1 0.14326080E+00 0.25518271E+04</pdfrwt>
<totfact> 0.36770248E+00</totfact>
</mgrwt>
</event>
<event>
12    6  0.1403409E-007  0.2234734E+04  0.7818608E-02  0.8504109E-01
          2   -1    0    0  501    0  0.00000000000E+00  0.00000000000E+00  0.31194028460E+04  0.31194028460E+04  0.00000000000E+00 0. -1.
         -1   -1    0    0    0  501 -0.00000000000E+00 -0.00000000000E+00 -0.40023966714E+03  0.40023966714E+03  0.00000000000E+00 0.  1.
         24    2    1    2    0    0 -0.44418688627E+03  0.68325706198E+03  0.42167171418E+03  0.92112831144E+03  0.80796837222E+02 0.  0.
        254    2    1    2    0    0  0.44418688627E+03 -0.68325706198E+03  0.22974914647E+04  0.25985142017E+04  0.89981488291E+03 0.  0.
         23    2    4    4    0    0  0.59337893686E+03 -0.25462170853E+03  0.18205040808E+04  0.19338842257E+04  0.93500336860E+02 0.  0.
         23    2    4    4    0    0 -0.14919205059E+03 -0.42863535346E+03  0.47698738384E+03  0.66462997598E+03  0.90716627128E+02 0.  0.
          4    1    3    3  502    0 -0.16829369657E+03  0.27218749974E+03  0.20961162921E+03  0.38255174607E+03  0.00000000000E+00 0. -1.
         -3    1    3    3    0  502 -0.27589318970E+03  0.41106956224E+03  0.21206008497E+03  0.53857656536E+03  0.00000000000E+00 0.  1.
         11    1    5    5    0    0  0.43070864913E+02 -0.78520051356E+00  0.17816004724E+03  0.18329407622E+03  0.00000000000E+00 0.  1.
        -11    1    5    5    0    0  0.55030807194E+03 -0.25383650801E+03  0.16423440336E+04  0.17505901495E+04  0.00000000000E+00 0. -1.
          4    1    6    6  503    0 -0.91289806240E+02 -0.13272895454E+03  0.17601893791E+03  0.23860735655E+03  0.00000000000E+00 0. -1.
         -4    1    6    6    0  503 -0.57902244348E+02 -0.29590639892E+03  0.30096844592E+03  0.42602261943E+03  0.00000000000E+00 0.  1.
<mgrwt>
<rscale>  0 0.22347338E+04</rscale>
<asrwt>0</asrwt>
<pdfrwt beam="1">  1        2 0.47990811E+00 0.22347338E+04</pdfrwt>
<pdfrwt beam="2">  1       -1 0.61575335E-01 0.22347338E+04</pdfrwt>
<totfact> 0.40627558E+00</totfact>
</mgrwt>
</event>
<event>
12    6  0.1403409E-007  0.2144283E+04  0.7818608E-02  0.8541983E-01
          2   -1    0    0  501    0  0.00000000000E+00  0.00000000000E+00  0.78305862146E+03  0.78305862146E+03  0.00000000000E+00 0. -1.
         -1   -1    0    0    0  501 -0.00000000000E+00 -0.00000000000E+00 -0.14679457069E+04  0.14679457069E+04  0.00000000000E+00 0.  1.
         24    2    1    2    0    0  0.65735230224E+03 -0.75628273693E+02  0.32605757211E+03  0.74193966847E+03  0.79556560259E+02 0.  0.
        254    2    1    2    0    0 -0.65735230224E+03  0.75628273693E+02 -0.10109446576E+04  0.15090646599E+04  0.90412132046E+03 0.  0.
         23    2    4    4    0    0 -0.43866398034E+02 -0.18308405032E+03  0.83697604767E+02  0.22476635293E+03  0.89836484831E+02 0.  0.
         23    2    4    4    0    0 -0.61348590421E+03  0.25871232401E+03 -0.10946422623E+04  0.12842983070E+04  0.88788724448E+02 0.  0.
          2    1    3    3  502    0  0.48237199129E+03 -0.83716666424E+02  0.26312107607E+03  0.55580924686E+03  0.00000000000E+00 0. -1.
         -1    1    3    3    0  502  0.17498031095E+03  0.80883927316E+01  0.62936496036E+02  0.18613042161E+03  0.00000000000E+00 0.  1.
         11    1    5    5    0    0  0.16894767639E+02 -0.10031825244E+03  0.19236207068E+02  0.10353364964E+03  0.00000000000E+00 0. -1.
        -11    1    5    5    0    0 -0.60761165672E+02 -0.82765797883E+02  0.64461397699E+02  0.12123270329E+03  0.00000000000E+00 0.  1.
          2    1    6    6  503    0 -0.30463018919E+02  0.27374825182E+02 -0.10404466128E+03  0.11181533042E+03  0.00000000000E+00 0. -1.
         -2    1    6    6    0  503 -0.58302288529E+03  0.23133749883E+03 -0.99059760106E+03  0.11724829766E+04  0.00000000000E+00 0.  1.
<mgrwt>
<rscale>  0 0.21442831E+04</rscale>
<asrwt>0</asrwt>
<pdfrwt beam="1">  1        2 0.12047056E+00 0.21442831E+04</pdfrwt>
<pdfrwt beam="2">  1       -1 0.22583780E+00 0.21442831E+04</pdfrwt>
<totfact> 0.37351181E+00</totfact>
</mgrwt>
</event>
<event>
12    6  0.1403409E-007  0.2815594E+04  0.7818608E-02  0.8298443E-01
         -1   -1    0    0    0  501 -0.00000000000E+00  0.00000000000E+00  0.61565867489E+03  0.61565867489E+03  0.00000000000E+00 0.  1.
          2   -1    0    0  501    0  0.00000000000E+00 -0.00000000000E+00 -0.32191424495E+04  0.32191424495E+04  0.00000000000E+00 0. -1.
         24    2    1    2    0    0  0.50921561208E+03  0.11097674226E+04 -0.74643724363E+03  0.14333021642E+04  0.79386796058E+02 0.  0.
        254    2    1    2    0    0 -0.50921561208E+03 -0.11097674226E+04 -0.18570465310E+04  0.24014989602E+04  0.90977533794E+03 0.  0.
         23    2    4    4    0    0 -0.36215287376E+03 -0.94440369796E+03 -0.73379435735E+03  0.12529101978E+04  0.90976679326E+02 0.  0.
         23    2    4    4    0    0 -0.14706273832E+03 -0.16536372468E+03 -0.11232521736E+04  0.11485887624E+04  0.92671943021E+02 0.  0.
          4    1    3    3  502    0  0.30990104238E+03  0.76134633715E+03 -0.48956758654E+03  0.95674621659E+03  0.00000000000E+00 0. -1.
         -3    1    3    3    0  502  0.19931456969E+03  0.34842108549E+03 -0.25686965709E+03  0.47655594764E+03  0.00000000000E+00 0.  1.
         11    1    5    5    0    0 -0.27956280002E+03 -0.60884497268E+03 -0.48674049445E+03  0.82810860933E+03  0.00000000000E+00 0. -1.
        -11    1    5    5    0    0 -0.82590073740E+02 -0.33555872527E+03 -0.24705386290E+03  0.42480158846E+03  0.00000000000E+00 0.  1.
          1    1    6    6  503    0 -0.16760007445E+02 -0.77104622915E+02 -0.28661909904E+03  0.29728190100E+03  0.00000000000E+00 0. -1.
         -1    1    6    6    0  503 -0.13030273087E+03 -0.88259101767E+02 -0.83663307461E+03  0.85130686139E+03  0.00000000000E+00 0.  1.
<mgrwt>
<rscale>  0 0.28155944E+04</rscale>
<asrwt>0</asrwt>
<pdfrwt beam="1">  1        2 0.49525268E+00 0.28155944E+04</pdfrwt>
<pdfrwt beam="2">  1       -1 0.94716719E-01 0.28155944E+04</pdfrwt>
<totfact> 0.13408238E+00</totfact>
</mgrwt>
</event>
<event>
12    6  0.1403409E-007  0.1758198E+04  0.7818608E-02  0.8728851E-01
          2   -1    0    0  501    0  0.00000000000E+00  0.00000000000E+00  0.12499399631E+04  0.12499399631E+04  0.00000000000E+00 0. -1.
         -3   -1    0    0    0  501 -0.00000000000E+00 -0.00000000000E+00 -0.61828160549E+03  0.61828160549E+03  0.00000000000E+00 0.  1.
         24    2    1    2    0    0 -0.45469902319E+03  0.40427153233E+03  0.63643408287E+01  0.61506510487E+03  0.89877165338E+02 0.  0.
        254    2    1    2    0    0  0.45469902319E+03 -0.40427153233E+03  0.62529401683E+03  0.12531564638E+04  0.89956758593E+03 0.  0.
         23    2    4    4    0    0 -0.24258676187E+03 -0.37290741921E+02  0.29568374502E+03  0.39433639150E+03  0.88506362061E+02 0.  0.
         23    2    4    4    0    0  0.69728578506E+03 -0.36698079041E+03  0.32961027181E+03  0.85882007227E+03  0.89702946874E+02 0.  0.
          4    1    3    3  502    0 -0.32250684449E+03  0.33766854035E+03  0.88515099661E+01  0.46702147393E+03  0.00000000000E+00 0. -1.
         -3    1    3    3    0  502 -0.13219217870E+03  0.66602991981E+02 -0.24871691374E+01  0.14804363094E+03  0.00000000000E+00 0.  1.
         11    1    5    5    0    0 -0.84502500831E+02 -0.25200504966E+02  0.17187783130E+03  0.19317796715E+03  0.00000000000E+00 0. -1.
        -11    1    5    5    0    0 -0.15808426103E+03 -0.12090236955E+02  0.12380591372E+03  0.20115842435E+03  0.00000000000E+00 0.  1.
          1    1    6    6  503    0  0.18711976014E+03 -0.14420085774E+03  0.10525298506E+03  0.25862305170E+03  0.00000000000E+00 0. -1.
         -1    1    6    6    0  503  0.51016602492E+03 -0.22277993267E+03  0.22435728675E+03  0.60019702057E+03  0.00000000000E+00 0.  1.
<mgrwt>
<rscale>  0 0.17581978E+04</rscale>
<asrwt>0</asrwt>
<pdfrwt beam="1">  1        2 0.19229846E+00 0.17581978E+04</pdfrwt>
<pdfrwt beam="2">  1       -3 0.95120247E-01 0.17581978E+04</pdfrwt>
<totfact> 0.10452871E+01</totfact>
</mgrwt>
</event>
<event>
12    6  0.1403409E-007  0.1460806E+04  0.7818608E-02  0.8910943E-01
         -1   -1    0    0    0  501 -0.00000000000E+00  0.00000000000E+00  0.87167297972E+03  0.87167297972E+03  0.00000000000E+00 0.  1.
          2   -1    0    0  501    0  0.00000000000E+00 -0.00000000000E+00 -0.61202810846E+03  0.61202810846E+03  0.00000000000E+00 0. -1.
         24    2    1    2    0    0  0.28090970663E+03  0.85140862064E+01 -0.27463492751E+03  0.39921371748E+03  0.70459178757E+02 0.  0.
        254    2    1    2    0    0 -0.28090970663E+03 -0.85140862064E+01  0.53427979878E+03  0.10844873707E+04  0.90093018647E+03 0.  0.
         23    2    4    4    0    0 -0.17591957880E+03  0.33390760184E+03  0.59454768573E+03  0.70999304127E+03  0.90339267581E+02 0.  0.
         23    2    4    4    0    0 -0.10499012783E+03 -0.34242168805E+03 -0.60267886956E+02  0.37449432944E+03  0.91313992340E+02 0.  0.
          2    1    3    3  502    0  0.17435512079E+03 -0.20686558611E+02 -0.19865874932E+03  0.26512815869E+03  0.00000000000E+00 0. -1.
         -1    1    3    3    0  502  0.10655458584E+03  0.29200644817E+02 -0.75976178196E+02  0.13408555879E+03  0.00000000000E+00 0.  1.
         11    1    5    5    0    0 -0.15608847423E+03  0.20803955182E+03  0.41683490405E+03  0.49132006284E+03  0.00000000000E+00 0.  1.
        -11    1    5    5    0    0 -0.19831104575E+02  0.12586805002E+03  0.17771278168E+03  0.21867297843E+03  0.00000000000E+00 0. -1.
          2    1    6    6  503    0 -0.34671507772E+02 -0.13837286958E+03  0.20368156274E+02  0.14409728061E+03  0.00000000000E+00 0. -1.
         -2    1    6    6    0  503 -0.70318620056E+02 -0.20404881846E+03 -0.80636043230E+02  0.23039704883E+03  0.00000000000E+00 0.  1.
<mgrwt>
<rscale>  0 0.14608058E+04</rscale>
<asrwt>0</asrwt>
<pdfrwt beam="1">  1        2 0.94158170E-01 0.14608058E+04</pdfrwt>
<pdfrwt beam="2">  1       -1 0.13410354E+00 0.14608058E+04</pdfrwt>
<totfact> 0.25124057E+01</totfact>
</mgrwt>
</event>
<event>
12    6  0.1403409E-007  0.1185072E+04  0.7818608E-02  0.9126024E-01
          2   -1    0    0  501    0  0.00000000000E+00  0.00000000000E+00  0.60594627856E+03  0.60594627856E+03  0.00000000000E+00 0. -1.
         -1   -1    0    0    0  501 -0.00000000000E+00 -0.00000000000E+00 -0.57942256980E+03  0.57942256980E+03  0.00000000000E+00 0.  1.
         24    2    1    2    0    0  0.70143939788E+02  0.16287842052E+03 -0.15476995586E+03  0.24853298492E+03  0.79783163621E+02 0.  0.
        254    2    1    2    0    0 -0.70143939788E+02 -0.16287842052E+03  0.18129366461E+03  0.93683586344E+03  0.90185613600E+03 0.  0.
         23    2    4    4    0    0  0.18914574483E+03 -0.26540231136E+03 -0.24586320481E+03  0.41837029062E+03  0.91490354264E+02 0.  0.
         23    2    4    4    0    0 -0.25928968462E+03  0.10252389084E+03  0.42715686942E+03  0.51846557282E+03  0.92743034024E+02 0.  0.
          2    1    3    3  502    0 -0.23535598792E+00  0.12674433668E+02  0.89120925496E+01  0.15495872188E+02  0.00000000000E+00 0. -1.
         -1    1    3    3    0  502  0.70379295776E+02  0.15020398686E+03 -0.16368204841E+03  0.23303711274E+03  0.00000000000E+00 0.  1.
         11    1    5    5    0    0  0.13741681778E+03 -0.20984307457E+03 -0.13745801988E+03  0.28602832898E+03  0.00000000000E+00 0. -1.
        -11    1    5    5    0    0  0.51728927052E+02 -0.55559236796E+02 -0.10840518494E+03  0.13234196163E+03  0.00000000000E+00 0.  1.
          1    1    6    6  503    0 -0.18978385124E+03  0.96847831705E+02  0.25239765264E+03  0.33030590027E+03  0.00000000000E+00 0. -1.
         -1    1    6    6    0  503 -0.69505833376E+02  0.56760591366E+01  0.17475921679E+03  0.18815967255E+03  0.00000000000E+00 0.  1.
<mgrwt>
<rscale>  0 0.11850721E+04</rscale>
<asrwt>0</asrwt>
<pdfrwt beam="1">  1        2 0.93222504E-01 0.11850721E+04</pdfrwt>
<pdfrwt beam="2">  1       -1 0.89141934E-01 0.11850721E+04</pdfrwt>
<totfact> 0.68283220E+01</totfact>
</mgrwt>
</event>
<event>
12    6  0.1403409E-007  0.4564550E+04  0.7818608E-02  0.7899432E-01
          2   -1    0    0  501    0  0.00000000000E+00  0.00000000000E+00  0.37015547389E+04  0.37015547389E+04  0.00000000000E+00 0. -1.
         -1   -1    0    0    0  501 -0.00000000000E+00 -0.00000000000E+00 -0.14071870367E+04  0.14071870367E+04  0.00000000000E+00 0.  1.
         24    2    1    2    0    0 -0.17659079943E+04  0.11710447467E+04  0.47068259175E+03  0.21719951933E+04  0.79020087961E+02 0.  0.
        254    2    1    2    0    0  0.17659079943E+04 -0.11710447467E+04  0.18236851104E+04  0.29367465823E+04  0.89937548530E+03 0.  0.
         23    2    4    4    0    0  0.64379946042E+03 -0.29478775684E+03  0.11623932842E+04  0.13643584524E+04  0.94542438216E+02 0.  0.
         23    2    4    4    0    0  0.11221085339E+04 -0.87625698987E+03  0.66129182621E+03  0.15723881299E+04  0.90242326982E+02 0.  0.
          2    1    3    3  502    0 -0.14083881474E+04  0.97123587492E+03  0.38251207380E+03  0.17530464298E+04  0.00000000000E+00 0. -1.
         -1    1    3    3    0  502 -0.35751984688E+03  0.19980887179E+03  0.88170517950E+02  0.41894876345E+03  0.00000000000E+00 0.  1.
         11    1    5    5    0    0  0.34697251160E+03 -0.16039743799E+03  0.53673377902E+03  0.65893885260E+03  0.00000000000E+00 0. -1.
        -11    1    5    5    0    0  0.29682694881E+03 -0.13439031886E+03  0.62565950515E+03  0.70541959976E+03  0.00000000000E+00 0.  1.
          3    1    6    6  503    0  0.79008517259E+03 -0.60521248577E+03  0.41724862108E+03  0.10791724351E+04  0.00000000000E+00 0. -1.
         -3    1    6    6    0  503  0.33202336131E+03 -0.27104450410E+03  0.24404320513E+03  0.49321569483E+03  0.00000000000E+00 0.  1.
<mgrwt>
<rscale>  0 0.45645503E+04</rscale>
<asrwt>0</asrwt>
<pdfrwt beam="1">  1        2 0.56946995E+00 0.45645503E+04</pdfrwt>
<pdfrwt beam="2">  1       -1 0.21649032E+00 0.45645503E+04</pdfrwt>
<totfact> 0.57705471E-02</totfact>
</mgrwt>
</event>
<event>
12    6  0.1403409E-007  0.1650810E+04  0.7818608E-02  0.8789927E-01
         -1   -1    0    0    0  501 -0.00000000000E+00  0.00000000000E+00  0.28977517068E+03  0.28977517068E+03  0.00000000000E+00 0.  1.
          2   -1    0    0  501    0  0.00000000000E+00 -0.00000000000E+00 -0.23511116503E+04  0.23511116503E+04  0.00000000000E+00 0. -1.
         24    2    1    2    0    0  0.80919009836E+01 -0.56968658310E+03 -0.59001015384E+03  0.82385073936E+03  0.77522753417E+02 0.  0.
        254    2    1    2    0    0 -0.80919009836E+01  0.56968658310E+03 -0.14713263258E+04  0.18170360816E+04  0.90122732046E+03 0.  0.
         23    2    4    4    0    0 -0.26777741078E+03  0.43249651539E+03 -0.28219345208E+03  0.58875611100E+03  0.90788965738E+02 0.  0.
         23    2    4    4    0    0  0.25968550979E+03  0.13719006770E+03 -0.11891328737E+04  0.12282799706E+04  0.91526041113E+02 0.  0.
          2    1    3    3  502    0  0.40920334756E+02 -0.22841097948E+03 -0.23079770311E+03  0.32728218574E+03  0.00000000000E+00 0. -1.
         -1    1    3    3    0  502 -0.32828433773E+02 -0.34127560361E+03 -0.35921245073E+03  0.49656855362E+03  0.00000000000E+00 0.  1.
         11    1    5    5    0    0 -0.15028292143E+03  0.23072111158E+03 -0.10130483958E+03  0.29339369169E+03  0.00000000000E+00 0.  1.
        -11    1    5    5    0    0 -0.11749448935E+03  0.20177540381E+03 -0.18088861250E+03  0.29536241931E+03  0.00000000000E+00 0. -1.
          3    1    6    6  503    0  0.78945212024E+02 -0.25184556942E+01 -0.28650993359E+03  0.29719796629E+03  0.00000000000E+00 0. -1.
         -3    1    6    6    0  503  0.18074029777E+03  0.13970852340E+03 -0.90262294014E+03  0.93108200435E+03  0.00000000000E+00 0.  1.
<mgrwt>
<rscale>  0 0.16508104E+04</rscale>
<asrwt>0</asrwt>
<pdfrwt beam="1">  1        2 0.36170948E+00 0.16508104E+04</pdfrwt>
<pdfrwt beam="2">  1       -1 0.44580796E-01 0.16508104E+04</pdfrwt>
<totfact> 0.23013137E+01</totfact>
</mgrwt>
</event>
<event>
12    6  0.1403409E-007  0.1708044E+04  0.7818608E-02  0.8756790E-01
          2   -1    0    0  501    0  0.00000000000E+00  0.00000000000E+00  0.25466364535E+04  0.25466364535E+04  0.00000000000E+00 0. -1.
         -1   -1    0    0    0  501 -0.00000000000E+00 -0.00000000000E+00 -0.28639872780E+03  0.28639872780E+03  0.00000000000E+00 0.  1.
         24    2    1    2    0    0 -0.37790025710E+03 -0.37329885384E+03  0.30402807685E+03  0.61468514785E+03  0.56957184669E+02 0.  0.
        254    2    1    2    0    0  0.37790025710E+03  0.37329885384E+03  0.19562096489E+04  0.22183500335E+04  0.90119922438E+03 0.  0.
         23    2    4    4    0    0  0.44865482876E+03  0.55309084350E+03  0.95764471719E+03  0.11970617483E+04  0.93127806457E+02 0.  0.
         23    2    4    4    0    0 -0.70754571661E+02 -0.17979198966E+03  0.99856493168E+03  0.10212882852E+04  0.92555225015E+02 0.  0.
          2    1    3    3  502    0 -0.82560197389E+02 -0.11689235742E+03  0.79728462301E+02  0.16381891563E+03  0.00000000000E+00 0. -1.
         -1    1    3    3    0  502 -0.29534005971E+03 -0.25640649642E+03  0.22429961454E+03  0.45086623222E+03  0.00000000000E+00 0.  1.
         11    1    5    5    0    0  0.32312981157E+02  0.65136435380E+02  0.62854098893E+02  0.96112026890E+02  0.00000000000E+00 0. -1.
        -11    1    5    5    0    0  0.41634184760E+03  0.48795440812E+03  0.89479061829E+03  0.11009497214E+04  0.00000000000E+00 0.  1.
          2    1    6    6  503    0 -0.33716356140E+02 -0.49697775137E+01  0.12070305685E+03  0.12542216428E+03  0.00000000000E+00 0. -1.
         -2    1    6    6    0  503 -0.37038215521E+02 -0.17482221214E+03  0.87786187483E+03  0.89586612088E+03  0.00000000000E+00 0.  1.
<mgrwt>
<rscale>  0 0.17080438E+04</rscale>
<asrwt>0</asrwt>
<pdfrwt beam="1">  1        2 0.39179021E+00 0.17080438E+04</pdfrwt>
<pdfrwt beam="2">  1       -1 0.44061344E-01 0.17080438E+04</pdfrwt>
<totfact> 0.18071578E+01</totfact>
</mgrwt>
</event>
<event>
12    6  0.1403409E-007  0.2208386E+04  0.7818608E-02  0.8514946E-01
          2   -1    0    0  501    0  0.00000000000E+00  0.00000000000E+00  0.21625763019E+04  0.21625763019E+04  0.00000000000E+00 0. -1.
         -1   -1    0    0    0  501 -0.00000000000E+00 -0.00000000000E+00 -0.56379169707E+03  0.56379169707E+03  0.00000000000E+00 0.  1.
         24    2    1    2    0    0 -0.41547509391E+03  0.47354901888E+03  0.14939365319E+04  0.16233788478E+04  0.81512546196E+02 0.  0.
        254    2    1    2    0    0  0.41547509391E+03 -0.47354901888E+03  0.10484807288E+03  0.11029891511E+04  0.89929067723E+03 0.  0.
         23    2    4    4    0    0 -0.19175910674E+03  0.41704485851E+02  0.20197468898E+03  0.29558924622E+03  0.89824319277E+02 0.  0.
         23    2    4    4    0    0  0.60723420065E+03 -0.51525350473E+03 -0.97126616104E+02  0.80739990490E+03  0.90782588018E+02 0.  0.
          4    1    3    3  502    0 -0.12852192263E+03  0.15693741984E+03  0.58097200226E+03  0.61536631834E+03  0.00000000000E+00 0. -1.
         -3    1    3    3    0  502 -0.28695317127E+03  0.31661159905E+03  0.91296452969E+03  0.10080125295E+04  0.00000000000E+00 0.  1.
         11    1    5    5    0    0 -0.47758249909E+02 -0.86245299444E+01  0.85938616611E+01  0.49285772890E+02  0.00000000000E+00 0.  1.
        -11    1    5    5    0    0 -0.14400085684E+03  0.50329015795E+02  0.19338082732E+03  0.24630347333E+03  0.00000000000E+00 0. -1.
          3    1    6    6  503    0  0.26935538243E+03 -0.28540458560E+03 -0.61115213544E+02  0.39716894246E+03  0.00000000000E+00 0. -1.
         -3    1    6    6    0  503  0.33787881822E+03 -0.22984891914E+03 -0.36011402561E+02  0.41023096244E+03  0.00000000000E+00 0.  1.
<mgrwt>
<rscale>  0 0.22083863E+04</rscale>
<asrwt>0</asrwt>
<pdfrwt beam="1">  1        2 0.33270404E+00 0.22083863E+04</pdfrwt>
<pdfrwt beam="2">  1       -1 0.86737185E-01 0.22083863E+04</pdfrwt>
<totfact> 0.73807866E+00</totfact>
</mgrwt>
</event>
<event>
12    6  0.1403409E-007  0.2111345E+04  0.7818608E-02  0.8556262E-01
          2   -1    0    0  501    0  0.00000000000E+00  0.00000000000E+00  0.24600379008E+04  0.24600379008E+04  0.00000000000E+00 0. -1.
         -1   -1    0    0    0  501 -0.00000000000E+00 -0.00000000000E+00 -0.45301931913E+03  0.45301931913E+03  0.00000000000E+00 0.  1.
         24    2    1    2    0    0 -0.64897483875E+03 -0.17498235435E+03  0.88973667289E+02  0.68269848794E+03  0.79835745788E+02 0.  0.
        254    2    1    2    0    0  0.64897483875E+03  0.17498235435E+03  0.19180449144E+04  0.22303587320E+04  0.91859491298E+03 0.  0.
         23    2    4    4    0    0  0.10233955434E+03  0.34020915239E+03  0.14217951184E+04  0.14683401792E+04  0.91136553619E+02 0.  0.
         23    2    4    4    0    0  0.54663528441E+03 -0.16522679804E+03  0.49624979604E+03  0.76201855285E+03  0.91095476651E+02 0.  0.
          4    1    3    3  502    0 -0.27588366789E+03 -0.10398703884E+03  0.66567972039E+02  0.30225220819E+03  0.00000000000E+00 0. -1.
         -3    1    3    3    0  502 -0.37309117086E+03 -0.70995315513E+02  0.22405695250E+02  0.38044627975E+03  0.00000000000E+00 0.  1.
         11    1    5    5    0    0 -0.17041423757E+02  0.34910437661E+02  0.13969755431E+03  0.14499846710E+03  0.00000000000E+00 0. -1.
        -11    1    5    5    0    0  0.11938097810E+03  0.30529871473E+03  0.12820975640E+04  0.13233417121E+04  0.00000000000E+00 0.  1.
          2    1    6    6  503    0  0.32249132965E+03 -0.85858190726E+02  0.34615297445E+03  0.48082654704E+03  0.00000000000E+00 0. -1.
         -2    1    6    6    0  503  0.22414395475E+03 -0.79368607317E+02  0.15009682159E+03  0.28119200581E+03  0.00000000000E+00 0.  1.
<mgrwt>
<rscale>  0 0.21113453E+04</rscale>
<asrwt>0</asrwt>
<pdfrwt beam="1">  1        2 0.37846736E+00 0.21113453E+04</pdfrwt>
<pdfrwt beam="2">  1       -1 0.69695281E-01 0.21113453E+04</pdfrwt>
<totfact> 0.80112361E+00</totfact>
</mgrwt>
</event>
<event>
12    6  0.1403409E-007  0.2372931E+04  0.7818608E-02  0.8449708E-01
         -1   -1    0    0    0  501 -0.00000000000E+00  0.00000000000E+00  0.55572597977E+03  0.55572597977E+03  0.00000000000E+00 0.  1.
          2   -1    0    0  501    0  0.00000000000E+00 -0.00000000000E+00 -0.25330829634E+04  0.25330829634E+04  0.00000000000E+00 0. -1.
         24    2    1    2    0    0 -0.60915218667E+03  0.46335484667E+03  0.18415337157E+02  0.76968816072E+03  0.79477290167E+02 0.  0.
        254    2    1    2    0    0  0.60915218667E+03 -0.46335484667E+03 -0.19957723208E+04  0.23191207824E+04  0.89969436292E+03 0.  0.
         23    2    4    4    0    0  0.79963937912E+03 -0.27854376601E+03 -0.11698814240E+04  0.14470498615E+04  0.91219455970E+02 0.  0.
         23    2    4    4    0    0 -0.19048719245E+03 -0.18481108066E+03 -0.82589089674E+03  0.87207092093E+03  0.89282763113E+02 0.  0.
          2    1    3    3  502    0 -0.44505370308E+03  0.37206645168E+03 -0.74115619728E+01  0.58013892676E+03  0.00000000000E+00 0. -1.
         -1    1    3    3    0  502 -0.16409848359E+03  0.91288394993E+02  0.25826899129E+02  0.18954923396E+03  0.00000000000E+00 0.  1.
         11    1    5    5    0    0  0.15925938960E+03 -0.83715425924E+02 -0.29396240936E+03  0.34465304848E+03  0.00000000000E+00 0.  1.
        -11    1    5    5    0    0  0.64037998952E+03 -0.19482834009E+03 -0.87591901465E+03  0.11023968130E+04  0.00000000000E+00 0. -1.
          3    1    6    6  503    0 -0.75829536105E+02 -0.10639600223E+03 -0.51924258317E+03  0.53542794848E+03  0.00000000000E+00 0. -1.
         -3    1    6    6    0  503 -0.11465765635E+03 -0.78415078434E+02 -0.30664831358E+03  0.33664297246E+03  0.00000000000E+00 0.  1.
<mgrwt>
<rscale>  0 0.23729307E+04</rscale>
<asrwt>0</asrwt>
<pdfrwt beam="1">  1        2 0.38970506E+00 0.23729307E+04</pdfrwt>
<pdfrwt beam="2">  1       -1 0.85496306E-01 0.23729307E+04</pdfrwt>
<totfact> 0.46155145E+00</totfact>
</mgrwt>
</event>
<event>
12    6  0.1403409E-007  0.1335981E+04  0.7818608E-02  0.9001508E-01
         -1   -1    0    0    0  501 -0.00000000000E+00  0.00000000000E+00  0.18026208176E+03  0.18026208176E+03  0.00000000000E+00 0.  1.
          2   -1    0    0  501    0  0.00000000000E+00 -0.00000000000E+00 -0.24753485047E+04  0.24753485047E+04  0.00000000000E+00 0. -1.
         24    2    1    2    0    0  0.35040188167E+03 -0.62260960962E+01 -0.46803114437E+03  0.59005939871E+03  0.79351741975E+02 0.  0.
        254    2    1    2    0    0 -0.35040188167E+03  0.62260960962E+01 -0.18270552786E+04  0.20655511878E+04  0.89752463772E+03 0.  0.
         23    2    4    4    0    0 -0.15748566713E+03  0.21380004117E+03 -0.17301751540E+04  0.17529022865E+04  0.92995536274E+02 0.  0.
         23    2    4    4    0    0 -0.19291621454E+03 -0.20757394507E+03 -0.96880124636E+02  0.31264890125E+03  0.89777326738E+02 0.  0.
          2    1    3    3  502    0  0.67436098831E+02 -0.20919098401E+02 -0.13851087025E+03  0.15546863762E+03  0.00000000000E+00 0. -1.
         -1    1    3    3    0  502  0.28296578284E+03  0.14693002305E+02 -0.32952027412E+03  0.43459076110E+03  0.00000000000E+00 0.  1.
         11    1    5    5    0    0 -0.15759225404E+03  0.19397044412E+03 -0.13999970653E+04  0.14221292608E+04  0.00000000000E+00 0. -1.
        -11    1    5    5    0    0  0.10658691201E+00  0.19829597045E+02 -0.33017808872E+03  0.33077302573E+03  0.00000000000E+00 0.  1.
          1    1    6    6  503    0 -0.15620074822E+03 -0.20840586738E+03 -0.87419150470E+02  0.27472493001E+03  0.00000000000E+00 0. -1.
         -1    1    6    6    0  503 -0.36715466322E+02  0.83192230719E+00 -0.94609741662E+01  0.37923971234E+02  0.00000000000E+00 0.  1.
<mgrwt>
<rscale>  0 0.13359812E+04</rscale>
<asrwt>0</asrwt>
<pdfrwt beam="1">  1        2 0.38082284E+00 0.13359812E+04</pdfrwt>
<pdfrwt beam="2">  1       -1 0.27732628E-01 0.13359812E+04</pdfrwt>
<totfact> 0.47095005E+01</totfact>
</mgrwt>
</event>
<event>
12    6  0.1403409E-007  0.4648161E+04  0.7818608E-02  0.7885199E-01
         -1   -1    0    0    0  501 -0.00000000000E+00  0.00000000000E+00  0.13982242352E+04  0.13982242352E+04  0.00000000000E+00 0.  1.
          2   -1    0    0  501    0  0.00000000000E+00 -0.00000000000E+00 -0.38630077658E+04  0.38630077658E+04  0.00000000000E+00 0. -1.
         24    2    1    2    0    0  0.17928560414E+04 -0.10622510307E+04 -0.21038171085E+04  0.29622938711E+04  0.80178023589E+02 0.  0.
        254    2    1    2    0    0 -0.17928560414E+04  0.10622510307E+04 -0.36096642212E+03  0.22989381299E+04  0.90117130992E+03 0.  0.
         23    2    4    4    0    0 -0.10666859753E+04  0.10966388633E+04 -0.31807451256E+03  0.15652793787E+04  0.92154063382E+02 0.  0.
         23    2    4    4    0    0 -0.72617006611E+03 -0.34387832634E+02 -0.42891909563E+02  0.73365875121E+03  0.88937952342E+02 0.  0.
          2    1    3    3  502    0  0.29050064632E+03 -0.19294725598E+03 -0.31858519681E+03  0.47235134882E+03  0.00000000000E+00 0. -1.
         -1    1    3    3    0  502  0.15023553951E+04 -0.86930377469E+03 -0.17852319117E+04  0.24899425223E+04  0.00000000000E+00 0.  1.
         11    1    5    5    0    0 -0.41793243932E+03  0.37730871390E+03 -0.14283409099E+03  0.58088808472E+03  0.00000000000E+00 0.  1.
        -11    1    5    5    0    0 -0.64875353598E+03  0.71933014941E+03 -0.17524042156E+03  0.98439129397E+03  0.00000000000E+00 0. -1.
          2    1    6    6  503    0 -0.50271714815E+03  0.17433924541E+02 -0.28837272452E+02  0.50384527491E+03  0.00000000000E+00 0. -1.
         -2    1    6    6    0  503 -0.22345291797E+03 -0.51821757176E+02 -0.14054637111E+02  0.22981347630E+03  0.00000000000E+00 0.  1.
<mgrwt>
<rscale>  0 0.46481614E+04</rscale>
<asrwt>0</asrwt>
<pdfrwt beam="1">  1        2 0.59430888E+00 0.46481614E+04</pdfrwt>
<pdfrwt beam="2">  1       -1 0.21511142E+00 0.46481614E+04</pdfrwt>
<totfact> 0.44145712E-02</totfact>
</mgrwt>
</event>
<event>
12    6  0.1403409E-007  0.1947092E+04  0.7818608E-02  0.8631764E-01
          2   -1    0    0  501    0  0.00000000000E+00  0.00000000000E+00  0.19027633555E+04  0.19027633555E+04  0.00000000000E+00 0. -1.
         -1   -1    0    0    0  501 -0.00000000000E+00 -0.00000000000E+00 -0.49811339998E+03  0.49811339998E+03  0.00000000000E+00 0.  1.
         24    2    1    2    0    0  0.36681383889E+03  0.12942466156E+03 -0.25387338920E+03  0.47159492644E+03  0.81528777018E+02 0.  0.
        254    2    1    2    0    0 -0.36681383889E+03 -0.12942466156E+03  0.16585233447E+04  0.19292818290E+04  0.90560783757E+03 0.  0.
         23    2    4    4    0    0  0.64945190249E+02 -0.17906887949E+03 -0.10663580007E+01  0.21135664065E+03  0.91580298589E+02 0.  0.
         23    2    4    4    0    0 -0.43175902914E+03  0.49644217928E+02  0.16595897027E+04  0.17179251884E+04  0.90269396356E+02 0.  0.
          2    1    3    3  502    0  0.89954603146E+02  0.61885013021E+02 -0.98302610580E+02  0.14691830625E+03  0.00000000000E+00 0. -1.
         -1    1    3    3    0  502  0.27685923574E+03  0.67539648537E+02 -0.15557077862E+03  0.32467662020E+03  0.00000000000E+00 0.  1.
         11    1    5    5    0    0  0.61132271777E+02 -0.17359373583E+03 -0.25705801971E+02  0.18582983622E+03  0.00000000000E+00 0.  1.
        -11    1    5    5    0    0  0.38129184716E+01 -0.54751436523E+01  0.24639443970E+02  0.25526804431E+02  0.00000000000E+00 0. -1.
          2    1    6    6  503    0 -0.18761571389E+03 -0.62602880711E+00  0.56591783391E+03  0.59620721461E+03  0.00000000000E+00 0. -1.
         -2    1    6    6    0  503 -0.24414331525E+03  0.50270246735E+02  0.10936718688E+04  0.11217179738E+04  0.00000000000E+00 0.  1.
<mgrwt>
<rscale>  0 0.19470921E+04</rscale>
<asrwt>0</asrwt>
<pdfrwt beam="1">  1        2 0.29273282E+00 0.19470921E+04</pdfrwt>
<pdfrwt beam="2">  1       -1 0.76632832E-01 0.19470921E+04</pdfrwt>
<totfact> 0.13736772E+01</totfact>
</mgrwt>
</event>
<event>
12    6  0.1403409E-007  0.1441930E+04  0.7818608E-02  0.8924014E-01
          2   -1    0    0  501    0  0.00000000000E+00  0.00000000000E+00  0.22242755493E+04  0.22242755493E+04  0.00000000000E+00 0. -1.
         -1   -1    0    0    0  501 -0.00000000000E+00 -0.00000000000E+00 -0.23368981262E+03  0.23368981262E+03  0.00000000000E+00 0.  1.
         24    2    1    2    0    0  0.35291711209E+03 -0.21703098172E+03  0.83607351455E+03  0.93632426426E+03  0.77661258438E+02 0.  0.
        254    2    1    2    0    0 -0.35291711209E+03  0.21703098172E+03  0.11545122222E+04  0.15216410977E+04  0.90046667014E+03 0.  0.
         23    2    4    4    0    0 -0.44707452732E+03  0.48932393470E+03  0.64522935797E+03  0.92925605340E+03  0.88782556565E+02 0.  0.
         23    2    4    4    0    0  0.94157415224E+02 -0.27229295298E+03  0.50928286419E+03  0.59238504428E+03  0.92422583027E+02 0.  0.
          4    1    3    3  502    0  0.12149954848E+03 -0.11230308397E+03  0.28541127324E+03  0.32989955720E+03  0.00000000000E+00 0. -1.
         -3    1    3    3    0  502  0.23141756361E+03 -0.10472789775E+03  0.55066224132E+03  0.60642470706E+03  0.00000000000E+00 0.  1.
         11    1    5    5    0    0 -0.33335377961E+03  0.41546152985E+03  0.50019699438E+03  0.73070517882E+03  0.00000000000E+00 0. -1.
        -11    1    5    5    0    0 -0.11372074771E+03  0.73862404854E+02  0.14503236359E+03  0.19855087458E+03  0.00000000000E+00 0.  1.
          2    1    6    6  503    0  0.10833375533E+03 -0.25236433559E+03  0.43755762319E+03  0.51660491096E+03  0.00000000000E+00 0. -1.
         -2    1    6    6    0  503 -0.14176340103E+02 -0.19928617388E+02  0.71725240999E+02  0.75780133321E+02  0.00000000000E+00 0.  1.
<mgrwt>
<rscale>  0 0.14419300E+04</rscale>
<asrwt>0</asrwt>
<pdfrwt beam="1">  1        2 0.34219622E+00 0.14419300E+04</pdfrwt>
<pdfrwt beam="2">  1       -1 0.35952280E-01 0.14419300E+04</pdfrwt>
<totfact> 0.40950280E+01</totfact>
</mgrwt>
</event>
<event>
12    6  0.1403409E-007  0.2318602E+04  0.7818608E-02  0.8470622E-01
         -1   -1    0    0    0  501 -0.00000000000E+00  0.00000000000E+00  0.10641011148E+04  0.10641011148E+04  0.00000000000E+00 0.  1.
          2   -1    0    0  501    0  0.00000000000E+00 -0.00000000000E+00 -0.12630181590E+04  0.12630181590E+04  0.00000000000E+00 0. -1.
         24    2    1    2    0    0  0.77496348226E+03 -0.60434733215E+03 -0.81307851215E+02  0.98932213854E+03  0.79644399744E+02 0.  0.
        254    2    1    2    0    0 -0.77496348226E+03  0.60434733215E+03 -0.11760919301E+03  0.13377971353E+04  0.90003619716E+03 0.  0.
         23    2    4    4    0    0 -0.85788430952E+02  0.30640646609E+03  0.32277836461E+03  0.46263417907E+03  0.92735827177E+02 0.  0.
         23    2    4    4    0    0 -0.68917505131E+03  0.29794086607E+03 -0.44038755762E+03  0.87516295622E+03  0.90763362672E+02 0.  0.
          4    1    3    3  502    0  0.55938767482E+03 -0.47394749442E+03 -0.42480872525E+02  0.73440140437E+03  0.00000000000E+00 0. -1.
         -1    1    3    3    0  502  0.21557580744E+03 -0.13039983773E+03 -0.38826978690E+02  0.25492073417E+03  0.00000000000E+00 0.  1.
         11    1    5    5    0    0 -0.96466446928E+01  0.16173148069E+03  0.11715884344E+03  0.19994080173E+03  0.00000000000E+00 0. -1.
        -11    1    5    5    0    0 -0.76141786260E+02  0.14467498540E+03  0.20561952117E+03  0.26269337735E+03  0.00000000000E+00 0.  1.
          4    1    6    6  503    0 -0.21600926150E+03  0.50095517143E+02 -0.11637291953E+03  0.25042407690E+03  0.00000000000E+00 0. -1.
         -4    1    6    6    0  503 -0.47316578981E+03  0.24784534892E+03 -0.32401463809E+03  0.62473887931E+03  0.00000000000E+00 0.  1.
<mgrwt>
<rscale>  0 0.23186022E+04</rscale>
<asrwt>0</asrwt>
<pdfrwt beam="1">  1        2 0.19431049E+00 0.23186022E+04</pdfrwt>
<pdfrwt beam="2">  1       -1 0.16370786E+00 0.23186022E+04</pdfrwt>
<totfact> 0.49131135E+00</totfact>
</mgrwt>
</event>
<event>
12    6  0.1403409E-007  0.1950619E+04  0.7818608E-02  0.8630062E-01
         -1   -1    0    0    0  501 -0.00000000000E+00  0.00000000000E+00  0.40063579110E+03  0.40063579110E+03  0.00000000000E+00 0.  1.
          2   -1    0    0  501    0  0.00000000000E+00 -0.00000000000E+00 -0.23742978621E+04  0.23742978621E+04  0.00000000000E+00 0. -1.
         24    2    1    2    0    0  0.72125973201E+02 -0.71820086729E+03 -0.42615626553E+03  0.84240036712E+03  0.83753054192E+02 0.  0.
        254    2    1    2    0    0 -0.72125973201E+02  0.71820086729E+03 -0.15475058055E+04  0.19325332861E+04  0.90492874970E+03 0.  0.
         23    2    4    4    0    0 -0.13311913129E+03  0.39574451520E+03 -0.91541103808E+02  0.43721536422E+03  0.91886215513E+02 0.  0.
         23    2    4    4    0    0  0.60993158087E+02  0.32245635209E+03 -0.14559647017E+04  0.14953179219E+04  0.91892385831E+02 0.  0.
          4    1    3    3  502    0  0.35095036244E+02 -0.12996411931E+03 -0.10816070843E+03  0.17268778974E+03  0.00000000000E+00 0. -1.
         -3    1    3    3    0  502  0.37030936958E+02 -0.58823674798E+03 -0.31799555710E+03  0.66971257738E+03  0.00000000000E+00 0.  1.
         11    1    5    5    0    0 -0.13188985111E+02  0.16719281059E+03 -0.17063621784E+02  0.16857803069E+03  0.00000000000E+00 0. -1.
        -11    1    5    5    0    0 -0.11993014618E+03  0.22855170461E+03 -0.74477482023E+02  0.26863733354E+03  0.00000000000E+00 0.  1.
          4    1    6    6  503    0  0.29526338533E+02  0.15429197403E+03 -0.90062539637E+03  0.91422312512E+03  0.00000000000E+00 0. -1.
         -4    1    6    6    0  503  0.31466819555E+02  0.16816437806E+03 -0.55533930531E+03  0.58109479675E+03  0.00000000000E+00 0.  1.
<mgrwt>
<rscale>  0 0.19506191E+04</rscale>
<asrwt>0</asrwt>
<pdfrwt beam="1">  1        2 0.36527660E+00 0.19506191E+04</pdfrwt>
<pdfrwt beam="2">  1       -1 0.61636275E-01 0.19506191E+04</pdfrwt>
<totfact> 0.11663703E+01</totfact>
</mgrwt>
</event>
<event>
12    6  0.1403409E-007  0.2116061E+04  0.7818608E-02  0.8554201E-01
          2   -1    0    0  501    0  0.00000000000E+00  0.00000000000E+00  0.87783616100E+03  0.87783616100E+03  0.00000000000E+00 0. -1.
         -1   -1    0    0    0  501 -0.00000000000E+00 -0.00000000000E+00 -0.12752136277E+04  0.12752136277E+04  0.00000000000E+00 0.  1.
         24    2    1    2    0    0  0.76041525619E+03  0.33866700648E+03  0.70956851163E+02  0.83946384874E+03  0.82085172116E+02 0.  0.
        254    2    1    2    0    0 -0.76041525619E+03 -0.33866700648E+03 -0.46833431787E+03  0.13135859400E+04  0.90180057954E+03 0.  0.
         23    2    4    4    0    0 -0.32346123390E+03  0.26843416417E+03 -0.34116157932E+03  0.54921709330E+03  0.92542541792E+02 0.  0.
         23    2    4    4    0    0 -0.43695402229E+03 -0.60710117065E+03 -0.12717273855E+03  0.76436884667E+03  0.92661638905E+02 0.  0.
          4    1    3    3  502    0  0.49918130185E+03  0.23791966114E+03  0.83218986105E+02  0.55920759734E+03  0.00000000000E+00 0. -1.
         -3    1    3    3    0  502  0.26123395434E+03  0.10074734535E+03 -0.12262134942E+02  0.28025625140E+03  0.00000000000E+00 0.  1.
         11    1    5    5    0    0 -0.74137142365E+02  0.11732168377E+03 -0.10514564382E+03  0.17411576545E+03  0.00000000000E+00 0.  1.
        -11    1    5    5    0    0 -0.24932409153E+03  0.15111248039E+03 -0.23601593550E+03  0.37510132785E+03  0.00000000000E+00 0. -1.
          2    1    6    6  503    0 -0.30813071009E+03 -0.49422142647E+03 -0.95618185955E+02  0.59020521039E+03  0.00000000000E+00 0. -1.
         -2    1    6    6    0  503 -0.12882331220E+03 -0.11287974418E+03 -0.31554552596E+02  0.17416363628E+03  0.00000000000E+00 0.  1.
<mgrwt>
<rscale>  0 0.21160611E+04</rscale>
<asrwt>0</asrwt>
<pdfrwt beam="1">  1        2 0.13505172E+00 0.21160611E+04</pdfrwt>
<pdfrwt beam="2">  1       -1 0.19618671E+00 0.21160611E+04</pdfrwt>
<totfact> 0.50984743E+00</totfact>
</mgrwt>
</event>
<event>
12    6  0.1403409E-007  0.1801930E+04  0.7818608E-02  0.8705274E-01
          2   -1    0    0  501    0  0.00000000000E+00  0.00000000000E+00  0.71014251326E+03  0.71014251326E+03  0.00000000000E+00 0. -1.
         -1   -1    0    0    0  501 -0.00000000000E+00 -0.00000000000E+00 -0.11430629297E+04  0.11430629297E+04  0.00000000000E+00 0.  1.
         24    2    1    2    0    0  0.23811223348E+02 -0.28786379982E+03  0.45955627283E+03  0.55027989734E+03  0.90462455802E+02 0.  0.
        254    2    1    2    0    0 -0.23811223348E+02  0.28786379982E+03 -0.89247668930E+03  0.13029255457E+04  0.90424985207E+03 0.  0.
         23    2    4    4    0    0 -0.26969658715E+03 -0.22832459326E+03 -0.27850595401E+03  0.45862873063E+03  0.88917811109E+02 0.  0.
         23    2    4    4    0    0  0.24588536380E+03  0.51618839308E+03 -0.61397073528E+03  0.84429681502E+03  0.94694132778E+02 0.  0.
          4    1    3    3  502    0  0.22122427394E+02 -0.27541322314E+03  0.46117675670E+03  0.53761124076E+03  0.00000000000E+00 0. -1.
         -3    1    3    3    0  502  0.16887959545E+01 -0.12450576676E+02 -0.16204838695E+01  0.12668656571E+02  0.00000000000E+00 0.  1.
         11    1    5    5    0    0 -0.26028405760E+03 -0.20887555105E+03 -0.28177387863E+03  0.43677603545E+03  0.00000000000E+00 0.  1.
        -11    1    5    5    0    0 -0.94125295476E+01 -0.19449042210E+02  0.32679246132E+01  0.21852695180E+02  0.00000000000E+00 0. -1.
          3    1    6    6  503    0 -0.15630161860E+01  0.18375849666E+02 -0.37553224036E+01  0.18820661968E+02  0.00000000000E+00 0. -1.
         -3    1    6    6    0  503  0.24744837998E+03  0.49781254342E+03 -0.61021541288E+03  0.82547615305E+03  0.00000000000E+00 0.  1.
<mgrwt>
<rscale>  0 0.18019296E+04</rscale>
<asrwt>0</asrwt>
<pdfrwt beam="1">  1        2 0.10925270E+00 0.18019296E+04</pdfrwt>
<pdfrwt beam="2">  1       -1 0.17585583E+00 0.18019296E+04</pdfrwt>
<totfact> 0.96670776E+00</totfact>
</mgrwt>
</event>
<event>
12    6  0.1403409E-007  0.1577080E+04  0.7818608E-02  0.8834754E-01
         -1   -1    0    0    0  501 -0.00000000000E+00  0.00000000000E+00  0.53499656423E+03  0.53499656423E+03  0.00000000000E+00 0.  1.
          2   -1    0    0  501    0  0.00000000000E+00 -0.00000000000E+00 -0.11622412136E+04  0.11622412136E+04  0.00000000000E+00 0. -1.
         24    2    1    2    0    0 -0.43372402269E+03  0.26068850442E+03 -0.37545467059E+03  0.63507389151E+03  0.79231394089E+02 0.  0.
        254    2    1    2    0    0  0.43372402269E+03 -0.26068850442E+03 -0.25178997875E+03  0.10621638863E+04  0.89928799823E+03 0.  0.
         23    2    4    4    0    0 -0.25949588112E+03 -0.10187515227E+03  0.24187806761E+02  0.29392607738E+03  0.89949041134E+02 0.  0.
         23    2    4    4    0    0  0.69321990381E+03 -0.15881335215E+03 -0.27597778551E+03  0.76823780891E+03  0.90829934971E+02 0.  0.
          4    1    3    3  502    0 -0.42676671969E+03  0.26141307546E+03 -0.37846662325E+03  0.62745805754E+03  0.00000000000E+00 0. -1.
         -3    1    3    3    0  502 -0.69573030034E+01 -0.72457103947E+00  0.30119526565E+01  0.76158339713E+01  0.00000000000E+00 0.  1.
         11    1    5    5    0    0 -0.23075131634E+03 -0.10307391263E+03  0.47186940767E+02  0.25709338544E+03  0.00000000000E+00 0.  1.
        -11    1    5    5    0    0 -0.28744564785E+02  0.11987603587E+01 -0.22999134007E+02  0.36832691948E+02  0.00000000000E+00 0. -1.
          1    1    6    6  503    0  0.42739927726E+02 -0.76251978715E+01 -0.42574260928E+02  0.60806354587E+02  0.00000000000E+00 0. -1.
         -1    1    6    6    0  503  0.65047997609E+03 -0.15118815428E+03 -0.23340352458E+03  0.70743145433E+03  0.00000000000E+00 0.  1.
<mgrwt>
<rscale>  0 0.15770797E+04</rscale>
<asrwt>0</asrwt>
<pdfrwt beam="1">  1        2 0.17880634E+00 0.15770797E+04</pdfrwt>
<pdfrwt beam="2">  1       -1 0.82307165E-01 0.15770797E+04</pdfrwt>
<totfact> 0.32094535E+01</totfact>
</mgrwt>
</event>
<event>
12    6  0.1403409E-007  0.2820041E+04  0.7818608E-02  0.8297073E-01
          2   -1    0    0  501    0  0.00000000000E+00  0.00000000000E+00  0.16572006836E+04  0.16572006836E+04  0.00000000000E+00 0. -1.
         -1   -1    0    0    0  501 -0.00000000000E+00 -0.00000000000E+00 -0.11997082204E+04  0.11997082204E+04  0.00000000000E+00 0.  1.
         24    2    1    2    0    0  0.98280337288E+03  0.71174224440E+03 -0.15660147907E+03  0.12263561563E+04  0.83342106154E+02 0.  0.
        254    2    1    2    0    0 -0.98280337288E+03 -0.71174224440E+03  0.61409394226E+03  0.16305527477E+04  0.89950619835E+03 0.  0.
         23    2    4    4    0    0 -0.17740406074E+03 -0.11121899470E+03  0.57769028911E+03  0.62113528656E+03  0.90780551488E+02 0.  0.
         23    2    4    4    0    0 -0.80539931214E+03 -0.60052324970E+03  0.36403653153E+02  0.10094174611E+04  0.91116186571E+02 0.  0.
          4    1    3    3  502    0  0.75349935743E+03  0.58225650795E+03 -0.10516198928E+03  0.95804121346E+03  0.00000000000E+00 0. -1.
         -3    1    3    3    0  502  0.22930401545E+03  0.12948573645E+03 -0.51439489789E+02  0.26831494285E+03  0.00000000000E+00 0.  1.
         11    1    5    5    0    0 -0.74814326061E+02 -0.41082082047E+01  0.13691910134E+03  0.15607979072E+03  0.00000000000E+00 0. -1.
        -11    1    5    5    0    0 -0.10258973468E+03 -0.10711078649E+03  0.44077118777E+03  0.46505549584E+03  0.00000000000E+00 0.  1.
          3    1    6    6  503    0 -0.63827598727E+02 -0.75118182145E+02 -0.11967862716E+02  0.99297197272E+02  0.00000000000E+00 0. -1.
         -3    1    6    6    0  503 -0.74157171341E+03 -0.52540506755E+03  0.48371515869E+02  0.91012026386E+03  0.00000000000E+00 0.  1.
<mgrwt>
<rscale>  0 0.28200406E+04</rscale>
<asrwt>0</asrwt>
<pdfrwt beam="1">  1        2 0.25495395E+00 0.28200406E+04</pdfrwt>
<pdfrwt beam="2">  1       -1 0.18457050E+00 0.28200406E+04</pdfrwt>
<totfact> 0.19778462E+00</totfact>
</mgrwt>
</event>
<event>
12    6  0.1403409E-007  0.2429732E+04  0.7818608E-02  0.8428456E-01
         -1   -1    0    0    0  501 -0.00000000000E+00  0.00000000000E+00  0.13544691584E+04  0.13544691584E+04  0.00000000000E+00 0.  1.
          2   -1    0    0  501    0  0.00000000000E+00 -0.00000000000E+00 -0.10896513401E+04  0.10896513401E+04  0.00000000000E+00 0. -1.
         24    2    1    2    0    0 -0.40927307426E+03  0.62585249464E+03  0.85090310317E+03  0.11355677334E+04  0.79260278998E+02 0.  0.
        254    2    1    2    0    0  0.40927307426E+03 -0.62585249464E+03 -0.58608528489E+03  0.13085527650E+04  0.89978807690E+03 0.  0.
         23    2    4    4    0    0 -0.17694502348E+03 -0.52241342812E+03 -0.20140982713E+03  0.59399194942E+03  0.89639200677E+02 0.  0.
         23    2    4    4    0    0  0.58621809774E+03 -0.10343906652E+03 -0.38467545776E+03  0.71456081560E+03  0.90943129439E+02 0.  0.
          4    1    3    3  502    0 -0.25247492581E+03  0.35801480194E+03  0.44315397979E+03  0.62314014184E+03  0.00000000000E+00 0. -1.
         -3    1    3    3    0  502 -0.15679814846E+03  0.26783769270E+03  0.40774912338E+03  0.51242759158E+03  0.00000000000E+00 0.  1.
         11    1    5    5    0    0 -0.17039617363E+03 -0.47180475205E+03 -0.15505094136E+03  0.52504797348E+03  0.00000000000E+00 0.  1.
        -11    1    5    5    0    0 -0.65488498512E+01 -0.50608676075E+02 -0.46358885774E+02  0.68943975942E+02  0.00000000000E+00 0. -1.
          3    1    6    6  503    0  0.18356071767E+03 -0.24012244313E+01 -0.83476170906E+02  0.20166450868E+03  0.00000000000E+00 0. -1.
         -3    1    6    6    0  503  0.40265738007E+03 -0.10103784208E+03 -0.30119928685E+03  0.51289630693E+03  0.00000000000E+00 0.  1.
<mgrwt>
<rscale>  0 0.24297318E+04</rscale>
<asrwt>0</asrwt>
<pdfrwt beam="1">  1        2 0.16763867E+00 0.24297318E+04</pdfrwt>
<pdfrwt beam="2">  1       -1 0.20837987E+00 0.24297318E+04</pdfrwt>
<totfact> 0.29813447E+00</totfact>
</mgrwt>
</event>
<event>
12    6  0.1403409E-007  0.1027403E+04  0.7818608E-02  0.9278990E-01
         -1   -1    0    0    0  501 -0.00000000000E+00  0.00000000000E+00  0.15936022246E+03  0.15936022246E+03  0.00000000000E+00 0.  1.
          2   -1    0    0  501    0  0.00000000000E+00 -0.00000000000E+00 -0.16559305458E+04  0.16559305458E+04  0.00000000000E+00 0. -1.
         24    2    1    2    0    0 -0.15765664592E+02 -0.50410433100E+02 -0.43689989799E+02  0.10524776703E+03  0.79865570241E+02 0.  0.
        254    2    1    2    0    0  0.15765664592E+02  0.50410433100E+02 -0.14528803335E+04  0.17100430012E+04  0.90033106941E+03 0.  0.
         23    2    4    4    0    0  0.13107320716E+03 -0.16979431134E+03  0.41290709884E+01  0.22915090118E+03  0.80515790295E+02 0.  0.
         23    2    4    4    0    0 -0.11530754256E+03  0.22020474444E+03 -0.14570094045E+04  0.14808921000E+04  0.91537141509E+02 0.  0.
          2    1    3    3  502    0 -0.31254670783E+01 -0.47360543387E+02 -0.64879070004E+02  0.80387084404E+02  0.00000000000E+00 0. -1.
         -1    1    3    3    0  502 -0.12640197514E+02 -0.30498897134E+01  0.21189080206E+02  0.24860682622E+02  0.00000000000E+00 0.  1.
         11    1    5    5    0    0  0.12432817773E+03 -0.14514731637E+03 -0.22271509163E+02  0.19240909372E+03  0.00000000000E+00 0.  1.
        -11    1    5    5    0    0  0.67450294297E+01 -0.24646994974E+02  0.26400580151E+02  0.36741807462E+02  0.00000000000E+00 0. -1.
          2    1    6    6  503    0 -0.24995271037E+02  0.83512827216E+02 -0.75515295912E+03  0.76016784170E+03  0.00000000000E+00 0. -1.
         -2    1    6    6    0  503 -0.90312271528E+02  0.13669191723E+03 -0.70185644538E+03  0.72072425833E+03  0.00000000000E+00 0.  1.
<mgrwt>
<rscale>  0 0.10274034E+04</rscale>
<asrwt>0</asrwt>
<pdfrwt beam="1">  1        2 0.25475853E+00 0.10274034E+04</pdfrwt>
<pdfrwt beam="2">  1       -1 0.24516959E-01 0.10274034E+04</pdfrwt>
<totfact> 0.17071618E+02</totfact>
</mgrwt>
</event>
<event>
12    6  0.1403409E-007  0.2383267E+04  0.7818608E-02  0.8445795E-01
         -1   -1    0    0    0  501 -0.00000000000E+00  0.00000000000E+00  0.42228626075E+03  0.42228626075E+03  0.00000000000E+00 0.  1.
          2   -1    0    0  501    0  0.00000000000E+00 -0.00000000000E+00 -0.33626260801E+04  0.33626260801E+04  0.00000000000E+00 0. -1.
         24    2    1    2    0    0  0.55538440209E+03 -0.77338730721E+03 -0.18504261929E+04  0.20825443627E+04  0.79587477088E+02 0.  0.
        254    2    1    2    0    0 -0.55538440209E+03  0.77338730721E+03 -0.10899136265E+04  0.17023679782E+04  0.89641801563E+03 0.  0.
         23    2    4    4    0    0 -0.44962525072E+03  0.44281033417E+02 -0.76337673762E+03  0.89147554975E+03  0.88661921147E+02 0.  0.
         23    2    4    4    0    0 -0.10575915138E+03  0.72910627379E+03 -0.32653688891E+03  0.81089242841E+03  0.90217703690E+02 0.  0.
          4    1    3    3  502    0  0.60758437606E+02 -0.64991997528E+02 -0.22077649424E+03  0.23802900641E+03  0.00000000000E+00 0. -1.
         -3    1    3    3    0  502  0.49462596448E+03 -0.70839530968E+03 -0.16296496986E+04  0.18445153563E+04  0.00000000000E+00 0.  1.
         11    1    5    5    0    0 -0.24388888323E+03  0.60526170330E+02 -0.46714463826E+03  0.53044256778E+03  0.00000000000E+00 0.  1.
        -11    1    5    5    0    0 -0.20573636748E+03 -0.16245136913E+02 -0.29623209936E+03  0.36103298197E+03  0.00000000000E+00 0. -1.
          3    1    6    6  503    0 -0.64933515514E+02  0.47235281333E+03 -0.25758170240E+03  0.54192423373E+03  0.00000000000E+00 0. -1.
         -3    1    6    6    0  503 -0.40825635862E+02  0.25675346046E+03 -0.68955186510E+02  0.26896819468E+03  0.00000000000E+00 0.  1.
<mgrwt>
<rscale>  0 0.23832673E+04</rscale>
<asrwt>0</asrwt>
<pdfrwt beam="1">  1        2 0.51732711E+00 0.23832673E+04</pdfrwt>
<pdfrwt beam="2">  1       -1 0.64967114E-01 0.23832673E+04</pdfrwt>
<totfact> 0.24910915E+00</totfact>
</mgrwt>
</event>
<event>
12    6  0.1403409E-007  0.1683524E+04  0.7818608E-02  0.8770818E-01
          2   -1    0    0  501    0  0.00000000000E+00  0.00000000000E+00  0.62926999873E+03  0.62926999873E+03  0.00000000000E+00 0. -1.
         -1   -1    0    0    0  501 -0.00000000000E+00 -0.00000000000E+00 -0.11260079902E+04  0.11260079902E+04  0.00000000000E+00 0.  1.
         24    2    1    2    0    0  0.42935296642E+03 -0.36049876822E+03  0.39088958726E+02  0.56764725630E+03  0.79950792559E+02 0.  0.
        254    2    1    2    0    0 -0.42935296642E+03  0.36049876822E+03 -0.53582695021E+03  0.11876307326E+04  0.89947368215E+03 0.  0.
         23    2    4    4    0    0  0.10323410393E+03  0.33848641558E+03 -0.53463114896E+03  0.64742444310E+03  0.89986723102E+02 0.  0.
         23    2    4    4    0    0 -0.53258707035E+03  0.22012352641E+02 -0.11958012515E+01  0.54020628954E+03  0.87680523186E+02 0.  0.
          4    1    3    3  502    0  0.35815944978E+03 -0.32123235274E+03  0.56749779013E+02  0.48444705937E+03  0.00000000000E+00 0. -1.
         -3    1    3    3    0  502  0.71193516640E+02 -0.39266415475E+02 -0.17660820287E+02  0.83200196929E+02  0.00000000000E+00 0.  1.
         11    1    5    5    0    0  0.12881518069E+02 -0.18495467478E+01 -0.18643466736E+02  0.22736164648E+02  0.00000000000E+00 0. -1.
        -11    1    5    5    0    0  0.90352585860E+02  0.34033596233E+03 -0.51598768222E+03  0.62468827845E+03  0.00000000000E+00 0.  1.
          4    1    6    6  503    0 -0.16258114090E+03 -0.25212546844E+02 -0.25125841906E+02  0.16643199160E+03  0.00000000000E+00 0. -1.
         -4    1    6    6    0  503 -0.37000592945E+03  0.47224899485E+02  0.23930040655E+02  0.37377429794E+03  0.00000000000E+00 0.  1.
<mgrwt>
<rscale>  0 0.16835237E+04</rscale>
<asrwt>0</asrwt>
<pdfrwt beam="1">  1        2 0.96810770E-01 0.16835237E+04</pdfrwt>
<pdfrwt beam="2">  1       -1 0.17323200E+00 0.16835237E+04</pdfrwt>
<totfact> 0.11866282E+01</totfact>
</mgrwt>
</event>
<event>
12    6  0.1403409E-007  0.1618259E+04  0.7818608E-02  0.8809409E-01
          2   -1    0    0  501    0  0.00000000000E+00  0.00000000000E+00  0.98599900909E+03  0.98599900909E+03  0.00000000000E+00 0. -1.
         -1   -1    0    0    0  501 -0.00000000000E+00 -0.00000000000E+00 -0.66398712358E+03  0.66398712358E+03  0.00000000000E+00 0.  1.
         24    2    1    2    0    0  0.21646461283E+03 -0.51092642167E+03  0.11984853018E+03  0.57367283270E+03  0.82668687069E+02 0.  0.
        254    2    1    2    0    0 -0.21646461283E+03  0.51092642167E+03  0.20216335533E+03  0.10763133000E+04  0.89982084912E+03 0.  0.
         23    2    4    4    0    0 -0.26472576766E+03  0.72976208506E+03  0.37678617220E+02  0.78249212797E+03  0.90784466084E+02 0.  0.
         23    2    4    4    0    0  0.48261154832E+02 -0.21883566339E+03  0.16448473811E+03  0.29382117201E+03  0.95170717211E+02 0.  0.
          4    1    3    3  502    0  0.70427606159E+02 -0.91087141551E+02  0.41000354673E+02  0.12222088262E+03  0.00000000000E+00 0. -1.
         -3    1    3    3    0  502  0.14603700667E+03 -0.41983928012E+03  0.78848175507E+02  0.45145195008E+03  0.00000000000E+00 0.  1.
         11    1    5    5    0    0 -0.25829123634E+03  0.71862478569E+03  0.24426015040E+02  0.76402393652E+03  0.00000000000E+00 0. -1.
        -11    1    5    5    0    0 -0.64345313230E+01  0.11137299374E+02  0.13252602180E+02  0.18468191444E+02  0.00000000000E+00 0.  1.
          4    1    6    6  503    0  0.50422169455E+02 -0.49358483179E+02  0.71697712641E+02  0.10059431909E+03  0.00000000000E+00 0. -1.
         -4    1    6    6    0  503 -0.21610146230E+01 -0.16947718021E+03  0.92787025466E+02  0.19322685293E+03  0.00000000000E+00 0.  1.
<mgrwt>
<rscale>  0 0.16182591E+04</rscale>
<asrwt>0</asrwt>
<pdfrwt beam="1">  1        2 0.15169215E+00 0.16182591E+04</pdfrwt>
<pdfrwt beam="2">  1       -1 0.10215187E+00 0.16182591E+04</pdfrwt>
<totfact> 0.25506211E+01</totfact>
</mgrwt>
</event>
<event>
12    6  0.1403409E-007  0.1852767E+04  0.7818608E-02  0.8678731E-01
          2   -1    0    0  501    0  0.00000000000E+00  0.00000000000E+00  0.10598251231E+04  0.10598251231E+04  0.00000000000E+00 0. -1.
         -1   -1    0    0    0  501 -0.00000000000E+00 -0.00000000000E+00 -0.80974335797E+03  0.80974335797E+03  0.00000000000E+00 0.  1.
         24    2    1    2    0    0  0.79148746936E+02  0.16368155523E+03 -0.59170886615E+03  0.62408589173E+03  0.79420666810E+02 0.  0.
        254    2    1    2    0    0 -0.79148746936E+02 -0.16368155523E+03  0.84179063129E+03  0.12454825893E+04  0.89975509876E+03 0.  0.
         23    2    4    4    0    0 -0.65558314844E+02  0.30015374830E+03  0.52076479450E+02  0.32453781653E+03  0.90678935720E+02 0.  0.
         23    2    4    4    0    0 -0.13590432092E+02 -0.46383530353E+03  0.78971415184E+03  0.92094477281E+03  0.95723269368E+02 0.  0.
          2    1    3    3  502    0 -0.89670219751E+01  0.61623825252E+02 -0.15521254910E+03  0.16723886725E+03  0.00000000000E+00 0. -1.
         -1    1    3    3    0  502  0.88115768911E+02  0.10205772997E+03 -0.43649631705E+03  0.45684702448E+03  0.00000000000E+00 0.  1.
         11    1    5    5    0    0 -0.17550746713E+02  0.18451712656E+02  0.27868005829E+02  0.37750763688E+02  0.00000000000E+00 0.  1.
        -11    1    5    5    0    0 -0.48007568131E+02  0.28170203564E+03  0.24208473621E+02  0.28678705284E+03  0.00000000000E+00 0. -1.
          2    1    6    6  503    0 -0.11881283142E+02 -0.46702172197E+03  0.76798481453E+03  0.89891664187E+03  0.00000000000E+00 0. -1.
         -2    1    6    6    0  503 -0.17091489505E+01  0.31864184418E+01  0.21729337311E+02  0.22028130937E+02  0.00000000000E+00 0.  1.
<mgrwt>
<rscale>  0 0.18527670E+04</rscale>
<asrwt>0</asrwt>
<pdfrwt beam="1">  1        2 0.16305002E+00 0.18527670E+04</pdfrwt>
<pdfrwt beam="2">  1       -1 0.12457590E+00 0.18527670E+04</pdfrwt>
<totfact> 0.13968390E+01</totfact>
</mgrwt>
</event>
<event>
12    6  0.1403409E-007  0.1566234E+04  0.7818608E-02  0.8841565E-01
          2   -1    0    0  501    0  0.00000000000E+00  0.00000000000E+00  0.30475653029E+04  0.30475653029E+04  0.00000000000E+00 0. -1.
         -1   -1    0    0    0  501 -0.00000000000E+00 -0.00000000000E+00 -0.20123341385E+03  0.20123341385E+03  0.00000000000E+00 0.  1.
         24    2    1    2    0    0  0.44488091930E+03  0.12008010576E+03  0.14683339351E+04  0.15410399049E+04  0.80381461643E+02 0.  0.
        254    2    1    2    0    0 -0.44488091930E+03 -0.12008010576E+03  0.13779979540E+04  0.17077588119E+04  0.89734248436E+03 0.  0.
         23    2    4    4    0    0  0.10150077395E+03 -0.33902585520E+03  0.79032471134E+03  0.87115386875E+03  0.95157637999E+02 0.  0.
         23    2    4    4    0    0 -0.54638169325E+03  0.21894574944E+03  0.58767324261E+03  0.83660494312E+03  0.89876553394E+02 0.  0.
          4    1    3    3  502    0  0.18065101756E+03  0.88573893960E+02  0.66629045379E+03  0.69600509599E+03  0.00000000000E+00 0. -1.
         -3    1    3    3    0  502  0.26422990174E+03  0.31506211802E+02  0.80204348134E+03  0.84503480894E+03  0.00000000000E+00 0.  1.
         11    1    5    5    0    0  0.68401810795E+02 -0.11900795967E+03  0.38560964354E+03  0.40931222725E+03  0.00000000000E+00 0. -1.
        -11    1    5    5    0    0  0.33098963154E+02 -0.22001789553E+03  0.40471506780E+03  0.46184164150E+03  0.00000000000E+00 0.  1.
          4    1    6    6  503    0 -0.27857631617E+03  0.14016016007E+03  0.36074278426E+03  0.47684902306E+03  0.00000000000E+00 0.  1.
         -4    1    6    6    0  503 -0.26780537708E+03  0.78785589370E+02  0.22693045835E+03  0.35975592005E+03  0.00000000000E+00 0. -1.
<mgrwt>
<rscale>  0 0.15662337E+04</rscale>
<asrwt>0</asrwt>
<pdfrwt beam="1">  1        2 0.46885616E+00 0.15662337E+04</pdfrwt>
<pdfrwt beam="2">  1       -1 0.30958989E-01 0.15662337E+04</pdfrwt>
<totfact> 0.17292403E+01</totfact>
</mgrwt>
</event>
<event>
12    6  0.1403409E-007  0.3170985E+04  0.7818608E-02  0.8196522E-01
         -1   -1    0    0    0  501 -0.00000000000E+00  0.00000000000E+00  0.94974249666E+03  0.94974249666E+03  0.00000000000E+00 0.  1.
          2   -1    0    0  501    0  0.00000000000E+00 -0.00000000000E+00 -0.26468092817E+04  0.26468092817E+04  0.00000000000E+00 0. -1.
         24    2    1    2    0    0  0.11845252025E+04 -0.91750502226E+02  0.17497244311E+03  0.12035882750E+04  0.80568417105E+02 0.  0.
        254    2    1    2    0    0 -0.11845252025E+04  0.91750502226E+02 -0.18720392282E+04  0.23929635034E+04  0.90012518377E+03 0.  0.
         23    2    4    4    0    0 -0.11598159901E+04 -0.57626783810E+02 -0.11040230187E+04  0.16049818196E+04  0.92767658193E+02 0.  0.
         23    2    4    4    0    0 -0.24709212436E+02  0.14937728604E+03 -0.76801620952E+03  0.78798168376E+03  0.90233680444E+02 0.  0.
          2    1    3    3  502    0  0.10879532483E+04 -0.95650511900E+02  0.14136258044E+03  0.11012604914E+04  0.00000000000E+00 0. -1.
         -1    1    3    3    0  502  0.96571954266E+02  0.39000096738E+01  0.33609862670E+02  0.10232778359E+03  0.00000000000E+00 0.  1.
         11    1    5    5    0    0 -0.73003852899E+03 -0.57344692209E+02 -0.64052905696E+03  0.97289369426E+03  0.00000000000E+00 0.  1.
        -11    1    5    5    0    0 -0.42977746112E+03 -0.28209160055E+00 -0.46349396169E+03  0.63208812533E+03  0.00000000000E+00 0. -1.
          4    1    6    6  503    0  0.30838399121E+02  0.88934915431E+02 -0.40228587719E+03  0.41315173124E+03  0.00000000000E+00 0. -1.
         -4    1    6    6    0  503 -0.55547611557E+02  0.60442370605E+02 -0.36573033233E+03  0.37482995252E+03  0.00000000000E+00 0.  1.
<mgrwt>
<rscale>  0 0.31709855E+04</rscale>
<asrwt>0</asrwt>
<pdfrwt beam="1">  1        2 0.40720142E+00 0.31709855E+04</pdfrwt>
<pdfrwt beam="2">  1       -1 0.14611423E+00 0.31709855E+04</pdfrwt>
<totfact> 0.10250685E+00</totfact>
</mgrwt>
</event>
<event>
12    6  0.1403409E-007  0.4434305E+04  0.7818608E-02  0.7922240E-01
         -1   -1    0    0    0  501 -0.00000000000E+00  0.00000000000E+00  0.27397870376E+04  0.27397870376E+04  0.00000000000E+00 0.  1.
          2   -1    0    0  501    0  0.00000000000E+00 -0.00000000000E+00 -0.17942140105E+04  0.17942140105E+04  0.00000000000E+00 0. -1.
         24    2    1    2    0    0 -0.77517444916E+03  0.19629184797E+04  0.19525867422E+03  0.21209820255E+04  0.80587950159E+02 0.  0.
        254    2    1    2    0    0  0.77517444916E+03 -0.19629184797E+04  0.75031435285E+03  0.24130190226E+04  0.89763288189E+03 0.  0.
         23    2    4    4    0    0  0.26922840475E+03 -0.76685940745E+03  0.75119469020E+03  0.11105165994E+04  0.91631709417E+02 0.  0.
         23    2    4    4    0    0  0.50594604441E+03 -0.11960590723E+04 -0.88033734351E+00  0.13025024232E+04  0.99865325826E+02 0.  0.
          4    1    3    3  502    0 -0.53242628860E+03  0.13576800878E+04  0.17211038365E+03  0.14684668733E+04  0.00000000000E+00 0. -1.
         -3    1    3    3    0  502 -0.24274816056E+03  0.60523839189E+03  0.23148290574E+02  0.65251515218E+03  0.00000000000E+00 0.  1.
         11    1    5    5    0    0  0.25640579721E+03 -0.66207311671E+03  0.62409942628E+03  0.94529616449E+03  0.00000000000E+00 0. -1.
        -11    1    5    5    0    0  0.12822607536E+02 -0.10478629074E+03  0.12709526392E+03  0.16522043487E+03  0.00000000000E+00 0.  1.
          2    1    6    6  503    0  0.32272057765E+03 -0.78394019109E+03 -0.47422358107E+02  0.84909344273E+03  0.00000000000E+00 0. -1.
         -2    1    6    6    0  503  0.18322546676E+03 -0.41211888120E+03  0.46542020763E+02  0.45340898051E+03  0.00000000000E+00 0.  1.
<mgrwt>
<rscale>  0 0.44343046E+04</rscale>
<asrwt>0</asrwt>
<pdfrwt beam="1">  1        2 0.27603292E+00 0.44343046E+04</pdfrwt>
<pdfrwt beam="2">  1       -1 0.42150570E+00 0.44343046E+04</pdfrwt>
<totfact> 0.38387161E-02</totfact>
</mgrwt>
</event>
<event>
12    6  0.1403409E-007  0.1901394E+04  0.7818608E-02  0.8654163E-01
          2   -1    0    0  501    0  0.00000000000E+00  0.00000000000E+00  0.71018884315E+03  0.71018884315E+03  0.00000000000E+00 0. -1.
         -1   -1    0    0    0  501 -0.00000000000E+00 -0.00000000000E+00 -0.12726541553E+04  0.12726541553E+04  0.00000000000E+00 0.  1.
         24    2    1    2    0    0 -0.18675018708E+03 -0.44882290412E+03 -0.79387769970E+03  0.93453344771E+03  0.82421666936E+02 0.  0.
        254    2    1    2    0    0  0.18675018708E+03  0.44882290412E+03  0.23141238759E+03  0.10483095507E+04  0.89949073888E+03 0.  0.
         23    2    4    4    0    0  0.49378565865E+03  0.46068843457E+03  0.25352745901E+03  0.72696299876E+03  0.90227039487E+02 0.  0.
         23    2    4    4    0    0 -0.30703547157E+03 -0.11865530459E+02 -0.22115071420E+02  0.32134655194E+03  0.91449212380E+02 0.  0.
          2    1    3    3  502    0 -0.11502580256E+03 -0.36442713373E+03 -0.62519467466E+03  0.73273900693E+03  0.00000000000E+00 0. -1.
         -1    1    3    3    0  502 -0.71724384528E+02 -0.84395770383E+02 -0.16868302504E+03  0.20179444078E+03  0.00000000000E+00 0.  1.
         11    1    5    5    0    0  0.14441727081E+03  0.87246748915E+02  0.44418234076E+02  0.17447441882E+03  0.00000000000E+00 0.  1.
        -11    1    5    5    0    0  0.34936838784E+03  0.37344168566E+03  0.20910922493E+03  0.55248857994E+03  0.00000000000E+00 0. -1.
          4    1    6    6  503    0 -0.15975228529E+03 -0.51653821339E+02 -0.70831730384E+01  0.16804487869E+03  0.00000000000E+00 0. -1.
         -4    1    6    6    0  503 -0.14728318628E+03  0.39788290880E+02 -0.15031898381E+02  0.15330167325E+03  0.00000000000E+00 0.  1.
<mgrwt>
<rscale>  0 0.19013940E+04</rscale>
<asrwt>0</asrwt>
<pdfrwt beam="1">  1        2 0.10925982E+00 0.19013940E+04</pdfrwt>
<pdfrwt beam="2">  1       -1 0.19579295E+00 0.19013940E+04</pdfrwt>
<totfact> 0.69215618E+00</totfact>
</mgrwt>
</event>
<event>
12    6  0.1403409E-007  0.1642905E+04  0.7818608E-02  0.8794615E-01
          2   -1    0    0  501    0  0.00000000000E+00  0.00000000000E+00  0.17875849767E+04  0.17875849767E+04  0.00000000000E+00 0. -1.
         -1   -1    0    0    0  501 -0.00000000000E+00 -0.00000000000E+00 -0.37748392341E+03  0.37748392341E+03  0.00000000000E+00 0.  1.
         24    2    1    2    0    0 -0.44496368585E+03 -0.13943030744E+03  0.93362530388E+03  0.10465923018E+04  0.79156463618E+02 0.  0.
        254    2    1    2    0    0  0.44496368585E+03  0.13943030744E+03  0.47647574941E+03  0.11184765983E+04  0.89806863260E+03 0.  0.
         23    2    4    4    0    0 -0.25859668392E+03 -0.31626952108E+01  0.51295694221E+02  0.27911524019E+03  0.91606885556E+02 0.  0.
         23    2    4    4    0    0  0.70356036978E+03  0.14259300265E+03  0.42518005519E+03  0.83936135814E+03  0.91757571244E+02 0.  0.
          4    1    3    3  502    0 -0.38200195700E+03 -0.11073403761E+03  0.84693268986E+03  0.93567222006E+03  0.00000000000E+00 0. -1.
         -3    1    3    3    0  502 -0.62961728859E+02 -0.28696269829E+02  0.86692614017E+02  0.11092008172E+03  0.00000000000E+00 0.  1.
         11    1    5    5    0    0 -0.25249429891E+03 -0.23058318510E+02  0.47883145786E+02  0.25802684489E+03  0.00000000000E+00 0.  1.
        -11    1    5    5    0    0 -0.61023850156E+01  0.19895623299E+02  0.34125484345E+01  0.21088395296E+02  0.00000000000E+00 0. -1.
          2    1    6    6  503    0  0.34248054521E+03  0.10592533186E+03  0.24458277730E+03  0.43397446322E+03  0.00000000000E+00 0. -1.
         -2    1    6    6    0  503  0.36107982456E+03  0.36667670798E+02  0.18059727789E+03  0.40538689492E+03  0.00000000000E+00 0.  1.
<mgrwt>
<rscale>  0 0.16429055E+04</rscale>
<asrwt>0</asrwt>
<pdfrwt beam="1">  1        2 0.27501307E+00 0.16429055E+04</pdfrwt>
<pdfrwt beam="2">  1       -1 0.58074451E-01 0.16429055E+04</pdfrwt>
<totfact> 0.28672101E+01</totfact>
</mgrwt>
</event>
<event>
12    6  0.1403409E-007  0.1697038E+04  0.7818608E-02  0.8763055E-01
          2   -1    0    0  501    0  0.00000000000E+00  0.00000000000E+00  0.69795507048E+03  0.69795507048E+03  0.00000000000E+00 0. -1.
         -1   -1    0    0    0  501 -0.00000000000E+00 -0.00000000000E+00 -0.10315632106E+04  0.10315632106E+04  0.00000000000E+00 0.  1.
         24    2    1    2    0    0  0.34747184163E+03 -0.49457001311E+03 -0.17497308557E+03  0.63469369013E+03  0.82971808579E+02 0.  0.
        254    2    1    2    0    0 -0.34747184163E+03  0.49457001311E+03 -0.15863505453E+03  0.10948245909E+04  0.89896586466E+03 0.  0.
         23    2    4    4    0    0  0.86935134975E+02  0.21610854696E+02 -0.38697083247E+03  0.40732789430E+03  0.90248775932E+02 0.  0.
         23    2    4    4    0    0 -0.43440697660E+03  0.47295915841E+03  0.22833577794E+03  0.68749669665E+03  0.90081593934E+02 0.  0.
          4    1    3    3  502    0  0.25518397027E+03 -0.30308420192E+03 -0.93804804774E+02  0.40715873260E+03  0.00000000000E+00 0. -1.
         -3    1    3    3    0  502  0.92287871357E+02 -0.19148581119E+03 -0.81168280798E+02  0.22753495752E+03  0.00000000000E+00 0.  1.
         11    1    5    5    0    0  0.97528910156E+02  0.99783724246E+01 -0.37487401822E+03  0.38748159411E+03  0.00000000000E+00 0.  1.
        -11    1    5    5    0    0 -0.10593775181E+02  0.11632482272E+02 -0.12096814247E+02  0.19846300192E+02  0.00000000000E+00 0. -1.
          1    1    6    6  503    0 -0.11847391620E+03  0.18536823428E+03  0.97971815714E+02  0.24082343693E+03  0.00000000000E+00 0. -1.
         -1    1    6    6    0  503 -0.31593306041E+03  0.28759092413E+03  0.13036396222E+03  0.44667325972E+03  0.00000000000E+00 0.  1.
<mgrwt>
<rscale>  0 0.16970383E+04</rscale>
<asrwt>0</asrwt>
<pdfrwt beam="1">  1        2 0.10737770E+00 0.16970383E+04</pdfrwt>
<pdfrwt beam="2">  1       -1 0.15870203E+00 0.16970383E+04</pdfrwt>
<totfact> 0.13363240E+01</totfact>
</mgrwt>
</event>
<event>
12    6  0.1403409E-007  0.1981779E+04  0.7818608E-02  0.8615187E-01
         -1   -1    0    0    0  501 -0.00000000000E+00  0.00000000000E+00  0.67322854481E+03  0.67322854481E+03  0.00000000000E+00 0.  1.
          2   -1    0    0  501    0  0.00000000000E+00 -0.00000000000E+00 -0.14584372725E+04  0.14584372725E+04  0.00000000000E+00 0. -1.
         24    2    1    2    0    0  0.74860259316E+03 -0.19025634064E+03 -0.17514822249E+03  0.79541541662E+03  0.73521884574E+02 0.  0.
        254    2    1    2    0    0 -0.74860259316E+03  0.19025634064E+03 -0.61006050521E+03  0.13362504007E+04  0.90376324095E+03 0.  0.
         23    2    4    4    0    0  0.34131170394E+02  0.37086571040E+02 -0.51922663448E+03  0.52843258004E+03  0.84287265656E+02 0.  0.
         23    2    4    4    0    0 -0.78273376356E+03  0.15316976960E+03 -0.90833870731E+02  0.80781782065E+03  0.90474948815E+02 0.  0.
          2    1    3    3  502    0  0.37648281290E+03 -0.78285954936E+02 -0.12060462423E+03  0.40300555150E+03  0.00000000000E+00 0. -1.
         -1    1    3    3    0  502  0.37211978026E+03 -0.11197038570E+03 -0.54543598263E+02  0.39240986512E+03  0.00000000000E+00 0.  1.
         11    1    5    5    0    0  0.35313626798E+02 -0.18260897326E+02 -0.15472321581E+03  0.15974913496E+03  0.00000000000E+00 0. -1.
        -11    1    5    5    0    0 -0.11824564033E+01  0.55347468366E+02 -0.36450341866E+03  0.36868344508E+03  0.00000000000E+00 0.  1.
          4    1    6    6  503    0 -0.73837826181E+01 -0.25826680544E+01  0.75633320049E+01  0.10880919586E+02  0.00000000000E+00 0. -1.
         -4    1    6    6    0  503 -0.77534998094E+03  0.15575243765E+03 -0.98397202736E+02  0.79693690107E+03  0.00000000000E+00 0.  1.
<mgrwt>
<rscale>  0 0.19817786E+04</rscale>
<asrwt>0</asrwt>
<pdfrwt beam="1">  1        2 0.22437496E+00 0.19817786E+04</pdfrwt>
<pdfrwt beam="2">  1       -1 0.10357362E+00 0.19817786E+04</pdfrwt>
<totfact> 0.12487919E+01</totfact>
</mgrwt>
</event>
<event>
12    6  0.1403409E-007  0.1891661E+04  0.7818608E-02  0.8659019E-01
          2   -1    0    0  501    0  0.00000000000E+00  0.00000000000E+00  0.13270933794E+04  0.13270933794E+04  0.00000000000E+00 0. -1.
         -1   -1    0    0    0  501 -0.00000000000E+00 -0.00000000000E+00 -0.67410098206E+03  0.67410098206E+03  0.00000000000E+00 0.  1.
         24    2    1    2    0    0  0.64780794655E+03  0.30564254403E+03  0.39841963408E+03  0.82296806773E+03  0.73930611768E+02 0.  0.
        254    2    1    2    0    0 -0.64780794655E+03 -0.30564254403E+03  0.25457276326E+03  0.11782262937E+04  0.90018742887E+03 0.  0.
         23    2    4    4    0    0 -0.46552647124E+03 -0.31462031663E+03 -0.25887260145E+03  0.62557063810E+03  0.92858819802E+02 0.  0.
         23    2    4    4    0    0 -0.18228147531E+03  0.89777726019E+01  0.51344536470E+03  0.55265565563E+03  0.92168294530E+02 0.  0.
          2    1    3    3  502    0  0.63450025195E+03  0.30820958445E+03  0.39673753629E+03  0.80931105910E+03  0.00000000000E+00 0. -1.
         -1    1    3    3    0  502  0.13307694595E+02 -0.25670404191E+01  0.16820977920E+01  0.13657008638E+02  0.00000000000E+00 0.  1.
         11    1    5    5    0    0 -0.36014496020E+03 -0.20715357873E+03 -0.15860003848E+03  0.44471448115E+03  0.00000000000E+00 0. -1.
        -11    1    5    5    0    0 -0.10538151103E+03 -0.10746673790E+03 -0.10027256296E+03  0.18085615694E+03  0.00000000000E+00 0.  1.
          4    1    6    6  503    0 -0.15218103441E+03 -0.15294107147E+01  0.29547052741E+03  0.33236160864E+03  0.00000000000E+00 0.  1.
         -4    1    6    6    0  503 -0.30100440906E+02  0.10507183317E+02  0.21797483729E+03  0.22029404699E+03  0.00000000000E+00 0. -1.
<mgrwt>
<rscale>  0 0.18916606E+04</rscale>
<asrwt>0</asrwt>
<pdfrwt beam="1">  1        2 0.20416821E+00 0.18916606E+04</pdfrwt>
<pdfrwt beam="2">  1       -1 0.10370784E+00 0.18916606E+04</pdfrwt>
<totfact> 0.14923706E+01</totfact>
</mgrwt>
</event>
<event>
12    6  0.1403409E-007  0.1296443E+04  0.7818608E-02  0.9032391E-01
         -1   -1    0    0    0  501 -0.00000000000E+00  0.00000000000E+00  0.39225011669E+03  0.39225011669E+03  0.00000000000E+00 0.  1.
          2   -1    0    0  501    0  0.00000000000E+00 -0.00000000000E+00 -0.10712326019E+04  0.10712326019E+04  0.00000000000E+00 0. -1.
         24    2    1    2    0    0  0.30806980512E+03  0.99112061188E+02 -0.26297460346E+03  0.42096526379E+03  0.57670666332E+02 0.  0.
        254    2    1    2    0    0 -0.30806980512E+03 -0.99112061188E+02 -0.41600788171E+03  0.10425174548E+04  0.89947200086E+03 0.  0.
         23    2    4    4    0    0  0.17057286541E+02  0.31117056037E+03  0.59975160838E+02  0.32925702265E+03  0.87721709883E+02 0.  0.
         23    2    4    4    0    0 -0.32512709166E+03 -0.41028262156E+03 -0.47598304255E+03  0.71326043210E+03  0.90228221342E+02 0.  0.
          2    1    3    3  502    0  0.23027913055E+03  0.55162163142E+02 -0.21351493767E+03  0.31884160772E+03  0.00000000000E+00 0. -1.
         -1    1    3    3    0  502  0.77790674566E+02  0.43949898046E+02 -0.49459665791E+02  0.10212365606E+03  0.00000000000E+00 0.  1.
         11    1    5    5    0    0  0.71663261183E+01  0.83704562173E+02  0.57062293290E+02  0.10155744815E+03  0.00000000000E+00 0. -1.
        -11    1    5    5    0    0  0.98909604230E+01  0.22746599820E+03  0.29128675486E+01  0.22769957451E+03  0.00000000000E+00 0.  1.
          4    1    6    6  503    0 -0.13577925116E+03 -0.12402542388E+03 -0.12500130265E+03  0.22235925094E+03  0.00000000000E+00 0. -1.
         -4    1    6    6    0  503 -0.18934784049E+03 -0.28625719768E+03 -0.35098173990E+03  0.49090118116E+03  0.00000000000E+00 0.  1.
<mgrwt>
<rscale>  0 0.12964430E+04</rscale>
<asrwt>0</asrwt>
<pdfrwt beam="1">  1        2 0.16480501E+00 0.12964430E+04</pdfrwt>
<pdfrwt beam="2">  1       -1 0.60346172E-01 0.12964430E+04</pdfrwt>
<totfact> 0.70685537E+01</totfact>
</mgrwt>
</event>
<event>
12    6  0.1403409E-007  0.1607565E+04  0.7818608E-02  0.8815914E-01
         -1   -1    0    0    0  501 -0.00000000000E+00  0.00000000000E+00  0.24502177097E+03  0.24502177097E+03  0.00000000000E+00 0.  1.
          2   -1    0    0  501    0  0.00000000000E+00 -0.00000000000E+00 -0.26367697076E+04  0.26367697076E+04  0.00000000000E+00 0. -1.
         24    2    1    2    0    0 -0.43564409449E+03  0.32489599748E+03 -0.69007460904E+03  0.88195244538E+03  0.79334504636E+02 0.  0.
        254    2    1    2    0    0  0.43564409449E+03 -0.32489599748E+03 -0.17016733276E+04  0.19998390332E+04  0.89906665972E+03 0.  0.
         23    2    4    4    0    0  0.50106456454E+03  0.56949012118E+01 -0.15274793947E+04  0.16101713340E+04  0.91434641901E+02 0.  0.
         23    2    4    4    0    0 -0.65420470054E+02 -0.33059089870E+03 -0.17419393282E+03  0.38966769917E+03  0.89034877117E+02 0.  0.
          2    1    3    3  502    0 -0.11424792075E+03  0.60545654176E+02 -0.12207794494E+03  0.17782403739E+03  0.00000000000E+00 0. -1.
         -1    1    3    3    0  502 -0.32139617374E+03  0.26435034331E+03 -0.56799666410E+03  0.70412840799E+03  0.00000000000E+00 0.  1.
         11    1    5    5    0    0  0.10326186765E+03  0.25121323014E+02 -0.23952309897E+03  0.26204085391E+03  0.00000000000E+00 0.  1.
        -11    1    5    5    0    0  0.39780269689E+03 -0.19426421802E+02 -0.12879562958E+04  0.13481304801E+04  0.00000000000E+00 0. -1.
          2    1    6    6  503    0  0.61447878689E+01 -0.11432462120E+03 -0.24488358899E+02  0.11707927721E+03  0.00000000000E+00 0. -1.
         -2    1    6    6    0  503 -0.71565257923E+02 -0.21626627749E+03 -0.14970557392E+03  0.27258842196E+03  0.00000000000E+00 0.  1.
<mgrwt>
<rscale>  0 0.16075646E+04</rscale>
<asrwt>0</asrwt>
<pdfrwt beam="1">  1        2 0.40565688E+00 0.16075646E+04</pdfrwt>
<pdfrwt beam="2">  1       -1 0.37695657E-01 0.16075646E+04</pdfrwt>
<totfact> 0.21507992E+01</totfact>
</mgrwt>
</event>
<event>
12    6  0.1403409E-007  0.4249009E+04  0.7818608E-02  0.7956115E-01
         -1   -1    0    0    0  501 -0.00000000000E+00  0.00000000000E+00  0.13287939139E+04  0.13287939139E+04  0.00000000000E+00 0.  1.
          2   -1    0    0  501    0  0.00000000000E+00 -0.00000000000E+00 -0.33967038487E+04  0.33967038487E+04  0.00000000000E+00 0. -1.
         24    2    1    2    0    0  0.65537851928E+03  0.18776460274E+04 -0.14263357170E+04  0.24486895039E+04  0.81062328410E+02 0.  0.
        254    2    1    2    0    0 -0.65537851928E+03 -0.18776460274E+04 -0.64157421777E+03  0.22768082587E+04  0.90397055381E+03 0.  0.
         23    2    4    4    0    0 -0.84132317122E+03 -0.12187595107E+04 -0.53876876170E+03  0.15790142921E+04  0.99070342921E+02 0.  0.
         23    2    4    4    0    0  0.18594465194E+03 -0.65888651667E+03 -0.10280545607E+03  0.69779396652E+03  0.87410539871E+02 0.  0.
          4    1    3    3  502    0  0.48944568795E+03  0.15013634016E+04 -0.11278395865E+04  0.19405337611E+04  0.00000000000E+00 0. -1.
         -1    1    3    3    0  502  0.16593283133E+03  0.37628262579E+03 -0.29849613051E+03  0.50815574278E+03  0.00000000000E+00 0.  1.
         11    1    5    5    0    0 -0.62105328483E+03 -0.96991478398E+03 -0.40689908948E+03  0.12214780963E+04  0.00000000000E+00 0. -1.
        -11    1    5    5    0    0 -0.22026988639E+03 -0.24884472672E+03 -0.13186967222E+03  0.35753619582E+03  0.00000000000E+00 0.  1.
          2    1    6    6  503    0  0.13064838893E+03 -0.31359872979E+03 -0.34222648025E+02  0.34144451159E+03  0.00000000000E+00 0. -1.
         -2    1    6    6    0  503  0.55296263008E+02 -0.34528778688E+03 -0.68582808045E+02  0.35634945493E+03  0.00000000000E+00 0.  1.
<mgrwt>
<rscale>  0 0.42490090E+04</rscale>
<asrwt>0</asrwt>
<pdfrwt beam="1">  1        2 0.52256982E+00 0.42490090E+04</pdfrwt>
<pdfrwt beam="2">  1       -1 0.20442983E+00 0.42490090E+04</pdfrwt>
<totfact> 0.11783864E-01</totfact>
</mgrwt>
</event>
<event>
12    6  0.1403409E-007  0.2190132E+04  0.7818608E-02  0.8522547E-01
          2   -1    0    0  501    0  0.00000000000E+00  0.00000000000E+00  0.74873659080E+03  0.74873659080E+03  0.00000000000E+00 0. -1.
         -1   -1    0    0    0  501 -0.00000000000E+00 -0.00000000000E+00 -0.16015903384E+04  0.16015903384E+04  0.00000000000E+00 0.  1.
         24    2    1    2    0    0 -0.85341318953E+03  0.22347248831E+03 -0.58420963120E+03  0.10610477855E+04  0.79167448058E+02 0.  0.
        254    2    1    2    0    0  0.85341318953E+03 -0.22347248831E+03 -0.26864411642E+03  0.12892791437E+04  0.90100889233E+03 0.  0.
         23    2    4    4    0    0  0.66408568901E+03  0.25869210309E+03 -0.25870052120E+03  0.76352063245E+03  0.90035492747E+02 0.  0.
         23    2    4    4    0    0  0.18932750052E+03 -0.48216459140E+03 -0.99435952204E+01  0.52575851128E+03  0.89417791547E+02 0.  0.
          2    1    3    3  502    0 -0.51007728649E+03  0.11220217600E+03 -0.30565954206E+03  0.60514124148E+03  0.00000000000E+00 0. -1.
         -1    1    3    3    0  502 -0.34333590305E+03  0.11127031230E+03 -0.27855008914E+03  0.45590654402E+03  0.00000000000E+00 0.  1.
         11    1    5    5    0    0  0.21811873403E+03  0.13110836448E+03 -0.89746043068E+02  0.26985095445E+03  0.00000000000E+00 0.  1.
        -11    1    5    5    0    0  0.44596695498E+03  0.12758373861E+03 -0.16895447814E+03  0.49366967800E+03  0.00000000000E+00 0. -1.
          4    1    6    6  503    0  0.11544009901E+02 -0.58370450925E+02  0.25679089940E+02  0.64805781887E+02  0.00000000000E+00 0. -1.
         -4    1    6    6    0  503  0.17778349062E+03 -0.42379414047E+03 -0.35622685161E+02  0.46095272939E+03  0.00000000000E+00 0.  1.
<mgrwt>
<rscale>  0 0.21901318E+04</rscale>
<asrwt>0</asrwt>
<pdfrwt beam="1">  1        2 0.11519025E+00 0.21901318E+04</pdfrwt>
<pdfrwt beam="2">  1       -1 0.24639851E+00 0.21901318E+04</pdfrwt>
<totfact> 0.28875297E+00</totfact>
</mgrwt>
</event>
<event>
12    6  0.1403409E-007  0.3267462E+04  0.7818608E-02  0.8171224E-01
         -1   -1    0    0    0  501 -0.00000000000E+00  0.00000000000E+00  0.12429009809E+04  0.12429009809E+04  0.00000000000E+00 0.  1.
          2   -1    0    0  501    0  0.00000000000E+00 -0.00000000000E+00 -0.21474569020E+04  0.21474569020E+04  0.00000000000E+00 0. -1.
         24    2    1    2    0    0 -0.11849216090E+04  0.22769215390E+03  0.52111402320E+03  0.13168043197E+04  0.80813704150E+02 0.  0.
        254    2    1    2    0    0  0.11849216090E+04 -0.22769215390E+03 -0.14256699443E+04  0.20735535633E+04  0.90067011350E+03 0.  0.
         23    2    4    4    0    0  0.12099345665E+04 -0.39467539591E+03 -0.13708316160E+04  0.18728025385E+04  0.92193847555E+02 0.  0.
         23    2    4    4    0    0 -0.25012957479E+02  0.16698324201E+03 -0.54838328314E+02  0.20075102480E+03  0.93726626695E+02 0.  0.
          2    1    3    3  502    0 -0.41732222037E+03  0.47113591597E+02  0.15873591538E+03  0.44897061926E+03  0.00000000000E+00 0. -1.
         -1    1    3    3    0  502 -0.76759938861E+03  0.18057856230E+03  0.36237810782E+03  0.86783370042E+03  0.00000000000E+00 0.  1.
         11    1    5    5    0    0  0.40286123474E+03 -0.12282910974E+03 -0.39222352776E+03  0.57552016505E+03  0.00000000000E+00 0. -1.
        -11    1    5    5    0    0  0.80707333172E+03 -0.27184628616E+03 -0.97860808823E+03  0.12972823734E+04  0.00000000000E+00 0.  1.
          1    1    6    6  503    0 -0.28479267677E+02  0.17380546073E+03 -0.65256978298E+02  0.18782406684E+03  0.00000000000E+00 0.  1.
         -1    1    6    6    0  503  0.34663101982E+01 -0.68222187200E+01  0.10418649984E+02  0.12926957961E+02  0.00000000000E+00 0. -1.
<mgrwt>
<rscale>  0 0.32674616E+04</rscale>
<asrwt>0</asrwt>
<pdfrwt beam="1">  1        2 0.33037799E+00 0.32674616E+04</pdfrwt>
<pdfrwt beam="2">  1       -1 0.19121554E+00 0.32674616E+04</pdfrwt>
<totfact> 0.91189902E-01</totfact>
</mgrwt>
</event>
<event>
12    6  0.1403409E-007  0.5627231E+04  0.7818608E-02  0.7738421E-01
          2   -1    0    0  501    0  0.00000000000E+00  0.00000000000E+00  0.37439313815E+04  0.37439313815E+04  0.00000000000E+00 0. -1.
         -1   -1    0    0    0  501 -0.00000000000E+00 -0.00000000000E+00 -0.21144703110E+04  0.21144703110E+04  0.00000000000E+00 0.  1.
         24    2    1    2    0    0 -0.22950143618E+04  0.72148228238E+03  0.21618116433E+04  0.32353304328E+04  0.79409215717E+02 0.  0.
        254    2    1    2    0    0  0.22950143618E+04 -0.72148228238E+03 -0.53235057278E+03  0.26230712598E+04  0.89971000733E+03 0.  0.
         23    2    4    4    0    0  0.19960724215E+04 -0.65312954004E+03 -0.12596880626E+03  0.21059567938E+04  0.91118437308E+02 0.  0.
         23    2    4    4    0    0  0.29894194032E+03 -0.68352742344E+02 -0.40638176652E+03  0.51711446599E+03  0.90679930041E+02 0.  0.
          2    1    3    3  502    0 -0.16980058741E+04  0.49729834196E+03  0.15838489202E+04  0.23746803977E+04  0.00000000000E+00 0. -1.
         -1    1    3    3    0  502 -0.59700848768E+03  0.22418394042E+03  0.57796272309E+03  0.86065003502E+03  0.00000000000E+00 0.  1.
         11    1    5    5    0    0  0.17370857343E+03 -0.69234285188E+02  0.11903507587E+02  0.18737595423E+03  0.00000000000E+00 0.  1.
        -11    1    5    5    0    0  0.18223638480E+04 -0.58389525485E+03 -0.13787231385E+03  0.19185808396E+04  0.00000000000E+00 0. -1.
          4    1    6    6  503    0  0.40590616112E+02  0.10069168790E+02 -0.21630260555E+02  0.47083483815E+02  0.00000000000E+00 0.  1.
         -4    1    6    6    0  503  0.25835132420E+03 -0.78421911134E+02 -0.38475150596E+03  0.47003098217E+03  0.00000000000E+00 0. -1.
<mgrwt>
<rscale>  0 0.56272308E+04</rscale>
<asrwt>0</asrwt>
<pdfrwt beam="1">  1        2 0.57598945E+00 0.56272308E+04</pdfrwt>
<pdfrwt beam="2">  1       -1 0.32530312E+00 0.56272308E+04</pdfrwt>
<totfact> 0.95977264E-03</totfact>
</mgrwt>
</event>
<event>
12    6  0.1403409E-007  0.2075593E+04  0.7818608E-02  0.8572072E-01
          2   -1    0    0  501    0  0.00000000000E+00  0.00000000000E+00  0.15678065736E+04  0.15678065736E+04  0.00000000000E+00 0. -1.
         -1   -1    0    0    0  501 -0.00000000000E+00 -0.00000000000E+00 -0.68696098386E+03  0.68696098386E+03  0.00000000000E+00 0.  1.
         24    2    1    2    0    0 -0.59128291505E+03 -0.46399931900E+03  0.76533026853E+03  0.10755406803E+04  0.78399499011E+02 0.  0.
        254    2    1    2    0    0  0.59128291505E+03  0.46399931900E+03  0.11551532124E+03  0.11792268772E+04  0.90128873550E+03 0.  0.
         23    2    4    4    0    0  0.75766898901E+03  0.29527383005E+03 -0.13000282578E+03  0.82858495831E+03  0.91669879570E+02 0.  0.
         23    2    4    4    0    0 -0.16638607396E+03  0.16872548895E+03  0.24551814702E+03  0.35064191885E+03  0.80733998507E+02 0.  0.
          2    1    3    3  502    0 -0.15124738308E+03 -0.83160859666E+02  0.20037900540E+03  0.26446785300E+03  0.00000000000E+00 0. -1.
         -1    1    3    3    0  502 -0.44003553197E+03 -0.38083845933E+03  0.56495126313E+03  0.81107282732E+03  0.00000000000E+00 0.  1.
         11    1    5    5    0    0  0.25618892487E+03  0.10852157105E+03 -0.14247268155E+01  0.27822962900E+03  0.00000000000E+00 0.  1.
        -11    1    5    5    0    0  0.50148006414E+03  0.18675225900E+03 -0.12857809896E+03  0.55035532931E+03  0.00000000000E+00 0. -1.
          4    1    6    6  503    0 -0.27348458091E+02  0.75674115305E+01  0.67293905949E+02  0.73032004320E+02  0.00000000000E+00 0. -1.
         -4    1    6    6    0  503 -0.13903761587E+03  0.16115807742E+03  0.17822424107E+03  0.27760991453E+03  0.00000000000E+00 0.  1.
<mgrwt>
<rscale>  0 0.20755934E+04</rscale>
<asrwt>0</asrwt>
<pdfrwt beam="1">  1        2 0.24120101E+00 0.20755934E+04</pdfrwt>
<pdfrwt beam="2">  1       -1 0.10568631E+00 0.20755934E+04</pdfrwt>
<totfact> 0.10253555E+01</totfact>
</mgrwt>
</event>
<event>
12    6  0.1403409E-007  0.4034252E+04  0.7818608E-02  0.7997672E-01
         -1   -1    0    0    0  501 -0.00000000000E+00  0.00000000000E+00  0.17929842557E+04  0.17929842557E+04  0.00000000000E+00 0.  1.
          2   -1    0    0  501    0  0.00000000000E+00 -0.00000000000E+00 -0.22692883340E+04  0.22692883340E+04  0.00000000000E+00 0. -1.
         24    2    1    2    0    0  0.77976670408E+03  0.12854032163E+04 -0.14218826776E+04  0.20710977462E+04  0.86011534206E+02 0.  0.
        254    2    1    2    0    0 -0.77976670408E+03 -0.12854032163E+04  0.94557859931E+03  0.19911748435E+04  0.90020043813E+03 0.  0.
         23    2    4    4    0    0 -0.60644285816E+03 -0.10598573027E+04  0.11079404482E+04  0.16514529132E+04  0.93242937904E+02 0.  0.
         23    2    4    4    0    0 -0.17332384591E+03 -0.22554591357E+03 -0.16236184885E+03  0.33972193034E+03  0.90208122140E+02 0.  0.
          4    1    3    3  502    0  0.24559032280E+03  0.36164870692E+03 -0.45787544260E+03  0.63305158937E+03  0.00000000000E+00 0. -1.
         -1    1    3    3    0  502  0.53417638127E+03  0.92375450939E+03 -0.96400723503E+03  0.14380461568E+04  0.00000000000E+00 0.  1.
         11    1    5    5    0    0 -0.55441517675E+03 -0.97443021881E+03  0.10490456505E+04  0.15353785255E+04  0.00000000000E+00 0. -1.
        -11    1    5    5    0    0 -0.52027681416E+02 -0.85427083931E+02  0.58894797619E+02  0.11607438774E+03  0.00000000000E+00 0.  1.
          4    1    6    6  503    0 -0.13327252548E+03 -0.19139994768E+03 -0.16705053223E+03  0.28688218198E+03  0.00000000000E+00 0. -1.
         -4    1    6    6    0  503 -0.40051320429E+02 -0.34145965888E+02  0.46886833754E+01  0.52839748356E+02  0.00000000000E+00 0.  1.
<mgrwt>
<rscale>  0 0.40342525E+04</rscale>
<asrwt>0</asrwt>
<pdfrwt beam="1">  1        2 0.34912128E+00 0.40342525E+04</pdfrwt>
<pdfrwt beam="2">  1       -1 0.27584373E+00 0.40342525E+04</pdfrwt>
<totfact> 0.19991602E-01</totfact>
</mgrwt>
</event>
<event>
12    6  0.1403409E-007  0.2210539E+04  0.7818608E-02  0.8514054E-01
         -1   -1    0    0    0  501 -0.00000000000E+00  0.00000000000E+00  0.82859422754E+03  0.82859422754E+03  0.00000000000E+00 0.  1.
          2   -1    0    0  501    0  0.00000000000E+00 -0.00000000000E+00 -0.14743296232E+04  0.14743296232E+04  0.00000000000E+00 0. -1.
         24    2    1    2    0    0 -0.34203094868E+03 -0.64357981199E+03 -0.85392573777E+03  0.11255619819E+04  0.80749397054E+02 0.  0.
        254    2    1    2    0    0  0.34203094868E+03  0.64357981199E+03  0.20819034214E+03  0.11773618689E+04  0.90092042236E+03 0.  0.
         23    2    4    4    0    0  0.88184469974E+02  0.41778618578E+03  0.53955025167E+03  0.69408151741E+03  0.91175001860E+02 0.  0.
         23    2    4    4    0    0  0.25384647871E+03  0.22579362621E+03 -0.33135990953E+03  0.48328035145E+03  0.91322023971E+02 0.  0.
          2    1    3    3  502    0 -0.10145492654E+03 -0.26920999351E+03 -0.31352721183E+03  0.42551901871E+03  0.00000000000E+00 0. -1.
         -1    1    3    3    0  502 -0.24057602215E+03 -0.37436981848E+03 -0.54039852594E+03  0.70004296315E+03  0.00000000000E+00 0.  1.
         11    1    5    5    0    0  0.62820638693E+02  0.39756616463E+03  0.48139969795E+03  0.62749578252E+03  0.00000000000E+00 0.  1.
        -11    1    5    5    0    0  0.25363831281E+02  0.20220021159E+02  0.58150553720E+02  0.66585734890E+02  0.00000000000E+00 0. -1.
          3    1    6    6  503    0  0.12292810923E+03  0.15877739044E+03 -0.15515277838E+03  0.25375965872E+03  0.00000000000E+00 0. -1.
         -3    1    6    6    0  503  0.13091836948E+03  0.67016235773E+02 -0.17620713114E+03  0.22952069273E+03  0.00000000000E+00 0.  1.
<mgrwt>
<rscale>  0 0.22105393E+04</rscale>
<asrwt>0</asrwt>
<pdfrwt beam="1">  1        2 0.22681994E+00 0.22105393E+04</pdfrwt>
<pdfrwt beam="2">  1       -1 0.12747604E+00 0.22105393E+04</pdfrwt>
<totfact> 0.72769914E+00</totfact>
</mgrwt>
</event>
<event>
12    6  0.1403409E-007  0.2255220E+04  0.7818608E-02  0.8495790E-01
         -1   -1    0    0    0  501 -0.00000000000E+00  0.00000000000E+00  0.42596456102E+03  0.42596456102E+03  0.00000000000E+00 0.  1.
          2   -1    0    0  501    0  0.00000000000E+00 -0.00000000000E+00 -0.29849999680E+04  0.29849999680E+04  0.00000000000E+00 0. -1.
         24    2    1    2    0    0  0.89391635789E+03 -0.29025156585E+03 -0.11877121311E+04  0.15165562176E+04  0.77137722766E+02 0.  0.
        254    2    1    2    0    0 -0.89391635789E+03  0.29025156585E+03 -0.13713232758E+04  0.18944083114E+04  0.90825266154E+03 0.  0.
         23    2    4    4    0    0 -0.23466127619E+03  0.50528853245E+03 -0.38027253024E+03  0.68147968577E+03  0.97082178047E+02 0.  0.
         23    2    4    4    0    0 -0.65925508170E+03 -0.21503696660E+03 -0.99105074560E+03  0.12129286257E+04  0.90311188987E+02 0.  0.
          2    1    3    3  502    0  0.45812064477E+03 -0.12724018602E+03 -0.65282614652E+03  0.80761783517E+03  0.00000000000E+00 0. -1.
         -1    1    3    3    0  502  0.43579571312E+03 -0.16301137982E+03 -0.53488598462E+03  0.70893838242E+03  0.00000000000E+00 0.  1.
         11    1    5    5    0    0 -0.24902357428E+02  0.12923449902E+02 -0.33827779155E+02  0.43948397074E+02  0.00000000000E+00 0.  1.
        -11    1    5    5    0    0 -0.20975891876E+03  0.49236508255E+03 -0.34644475109E+03  0.63753128870E+03  0.00000000000E+00 0. -1.
          3    1    6    6  503    0 -0.14896541643E+03 -0.82321432477E+02 -0.28088343208E+03  0.32842505379E+03  0.00000000000E+00 0. -1.
         -3    1    6    6    0  503 -0.51028966526E+03 -0.13271553412E+03 -0.71016731352E+03  0.88450357188E+03  0.00000000000E+00 0.  1.
<mgrwt>
<rscale>  0 0.22552199E+04</rscale>
<asrwt>0</asrwt>
<pdfrwt beam="1">  1        2 0.45923075E+00 0.22552199E+04</pdfrwt>
<pdfrwt beam="2">  1       -1 0.65533011E-01 0.22552199E+04</pdfrwt>
<totfact> 0.43519413E+00</totfact>
</mgrwt>
</event>
<event>
12    6  0.1403409E-007  0.2459500E+04  0.7818608E-02  0.8417557E-01
         -1   -1    0    0    0  501 -0.00000000000E+00  0.00000000000E+00  0.13865473900E+04  0.13865473900E+04  0.00000000000E+00 0.  1.
          2   -1    0    0  501    0  0.00000000000E+00 -0.00000000000E+00 -0.10906842285E+04  0.10906842285E+04  0.00000000000E+00 0. -1.
         24    2    1    2    0    0 -0.10339921449E+04  0.57154218861E+02  0.36956723946E+03  0.11024593905E+04  0.80189791972E+02 0.  0.
        254    2    1    2    0    0  0.10339921449E+04 -0.57154218861E+02 -0.73704077968E+02  0.13747722280E+04  0.90119921630E+03 0.  0.
         23    2    4    4    0    0  0.98316143030E+03 -0.30692152680E+03 -0.23099180947E+03  0.10596071115E+04  0.92751243350E+02 0.  0.
         23    2    4    4    0    0  0.50830714570E+02  0.24976730794E+03  0.15728773151E+03  0.31516511648E+03  0.98092560908E+02 0.  0.
          4    1    3    3  502    0 -0.63961531753E+03  0.41739155411E+02  0.18768781263E+03  0.66788968141E+03  0.00000000000E+00 0. -1.
         -1    1    3    3    0  502 -0.39437682734E+03  0.15415063449E+02  0.18187942682E+03  0.43456970905E+03  0.00000000000E+00 0.  1.
         11    1    5    5    0    0  0.70865721881E+03 -0.17723671387E+03 -0.16751061707E+03  0.74944493684E+03  0.00000000000E+00 0. -1.
        -11    1    5    5    0    0  0.27450421149E+03 -0.12968481293E+03 -0.63481192398E+02  0.31016217471E+03  0.00000000000E+00 0.  1.
          4    1    6    6  503    0  0.73746888035E+02  0.11870705951E+03  0.88107623328E+02  0.16520569833E+03  0.00000000000E+00 0.  1.
         -4    1    6    6    0  503 -0.22916173465E+02  0.13106024843E+03  0.69180108177E+02  0.14995941815E+03  0.00000000000E+00 0. -1.
<mgrwt>
<rscale>  0 0.24595003E+04</rscale>
<asrwt>0</asrwt>
<pdfrwt beam="1">  1        2 0.16779757E+00 0.24595003E+04</pdfrwt>
<pdfrwt beam="2">  1       -1 0.21331498E+00 0.24595003E+04</pdfrwt>
<totfact> 0.27491559E+00</totfact>
</mgrwt>
</event>
<event>
12    6  0.1403409E-007  0.2369624E+04  0.7818608E-02  0.8450964E-01
          2   -1    0    0  501    0  0.00000000000E+00  0.00000000000E+00  0.25414748452E+04  0.25414748452E+04  0.00000000000E+00 0. -1.
         -1   -1    0    0    0  501 -0.00000000000E+00 -0.00000000000E+00 -0.55234852026E+03  0.55234852026E+03  0.00000000000E+00 0.  1.
         24    2    1    2    0    0  0.65456903454E+03 -0.49896505241E+03  0.82231229032E+02  0.83100590183E+03  0.79887979962E+02 0.  0.
        254    2    1    2    0    0 -0.65456903454E+03  0.49896505241E+03  0.19068950959E+04  0.22628174636E+04  0.89814654840E+03 0.  0.
         23    2    4    4    0    0 -0.59216985625E+03  0.33400701447E+02  0.15607453018E+04  0.16720490015E+04  0.89672854352E+02 0.  0.
         23    2    4    4    0    0 -0.62399178283E+02  0.46556435096E+03  0.34614979405E+03  0.59076846208E+03  0.92433075935E+02 0.  0.
          4    1    3    3  502    0  0.68511080263E+02 -0.82714297476E+02  0.22130929954E+02  0.10965947832E+03  0.00000000000E+00 0. -1.
         -3    1    3    3    0  502  0.58605795427E+03 -0.41625075493E+03  0.60100299078E+02  0.72134642350E+03  0.00000000000E+00 0.  1.
         11    1    5    5    0    0 -0.49571946348E+03  0.45990743976E+02  0.13754223518E+04  0.14627506899E+04  0.00000000000E+00 0. -1.
        -11    1    5    5    0    0 -0.96450392777E+02 -0.12590042529E+02  0.18532295004E+03  0.20929831162E+03  0.00000000000E+00 0.  1.
          1    1    6    6  503    0  0.13541375067E+02  0.14339758906E+03  0.13976750321E+03  0.20070174972E+03  0.00000000000E+00 0. -1.
         -1    1    6    6    0  503 -0.75940553349E+02  0.32216676190E+03  0.20638229084E+03  0.39006671236E+03  0.00000000000E+00 0.  1.
<mgrwt>
<rscale>  0 0.23696243E+04</rscale>
<asrwt>0</asrwt>
<pdfrwt beam="1">  1        2 0.39099612E+00 0.23696243E+04</pdfrwt>
<pdfrwt beam="2">  1       -1 0.84976697E-01 0.23696243E+04</pdfrwt>
<totfact> 0.46260053E+00</totfact>
</mgrwt>
</event>
<event>
12    6  0.1403409E-007  0.2668008E+04  0.7818608E-02  0.8345460E-01
         -1   -1    0    0    0  501 -0.00000000000E+00  0.00000000000E+00  0.10722409412E+04  0.10722409412E+04  0.00000000000E+00 0.  1.
          2   -1    0    0  501    0  0.00000000000E+00 -0.00000000000E+00 -0.16596704595E+04  0.16596704595E+04  0.00000000000E+00 0. -1.
         24    2    1    2    0    0 -0.55177758913E+03 -0.10429446812E+04 -0.23491547528E+03  0.12054654883E+04  0.75958191667E+02 0.  0.
        254    2    1    2    0    0  0.55177758913E+03  0.10429446812E+04 -0.35251404299E+03  0.15264459124E+04  0.90198606256E+03 0.  0.
         23    2    4    4    0    0  0.63941490717E+03  0.68092086731E+03 -0.55770621415E+03  0.10915033740E+04  0.88536676999E+02 0.  0.
         23    2    4    4    0    0 -0.87637318039E+02  0.36202381393E+03  0.20519217116E+03  0.43494253839E+03  0.91266879185E+02 0.  0.
          2    1    3    3  502    0 -0.15364575035E+03 -0.22990290519E+03 -0.70566712136E+02  0.28538048861E+03  0.00000000000E+00 0. -1.
         -1    1    3    3    0  502 -0.39813183878E+03 -0.81304177604E+03 -0.16434876315E+03  0.92008499966E+03  0.00000000000E+00 0.  1.
         11    1    5    5    0    0  0.11542839698E+03  0.11062525818E+03 -0.13461234310E+03  0.20900274039E+03  0.00000000000E+00 0. -1.
        -11    1    5    5    0    0  0.52398651019E+03  0.57029560913E+03 -0.42309387104E+03  0.88250063364E+03  0.00000000000E+00 0.  1.
          1    1    6    6  503    0 -0.38698239023E+02  0.24458982673E+03  0.17767105357E+03  0.30477654162E+03  0.00000000000E+00 0. -1.
         -1    1    6    6    0  503 -0.48939079016E+02  0.11743398719E+03  0.27521117591E+02  0.13016599677E+03  0.00000000000E+00 0.  1.
<mgrwt>
<rscale>  0 0.26680080E+04</rscale>
<asrwt>0</asrwt>
<pdfrwt beam="1">  1        2 0.25533392E+00 0.26680080E+04</pdfrwt>
<pdfrwt beam="2">  1       -1 0.16496015E+00 0.26680080E+04</pdfrwt>
<totfact> 0.27736252E+00</totfact>
</mgrwt>
</event>
<event>
12    6  0.1403409E-007  0.1681453E+04  0.7818608E-02  0.8772014E-01
          2   -1    0    0  501    0  0.00000000000E+00  0.00000000000E+00  0.87998106737E+03  0.87998106737E+03  0.00000000000E+00 0. -1.
         -1   -1    0    0    0  501 -0.00000000000E+00 -0.00000000000E+00 -0.80322282863E+03  0.80322282863E+03  0.00000000000E+00 0.  1.
         24    2    1    2    0    0 -0.20755621207E+03  0.55903290795E+03 -0.15673235222E+01  0.60125640396E+03  0.76872839517E+02 0.  0.
        254    2    1    2    0    0  0.20755621207E+03 -0.55903290795E+03  0.78325562261E+02  0.10819474920E+04  0.89937651098E+03 0.  0.
         23    2    4    4    0    0  0.53701441892E+03 -0.44859998139E+03 -0.29969056215E+02  0.70616593805E+03  0.90253854844E+02 0.  0.
         23    2    4    4    0    0 -0.32945820685E+03 -0.11043292657E+03  0.10829461848E+03  0.37578155399E+03  0.93519573356E+02 0.  0.
          4    1    3    3  502    0 -0.15832981498E+03  0.32852691644E+03 -0.16663132170E+02  0.36506975376E+03  0.00000000000E+00 0. -1.
         -3    1    3    3    0  502 -0.49226397096E+02  0.23050599151E+03  0.15095808648E+02  0.23618665020E+03  0.00000000000E+00 0.  1.
         11    1    5    5    0    0  0.24888791627E+03 -0.22191754964E+03 -0.58101879930E+02  0.33847957421E+03  0.00000000000E+00 0.  1.
        -11    1    5    5    0    0  0.28812650265E+03 -0.22668243174E+03  0.28132823715E+02  0.36768636385E+03  0.00000000000E+00 0. -1.
          2    1    6    6  503    0 -0.18346617490E+03 -0.18516685295E+02  0.32032598761E+02  0.18715980431E+03  0.00000000000E+00 0. -1.
         -2    1    6    6    0  503 -0.14599203195E+03 -0.91916241271E+02  0.76262019715E+02  0.18862174968E+03  0.00000000000E+00 0.  1.
<mgrwt>
<rscale>  0 0.16814528E+04</rscale>
<asrwt>0</asrwt>
<pdfrwt beam="1">  1        2 0.13538170E+00 0.16814528E+04</pdfrwt>
<pdfrwt beam="2">  1       -1 0.12357274E+00 0.16814528E+04</pdfrwt>
<totfact> 0.18953477E+01</totfact>
</mgrwt>
</event>
<event>
12    6  0.1403409E-007  0.1359491E+04  0.7818608E-02  0.8983674E-01
         -1   -1    0    0    0  501 -0.00000000000E+00  0.00000000000E+00  0.43692408650E+03  0.43692408650E+03  0.00000000000E+00 0.  1.
          2   -1    0    0  501    0  0.00000000000E+00 -0.00000000000E+00 -0.10575156996E+04  0.10575156996E+04  0.00000000000E+00 0. -1.
         24    2    1    2    0    0  0.11170143908E+03  0.25432171065E+03  0.98339696896E+02  0.30944339455E+03  0.94486900928E+02 0.  0.
        254    2    1    2    0    0 -0.11170143908E+03 -0.25432171065E+03 -0.71893130996E+03  0.11849963915E+04  0.90010970189E+03 0.  0.
         23    2    4    4    0    0 -0.30866714538E+03 -0.15811778117E+03  0.66126329242E+02  0.36479018373E+03  0.91774437467E+02 0.  0.
         23    2    4    4    0    0  0.19696570630E+03 -0.96203929478E+02 -0.78505763920E+03  0.82020620777E+03  0.91498857317E+02 0.  0.
          4    1    3    3  502    0  0.10878487369E+03  0.18516843353E+03  0.38995217102E+02  0.21827075955E+03  0.00000000000E+00 0. -1.
         -3    1    3    3    0  502  0.29165653815E+01  0.69153277121E+02  0.59344479794E+02  0.91172634997E+02  0.00000000000E+00 0.  1.
         11    1    5    5    0    0 -0.12738789693E+03 -0.16101665207E+02  0.20445790417E+02  0.13001911495E+03  0.00000000000E+00 0. -1.
        -11    1    5    5    0    0 -0.18127924845E+03 -0.14201611596E+03  0.45680538826E+02  0.23477106879E+03  0.00000000000E+00 0.  1.
          4    1    6    6  503    0  0.20392964005E+02 -0.30153541830E+01 -0.17296362944E+02  0.26909654640E+02  0.00000000000E+00 0. -1.
         -4    1    6    6    0  503  0.17657274230E+03 -0.93188575295E+02 -0.76776127626E+03  0.79329655313E+03  0.00000000000E+00 0.  1.
<mgrwt>
<rscale>  0 0.13594912E+04</rscale>
<asrwt>0</asrwt>
<pdfrwt beam="1">  1        2 0.16269472E+00 0.13594912E+04</pdfrwt>
<pdfrwt beam="2">  1       -1 0.67219091E-01 0.13594912E+04</pdfrwt>
<totfact> 0.57800973E+01</totfact>
</mgrwt>
</event>
<event>
12    6  0.1403409E-007  0.2260992E+04  0.7818608E-02  0.8493462E-01
          2   -1    0    0  501    0  0.00000000000E+00  0.00000000000E+00  0.29930458293E+04  0.29930458293E+04  0.00000000000E+00 0. -1.
         -1   -1    0    0    0  501 -0.00000000000E+00 -0.00000000000E+00 -0.42699675128E+03  0.42699675128E+03  0.00000000000E+00 0.  1.
         24    2    1    2    0    0  0.66106285722E+03  0.30909609087E+03  0.19957425796E+04  0.21266987460E+04  0.85525538161E+02 0.  0.
        254    2    1    2    0    0 -0.66106285722E+03 -0.30909609087E+03  0.57030649840E+03  0.12933438345E+04  0.90274264198E+03 0.  0.
         23    2    4    4    0    0  0.18442235002E+03 -0.17676785095E+03  0.26623905251E+03  0.38036876832E+03  0.92405035130E+02 0.  0.
         23    2    4    4    0    0 -0.84548520724E+03 -0.13232823993E+03  0.30406744589E+03  0.91297506622E+03  0.93329851301E+02 0.  0.
          4    1    3    3  502    0  0.64139506539E+03  0.28052045391E+03  0.19030802577E+04  0.20277558586E+04  0.00000000000E+00 0. -1.
         -3    1    3    3    0  502  0.19667791824E+02  0.28575636965E+02  0.92662321918E+02  0.98942887396E+02  0.00000000000E+00 0.  1.
         11    1    5    5    0    0  0.16474104775E+03 -0.13482628576E+03  0.25595292881E+03  0.33291086181E+03  0.00000000000E+00 0.  1.
        -11    1    5    5    0    0  0.19681302274E+02 -0.41941565187E+02  0.10286123697E+02  0.47457906510E+02  0.00000000000E+00 0. -1.
          4    1    6    6  503    0 -0.14320910203E+03 -0.19712110247E+01  0.81714310478E+02  0.16489378737E+03  0.00000000000E+00 0. -1.
         -4    1    6    6    0  503 -0.70227610521E+03 -0.13035702890E+03  0.22235313541E+03  0.74808127885E+03  0.00000000000E+00 0.  1.
<mgrwt>
<rscale>  0 0.22609917E+04</rscale>
<asrwt>0</asrwt>
<pdfrwt beam="1">  1        2 0.46046857E+00 0.22609917E+04</pdfrwt>
<pdfrwt beam="2">  1       -1 0.65691810E-01 0.22609917E+04</pdfrwt>
<totfact> 0.42786784E+00</totfact>
</mgrwt>
</event>
<event>
12    6  0.1403409E-007  0.2110188E+04  0.7818608E-02  0.8556769E-01
          2   -1    0    0  501    0  0.00000000000E+00  0.00000000000E+00  0.24341584681E+04  0.24341584681E+04  0.00000000000E+00 0. -1.
         -1   -1    0    0    0  501 -0.00000000000E+00 -0.00000000000E+00 -0.45733390069E+03  0.45733390069E+03  0.00000000000E+00 0.  1.
         24    2    1    2    0    0  0.72685664433E+03  0.38703207121E+03  0.46358234759E+03  0.94837973246E+03  0.80006989706E+02 0.  0.
        254    2    1    2    0    0 -0.72685664433E+03 -0.38703207121E+03  0.15132422198E+04  0.19431126363E+04  0.89870478803E+03 0.  0.
         23    2    4    4    0    0 -0.70234643646E+03 -0.86411091080E+02  0.47169562467E+03  0.85526750833E+03  0.90710280556E+02 0.  0.
         23    2    4    4    0    0 -0.24510207869E+02 -0.30062098013E+03  0.10415465952E+04  0.10878451280E+04  0.87258172319E+02 0.  0.
          4    1    3    3  502    0  0.10914645985E+03  0.56849049326E+02  0.10361563104E+03  0.16087561376E+03  0.00000000000E+00 0. -1.
         -3    1    3    3    0  502  0.61771018448E+03  0.33018302188E+03  0.35996671654E+03  0.78750411870E+03  0.00000000000E+00 0.  1.
         11    1    5    5    0    0 -0.66846204288E+03 -0.65592515563E+02  0.42934016839E+03  0.79716802561E+03  0.00000000000E+00 0. -1.
        -11    1    5    5    0    0 -0.33884393582E+02 -0.20818575517E+02  0.42355456282E+02  0.58099482716E+02  0.00000000000E+00 0.  1.
          1    1    6    6  503    0 -0.70402992586E+01 -0.24543011993E+03  0.93370169132E+03  0.96544516051E+03  0.00000000000E+00 0. -1.
         -1    1    6    6    0  503 -0.17469908610E+02 -0.55190860200E+02  0.10784490384E+03  0.12239996749E+03  0.00000000000E+00 0.  1.
<mgrwt>
<rscale>  0 0.21101878E+04</rscale>
<asrwt>0</asrwt>
<pdfrwt beam="1">  1        2 0.37448591E+00 0.21101878E+04</pdfrwt>
<pdfrwt beam="2">  1       -1 0.70359064E-01 0.21101878E+04</pdfrwt>
<totfact> 0.81316191E+00</totfact>
</mgrwt>
</event>
<event>
12    6  0.1403409E-007  0.2654920E+04  0.7818608E-02  0.8349782E-01
         -1   -1    0    0    0  501 -0.00000000000E+00  0.00000000000E+00  0.20295800743E+04  0.20295800743E+04  0.00000000000E+00 0.  1.
          2   -1    0    0  501    0  0.00000000000E+00 -0.00000000000E+00 -0.86823375318E+03  0.86823375318E+03  0.00000000000E+00 0. -1.
         24    2    1    2    0    0 -0.77327479551E+03  0.86501762996E+03  0.32406441995E+03  0.12071223096E+04  0.76922770393E+02 0.  0.
        254    2    1    2    0    0  0.77327479551E+03 -0.86501762996E+03  0.83728190121E+03  0.16906915179E+04  0.90065943458E+03 0.  0.
         23    2    4    4    0    0  0.27992476985E+03 -0.91251272257E+03  0.47156157971E+03  0.10685466515E+04  0.91565699466E+02 0.  0.
         23    2    4    4    0    0  0.49335002566E+03  0.47495092609E+02  0.36572032150E+03  0.62214486642E+03  0.87537703928E+02 0.  0.
          2    1    3    3  502    0 -0.53563289044E+03  0.65049635171E+03  0.23806930110E+03  0.87562839666E+03  0.00000000000E+00 0. -1.
         -1    1    3    3    0  502 -0.23764190508E+03  0.21452127825E+03  0.85995118852E+02  0.33149391297E+03  0.00000000000E+00 0.  1.
         11    1    5    5    0    0  0.17976500557E+03 -0.54004724292E+03  0.32848132856E+03  0.65716547766E+03  0.00000000000E+00 0. -1.
        -11    1    5    5    0    0  0.10015976427E+03 -0.37246547965E+03  0.14308025115E+03  0.41138117382E+03  0.00000000000E+00 0.  1.
          2    1    6    6  503    0  0.38399513711E+02 -0.76307481437E+01  0.61251464376E+01  0.39626612136E+02  0.00000000000E+00 0. -1.
         -2    1    6    6    0  503  0.45495051195E+03  0.55125840753E+02  0.35959517506E+03  0.58251825428E+03  0.00000000000E+00 0.  1.
<mgrwt>
<rscale>  0 0.26549199E+04</rscale>
<asrwt>0</asrwt>
<pdfrwt beam="1">  1        2 0.13357442E+00 0.26549199E+04</pdfrwt>
<pdfrwt beam="2">  1       -1 0.31224309E+00 0.26549199E+04</pdfrwt>
<totfact> 0.85104478E-01</totfact>
</mgrwt>
</event>
<event>
12    6  0.1403409E-007  0.2240992E+04  0.7818608E-02  0.8501558E-01
         -1   -1    0    0    0  501 -0.00000000000E+00  0.00000000000E+00  0.17242776977E+04  0.17242776977E+04  0.00000000000E+00 0.  1.
          2   -1    0    0  501    0  0.00000000000E+00 -0.00000000000E+00 -0.72813735408E+03  0.72813735408E+03  0.00000000000E+00 0. -1.
         24    2    1    2    0    0 -0.80203797785E+03  0.38632116407E+03  0.74199488786E+03  0.11617482811E+04  0.81201572434E+02 0.  0.
        254    2    1    2    0    0  0.80203797785E+03 -0.38632116407E+03  0.25414545574E+03  0.12906667706E+04  0.89928963098E+03 0.  0.
         23    2    4    4    0    0  0.19149801044E+03  0.47055910159E+02  0.46061754261E+03  0.50853783251E+03  0.86927900305E+02 0.  0.
         23    2    4    4    0    0  0.61053996741E+03 -0.43337707423E+03 -0.20647208687E+03  0.78212893812E+03  0.92304999369E+02 0.  0.
          2    1    3    3  502    0 -0.43947425407E+03  0.24510601180E+03  0.38352501253E+03  0.63269740971E+03  0.00000000000E+00 0. -1.
         -1    1    3    3    0  502 -0.36256372379E+03  0.14121515227E+03  0.35846987533E+03  0.52905087143E+03  0.00000000000E+00 0.  1.
         11    1    5    5    0    0  0.11339442132E+03  0.45617009250E+02  0.36583473910E+03  0.38571266851E+03  0.00000000000E+00 0.  1.
        -11    1    5    5    0    0  0.78103589125E+02  0.14389009085E+01  0.94782803506E+02  0.12282516400E+03  0.00000000000E+00 0. -1.
          3    1    6    6  503    0  0.17760876267E+03 -0.10296505506E+03 -0.95067827129E+02  0.22624006475E+03  0.00000000000E+00 0. -1.
         -3    1    6    6    0  503  0.43293120474E+03 -0.33041201917E+03 -0.11140425974E+03  0.55588887337E+03  0.00000000000E+00 0.  1.
<mgrwt>
<rscale>  0 0.22409917E+04</rscale>
<asrwt>0</asrwt>
<pdfrwt beam="1">  1        2 0.11202113E+00 0.22409917E+04</pdfrwt>
<pdfrwt beam="2">  1       -1 0.26527349E+00 0.22409917E+04</pdfrwt>
<totfact> 0.22459388E+00</totfact>
</mgrwt>
</event>
<event>
12    6  0.1403409E-007  0.1349236E+04  0.7818608E-02  0.8991407E-01
         -1   -1    0    0    0  501 -0.00000000000E+00  0.00000000000E+00  0.36706712525E+03  0.36706712525E+03  0.00000000000E+00 0.  1.
          2   -1    0    0  501    0  0.00000000000E+00 -0.00000000000E+00 -0.12398531889E+04  0.12398531889E+04  0.00000000000E+00 0. -1.
         24    2    1    2    0    0 -0.35987828441E+03 -0.77358976156E+02 -0.21350916254E+03  0.43326758701E+03  0.81472993622E+02 0.  0.
        254    2    1    2    0    0  0.35987828441E+03  0.77358976156E+02 -0.65927690114E+03  0.11736527272E+04  0.89850870938E+03 0.  0.
         23    2    4    4    0    0 -0.17700427658E+03 -0.25844202224E+03 -0.28287445241E+03  0.43129154992E+03  0.88722333249E+02 0.  0.
         23    2    4    4    0    0  0.53688256099E+03  0.33580099840E+03 -0.37640244872E+03  0.74236117725E+03  0.91739409519E+02 0.  0.
          2    1    3    3  502    0 -0.99384839482E+02  0.65300999394E+01 -0.84954467917E+02  0.13090932031E+03  0.00000000000E+00 0. -1.
         -3    1    3    3    0  502 -0.26049344493E+03 -0.83889076095E+02 -0.12855469462E+03  0.30235826671E+03  0.00000000000E+00 0.  1.
         11    1    5    5    0    0 -0.12635557446E+03 -0.21980150522E+03 -0.18241527002E+03  0.31233597877E+03  0.00000000000E+00 0. -1.
        -11    1    5    5    0    0 -0.50648702120E+02 -0.38640517020E+02 -0.10045918239E+03  0.11895557115E+03  0.00000000000E+00 0.  1.
          4    1    6    6  503    0  0.49870665935E+03  0.28660114987E+03 -0.35767261069E+03  0.67733171166E+03  0.00000000000E+00 0. -1.
         -4    1    6    6    0  503  0.38175901634E+02  0.49199848534E+02 -0.18729838038E+02  0.65029465585E+02  0.00000000000E+00 0.  1.
<mgrwt>
<rscale>  0 0.13492359E+04</rscale>
<asrwt>0</asrwt>
<pdfrwt beam="1">  1        2 0.19074664E+00 0.13492359E+04</pdfrwt>
<pdfrwt beam="2">  1       -1 0.56471866E-01 0.13492359E+04</pdfrwt>
<totfact> 0.63373476E+01</totfact>
</mgrwt>
</event>
<event>
12    6  0.1403409E-007  0.1387643E+04  0.7818608E-02  0.8962812E-01
         -1   -1    0    0    0  501 -0.00000000000E+00  0.00000000000E+00  0.38956461388E+03  0.38956461388E+03  0.00000000000E+00 0.  1.
          2   -1    0    0  501    0  0.00000000000E+00 -0.00000000000E+00 -0.12357076844E+04  0.12357076844E+04  0.00000000000E+00 0. -1.
         24    2    1    2    0    0  0.14204418329E+03  0.12207164628E+03 -0.65443549280E+03  0.68538393144E+03  0.79920475533E+02 0.  0.
        254    2    1    2    0    0 -0.14204418329E+03 -0.12207164628E+03 -0.19170757769E+03  0.93988836681E+03  0.90086642178E+03 0.  0.
         23    2    4    4    0    0  0.21138470697E+03  0.49085615292E+02  0.24816890371E+03  0.34303047149E+03  0.94811431966E+02 0.  0.
         23    2    4    4    0    0 -0.35342889026E+03 -0.17115726157E+03 -0.43987648140E+03  0.59685789531E+03  0.92418827377E+02 0.  0.
          2    1    3    3  502    0  0.13587911264E+03  0.12621920513E+03 -0.65152099637E+03  0.67740241342E+03  0.00000000000E+00 0. -1.
         -1    1    3    3    0  502  0.61650706508E+01 -0.41475588497E+01 -0.29144964349E+01  0.79815180266E+01  0.00000000000E+00 0.  1.
         11    1    5    5    0    0  0.19906071660E+02  0.34303931075E+02  0.73078796562E+02  0.83147590964E+02  0.00000000000E+00 0.  1.
        -11    1    5    5    0    0  0.19147863531E+03  0.14781684217E+02  0.17509010715E+03  0.25988288053E+03  0.00000000000E+00 0. -1.
          1    1    6    6  503    0 -0.35030819918E+03 -0.15401354989E+03 -0.40118487446E+03  0.55442340450E+03  0.00000000000E+00 0. -1.
         -1    1    6    6    0  503 -0.31206910769E+01 -0.17143711684E+02 -0.38691606940E+02  0.42434490815E+02  0.00000000000E+00 0.  1.
<mgrwt>
<rscale>  0 0.13876426E+04</rscale>
<asrwt>0</asrwt>
<pdfrwt beam="1">  1        2 0.19010887E+00 0.13876426E+04</pdfrwt>
<pdfrwt beam="2">  1       -1 0.59933019E-01 0.13876426E+04</pdfrwt>
<totfact> 0.56541068E+01</totfact>
</mgrwt>
</event>
<event>
12    6  0.1403409E-007  0.3654272E+04  0.7818608E-02  0.8078172E-01
         -1   -1    0    0    0  501 -0.00000000000E+00  0.00000000000E+00  0.11503881972E+04  0.11503881972E+04  0.00000000000E+00 0.  1.
          2   -1    0    0  501    0  0.00000000000E+00 -0.00000000000E+00 -0.29019997329E+04  0.29019997329E+04  0.00000000000E+00 0. -1.
         24    2    1    2    0    0 -0.11648172178E+04 -0.27626529739E+03  0.53856948378E+03  0.13152403664E+04  0.81721889209E+02 0.  0.
        254    2    1    2    0    0  0.11648172178E+04  0.27626529739E+03 -0.22901810195E+04  0.27371475636E+04  0.90217848436E+03 0.  0.
         23    2    4    4    0    0 -0.12401144260E+03  0.10162311333E+03 -0.40496360096E+03  0.44498751287E+03  0.91171670218E+02 0.  0.
         23    2    4    4    0    0  0.12888286604E+04  0.17464218406E+03 -0.18852174185E+04  0.22921600508E+04  0.91508332162E+02 0.  0.
          4    1    3    3  502    0 -0.72319521242E+03 -0.14681584206E+03  0.29682672508E+03  0.79540700994E+03  0.00000000000E+00 0. -1.
         -3    1    3    3    0  502 -0.44162200539E+03 -0.12944945533E+03  0.24174275870E+03  0.51983335648E+03  0.00000000000E+00 0.  1.
         11    1    5    5    0    0 -0.89673767513E+02  0.46276259382E+02 -0.33286653437E+03  0.34782611527E+03  0.00000000000E+00 0.  1.
        -11    1    5    5    0    0 -0.34337675089E+02  0.55346853949E+02 -0.72097066589E+02  0.97161397598E+02  0.00000000000E+00 0. -1.
          1    1    6    6  503    0  0.80020152058E+03  0.13861783307E+03 -0.12327291153E+04  0.14761972933E+04  0.00000000000E+00 0. -1.
         -1    1    6    6    0  503  0.48862713983E+03  0.36024350993E+02 -0.65248830326E+03  0.81596275744E+03  0.00000000000E+00 0.  1.
<mgrwt>
<rscale>  0 0.36542722E+04</rscale>
<asrwt>0</asrwt>
<pdfrwt beam="1">  1        2 0.44646149E+00 0.36542722E+04</pdfrwt>
<pdfrwt beam="2">  1       -1 0.17698280E+00 0.36542722E+04</pdfrwt>
<totfact> 0.40376404E-01</totfact>
</mgrwt>
</event>
<event>
12    6  0.1403409E-007  0.2219608E+04  0.7818608E-02  0.8510311E-01
         -1   -1    0    0    0  501 -0.00000000000E+00  0.00000000000E+00  0.63553453806E+03  0.63553453806E+03  0.00000000000E+00 0.  1.
          2   -1    0    0  501    0  0.00000000000E+00 -0.00000000000E+00 -0.19379987234E+04  0.19379987234E+04  0.00000000000E+00 0. -1.
         24    2    1    2    0    0  0.91482614450E+03 -0.87335371847E+02 -0.64112269744E+03  0.11235179850E+04  0.81975652839E+02 0.  0.
        254    2    1    2    0    0 -0.91482614450E+03  0.87335371847E+02 -0.66134148794E+03  0.14500152765E+04  0.90589038881E+03 0.  0.
         23    2    4    4    0    0 -0.26440227220E+03 -0.32204620642E+03 -0.50479092479E+03  0.66050283712E+03  0.88474852292E+02 0.  0.
         23    2    4    4    0    0 -0.65042387229E+03  0.40938157827E+03 -0.15655056315E+03  0.78951243936E+03  0.90428550845E+02 0.  0.
          4    1    3    3  502    0  0.54052034100E+03 -0.68332108473E+02 -0.42411206508E+03  0.69043649949E+03  0.00000000000E+00 0. -1.
         -3    1    3    3    0  502  0.37430580349E+03 -0.19003263375E+02 -0.21701063236E+03  0.43308148552E+03  0.00000000000E+00 0.  1.
         11    1    5    5    0    0 -0.19435642510E+03 -0.26581075230E+03 -0.34319015061E+03  0.47561460815E+03  0.00000000000E+00 0.  1.
        -11    1    5    5    0    0 -0.70045847105E+02 -0.56235454117E+02 -0.16160077418E+03  0.18488822897E+03  0.00000000000E+00 0. -1.
          1    1    6    6  503    0 -0.69786411179E+02  0.13664687878E+02 -0.17324167974E+02  0.73191486363E+02  0.00000000000E+00 0. -1.
         -1    1    6    6    0  503 -0.58063746112E+03  0.39571689039E+03 -0.13922639518E+03  0.71632095300E+03  0.00000000000E+00 0.  1.
<mgrwt>
<rscale>  0 0.22196082E+04</rscale>
<asrwt>0</asrwt>
<pdfrwt beam="1">  1        2 0.29815365E+00 0.22196082E+04</pdfrwt>
<pdfrwt beam="2">  1       -1 0.97774545E-01 0.22196082E+04</pdfrwt>
<totfact> 0.75381632E+00</totfact>
</mgrwt>
</event>
<event>
12    6  0.1403409E-007  0.1646643E+04  0.7818608E-02  0.8792395E-01
         -1   -1    0    0    0  501 -0.00000000000E+00  0.00000000000E+00  0.23686428319E+03  0.23686428319E+03  0.00000000000E+00 0.  1.
          2   -1    0    0  501    0  0.00000000000E+00 -0.00000000000E+00 -0.28618008688E+04  0.28618008688E+04  0.00000000000E+00 0. -1.
         24    2    1    2    0    0  0.41759003917E+03 -0.48622973061E+02 -0.16575803336E+04  0.17120539141E+04  0.82525197112E+02 0.  0.
        254    2    1    2    0    0 -0.41759003917E+03  0.48622973061E+02 -0.96735625200E+03  0.13866112379E+04  0.90009275765E+03 0.  0.
         23    2    4    4    0    0 -0.20335941910E+03 -0.41641635563E+03 -0.51167797722E+03  0.69606455693E+03  0.89072332802E+02 0.  0.
         23    2    4    4    0    0 -0.21423062007E+03  0.46503932869E+03 -0.45567827478E+03  0.69054668094E+03  0.83998170489E+02 0.  0.
          2    1    3    3  502    0  0.13336971043E+03  0.43165483663E+01 -0.66353773741E+03  0.67682231141E+03  0.00000000000E+00 0. -1.
         -1    1    3    3    0  502  0.28422032873E+03 -0.52939521428E+02 -0.99404259622E+03  0.10352316027E+04  0.00000000000E+00 0.  1.
         11    1    5    5    0    0 -0.15618836840E+03 -0.37556633463E+03 -0.46710093945E+03  0.61937724028E+03  0.00000000000E+00 0. -1.
        -11    1    5    5    0    0 -0.47171050702E+02 -0.40850020991E+02 -0.44577037766E+02  0.76687316652E+02  0.00000000000E+00 0.  1.
          1    1    6    6  503    0 -0.19564872921E+03  0.40462273050E+03 -0.43096184951E+03  0.62267655730E+03  0.00000000000E+00 0. -1.
         -1    1    6    6    0  503 -0.18581890861E+02  0.60416598182E+02 -0.24716425269E+02  0.67870123633E+02  0.00000000000E+00 0.  1.
<mgrwt>
<rscale>  0 0.16466431E+04</rscale>
<asrwt>0</asrwt>
<pdfrwt beam="1">  1        2 0.44027707E+00 0.16466431E+04</pdfrwt>
<pdfrwt beam="2">  1       -1 0.36440658E-01 0.16466431E+04</pdfrwt>
<totfact> 0.16719907E+01</totfact>
</mgrwt>
</event>
<event>
12    6  0.1403409E-007  0.1363304E+04  0.7818608E-02  0.8980818E-01
         -1   -1    0    0    0  501 -0.00000000000E+00  0.00000000000E+00  0.15154371793E+03  0.15154371793E+03  0.00000000000E+00 0.  1.
          2   -1    0    0  501    0  0.00000000000E+00 -0.00000000000E+00 -0.30661085444E+04  0.30661085444E+04  0.00000000000E+00 0. -1.
         24    2    1    2    0    0 -0.18389762679E+03 -0.27395890871E+03 -0.39468617732E+03  0.52135224953E+03  0.84611871032E+02 0.  0.
        254    2    1    2    0    0  0.18389762679E+03  0.27395890871E+03 -0.25198786492E+04  0.26963000128E+04  0.90076274999E+03 0.  0.
         23    2    4    4    0    0  0.49006221147E+03  0.50829605057E+02 -0.18989319639E+04  0.19639946322E+04  0.92669800210E+02 0.  0.
         23    2    4    4    0    0 -0.30616458468E+03  0.22312930365E+03 -0.62094668522E+03  0.73230538059E+03  0.84693243469E+02 0.  0.
          4    1    3    3  502    0 -0.65062833231E+02 -0.16689901742E+03 -0.18358887254E+03  0.25650210214E+03  0.00000000000E+00 0. -1.
         -3    1    3    3    0  502 -0.11883479356E+03 -0.10705989128E+03 -0.21109730478E+03  0.26485014738E+03  0.00000000000E+00 0.  1.
         11    1    5    5    0    0  0.37524034515E+03  0.76688597072E+02 -0.14932386844E+04  0.15415732958E+04  0.00000000000E+00 0. -1.
        -11    1    5    5    0    0  0.11482186631E+03 -0.25858992015E+02 -0.40569327950E+03  0.42242133644E+03  0.00000000000E+00 0.  1.
          3    1    6    6  503    0 -0.20312226288E+03  0.12268245046E+03 -0.45100821743E+03  0.50962540117E+03  0.00000000000E+00 0. -1.
         -3    1    6    6    0  503 -0.10304232180E+03  0.10044685319E+03 -0.16993846780E+03  0.22267997942E+03  0.00000000000E+00 0.  1.
<mgrwt>
<rscale>  0 0.13633041E+04</rscale>
<asrwt>0</asrwt>
<pdfrwt beam="1">  1        2 0.47170902E+00 0.13633041E+04</pdfrwt>
<pdfrwt beam="2">  1       -1 0.23314418E-01 0.13633041E+04</pdfrwt>
<totfact> 0.28048967E+01</totfact>
</mgrwt>
</event>
<event>
12    6  0.1403409E-007  0.2628547E+04  0.7818608E-02  0.8358569E-01
          2   -1    0    0  501    0  0.00000000000E+00  0.00000000000E+00  0.18058568499E+04  0.18058568499E+04  0.00000000000E+00 0. -1.
         -1   -1    0    0    0  501 -0.00000000000E+00 -0.00000000000E+00 -0.95650703886E+03  0.95650703886E+03  0.00000000000E+00 0.  1.
         24    2    1    2    0    0  0.41307623803E+03 -0.10382585643E+04  0.52311446520E+02  0.11214780903E+04  0.79773395462E+02 0.  0.
        254    2    1    2    0    0 -0.41307623803E+03  0.10382585643E+04  0.79703836456E+03  0.16408857985E+04  0.89923479938E+03 0.  0.
         23    2    4    4    0    0 -0.41039965573E+03  0.29541786718E+03  0.72585059146E+03  0.88924137445E+03  0.90507166809E+02 0.  0.
         23    2    4    4    0    0 -0.26765823002E+01  0.74284069717E+03  0.71187773098E+02  0.75164442409E+03  0.89900921949E+02 0.  0.
          4    1    3    3  502    0  0.30606278061E+03 -0.75467147600E+03  0.73177922766E+02  0.81765424890E+03  0.00000000000E+00 0. -1.
         -3    1    3    3    0  502  0.10701345742E+03 -0.28358708835E+03 -0.20866476246E+02  0.30382384136E+03  0.00000000000E+00 0.  1.
         11    1    5    5    0    0 -0.18855975788E+02 -0.46831797417E+01  0.18302181334E+02  0.26691755974E+02  0.00000000000E+00 0.  1.
        -11    1    5    5    0    0 -0.39154367994E+03  0.30010104692E+03  0.70754841012E+03  0.86254961848E+03  0.00000000000E+00 0. -1.
          1    1    6    6  503    0  0.39296703067E+02  0.33376652234E+03  0.51076342876E+02  0.33993104464E+03  0.00000000000E+00 0. -1.
         -1    1    6    6    0  503 -0.41973285367E+02  0.40907417482E+03  0.20111430222E+02  0.41171337945E+03  0.00000000000E+00 0.  1.
<mgrwt>
<rscale>  0 0.26285470E+04</rscale>
<asrwt>0</asrwt>
<pdfrwt beam="1">  1        2 0.27782413E+00 0.26285470E+04</pdfrwt>
<pdfrwt beam="2">  1       -1 0.14715493E+00 0.26285470E+04</pdfrwt>
<totfact> 0.31599211E+00</totfact>
</mgrwt>
</event>
<event>
12    6  0.1403409E-007  0.1043872E+04  0.7818608E-02  0.9261694E-01
          2   -1    0    0  501    0  0.00000000000E+00  0.00000000000E+00  0.96299718515E+03  0.96299718515E+03  0.00000000000E+00 0. -1.
         -1   -1    0    0    0  501 -0.00000000000E+00 -0.00000000000E+00 -0.28288450396E+03  0.28288450396E+03  0.00000000000E+00 0.  1.
         24    2    1    2    0    0  0.19534718937E+02  0.29290229034E+02 -0.35012192372E+02  0.95290815767E+02  0.81332424002E+02 0.  0.
        254    2    1    2    0    0 -0.19534718937E+02 -0.29290229034E+02  0.71512487357E+03  0.11505908733E+04  0.90067544114E+03 0.  0.
         23    2    4    4    0    0  0.11316896637E+03  0.37827537216E+03  0.54777132447E+03  0.68167635287E+03  0.93433152713E+02 0.  0.
         23    2    4    4    0    0 -0.13270368531E+03 -0.40756560119E+03  0.16735354910E+03  0.46891452047E+03  0.90297451489E+02 0.  0.
          2    1    3    3  502    0  0.29374879699E+02 -0.20190326633E+02 -0.35177926197E+01  0.35817701096E+02  0.00000000000E+00 0. -1.
         -1    1    3    3    0  502 -0.98401607619E+01  0.49480555667E+02 -0.31494399753E+02  0.59473114671E+02  0.00000000000E+00 0.  1.
         11    1    5    5    0    0  0.61970212188E+02  0.32132977022E+03  0.41627430074E+03  0.52950677228E+03  0.00000000000E+00 0.  1.
        -11    1    5    5    0    0  0.51198754185E+02  0.56945601936E+02  0.13149702372E+03  0.15216958059E+03  0.00000000000E+00 0. -1.
          4    1    6    6  503    0 -0.15304855820E+02 -0.14834821663E+03  0.26770449628E+02  0.15151926928E+03  0.00000000000E+00 0.  1.
         -4    1    6    6    0  503 -0.11739882949E+03 -0.25921738456E+03  0.14058309947E+03  0.31739525119E+03  0.00000000000E+00 0. -1.
<mgrwt>
<rscale>  0 0.10438716E+04</rscale>
<asrwt>0</asrwt>
<pdfrwt beam="1">  1        2 0.14815341E+00 0.10438716E+04</pdfrwt>
<pdfrwt beam="2">  1       -1 0.43520693E-01 0.10438716E+04</pdfrwt>
<totfact> 0.15751992E+02</totfact>
</mgrwt>
</event>
<event>
12    6  0.1403409E-007  0.2125213E+04  0.7818608E-02  0.8550218E-01
         -1   -1    0    0    0  501 -0.00000000000E+00  0.00000000000E+00  0.38800363386E+03  0.38800363386E+03  0.00000000000E+00 0.  1.
          2   -1    0    0  501    0  0.00000000000E+00 -0.00000000000E+00 -0.29101078691E+04  0.29101078691E+04  0.00000000000E+00 0. -1.
         24    2    1    2    0    0 -0.28076602168E+03  0.74030617789E+03 -0.47629718608E+03  0.92734144284E+03  0.78869171339E+02 0.  0.
        254    2    1    2    0    0  0.28076602168E+03 -0.74030617789E+03 -0.20458070491E+04  0.23707700601E+04  0.89907808316E+03 0.  0.
         23    2    4    4    0    0  0.50506364203E+03 -0.50869692460E+03 -0.78734795047E+03  0.10685975471E+04  0.90122577593E+02 0.  0.
         23    2    4    4    0    0 -0.22429762034E+03 -0.23160925329E+03 -0.12584590987E+04  0.13021725130E+04  0.89340258918E+02 0.  0.
          2    1    3    3  502    0 -0.19906419844E+03  0.61040578951E+03 -0.37667747487E+03  0.74438410988E+03  0.00000000000E+00 0. -1.
         -1    1    3    3    0  502 -0.81701823243E+02  0.12990038839E+03 -0.99619711216E+02  0.18295733297E+03  0.00000000000E+00 0.  1.
         11    1    5    5    0    0  0.26867083046E+03 -0.32464462804E+03 -0.49371271016E+03  0.64909967634E+03  0.00000000000E+00 0. -1.
        -11    1    5    5    0    0  0.23639281156E+03 -0.18405229656E+03 -0.29363524031E+03  0.41949787077E+03  0.00000000000E+00 0.  1.
          3    1    6    6  503    0 -0.22706693127E+03 -0.20615876324E+03 -0.11132289001E+04  0.11547031701E+04  0.00000000000E+00 0. -1.
         -3    1    6    6    0  503  0.27693109328E+01 -0.25450490050E+02 -0.14523019852E+03  0.14746934287E+03  0.00000000000E+00 0.  1.
<mgrwt>
<rscale>  0 0.21252129E+04</rscale>
<asrwt>0</asrwt>
<pdfrwt beam="1">  1        2 0.44770892E+00 0.21252129E+04</pdfrwt>
<pdfrwt beam="2">  1       -1 0.59692865E-01 0.21252129E+04</pdfrwt>
<totfact> 0.59051959E+00</totfact>
</mgrwt>
</event>
<event>
12    6  0.1403409E-007  0.1726410E+04  0.7818608E-02  0.8746444E-01
         -1   -1    0    0    0  501 -0.00000000000E+00  0.00000000000E+00  0.61560853675E+03  0.61560853675E+03  0.00000000000E+00 0.  1.
          2   -1    0    0  501    0  0.00000000000E+00 -0.00000000000E+00 -0.12103840043E+04  0.12103840043E+04  0.00000000000E+00 0. -1.
         24    2    1    2    0    0 -0.12808235711E+03 -0.61077957156E+03 -0.21266097969E+03  0.66404874715E+03  0.79241851827E+02 0.  0.
        254    2    1    2    0    0  0.12808235711E+03  0.61077957156E+03 -0.38211448791E+03  0.11619437939E+04  0.90257693478E+03 0.  0.
         23    2    4    4    0    0 -0.31584437935E+03  0.45267187589E+03 -0.18495845127E+02  0.55973969969E+03  0.91087517963E+02 0.  0.
         23    2    4    4    0    0  0.44392673646E+03  0.15810769567E+03 -0.36361864278E+03  0.60220409426E+03  0.91445409898E+02 0.  0.
          2    1    3    3  502    0 -0.48270241647E+02 -0.20698136155E+03 -0.11229913939E+03  0.24037969333E+03  0.00000000000E+00 0. -1.
         -1    1    3    3    0  502 -0.79812115459E+02 -0.40379821001E+03 -0.10036184030E+03  0.42366905383E+03  0.00000000000E+00 0.  1.
         11    1    5    5    0    0 -0.52433429075E+02  0.14504116061E+03 -0.11958106937E+02  0.15469065608E+03  0.00000000000E+00 0.  1.
        -11    1    5    5    0    0 -0.26341095028E+03  0.30763071528E+03 -0.65377381901E+01  0.40504904361E+03  0.00000000000E+00 0. -1.
          1    1    6    6  503    0  0.19410152402E+03  0.98841818792E+02 -0.21234266541E+03  0.30419486242E+03  0.00000000000E+00 0. -1.
         -1    1    6    6    0  503  0.24982521244E+03  0.59265876876E+02 -0.15127597737E+03  0.29800923184E+03  0.00000000000E+00 0.  1.
<mgrwt>
<rscale>  0 0.17264098E+04</rscale>
<asrwt>0</asrwt>
<pdfrwt beam="1">  1        2 0.18621293E+00 0.17264098E+04</pdfrwt>
<pdfrwt beam="2">  1       -1 0.94709005E-01 0.17264098E+04</pdfrwt>
<totfact> 0.21800113E+01</totfact>
</mgrwt>
</event>
<event>
12    6  0.1403409E-007  0.2190115E+04  0.7818608E-02  0.8522554E-01
          2   -1    0    0  501    0  0.00000000000E+00  0.00000000000E+00  0.13215210159E+04  0.13215210159E+04  0.00000000000E+00 0. -1.
         -1   -1    0    0    0  501 -0.00000000000E+00 -0.00000000000E+00 -0.90740211203E+03  0.90740211203E+03  0.00000000000E+00 0.  1.
         24    2    1    2    0    0 -0.32506705806E+03  0.27354250323E+03  0.98884959958E+03  0.10795150085E+04  0.83875083231E+02 0.  0.
        254    2    1    2    0    0  0.32506705806E+03 -0.27354250323E+03 -0.57473069574E+03  0.11494081194E+04  0.90018306978E+03 0.  0.
         23    2    4    4    0    0  0.39999697544E+03 -0.48319167459E+03 -0.13502392329E+03  0.64821380712E+03  0.92075540368E+02 0.  0.
         23    2    4    4    0    0 -0.74929917381E+02  0.20964917135E+03 -0.43970677245E+03  0.50119431232E+03  0.91029805024E+02 0.  0.
          4    1    3    3  502    0 -0.21988676847E+03  0.17161968315E+03  0.73917258008E+03  0.79005038430E+03  0.00000000000E+00 0. -1.
         -3    1    3    3    0  502 -0.10518028959E+03  0.10192282008E+03  0.24967701950E+03  0.28946462416E+03  0.00000000000E+00 0.  1.
         11    1    5    5    0    0  0.14627509525E+03 -0.21249934948E+03 -0.15570666728E+02  0.25844694365E+03  0.00000000000E+00 0. -1.
        -11    1    5    5    0    0  0.25372188018E+03 -0.27069232511E+03 -0.11945325656E+03  0.38976686347E+03  0.00000000000E+00 0.  1.
          3    1    6    6  503    0 -0.54613575448E+02  0.13320942425E+03 -0.36511956138E+03  0.39247890062E+03  0.00000000000E+00 0. -1.
         -3    1    6    6    0  503 -0.20316341933E+02  0.76439747101E+02 -0.74587211067E+02  0.10871541170E+03  0.00000000000E+00 0.  1.
<mgrwt>
<rscale>  0 0.21901150E+04</rscale>
<asrwt>0</asrwt>
<pdfrwt beam="1">  1        2 0.20331093E+00 0.21901150E+04</pdfrwt>
<pdfrwt beam="2">  1       -1 0.13960032E+00 0.21901150E+04</pdfrwt>
<totfact> 0.70718381E+00</totfact>
</mgrwt>
</event>
<event>
12    6  0.1403409E-007  0.2205016E+04  0.7818608E-02  0.8516343E-01
          2   -1    0    0  501    0  0.00000000000E+00  0.00000000000E+00  0.16430919707E+04  0.16430919707E+04  0.00000000000E+00 0. -1.
         -1   -1    0    0    0  501 -0.00000000000E+00 -0.00000000000E+00 -0.73977847336E+03  0.73977847336E+03  0.00000000000E+00 0.  1.
         24    2    1    2    0    0 -0.59949564688E+03  0.40259851870E+03 -0.23532527449E+03  0.76386098466E+03  0.81394233134E+02 0.  0.
        254    2    1    2    0    0  0.59949564688E+03 -0.40259851870E+03  0.11386387718E+04  0.16190094594E+04  0.89622138952E+03 0.  0.
         23    2    4    4    0    0  0.54123494128E+03  0.14314217065E+03  0.75010391162E+03  0.94029128034E+03  0.89815761260E+02 0.  0.
         23    2    4    4    0    0  0.58260705599E+02 -0.54574068935E+03  0.38853486018E+03  0.67871817904E+03  0.92042485594E+02 0.  0.
          2    1    3    3  502    0 -0.19858100918E+03  0.94336277666E+02 -0.51839515066E+02  0.22587847576E+03  0.00000000000E+00 0. -1.
         -1    1    3    3    0  502 -0.40091463770E+03  0.30826224104E+03 -0.18348575942E+03  0.53798250890E+03  0.00000000000E+00 0.  1.
         11    1    5    5    0    0  0.25513155299E+03  0.98704750536E+02  0.41964930552E+03  0.50093939427E+03  0.00000000000E+00 0. -1.
        -11    1    5    5    0    0  0.28610338829E+03  0.44437420116E+02  0.33045460610E+03  0.43935188607E+03  0.00000000000E+00 0.  1.
          3    1    6    6  503    0  0.32679726540E+02 -0.51618929419E+02  0.32939720437E+02  0.69408238585E+02  0.00000000000E+00 0.  1.
         -3    1    6    6    0  503  0.25580979059E+02 -0.49412175993E+03  0.35559513974E+03  0.60930994045E+03  0.00000000000E+00 0. -1.
<mgrwt>
<rscale>  0 0.22050162E+04</rscale>
<asrwt>0</asrwt>
<pdfrwt beam="1">  1        2 0.25278338E+00 0.22050162E+04</pdfrwt>
<pdfrwt beam="2">  1       -1 0.11381207E+00 0.22050162E+04</pdfrwt>
<totfact> 0.77253137E+00</totfact>
</mgrwt>
</event>
<event>
12    6  0.1403409E-007  0.1531656E+04  0.7818608E-02  0.8863671E-01
          2   -1    0    0  501    0  0.00000000000E+00  0.00000000000E+00  0.18507524934E+04  0.18507524934E+04  0.00000000000E+00 0. -1.
         -1   -1    0    0    0  501 -0.00000000000E+00 -0.00000000000E+00 -0.31689400767E+03  0.31689400767E+03  0.00000000000E+00 0.  1.
         24    2    1    2    0    0 -0.44622412957E+03 -0.18510955049E+03  0.33456574348E+03  0.59258169965E+03  0.76402320337E+02 0.  0.
        254    2    1    2    0    0  0.44622412957E+03  0.18510955049E+03  0.11992927422E+04  0.15750648014E+04  0.89952461198E+03 0.  0.
         23    2    4    4    0    0  0.33320574819E+03 -0.25582958531E+03  0.20308789396E+03  0.47598520558E+03  0.94033908312E+02 0.  0.
         23    2    4    4    0    0  0.11301838138E+03  0.44093913580E+03  0.99620484827E+03  0.10990795958E+04  0.91385897235E+02 0.  0.
          4    1    3    3  502    0 -0.31174395005E+03 -0.13061652069E+03  0.27495697295E+03  0.43571355596E+03  0.00000000000E+00 0. -1.
         -3    1    3    3    0  502 -0.13448017953E+03 -0.54493029796E+02  0.59608770528E+02  0.15686814369E+03  0.00000000000E+00 0.  1.
         11    1    5    5    0    0  0.33636359498E+03 -0.25544076550E+03  0.19110221904E+03  0.46358441608E+03  0.00000000000E+00 0. -1.
        -11    1    5    5    0    0 -0.31578467873E+01 -0.38881981023E+00  0.11985674915E+02  0.12400789504E+02  0.00000000000E+00 0.  1.
          2    1    6    6  503    0  0.11072488786E+02  0.22027304034E+03  0.50294436224E+03  0.54917742471E+03  0.00000000000E+00 0. -1.
         -2    1    6    6    0  503  0.10194589260E+03  0.22066609547E+03  0.49326048603E+03  0.54990217111E+03  0.00000000000E+00 0.  1.
<mgrwt>
<rscale>  0 0.15316558E+04</rscale>
<asrwt>0</asrwt>
<pdfrwt beam="1">  1        2 0.28473115E+00 0.15316558E+04</pdfrwt>
<pdfrwt beam="2">  1       -1 0.48752925E-01 0.15316558E+04</pdfrwt>
<totfact> 0.37397623E+01</totfact>
</mgrwt>
</event>
<event>
12    6  0.1403409E-007  0.2702206E+04  0.7818608E-02  0.8334289E-01
         -1   -1    0    0    0  501 -0.00000000000E+00  0.00000000000E+00  0.53454732691E+03  0.53454732691E+03  0.00000000000E+00 0.  1.
          2   -1    0    0  501    0  0.00000000000E+00 -0.00000000000E+00 -0.34150011619E+04  0.34150011619E+04  0.00000000000E+00 0. -1.
         24    2    1    2    0    0 -0.11070668254E+04 -0.31094964505E+03 -0.17803134283E+04  0.21209207852E+04  0.80637685205E+02 0.  0.
        254    2    1    2    0    0  0.11070668254E+04  0.31094964505E+03 -0.11001404067E+04  0.18286277037E+04  0.90071289896E+03 0.  0.
         23    2    4    4    0    0  0.15144959314E+03 -0.22592521914E+03 -0.49802321388E+03  0.57478735770E+03  0.91510661128E+02 0.  0.
         23    2    4    4    0    0  0.95561723230E+03  0.53687486419E+03 -0.60211719282E+03  0.12538403460E+04  0.90175300191E+02 0.  0.
          4    1    3    3  502    0 -0.88399312248E+03 -0.24548586056E+03 -0.14772684625E+04  0.17389736221E+04  0.00000000000E+00 0. -1.
         -3    1    3    3    0  502 -0.22307370296E+03 -0.65463784494E+02 -0.30304496586E+03  0.38194716306E+03  0.00000000000E+00 0.  1.
         11    1    5    5    0    0  0.26884003128E+02 -0.11760212880E+03 -0.23719284166E+03  0.26610797519E+03  0.00000000000E+00 0.  1.
        -11    1    5    5    0    0  0.12456559001E+03 -0.10832309034E+03 -0.26083037222E+03  0.30867938252E+03  0.00000000000E+00 0. -1.
          3    1    6    6  503    0  0.63553895036E+03  0.37310112131E+03 -0.35849564387E+03  0.81953238546E+03  0.00000000000E+00 0. -1.
         -3    1    6    6    0  503  0.32007828195E+03  0.16377374288E+03 -0.24362154895E+03  0.43430796049E+03  0.00000000000E+00 0.  1.
<mgrwt>
<rscale>  0 0.27022063E+04</rscale>
<asrwt>0</asrwt>
<pdfrwt beam="1">  1        2 0.52538478E+00 0.27022063E+04</pdfrwt>
<pdfrwt beam="2">  1       -1 0.82238052E-01 0.27022063E+04</pdfrwt>
<totfact> 0.13652034E+00</totfact>
</mgrwt>
</event>
<event>
12    6  0.1403409E-007  0.4291394E+04  0.7818608E-02  0.7948211E-01
          2   -1    0    0  501    0  0.00000000000E+00  0.00000000000E+00  0.19075945079E+04  0.19075945079E+04  0.00000000000E+00 0. -1.
         -1   -1    0    0    0  501 -0.00000000000E+00 -0.00000000000E+00 -0.24135194913E+04  0.24135194913E+04  0.00000000000E+00 0.  1.
         24    2    1    2    0    0  0.11388193118E+04 -0.17051258936E+04 -0.22249725218E+03  0.20640371725E+04  0.79879183739E+02 0.  0.
        254    2    1    2    0    0 -0.11388193118E+04  0.17051258936E+04 -0.28342773113E+03  0.22570768267E+04  0.89983375406E+03 0.  0.
         23    2    4    4    0    0 -0.69440612530E+03  0.79985506214E+03  0.27806438381E+03  0.10993599681E+04  0.96460099209E+02 0.  0.
         23    2    4    4    0    0 -0.44441318649E+03  0.90527083151E+03 -0.56149211494E+03  0.11577168586E+04  0.89535304882E+02 0.  0.
          2    1    3    3  502    0  0.46089685661E+03 -0.62563909150E+03 -0.69356731278E+02  0.78016699585E+03  0.00000000000E+00 0. -1.
         -1    1    3    3    0  502  0.67792245518E+03 -0.10794868021E+04 -0.15314052090E+03  0.12838701766E+04  0.00000000000E+00 0.  1.
         11    1    5    5    0    0 -0.39560950498E+03  0.47741400630E+03  0.20939806621E+03  0.65442995345E+03  0.00000000000E+00 0. -1.
        -11    1    5    5    0    0 -0.29879662032E+03  0.32244105584E+03  0.68666317600E+02  0.44493001470E+03  0.00000000000E+00 0.  1.
          3    1    6    6  503    0 -0.27447479268E+03  0.46230590691E+03 -0.31346143862E+03  0.62235137734E+03  0.00000000000E+00 0. -1.
         -3    1    6    6    0  503 -0.16993839381E+03  0.44296492460E+03 -0.24803067632E+03  0.53536548125E+03  0.00000000000E+00 0.  1.
<mgrwt>
<rscale>  0 0.42913944E+04</rscale>
<asrwt>0</asrwt>
<pdfrwt beam="1">  1        2 0.29347608E+00 0.42913944E+04</pdfrwt>
<pdfrwt beam="2">  1       -1 0.37131069E+00 0.42913944E+04</pdfrwt>
<totfact> 0.73830809E-02</totfact>
</mgrwt>
</event>
<event>
12    6  0.1403409E-007  0.1806055E+04  0.7818608E-02  0.8703086E-01
         -1   -1    0    0    0  501 -0.00000000000E+00  0.00000000000E+00  0.26196531642E+03  0.26196531642E+03  0.00000000000E+00 0.  1.
          2   -1    0    0  501    0  0.00000000000E+00 -0.00000000000E+00 -0.31128514471E+04  0.31128514471E+04  0.00000000000E+00 0. -1.
         24    2    1    2    0    0  0.65883807971E+01  0.33872581976E+03 -0.21676991073E+04  0.21954631383E+04  0.79752015897E+02 0.  0.
        254    2    1    2    0    0 -0.65883807971E+01 -0.33872581976E+03 -0.68318702338E+03  0.11793536252E+04  0.89963985944E+03 0.  0.
         23    2    4    4    0    0 -0.31209453874E+03 -0.20771830226E+03 -0.73676309498E+03  0.83170393177E+03  0.91442210060E+02 0.  0.
         23    2    4    4    0    0  0.30550615795E+03 -0.13100751750E+03  0.53576071603E+02  0.34764969346E+03  0.86561722088E+02 0.  0.
          4    1    3    3  502    0  0.16797415944E+02  0.10747325521E+03 -0.92649395788E+03  0.93285781755E+03  0.00000000000E+00 0. -1.
         -3    1    3    3    0  502 -0.10209035147E+02  0.23125256455E+03 -0.12412051494E+04  0.12626053208E+04  0.00000000000E+00 0.  1.
         11    1    5    5    0    0 -0.15017388220E+01 -0.51095709251E+01  0.15041547138E+01  0.55340234848E+01  0.00000000000E+00 0. -1.
        -11    1    5    5    0    0 -0.31059279992E+03 -0.20260873133E+03 -0.73826724970E+03  0.82616990828E+03  0.00000000000E+00 0.  1.
          4    1    6    6  503    0  0.33329903843E+02 -0.15956895312E+01  0.30807529317E+02  0.45415113981E+02  0.00000000000E+00 0. -1.
         -4    1    6    6    0  503  0.27217625410E+03 -0.12941182797E+03  0.22768542286E+02  0.30223457948E+03  0.00000000000E+00 0.  1.
<mgrwt>
<rscale>  0 0.18060555E+04</rscale>
<asrwt>0</asrwt>
<pdfrwt beam="1">  1        2 0.47890020E+00 0.18060555E+04</pdfrwt>
<pdfrwt beam="2">  1       -1 0.40302358E-01 0.18060555E+04</pdfrwt>
<totfact> 0.95734813E+00</totfact>
</mgrwt>
</event>
<event>
12    6  0.1403409E-007  0.2672870E+04  0.7818608E-02  0.8343862E-01
          2   -1    0    0  501    0  0.00000000000E+00  0.00000000000E+00  0.81894832725E+03  0.81894832725E+03  0.00000000000E+00 0. -1.
         -1   -1    0    0    0  501 -0.00000000000E+00 -0.00000000000E+00 -0.21809177270E+04  0.21809177270E+04  0.00000000000E+00 0.  1.
         24    2    1    2    0    0  0.15045067518E+03  0.96087486955E+03  0.15027516626E+03  0.98734478418E+03  0.79694269876E+02 0.  0.
        254    2    1    2    0    0 -0.15045067518E+03 -0.96087486955E+03 -0.15122445660E+04  0.20125212701E+04  0.90412516527E+03 0.  0.
         23    2    4    4    0    0  0.51453364807E+02 -0.10745698919E+04 -0.12260922277E+04  0.16337263389E+04  0.91715311720E+02 0.  0.
         23    2    4    4    0    0 -0.20190403999E+03  0.11369502236E+03 -0.28615233836E+03  0.37879493116E+03  0.88941776736E+02 0.  0.
          2    1    3    3  502    0  0.16004737637E+03  0.89678259249E+03  0.13708320230E+03  0.92120898022E+03  0.00000000000E+00 0. -1.
         -1    1    3    3    0  502 -0.95967011906E+01  0.64092277060E+02  0.13191963961E+02  0.66135803962E+02  0.00000000000E+00 0.  1.
         11    1    5    5    0    0  0.29510060095E+02 -0.67206732613E+03 -0.83264839639E+03  0.10704432197E+04  0.00000000000E+00 0. -1.
        -11    1    5    5    0    0  0.21943304712E+02 -0.40250256579E+03 -0.39344383126E+03  0.56328311926E+03  0.00000000000E+00 0.  1.
          1    1    6    6  503    0 -0.44643348784E+01  0.85574806818E+01  0.56005187575E+01  0.11159147453E+02  0.00000000000E+00 0. -1.
         -1    1    6    6    0  503 -0.19743970511E+03  0.10513754168E+03 -0.29175285712E+03  0.36763578371E+03  0.00000000000E+00 0.  1.
<mgrwt>
<rscale>  0 0.26728703E+04</rscale>
<asrwt>0</asrwt>
<pdfrwt beam="1">  1        2 0.12599205E+00 0.26728703E+04</pdfrwt>
<pdfrwt beam="2">  1       -1 0.33552580E+00 0.26728703E+04</pdfrwt>
<totfact> 0.64811368E-01</totfact>
</mgrwt>
</event>
<event>
12    6  0.1403409E-007  0.2081394E+04  0.7818608E-02  0.8569484E-01
          2   -1    0    0  501    0  0.00000000000E+00  0.00000000000E+00  0.21074474657E+04  0.21074474657E+04  0.00000000000E+00 0. -1.
         -1   -1    0    0    0  501 -0.00000000000E+00 -0.00000000000E+00 -0.51391566694E+03  0.51391566694E+03  0.00000000000E+00 0.  1.
         24    2    1    2    0    0  0.67542554408E+01  0.36745426253E+03 -0.30782839216E+03  0.48583541987E+03  0.78800261137E+02 0.  0.
        254    2    1    2    0    0 -0.67542554408E+01 -0.36745426253E+03  0.19013601910E+04  0.21355277128E+04  0.90013320204E+03 0.  0.
         23    2    4    4    0    0 -0.17800130500E+03  0.21970403195E+03  0.31486062934E+03  0.43275717695E+03  0.90483324730E+02 0.  0.
         23    2    4    4    0    0  0.17124704956E+03 -0.58715829449E+03  0.15864995616E+04  0.17027705359E+04  0.91467065214E+02 0.  0.
          2    1    3    3  502    0 -0.30052025414E+02  0.26962378136E+03 -0.21861676452E+03  0.34841555280E+03  0.00000000000E+00 0. -1.
         -3    1    3    3    0  502  0.36806280855E+02  0.97830481174E+02 -0.89211627645E+02  0.13741986706E+03  0.00000000000E+00 0.  1.
         11    1    5    5    0    0 -0.39997024099E+02  0.10550183858E+03  0.16112618455E+03  0.19670294158E+03  0.00000000000E+00 0.  1.
        -11    1    5    5    0    0 -0.13800428090E+03  0.11420219338E+03  0.15373444479E+03  0.23605423537E+03  0.00000000000E+00 0. -1.
          2    1    6    6  503    0  0.10645270208E+03 -0.26209895485E+03  0.63408011360E+03  0.69432386562E+03  0.00000000000E+00 0.  1.
         -2    1    6    6    0  503  0.64794347484E+02 -0.32505933964E+03  0.95241944802E+03  0.10084466702E+04  0.00000000000E+00 0. -1.
<mgrwt>
<rscale>  0 0.20813940E+04</rscale>
<asrwt>0</asrwt>
<pdfrwt beam="1">  1        2 0.32422268E+00 0.20813940E+04</pdfrwt>
<pdfrwt beam="2">  1       -1 0.79063950E-01 0.20813940E+04</pdfrwt>
<totfact> 0.97795230E+00</totfact>
</mgrwt>
</event>
<event>
12    6  0.1403409E-007  0.3260383E+04  0.7818608E-02  0.8173050E-01
          2   -1    0    0  501    0  0.00000000000E+00  0.00000000000E+00  0.16315508863E+04  0.16315508863E+04  0.00000000000E+00 0. -1.
         -1   -1    0    0    0  501 -0.00000000000E+00 -0.00000000000E+00 -0.16288331796E+04  0.16288331796E+04  0.00000000000E+00 0.  1.
         24    2    1    2    0    0 -0.14708006210E+04  0.19259672050E+02 -0.31868187419E+03  0.15069929305E+04  0.76447064817E+02 0.  0.
        254    2    1    2    0    0  0.14708006210E+04 -0.19259672050E+02  0.32139958094E+03  0.17533911354E+04  0.89858632385E+03 0.  0.
         23    2    4    4    0    0  0.39315933531E+03 -0.17943909693E+03 -0.26261541627E+03  0.51384241142E+03  0.91074225010E+02 0.  0.
         23    2    4    4    0    0  0.10776412857E+04  0.16017942488E+03  0.58401499721E+03  0.12395487240E+04  0.91865844665E+02 0.  0.
          2    1    3    3  502    0 -0.42405832977E+03  0.38978179469E+02 -0.10150998765E+03  0.43777738991E+03  0.00000000000E+00 0. -1.
         -1    1    3    3    0  502 -0.10467422913E+04 -0.19718507420E+02 -0.21717188654E+03  0.10692155405E+04  0.00000000000E+00 0.  1.
         11    1    5    5    0    0  0.39255396852E+03 -0.16352932727E+03 -0.24832702736E+03  0.49244976556E+03  0.00000000000E+00 0.  1.
        -11    1    5    5    0    0  0.60536679274E+00 -0.15909769652E+02 -0.14288388910E+02  0.21392645862E+02  0.00000000000E+00 0. -1.
          3    1    6    6  503    0  0.43387445425E+03  0.23881989779E+02  0.20946382989E+03  0.48238209701E+03  0.00000000000E+00 0. -1.
         -3    1    6    6    0  503  0.64376683147E+03  0.13629743510E+03  0.37455116732E+03  0.75716662701E+03  0.00000000000E+00 0.  1.
<mgrwt>
<rscale>  0 0.32603829E+04</rscale>
<asrwt>0</asrwt>
<pdfrwt beam="1">  1        2 0.25100783E+00 0.32603829E+04</pdfrwt>
<pdfrwt beam="2">  1       -1 0.25058972E+00 0.32603829E+04</pdfrwt>
<totfact> 0.70571827E-01</totfact>
</mgrwt>
</event>
<event>
12    6  0.1403409E-007  0.2014563E+04  0.7818608E-02  0.8599842E-01
          2   -1    0    0  501    0  0.00000000000E+00  0.00000000000E+00  0.21411278975E+04  0.21411278975E+04  0.00000000000E+00 0. -1.
         -1   -1    0    0    0  501 -0.00000000000E+00 -0.00000000000E+00 -0.47386995054E+03  0.47386995054E+03  0.00000000000E+00 0.  1.
         24    2    1    2    0    0  0.65404019978E+03 -0.26707626471E+02  0.62598765689E+02  0.66233959766E+03  0.79330050566E+02 0.  0.
        254    2    1    2    0    0 -0.65404019978E+03  0.26707626471E+02  0.16046591813E+04  0.19526582504E+04  0.89970065829E+03 0.  0.
         23    2    4    4    0    0 -0.10066291448E+03 -0.29682556261E+03  0.14363088899E+03  0.35466530746E+03  0.83181795349E+02 0.  0.
         23    2    4    4    0    0 -0.55337728530E+03  0.32353318908E+03  0.14610282923E+04  0.15979929430E+04  0.89875638859E+02 0.  0.
          4    1    3    3  502    0  0.39648565901E+03  0.21291983036E+02  0.27473474718E+02  0.39800630417E+03  0.00000000000E+00 0. -1.
         -3    1    3    3    0  502  0.25755454076E+03 -0.47999609506E+02  0.35125290971E+02  0.26433329349E+03  0.00000000000E+00 0.  1.
         11    1    5    5    0    0 -0.79508073002E+02 -0.11405284312E+03  0.46452249948E+02  0.14658579816E+03  0.00000000000E+00 0. -1.
        -11    1    5    5    0    0 -0.21154841475E+02 -0.18277271949E+03  0.97178639046E+02  0.20807950931E+03  0.00000000000E+00 0.  1.
          4    1    6    6  503    0 -0.10488543161E+03  0.99721610855E+02  0.37163196788E+03  0.39881784436E+03  0.00000000000E+00 0. -1.
         -4    1    6    6    0  503 -0.44849185370E+03  0.22381157822E+03  0.10893963244E+04  0.11991750986E+04  0.00000000000E+00 0.  1.
<mgrwt>
<rscale>  0 0.20145631E+04</rscale>
<asrwt>0</asrwt>
<pdfrwt beam="1">  1        2 0.32940429E+00 0.20145631E+04</pdfrwt>
<pdfrwt beam="2">  1       -1 0.72903071E-01 0.20145631E+04</pdfrwt>
<totfact> 0.11166925E+01</totfact>
</mgrwt>
</event>
<event>
12    6  0.1403409E-007  0.2050964E+04  0.7818608E-02  0.8583157E-01
         -1   -1    0    0    0  501 -0.00000000000E+00  0.00000000000E+00  0.57857607852E+03  0.57857607852E+03  0.00000000000E+00 0.  1.
          2   -1    0    0  501    0  0.00000000000E+00 -0.00000000000E+00 -0.18175887704E+04  0.18175887704E+04  0.00000000000E+00 0. -1.
         24    2    1    2    0    0  0.80451842195E+03 -0.44955295190E+02 -0.71486909573E+03  0.10801510057E+04  0.80109307824E+02 0.  0.
        254    2    1    2    0    0 -0.80451842195E+03  0.44955295190E+02 -0.52414359619E+03  0.13160138433E+04  0.89882982621E+03 0.  0.
         23    2    4    4    0    0  0.13716618942E+03 -0.16105093516E+03 -0.16661431256E+03  0.28410755232E+03  0.90580378108E+02 0.  0.
         23    2    4    4    0    0 -0.94168461137E+03  0.20600623035E+03 -0.35752928363E+03  0.10319062910E+04  0.88288903409E+02 0.  0.
          4    1    3    3  502    0  0.35909229997E+03 -0.46719875932E+02 -0.36030985660E+03  0.51083580480E+03  0.00000000000E+00 0. -1.
         -3    1    3    3    0  502  0.44542612198E+03  0.17645807423E+01 -0.35455923912E+03  0.56931520087E+03  0.00000000000E+00 0.  1.
         11    1    5    5    0    0  0.19948988770E+02 -0.89741320255E+02 -0.79877732703E+02  0.12178636580E+03  0.00000000000E+00 0. -1.
        -11    1    5    5    0    0  0.11721720065E+03 -0.71309614909E+02 -0.86736579860E+02  0.16232118652E+03  0.00000000000E+00 0.  1.
          3    1    6    6  503    0 -0.50140599123E+03  0.14710196216E+03 -0.16709816285E+03  0.54860618967E+03  0.00000000000E+00 0. -1.
         -3    1    6    6    0  503 -0.44027862014E+03  0.58904268196E+02 -0.19043112077E+03  0.48330010131E+03  0.00000000000E+00 0.  1.
<mgrwt>
<rscale>  0 0.20509640E+04</rscale>
<asrwt>0</asrwt>
<pdfrwt beam="1">  1        2 0.27962904E+00 0.20509640E+04</pdfrwt>
<pdfrwt beam="2">  1       -1 0.89011706E-01 0.20509640E+04</pdfrwt>
<totfact> 0.11001537E+01</totfact>
</mgrwt>
</event>
<event>
12    6  0.1403409E-007  0.1395048E+04  0.7818608E-02  0.8957411E-01
          2   -1    0    0  501    0  0.00000000000E+00  0.00000000000E+00  0.28148707927E+04  0.28148707927E+04  0.00000000000E+00 0. -1.
         -1   -1    0    0    0  501 -0.00000000000E+00 -0.00000000000E+00 -0.17284623279E+03  0.17284623279E+03  0.00000000000E+00 0.  1.
         24    2    1    2    0    0  0.25067404389E+03 -0.29095551051E+02  0.10735540923E+03  0.28553452149E+03  0.79503155266E+02 0.  0.
        254    2    1    2    0    0 -0.25067404389E+03  0.29095551051E+02  0.25346691507E+04  0.27021825040E+04  0.90197480792E+03 0.  0.
         23    2    4    4    0    0 -0.20113100237E+01 -0.97671007347E+02 -0.17099015719E+02  0.13355195556E+03  0.89443152068E+02 0.  0.
         23    2    4    4    0    0 -0.24866273387E+03  0.12676655840E+03  0.25517681664E+04  0.25686305484E+04  0.91865138958E+02 0.  0.
          2    1    3    3  502    0  0.10158303858E+03  0.21830424829E+02  0.64374272168E+02  0.12222818043E+03  0.00000000000E+00 0. -1.
         -1    1    3    3    0  502  0.14909100532E+03 -0.50925975880E+02  0.42981137065E+02  0.16330634106E+03  0.00000000000E+00 0.  1.
         11    1    5    5    0    0 -0.27182292912E+02 -0.67572489395E+02  0.24042240142E+02  0.76700376023E+02  0.00000000000E+00 0.  1.
        -11    1    5    5    0    0  0.25170982888E+02 -0.30098517952E+02 -0.41141255860E+02  0.56851579540E+02  0.00000000000E+00 0. -1.
          3    1    6    6  503    0 -0.78931887903E+02 -0.15116668918E+01  0.56133979899E+03  0.56686409129E+03  0.00000000000E+00 0. -1.
         -3    1    6    6    0  503 -0.16973084597E+03  0.12827822529E+03  0.19904283674E+04  0.20017664572E+04  0.00000000000E+00 0.  1.
<mgrwt>
<rscale>  0 0.13950481E+04</rscale>
<asrwt>0</asrwt>
<pdfrwt beam="1">  1        2 0.43305701E+00 0.13950481E+04</pdfrwt>
<pdfrwt beam="2">  1       -1 0.26591730E-01 0.13950481E+04</pdfrwt>
<totfact> 0.31845966E+01</totfact>
</mgrwt>
</event>
<event>
12    6  0.1403409E-007  0.2265741E+04  0.7818608E-02  0.8491553E-01
         -3   -1    0    0    0  501 -0.00000000000E+00  0.00000000000E+00  0.59427288119E+03  0.59427288119E+03  0.00000000000E+00 0.  1.
          2   -1    0    0  501    0  0.00000000000E+00 -0.00000000000E+00 -0.21596064368E+04  0.21596064368E+04  0.00000000000E+00 0. -1.
         24    2    1    2    0    0  0.92139018378E+03 -0.89783157917E+02 -0.38872929525E+03  0.10072303041E+04  0.79884506522E+02 0.  0.
        254    2    1    2    0    0 -0.92139018378E+03  0.89783157917E+02 -0.11766042603E+04  0.17466490138E+04  0.89964676725E+03 0.  0.
         23    2    4    4    0    0  0.70035024026E+01  0.31249264079E+03 -0.37765232808E+03  0.49834736391E+03  0.89599746750E+02 0.  0.
         23    2    4    4    0    0 -0.92839368618E+03 -0.22270948288E+03 -0.79895193226E+03  0.12483016499E+04  0.91752214142E+02 0.  0.
          4    1    3    3  502    0  0.24944110371E+03 -0.38981654481E+02 -0.71306081610E+02  0.26234517507E+03  0.00000000000E+00 0. -1.
         -3    1    3    3    0  502  0.67194908007E+03 -0.50801503437E+02 -0.31742321364E+03  0.74488512907E+03  0.00000000000E+00 0.  1.
         11    1    5    5    0    0 -0.33767184553E+02  0.73562497693E+02 -0.72665265619E+02  0.10877455882E+03  0.00000000000E+00 0. -1.
        -11    1    5    5    0    0  0.40770686956E+02  0.23893014310E+03 -0.30498706246E+03  0.38957280509E+03  0.00000000000E+00 0.  1.
          2    1    6    6  503    0 -0.88667771123E+03 -0.19647266323E+03 -0.77295218473E+03  0.11925828906E+04  0.00000000000E+00 0.  1.
         -2    1    6    6    0  503 -0.41715974952E+02 -0.26236819648E+02 -0.25999747533E+02  0.55718759347E+02  0.00000000000E+00 0. -1.
<mgrwt>
<rscale>  0 0.22657410E+04</rscale>
<asrwt>0</asrwt>
<pdfrwt beam="1">  1        2 0.33224714E+00 0.22657410E+04</pdfrwt>
<pdfrwt beam="2">  1       -3 0.91426599E-01 0.22657410E+04</pdfrwt>
<totfact> 0.33981264E+00</totfact>
</mgrwt>
</event>
<event>
12    6  0.1403409E-007  0.3969657E+04  0.7818608E-02  0.8010696E-01
         -1   -1    0    0    0  501 -0.00000000000E+00  0.00000000000E+00  0.13127804492E+04  0.13127804492E+04  0.00000000000E+00 0.  1.
          2   -1    0    0  501    0  0.00000000000E+00 -0.00000000000E+00 -0.30009157432E+04  0.30009157432E+04  0.00000000000E+00 0. -1.
         24    2    1    2    0    0  0.18120760493E+04 -0.50303183215E+03 -0.72836031262E+03  0.20183683189E+04  0.81494129212E+02 0.  0.
        254    2    1    2    0    0 -0.18120760493E+04  0.50303183215E+03 -0.95977498141E+03  0.22953278736E+04  0.90038958211E+03 0.  0.
         23    2    4    4    0    0 -0.24880537994E+03  0.80366617613E+02 -0.55950839240E+03  0.62414934185E+03  0.90276516582E+02 0.  0.
         23    2    4    4    0    0 -0.15632706694E+04  0.42266521453E+03 -0.40026658901E+03  0.16711785317E+04  0.10081306121E+03 0.  0.
          4    1    3    3  502    0  0.17076413420E+04 -0.49119074730E+03 -0.69688219920E+03  0.19086519072E+04  0.00000000000E+00 0. -1.
         -3    1    3    3    0  502  0.10443470726E+03 -0.11841084853E+02 -0.31478113422E+02  0.10971641169E+03  0.00000000000E+00 0.  1.
         11    1    5    5    0    0 -0.20627229447E+02  0.30993903876E+02 -0.40279726966E+02  0.54850351654E+02  0.00000000000E+00 0. -1.
        -11    1    5    5    0    0 -0.22817815050E+03  0.49372713738E+02 -0.51922866543E+03  0.56929899019E+03  0.00000000000E+00 0.  1.
          4    1    6    6  503    0 -0.19349427581E+03  0.23481640094E+02 -0.30508213244E+02  0.19728703269E+03  0.00000000000E+00 0. -1.
         -4    1    6    6    0  503 -0.13697763935E+04  0.39918357444E+03 -0.36975837577E+03  0.14738914990E+04  0.00000000000E+00 0.  1.
<mgrwt>
<rscale>  0 0.39696567E+04</rscale>
<asrwt>0</asrwt>
<pdfrwt beam="1">  1        2 0.46167935E+00 0.39696567E+04</pdfrwt>
<pdfrwt beam="2">  1       -1 0.20196622E+00 0.39696567E+04</pdfrwt>
<totfact> 0.22767041E-01</totfact>
</mgrwt>
</event>
<event>
12    6  0.1403409E-007  0.1947482E+04  0.7818608E-02  0.8631576E-01
          2   -1    0    0  501    0  0.00000000000E+00  0.00000000000E+00  0.79707094533E+03  0.79707094533E+03  0.00000000000E+00 0. -1.
         -1   -1    0    0    0  501 -0.00000000000E+00 -0.00000000000E+00 -0.11895701679E+04  0.11895701679E+04  0.00000000000E+00 0.  1.
         24    2    1    2    0    0 -0.66311335983E+03  0.25232383375E+03  0.13279852853E+03  0.72573191627E+03  0.75264334436E+02 0.  0.
        254    2    1    2    0    0  0.66311335983E+03 -0.25232383375E+03 -0.52529775113E+03  0.12609091970E+04  0.90031529512E+03 0.  0.
         23    2    4    4    0    0  0.19719302754E+03  0.88332903947E+00  0.24103783772E+03  0.32445028925E+03  0.91010332410E+02 0.  0.
         23    2    4    4    0    0  0.46592033230E+03 -0.25320716279E+03 -0.76633558884E+03  0.93645890773E+03  0.92138090989E+02 0.  0.
          2    1    3    3  502    0 -0.32168791786E+03  0.82283603502E+02  0.60022028196E+02  0.33742606860E+03  0.00000000000E+00 0. -1.
         -1    1    3    3    0  502 -0.34142544197E+03  0.17004023025E+03  0.72776500333E+02  0.38830584766E+03  0.00000000000E+00 0.  1.
         11    1    5    5    0    0  0.11852276428E+03 -0.44008441915E+02  0.13394271497E+03  0.18418751181E+03  0.00000000000E+00 0.  1.
        -11    1    5    5    0    0  0.78670263254E+02  0.44891770954E+02  0.10709512275E+03  0.14026277744E+03  0.00000000000E+00 0. -1.
          1    1    6    6  503    0  0.45895715247E+03 -0.25041913183E+03 -0.72160238880E+03  0.89110123830E+03  0.00000000000E+00 0. -1.
         -1    1    6    6    0  503  0.69631798335E+01 -0.27880309587E+01 -0.44733200045E+02  0.45357669432E+02  0.00000000000E+00 0.  1.
<mgrwt>
<rscale>  0 0.19474823E+04</rscale>
<asrwt>0</asrwt>
<pdfrwt beam="1">  1        2 0.12262630E+00 0.19474823E+04</pdfrwt>
<pdfrwt beam="2">  1       -1 0.18301079E+00 0.19474823E+04</pdfrwt>
<totfact> 0.72988364E+00</totfact>
</mgrwt>
</event>
<event>
12    6  0.1403409E-007  0.2648390E+04  0.7818608E-02  0.8351947E-01
          2   -1    0    0  501    0  0.00000000000E+00  0.00000000000E+00  0.75696792220E+03  0.75696792220E+03  0.00000000000E+00 0. -1.
         -1   -1    0    0    0  501 -0.00000000000E+00 -0.00000000000E+00 -0.23164689641E+04  0.23164689641E+04  0.00000000000E+00 0.  1.
         24    2    1    2    0    0 -0.11138491800E+04  0.31020526851E+03 -0.48662263611E+03  0.12570658360E+04  0.80781320506E+02 0.  0.
        254    2    1    2    0    0  0.11138491800E+04 -0.31020526851E+03 -0.10728784058E+04  0.18163710503E+04  0.90069329648E+03 0.  0.
         23    2    4    4    0    0  0.93570624659E+03 -0.58180856063E+03 -0.67759531069E+03  0.12973233976E+04  0.99323771889E+02 0.  0.
         23    2    4    4    0    0  0.17814293340E+03  0.27160329212E+03 -0.39528309512E+03  0.51904765273E+03  0.87512784805E+02 0.  0.
          2    1    3    3  502    0 -0.68691978094E+03  0.20569739585E+03 -0.26166081146E+03  0.76330635027E+03  0.00000000000E+00 0. -1.
         -1    1    3    3    0  502 -0.42692939904E+03  0.10450787266E+03 -0.22496182465E+03  0.49375948575E+03  0.00000000000E+00 0.  1.
         11    1    5    5    0    0  0.43056137411E+01  0.30373514050E+01 -0.84520698025E+01  0.99599847988E+01  0.00000000000E+00 0. -1.
        -11    1    5    5    0    0  0.93140063285E+03 -0.58484591204E+03 -0.66914324089E+03  0.12873634128E+04  0.00000000000E+00 0.  1.
          1    1    6    6  503    0  0.11561354939E+03  0.20133441124E+03 -0.21859608193E+03  0.31888287033E+03  0.00000000000E+00 0. -1.
         -1    1    6    6    0  503  0.62529384011E+02  0.70268880883E+02 -0.17668701319E+03  0.20016478240E+03  0.00000000000E+00 0.  1.
<mgrwt>
<rscale>  0 0.26483902E+04</rscale>
<asrwt>0</asrwt>
<pdfrwt beam="1">  1        2 0.11645660E+00 0.26483902E+04</pdfrwt>
<pdfrwt beam="2">  1       -1 0.35637984E+00 0.26483902E+04</pdfrwt>
<totfact> 0.52466508E-01</totfact>
</mgrwt>
</event>
<event>
12    6  0.1403409E-007  0.2208897E+04  0.7818608E-02  0.8514734E-01
          2   -1    0    0  501    0  0.00000000000E+00  0.00000000000E+00  0.10382132836E+04  0.10382132836E+04  0.00000000000E+00 0. -1.
         -1   -1    0    0    0  501 -0.00000000000E+00 -0.00000000000E+00 -0.11749093666E+04  0.11749093666E+04  0.00000000000E+00 0.  1.
         24    2    1    2    0    0 -0.65345392167E+03  0.23100517389E+03  0.53826274050E+03  0.88065066133E+03  0.73847081046E+02 0.  0.
        254    2    1    2    0    0  0.65345392167E+03 -0.23100517389E+03 -0.67495882344E+03  0.13324719889E+04  0.91626784824E+03 0.  0.
         23    2    4    4    0    0  0.39831426233E+03 -0.57282304697E+03 -0.33489739805E+03  0.77921895614E+03  0.90804293236E+02 0.  0.
         23    2    4    4    0    0  0.25513965934E+03  0.34181787308E+03 -0.34006142539E+03  0.55325303275E+03  0.92257471702E+02 0.  0.
          4    1    3    3  502    0 -0.28442172902E+03  0.94319379305E+02  0.27870852420E+03  0.40923136086E+03  0.00000000000E+00 0. -1.
         -3    1    3    3    0  502 -0.36903219265E+03  0.13668579459E+03  0.25955421630E+03  0.47141930047E+03  0.00000000000E+00 0.  1.
         11    1    5    5    0    0  0.38437702779E+03 -0.50786928739E+03 -0.29746813009E+03  0.70296813654E+03  0.00000000000E+00 0. -1.
        -11    1    5    5    0    0  0.13937234544E+02 -0.64953759578E+02 -0.37429267965E+02  0.76250819605E+02  0.00000000000E+00 0.  1.
          3    1    6    6  503    0  0.90851883013E+02  0.11508923103E+03 -0.17468740302E+03  0.22806859609E+03  0.00000000000E+00 0. -1.
         -3    1    6    6    0  503  0.16428777633E+03  0.22672864204E+03 -0.16537402237E+03  0.32518443667E+03  0.00000000000E+00 0.  1.
<mgrwt>
<rscale>  0 0.22088970E+04</rscale>
<asrwt>0</asrwt>
<pdfrwt beam="1">  1        2 0.15972512E+00 0.22088970E+04</pdfrwt>
<pdfrwt beam="2">  1       -1 0.18075529E+00 0.22088970E+04</pdfrwt>
<totfact> 0.50976982E+00</totfact>
</mgrwt>
</event>
<event>
12    6  0.1403409E-007  0.2308070E+04  0.7818608E-02  0.8474746E-01
          2   -1    0    0  501    0  0.00000000000E+00  0.00000000000E+00  0.13263496231E+04  0.13263496231E+04  0.00000000000E+00 0. -1.
         -1   -1    0    0    0  501 -0.00000000000E+00 -0.00000000000E+00 -0.10041071524E+04  0.10041071524E+04  0.00000000000E+00 0.  1.
         24    2    1    2    0    0 -0.70530673757E+03 -0.63234298454E+03  0.37809503605E+03  0.10231662894E+04  0.81229029818E+02 0.  0.
        254    2    1    2    0    0  0.70530673757E+03  0.63234298454E+03 -0.55852565392E+02  0.13072904861E+04  0.89920724081E+03 0.  0.
         23    2    4    4    0    0  0.41648946348E+02  0.63881179590E+02 -0.35865391726E+03  0.37778243256E+03  0.90947755060E+02 0.  0.
         23    2    4    4    0    0  0.66365779122E+03  0.56846180495E+03  0.30280135187E+03  0.92950805357E+03  0.93306352572E+02 0.  0.
          2    1    3    3  502    0 -0.57643895626E+03 -0.54847768338E+03  0.33630002102E+03  0.86383293732E+03  0.00000000000E+00 0. -1.
         -1    1    3    3    0  502 -0.12886778131E+03 -0.83865301158E+02  0.41795015031E+02  0.15933335206E+03  0.00000000000E+00 0.  1.
         11    1    5    5    0    0 -0.58475765488E+01  0.70414233325E+02 -0.22075846998E+03  0.23179012161E+03  0.00000000000E+00 0. -1.
        -11    1    5    5    0    0  0.47496522897E+02 -0.65330537345E+01 -0.13789544728E+03  0.14599231096E+03  0.00000000000E+00 0.  1.
          2    1    6    6  503    0  0.84764824457E+02  0.57831884136E+02  0.69973731790E+01  0.10285215369E+03  0.00000000000E+00 0. -1.
         -2    1    6    6    0  503  0.57889296677E+03  0.51062992081E+03  0.29580397869E+03  0.82665589988E+03  0.00000000000E+00 0.  1.
<mgrwt>
<rscale>  0 0.23080703E+04</rscale>
<asrwt>0</asrwt>
<pdfrwt beam="1">  1        2 0.20405379E+00 0.23080703E+04</pdfrwt>
<pdfrwt beam="2">  1       -1 0.15447802E+00 0.23080703E+04</pdfrwt>
<totfact> 0.53069437E+00</totfact>
</mgrwt>
</event>
<event>
12    6  0.1403409E-007  0.1629841E+04  0.7818608E-02  0.8802422E-01
          2   -1    0    0  501    0  0.00000000000E+00  0.00000000000E+00  0.19470251750E+04  0.19470251750E+04  0.00000000000E+00 0. -1.
         -1   -1    0    0    0  501 -0.00000000000E+00 -0.00000000000E+00 -0.34108224208E+03  0.34108224208E+03  0.00000000000E+00 0.  1.
         24    2    1    2    0    0  0.12650699186E+03 -0.51923566133E+03  0.80704191330E+03  0.97119103516E+03  0.79282318181E+02 0.  0.
        254    2    1    2    0    0 -0.12650699186E+03  0.51923566133E+03  0.79890101964E+03  0.13169163819E+04  0.90023120744E+03 0.  0.
         23    2    4    4    0    0  0.19185607480E+03  0.55779603119E+03  0.19517065578E+03  0.62714195384E+03  0.85265934205E+02 0.  0.
         23    2    4    4    0    0 -0.31836306666E+03 -0.38560369858E+02  0.60373036386E+03  0.68977442810E+03  0.91959040237E+02 0.  0.
          2    1    3    3  502    0  0.53154621243E+02 -0.33889671649E+03  0.55909003882E+03  0.65594059923E+03  0.00000000000E+00 0. -1.
         -1    1    3    3    0  502  0.73352370612E+02 -0.18033894484E+03  0.24795187448E+03  0.31525043594E+03  0.00000000000E+00 0.  1.
         11    1    5    5    0    0  0.19096019624E+03  0.54227673170E+03  0.17360362178E+03  0.60055646511E+03  0.00000000000E+00 0. -1.
        -11    1    5    5    0    0  0.89587856781E+00  0.15519299482E+02  0.21567034007E+02  0.26585488724E+02  0.00000000000E+00 0.  1.
          1    1    6    6  503    0 -0.26332208543E+03 -0.11266104837E+01  0.43640559532E+03  0.50969562834E+03  0.00000000000E+00 0. -1.
         -1    1    6    6    0  503 -0.55040981229E+02 -0.37433759374E+02  0.16732476854E+03  0.18007879976E+03  0.00000000000E+00 0.  1.
<mgrwt>
<rscale>  0 0.16298414E+04</rscale>
<asrwt>0</asrwt>
<pdfrwt beam="1">  1        2 0.29954233E+00 0.16298414E+04</pdfrwt>
<pdfrwt beam="2">  1       -1 0.52474192E-01 0.16298414E+04</pdfrwt>
<totfact> 0.28515226E+01</totfact>
</mgrwt>
</event>
<event>
12    6  0.1403409E-007  0.1790702E+04  0.7818608E-02  0.8711260E-01
          2   -1    0    0  501    0  0.00000000000E+00  0.00000000000E+00  0.20061417104E+04  0.20061417104E+04  0.00000000000E+00 0. -1.
         -1   -1    0    0    0  501 -0.00000000000E+00 -0.00000000000E+00 -0.39959942233E+03  0.39959942233E+03  0.00000000000E+00 0.  1.
         24    2    1    2    0    0  0.37784903025E+03  0.30535191295E+03 -0.10259907421E+02  0.49255787393E+03  0.80612114896E+02 0.  0.
        254    2    1    2    0    0 -0.37784903025E+03 -0.30535191295E+03  0.16168021954E+04  0.19131832588E+04  0.90011730457E+03 0.  0.
         23    2    4    4    0    0 -0.35487654667E+03  0.14936376421E+03  0.12814176583E+04  0.13407973668E+04  0.86368201337E+02 0.  0.
         23    2    4    4    0    0 -0.22972483586E+02 -0.45471567716E+03  0.33538453711E+03  0.57238589199E+03  0.88593112390E+02 0.  0.
          2    1    3    3  502    0  0.95651154423E+02  0.85965587517E+02  0.32273070882E+02  0.13259252122E+03  0.00000000000E+00 0. -1.
         -1    1    3    3    0  502  0.28219787583E+03  0.21938632543E+03 -0.42532978303E+02  0.35996535271E+03  0.00000000000E+00 0.  1.
         11    1    5    5    0    0 -0.32273815731E+03  0.14278912173E+03  0.10660966522E+04  0.11229918625E+04  0.00000000000E+00 0. -1.
        -11    1    5    5    0    0 -0.32138389359E+02  0.65746424722E+01  0.21532100613E+03  0.21780550424E+03  0.00000000000E+00 0.  1.
          1    1    6    6  503    0  0.14487725165E+02 -0.36840111998E+03  0.25118473905E+03  0.44611999789E+03  0.00000000000E+00 0. -1.
         -1    1    6    6    0  503 -0.37460208751E+02 -0.86314557178E+02  0.84199798066E+02  0.12626589411E+03  0.00000000000E+00 0.  1.
<mgrwt>
<rscale>  0 0.17907016E+04</rscale>
<asrwt>0</asrwt>
<pdfrwt beam="1">  1        2 0.30863718E+00 0.17907016E+04</pdfrwt>
<pdfrwt beam="2">  1       -1 0.61476835E-01 0.17907016E+04</pdfrwt>
<totfact> 0.19140732E+01</totfact>
</mgrwt>
</event>
<event>
12    6  0.1403409E-007  0.1170967E+04  0.7818608E-02  0.9138656E-01
          2   -1    0    0  501    0  0.00000000000E+00  0.00000000000E+00  0.90873686821E+03  0.90873686821E+03  0.00000000000E+00 0. -1.
         -1   -1    0    0    0  501 -0.00000000000E+00 -0.00000000000E+00 -0.37721673105E+03  0.37721673105E+03  0.00000000000E+00 0.  1.
         24    2    1    2    0    0  0.17629137793E+03  0.97308286700E+02 -0.66983023407E+01  0.21687361127E+03  0.80260472310E+02 0.  0.
        254    2    1    2    0    0 -0.17629137793E+03 -0.97308286700E+02  0.53821843950E+03  0.10690799880E+04  0.90150173572E+03 0.  0.
         23    2    4    4    0    0 -0.38543745874E+03  0.26970114506E+03  0.37020993185E+03  0.60538661789E+03  0.90204330426E+02 0.  0.
         23    2    4    4    0    0  0.20914608081E+03 -0.36700943177E+03  0.16800850765E+03  0.46369337010E+03  0.91360148375E+02 0.  0.
          4    1    3    3  502    0  0.95960472700E+02  0.92504700384E+02 -0.21614263397E+02  0.13502854623E+03  0.00000000000E+00 0. -1.
         -1    1    3    3    0  502  0.80330905232E+02  0.48035863159E+01  0.14915961057E+02  0.81845065039E+02  0.00000000000E+00 0.  1.
         11    1    5    5    0    0 -0.30843445988E+03  0.17080988747E+03  0.25477107560E+03  0.43498980984E+03  0.00000000000E+00 0. -1.
        -11    1    5    5    0    0 -0.77002998864E+02  0.98891257592E+02  0.11543885625E+03  0.17039680805E+03  0.00000000000E+00 0.  1.
          3    1    6    6  503    0  0.16091842006E+03 -0.22612039005E+03  0.14461730778E+03  0.31295260731E+03  0.00000000000E+00 0. -1.
         -3    1    6    6    0  503  0.48227660756E+02 -0.14088904171E+03  0.23391199867E+02  0.15074076279E+03  0.00000000000E+00 0.  1.
<mgrwt>
<rscale>  0 0.11709667E+04</rscale>
<asrwt>0</asrwt>
<pdfrwt beam="1">  1        2 0.13980567E+00 0.11709667E+04</pdfrwt>
<pdfrwt beam="2">  1       -1 0.58033343E-01 0.11709667E+04</pdfrwt>
<totfact> 0.98149313E+01</totfact>
</mgrwt>
</event>
<event>
12    6  0.1403409E-007  0.1991877E+04  0.7818608E-02  0.8610428E-01
          2   -1    0    0  501    0  0.00000000000E+00  0.00000000000E+00  0.14140767667E+04  0.14140767667E+04  0.00000000000E+00 0. -1.
         -1   -1    0    0    0  501 -0.00000000000E+00 -0.00000000000E+00 -0.70144231672E+03  0.70144231672E+03  0.00000000000E+00 0.  1.
         24    2    1    2    0    0 -0.45283311310E+02 -0.69848432294E+03  0.68639137826E+03  0.98365678206E+03  0.80725541606E+02 0.  0.
        254    2    1    2    0    0  0.45283311310E+02  0.69848432294E+03  0.26243071727E+02  0.11318623014E+04  0.88909653173E+03 0.  0.
         23    2    4    4    0    0 -0.13517277331E+03  0.35167452316E+03  0.41850420657E+03  0.57058481437E+03  0.92057648222E+02 0.  0.
         23    2    4    4    0    0  0.18045608462E+03  0.34680979979E+03 -0.39226113484E+03  0.56127748698E+03  0.91226003843E+02 0.  0.
          2    1    3    3  502    0 -0.23155177430E+02 -0.49268428804E+03  0.53176375335E+03  0.72529074122E+03  0.00000000000E+00 0. -1.
         -1    1    3    3    0  502 -0.22128133880E+02 -0.20580003490E+03  0.15462762491E+03  0.25836604084E+03  0.00000000000E+00 0.  1.
         11    1    5    5    0    0  0.94068200366E+01  0.62729386246E+02  0.52207708422E+02  0.82152960876E+02  0.00000000000E+00 0.  1.
        -11    1    5    5    0    0 -0.14457959335E+03  0.28894513691E+03  0.36629649815E+03  0.48843185350E+03  0.00000000000E+00 0. -1.
          4    1    6    6  503    0  0.15252046791E+03  0.20972809636E+03 -0.28235146477E+03  0.38336760061E+03  0.00000000000E+00 0. -1.
         -4    1    6    6    0  503  0.27935616711E+02  0.13708170342E+03 -0.10990967007E+03  0.17790988638E+03  0.00000000000E+00 0.  1.
<mgrwt>
<rscale>  0 0.19918768E+04</rscale>
<asrwt>0</asrwt>
<pdfrwt beam="1">  1        2 0.21755027E+00 0.19918768E+04</pdfrwt>
<pdfrwt beam="2">  1       -1 0.10791420E+00 0.19918768E+04</pdfrwt>
<totfact> 0.12016558E+01</totfact>
</mgrwt>
</event>
<event>
12    6  0.1403409E-007  0.2013216E+04  0.7818608E-02  0.8600466E-01
          2   -1    0    0  501    0  0.00000000000E+00  0.00000000000E+00  0.19267587621E+04  0.19267587621E+04  0.00000000000E+00 0. -1.
         -1   -1    0    0    0  501 -0.00000000000E+00 -0.00000000000E+00 -0.52588831126E+03  0.52588831126E+03  0.00000000000E+00 0.  1.
         24    2    1    2    0    0 -0.33340022732E+03  0.40424365825E+03 -0.17945639424E+03  0.55972774639E+03  0.80758317354E+02 0.  0.
        254    2    1    2    0    0  0.33340022732E+03 -0.40424365825E+03  0.15803268450E+04  0.18929193269E+04  0.90063421781E+03 0.  0.
         23    2    4    4    0    0  0.38490118347E+02 -0.50578389821E+03  0.14564077748E+04  0.15450732413E+04  0.93962086918E+02 0.  0.
         23    2    4    4    0    0  0.29491010898E+03  0.10154023995E+03  0.12391907027E+03  0.34784608559E+03  0.91425218516E+02 0.  0.
          2    1    3    3  502    0 -0.13623189066E+03  0.19843958881E+03 -0.46163023051E+02  0.24508860263E+03  0.00000000000E+00 0. -1.
         -1    1    3    3    0  502 -0.19716833667E+03  0.20580406944E+03 -0.13329337119E+03  0.31463914376E+03  0.00000000000E+00 0.  1.
         11    1    5    5    0    0  0.27219279398E+02 -0.98842126807E+02  0.40029447917E+03  0.41321462372E+03  0.00000000000E+00 0.  1.
        -11    1    5    5    0    0  0.11270838949E+02 -0.40694177140E+03  0.10561132956E+04  0.11318586176E+04  0.00000000000E+00 0. -1.
          2    1    6    6  503    0  0.20289856312E+02  0.32333651105E+01  0.38949576057E+02  0.44036375806E+02  0.00000000000E+00 0. -1.
         -2    1    6    6    0  503  0.27462025266E+03  0.98306874841E+02  0.84969494209E+02  0.30380970979E+03  0.00000000000E+00 0.  1.
<mgrwt>
<rscale>  0 0.20132162E+04</rscale>
<asrwt>0</asrwt>
<pdfrwt beam="1">  1        2 0.29642442E+00 0.20132162E+04</pdfrwt>
<pdfrwt beam="2">  1       -1 0.80905895E-01 0.20132162E+04</pdfrwt>
<totfact> 0.11807469E+01</totfact>
</mgrwt>
</event>
<event>
12    6  0.1403409E-007  0.1935818E+04  0.7818608E-02  0.8637230E-01
          2   -1    0    0  501    0  0.00000000000E+00  0.00000000000E+00  0.34970348347E+04  0.34970348347E+04  0.00000000000E+00 0. -1.
         -1   -1    0    0    0  501 -0.00000000000E+00 -0.00000000000E+00 -0.26789772260E+03  0.26789772260E+03  0.00000000000E+00 0.  1.
         24    2    1    2    0    0  0.64475641591E+03 -0.30434374170E+03  0.17579840642E+04  0.18988990168E+04  0.83507825149E+02 0.  0.
        254    2    1    2    0    0 -0.64475641591E+03  0.30434374170E+03  0.14711530479E+04  0.18660335405E+04  0.89969657948E+03 0.  0.
         23    2    4    4    0    0  0.20631687418E+03  0.47622411327E+00  0.42058466598E+03  0.47721245578E+03  0.90958162524E+02 0.  0.
         23    2    4    4    0    0 -0.85107329010E+03  0.30386751758E+03  0.10505683819E+04  0.13888210847E+04  0.92026447524E+02 0.  0.
          2    1    3    3  502    0  0.60532546791E+03 -0.27547494424E+03  0.16802217744E+04  0.18070557761E+04  0.00000000000E+00 0. -1.
         -1    1    3    3    0  502  0.39430948005E+02 -0.28868797456E+02  0.77762289861E+02  0.91843240641E+02  0.00000000000E+00 0.  1.
         11    1    5    5    0    0  0.59693826025E+02 -0.38862545107E+02  0.16864690940E+03  0.18307219977E+03  0.00000000000E+00 0.  1.
        -11    1    5    5    0    0  0.14662304816E+03  0.39338769221E+02  0.25193775658E+03  0.29414025601E+03  0.00000000000E+00 0. -1.
          3    1    6    6  503    0 -0.63769300531E+03  0.22057843338E+03  0.84217215765E+03  0.10791483482E+04  0.00000000000E+00 0. -1.
         -3    1    6    6    0  503 -0.21338028478E+03  0.83289084200E+02  0.20839622423E+03  0.30967273653E+03  0.00000000000E+00 0.  1.
<mgrwt>
<rscale>  0 0.19358178E+04</rscale>
<asrwt>0</asrwt>
<pdfrwt beam="1">  1        2 0.53800533E+00 0.19358178E+04</pdfrwt>
<pdfrwt beam="2">  1       -1 0.41215037E-01 0.19358178E+04</pdfrwt>
<totfact> 0.50380045E+00</totfact>
</mgrwt>
</event>
<event>
12    6  0.1403409E-007  0.1856007E+04  0.7818608E-02  0.8677070E-01
         -1   -1    0    0    0  501 -0.00000000000E+00  0.00000000000E+00  0.30700096169E+03  0.30700096169E+03  0.00000000000E+00 0.  1.
          2   -1    0    0  501    0  0.00000000000E+00 -0.00000000000E+00 -0.28051728051E+04  0.28051728051E+04  0.00000000000E+00 0. -1.
         24    2    1    2    0    0  0.37195460955E+03  0.17646616167E+03 -0.19199282517E+04  0.19653929004E+04  0.84582642596E+02 0.  0.
        254    2    1    2    0    0 -0.37195460955E+03 -0.17646616167E+03 -0.57824359170E+03  0.11467808664E+04  0.90069426911E+03 0.  0.
         23    2    4    4    0    0 -0.51783505951E+03  0.17477542487E+03 -0.16502170236E+03  0.57760774693E+03  0.87743655457E+02 0.  0.
         23    2    4    4    0    0  0.14588044995E+03 -0.35124158654E+03 -0.41322188934E+03  0.56917311947E+03  0.92487579154E+02 0.  0.
          4    1    3    3  502    0  0.23873354301E+03  0.14210933825E+03 -0.14173720795E+04  0.14443449659E+04  0.00000000000E+00 0. -1.
         -3    1    3    3    0  502  0.13322106654E+03  0.34356823428E+02 -0.50255617213E+03  0.52104793449E+03  0.00000000000E+00 0.  1.
         11    1    5    5    0    0 -0.74314184551E+02 -0.48554733681E+01 -0.13595422350E+02  0.75703428957E+02  0.00000000000E+00 0. -1.
        -11    1    5    5    0    0 -0.44352087496E+03  0.17963089824E+03 -0.15142628001E+03  0.50190431797E+03  0.00000000000E+00 0.  1.
          2    1    6    6  503    0  0.29293324795E+02 -0.17020305455E+03 -0.14721673988E+03  0.22693599793E+03  0.00000000000E+00 0.  1.
         -2    1    6    6    0  503  0.11658712516E+03 -0.18103853200E+03 -0.26600514946E+03  0.34223712154E+03  0.00000000000E+00 0. -1.
<mgrwt>
<rscale>  0 0.18560073E+04</rscale>
<asrwt>0</asrwt>
<pdfrwt beam="1">  1        2 0.43156504E+00 0.18560073E+04</pdfrwt>
<pdfrwt beam="2">  1       -1 0.47230918E-01 0.18560073E+04</pdfrwt>
<totfact> 0.11009915E+01</totfact>
</mgrwt>
</event>
<event>
12    6  0.1403409E-007  0.1549542E+04  0.7818608E-02  0.8852160E-01
         -1   -1    0    0    0  501 -0.00000000000E+00  0.00000000000E+00  0.55559636477E+03  0.55559636477E+03  0.00000000000E+00 0.  1.
          2   -1    0    0  501    0  0.00000000000E+00 -0.00000000000E+00 -0.10804073634E+04  0.10804073634E+04  0.00000000000E+00 0. -1.
         24    2    1    2    0    0  0.22742683864E+03  0.16713190273E+03 -0.62289978998E+03  0.68881617507E+03  0.82507786539E+02 0.  0.
        254    2    1    2    0    0 -0.22742683864E+03 -0.16713190273E+03  0.98088791305E+02  0.94718755314E+03  0.89882523886E+03 0.  0.
         23    2    4    4    0    0  0.12576672793E+03 -0.33328853087E+03 -0.22411584216E+03  0.43067803345E+03  0.91417411491E+02 0.  0.
         23    2    4    4    0    0 -0.35319356657E+03  0.16615662814E+03  0.32220463346E+03  0.51650951969E+03  0.10301717122E+03 0.  0.
          4    1    3    3  502    0  0.21595309562E+03  0.12721117743E+03 -0.50421839120E+03  0.56307602434E+03  0.00000000000E+00 0. -1.
         -3    1    3    3    0  502  0.11473743016E+02  0.39920725302E+02 -0.11868139879E+03  0.12574015073E+03  0.00000000000E+00 0.  1.
         11    1    5    5    0    0  0.61202672845E+02 -0.26834493875E+03 -0.15440625174E+03  0.31558844068E+03  0.00000000000E+00 0.  1.
        -11    1    5    5    0    0  0.64564055088E+02 -0.64943592125E+02 -0.69709590417E+02  0.11508959277E+03  0.00000000000E+00 0. -1.
          1    1    6    6  503    0 -0.21396615970E+02 -0.80400332366E+01  0.44690342588E+02  0.50196454358E+02  0.00000000000E+00 0. -1.
         -1    1    6    6    0  503 -0.33179695060E+03  0.17419666138E+03  0.27751429087E+03  0.46631306533E+03  0.00000000000E+00 0.  1.
<mgrwt>
<rscale>  0 0.15495424E+04</rscale>
<asrwt>0</asrwt>
<pdfrwt beam="1">  1        2 0.16621652E+00 0.15495424E+04</pdfrwt>
<pdfrwt beam="2">  1       -1 0.85476364E-01 0.15495424E+04</pdfrwt>
<totfact> 0.33279031E+01</totfact>
</mgrwt>
</event>
<event>
12    6  0.1403409E-007  0.1332122E+04  0.7818608E-02  0.9004473E-01
          2   -1    0    0  501    0  0.00000000000E+00  0.00000000000E+00  0.74052370263E+03  0.74052370263E+03  0.00000000000E+00 0. -1.
         -1   -1    0    0    0  501 -0.00000000000E+00 -0.00000000000E+00 -0.59908542766E+03  0.59908542766E+03  0.00000000000E+00 0.  1.
         24    2    1    2    0    0 -0.51795609743E+02  0.29011499412E+03  0.23891540421E+03  0.38721833524E+03  0.77511120327E+02 0.  0.
        254    2    1    2    0    0  0.51795609743E+02 -0.29011499412E+03 -0.97477129245E+02  0.95239079506E+03  0.90038710608E+03 0.  0.
         23    2    4    4    0    0  0.33280751299E+03  0.16092607981E+03 -0.15183682674E+03  0.41032360181E+03  0.93021461963E+02 0.  0.
         23    2    4    4    0    0 -0.28101190324E+03 -0.45104107393E+03  0.54359697497E+02  0.54206719325E+03  0.92065873960E+02 0.  0.
          4    1    3    3  502    0 -0.83922890999E+01  0.37374688358E+02  0.71060462445E+02  0.80727239325E+02  0.00000000000E+00 0. -1.
         -3    1    3    3    0  502 -0.43403320643E+02  0.25274030576E+03  0.16785494177E+03  0.30649109591E+03  0.00000000000E+00 0.  1.
         11    1    5    5    0    0  0.28665852866E+03  0.17044793633E+03 -0.12546186411E+03  0.35632329477E+03  0.00000000000E+00 0.  1.
        -11    1    5    5    0    0  0.46148984332E+02 -0.95218565242E+01 -0.26374962637E+02  0.54000307042E+02  0.00000000000E+00 0. -1.
          1    1    6    6  503    0 -0.17303501524E+03 -0.29102817674E+03  0.78393990474E+02  0.34754011840E+03  0.00000000000E+00 0. -1.
         -1    1    6    6    0  503 -0.10797688800E+03 -0.16001289719E+03 -0.24034292976E+02  0.19452707485E+03  0.00000000000E+00 0.  1.
<mgrwt>
<rscale>  0 0.13321216E+04</rscale>
<asrwt>0</asrwt>
<pdfrwt beam="1">  1        2 0.11392672E+00 0.13321216E+04</pdfrwt>
<pdfrwt beam="2">  1       -1 0.92166989E-01 0.13321216E+04</pdfrwt>
<totfact> 0.48811727E+01</totfact>
</mgrwt>
</event>
<event>
12    6  0.1403409E-007  0.1962041E+04  0.7818608E-02  0.8624576E-01
         -1   -1    0    0    0  501 -0.00000000000E+00  0.00000000000E+00  0.60638135471E+03  0.60638135471E+03  0.00000000000E+00 0.  1.
          2   -1    0    0  501    0  0.00000000000E+00 -0.00000000000E+00 -0.15871222459E+04  0.15871222459E+04  0.00000000000E+00 0. -1.
         24    2    1    2    0    0 -0.90919428569E+02 -0.64108816857E+03  0.76125482855E+02  0.65702972202E+03  0.81440678437E+02 0.  0.
        254    2    1    2    0    0  0.90919428569E+02  0.64108816857E+03 -0.10568663740E+04  0.15364738786E+04  0.90803362526E+03 0.  0.
         23    2    4    4    0    0  0.34394719233E+03  0.34093057541E+01 -0.12752173385E+03  0.37752458599E+03  0.89172450595E+02 0.  0.
         23    2    4    4    0    0 -0.25302776376E+03  0.63767886282E+03 -0.92934464018E+03  0.11589492926E+04  0.93939455017E+02 0.  0.
          4    1    3    3  502    0 -0.36802926231E+02 -0.46098102377E+03  0.30148684851E+02  0.46342950149E+03  0.00000000000E+00 0. -1.
         -3    1    3    3    0  502 -0.54116502337E+02 -0.18010714481E+03  0.45976798004E+02  0.19360022053E+03  0.00000000000E+00 0.  1.
         11    1    5    5    0    0  0.12166046378E+03  0.23650873834E+02 -0.85049646067E+02  0.15031325482E+03  0.00000000000E+00 0.  1.
        -11    1    5    5    0    0  0.22228672856E+03 -0.20241568080E+02 -0.42472087781E+02  0.22721133117E+03  0.00000000000E+00 0. -1.
          3    1    6    6  503    0 -0.64400502285E+02  0.24470733717E+03 -0.28639114832E+03  0.38216357151E+03  0.00000000000E+00 0. -1.
         -3    1    6    6    0  503 -0.18862726148E+03  0.39297152565E+03 -0.64295349187E+03  0.77678572106E+03  0.00000000000E+00 0.  1.
<mgrwt>
<rscale>  0 0.19620411E+04</rscale>
<asrwt>0</asrwt>
<pdfrwt beam="1">  1        2 0.24417265E+00 0.19620411E+04</pdfrwt>
<pdfrwt beam="2">  1       -1 0.93289440E-01 0.19620411E+04</pdfrwt>
<totfact> 0.13425262E+01</totfact>
</mgrwt>
</event>
<event>
12    6  0.1403409E-007  0.2262354E+04  0.7818608E-02  0.8492914E-01
          2   -1    0    0  501    0  0.00000000000E+00  0.00000000000E+00  0.17220695648E+04  0.17220695648E+04  0.00000000000E+00 0. -1.
         -1   -1    0    0    0  501 -0.00000000000E+00 -0.00000000000E+00 -0.74303688844E+03  0.74303688844E+03  0.00000000000E+00 0.  1.
         24    2    1    2    0    0 -0.71282107243E+03 -0.27078760573E+03  0.10299029499E+04  0.12839512787E+04  0.79943674918E+02 0.  0.
        254    2    1    2    0    0  0.71282107243E+03  0.27078760573E+03 -0.50870273504E+02  0.11811551746E+04  0.90061087765E+03 0.  0.
         23    2    4    4    0    0 -0.15068549150E+03  0.25668641990E+03 -0.35886528046E+02  0.31264651382E+03  0.88690271147E+02 0.  0.
         23    2    4    4    0    0  0.86350656394E+03  0.14101185826E+02 -0.14983745458E+02  0.86850866074E+03  0.90776383223E+02 0.  0.
          2    1    3    3  502    0 -0.19148570583E+03 -0.41345264905E+02  0.23286004960E+03  0.30430249616E+03  0.00000000000E+00 0. -1.
         -1    1    3    3    0  502 -0.52133536660E+03 -0.22944234083E+03  0.79704290030E+03  0.97964878255E+03  0.00000000000E+00 0.  1.
         11    1    5    5    0    0 -0.13113615599E+03  0.20990963748E+03  0.49393103424E+01  0.24755432555E+03  0.00000000000E+00 0. -1.
        -11    1    5    5    0    0 -0.19549335513E+02  0.46776782427E+02 -0.40825838389E+02  0.65092188267E+02  0.00000000000E+00 0.  1.
          3    1    6    6  503    0  0.50313723781E+03 -0.13911958192E+02 -0.47645026487E+02  0.50557953994E+03  0.00000000000E+00 0. -1.
         -3    1    6    6    0  503  0.36036932613E+03  0.28013144018E+02  0.32661281029E+02  0.36292912081E+03  0.00000000000E+00 0.  1.
<mgrwt>
<rscale>  0 0.22623538E+04</rscale>
<asrwt>0</asrwt>
<pdfrwt beam="1">  1        2 0.26493378E+00 0.22623538E+04</pdfrwt>
<pdfrwt beam="2">  1       -1 0.11431337E+00 0.22623538E+04</pdfrwt>
<totfact> 0.68740770E+00</totfact>
</mgrwt>
</event>
<event>
12    6  0.1403409E-007  0.1835868E+04  0.7818608E-02  0.8687455E-01
          2   -1    0    0  501    0  0.00000000000E+00  0.00000000000E+00  0.33475614866E+04  0.33475614866E+04  0.00000000000E+00 0. -1.
         -1   -1    0    0    0  501 -0.00000000000E+00 -0.00000000000E+00 -0.25170632058E+03  0.25170632058E+03  0.00000000000E+00 0.  1.
         24    2    1    2    0    0  0.30935999161E+03  0.62231856699E+03  0.12847542239E+04  0.14629245864E+04  0.81061251210E+02 0.  0.
        254    2    1    2    0    0 -0.30935999161E+03 -0.62231856699E+03  0.18111009421E+04  0.21363432208E+04  0.89492554503E+03 0.  0.
         23    2    4    4    0    0  0.29868470562E+03 -0.17388465019E+03  0.74570111246E+03  0.82709953305E+03  0.92601638787E+02 0.  0.
         23    2    4    4    0    0 -0.60804469723E+03 -0.44843391680E+03  0.10653998297E+04  0.13092436877E+04  0.90724336435E+02 0.  0.
          4    1    3    3  502    0  0.15384936644E+03  0.22143625003E+03  0.48605743677E+03  0.55583763117E+03  0.00000000000E+00 0. -1.
         -3    1    3    3    0  502  0.15551062518E+03  0.40088231696E+03  0.79869678710E+03  0.90708695521E+03  0.00000000000E+00 0.  1.
         11    1    5    5    0    0  0.17042508953E+03 -0.13313037723E+03  0.37725447799E+03  0.43484405210E+03  0.00000000000E+00 0. -1.
        -11    1    5    5    0    0  0.12825961609E+03 -0.40754272963E+02  0.36844663448E+03  0.39225548096E+03  0.00000000000E+00 0.  1.
          1    1    6    6  503    0 -0.32006361668E+03 -0.24582131692E+03  0.49178812515E+03  0.63617953332E+03  0.00000000000E+00 0. -1.
         -1    1    6    6    0  503 -0.28798108055E+03 -0.20261259989E+03  0.57361170454E+03  0.67306415442E+03  0.00000000000E+00 0.  1.
<mgrwt>
<rscale>  0 0.18358675E+04</rscale>
<asrwt>0</asrwt>
<pdfrwt beam="1">  1        2 0.51500943E+00 0.18358675E+04</pdfrwt>
<pdfrwt beam="2">  1       -1 0.38724052E-01 0.18358675E+04</pdfrwt>
<totfact> 0.72124030E+00</totfact>
</mgrwt>
</event>
<event>
12    6  0.1403409E-007  0.2146605E+04  0.7818608E-02  0.8540987E-01
          2   -1    0    0  501    0  0.00000000000E+00  0.00000000000E+00  0.23000640725E+04  0.23000640725E+04  0.00000000000E+00 0. -1.
         -1   -1    0    0    0  501 -0.00000000000E+00 -0.00000000000E+00 -0.50084635563E+03  0.50084635563E+03  0.00000000000E+00 0.  1.
         24    2    1    2    0    0  0.67279292525E+03  0.46442304857E+03  0.11792042612E+04  0.14370586593E+04  0.79220025993E+02 0.  0.
        254    2    1    2    0    0 -0.67279292525E+03 -0.46442304857E+03  0.62001345571E+03  0.13638517688E+04  0.89851871081E+03 0.  0.
         23    2    4    4    0    0 -0.69508571570E+02 -0.44543605241E+03 -0.43757895877E+02  0.46209799407E+03  0.91515487023E+02 0.  0.
         23    2    4    4    0    0 -0.60328435368E+03 -0.18986996158E+02  0.66377135159E+03  0.90175377472E+03  0.90856731295E+02 0.  0.
          4    1    3    3  502    0  0.32873889192E+03  0.18396723476E+03  0.57216416670E+03  0.68504382063E+03  0.00000000000E+00 0. -1.
         -3    1    3    3    0  502  0.34405403333E+03  0.28045581381E+03  0.60704009446E+03  0.75201483870E+03  0.00000000000E+00 0.  1.
         11    1    5    5    0    0 -0.23364685562E+02 -0.20108633393E+03 -0.64757138334E+02  0.21254436994E+03  0.00000000000E+00 0. -1.
        -11    1    5    5    0    0 -0.46143886008E+02 -0.24434971848E+03  0.20999242457E+02  0.24955362414E+03  0.00000000000E+00 0.  1.
          2    1    6    6  503    0 -0.19135094107E+03 -0.39000926968E+02  0.25377491869E+03  0.32021549667E+03  0.00000000000E+00 0. -1.
         -2    1    6    6    0  503 -0.41193341261E+03  0.20013930809E+02  0.40999643290E+03  0.58153827805E+03  0.00000000000E+00 0.  1.
<mgrwt>
<rscale>  0 0.21466054E+04</rscale>
<asrwt>0</asrwt>
<pdfrwt beam="1">  1        2 0.35385600E+00 0.21466054E+04</pdfrwt>
<pdfrwt beam="2">  1       -1 0.77053287E-01 0.21466054E+04</pdfrwt>
<totfact> 0.80009244E+00</totfact>
</mgrwt>
</event>
<event>
12    6  0.1403409E-007  0.1616666E+04  0.7818608E-02  0.8810374E-01
         -1   -1    0    0    0  501 -0.00000000000E+00  0.00000000000E+00  0.52323483240E+03  0.52323483240E+03  0.00000000000E+00 0.  1.
          2   -1    0    0  501    0  0.00000000000E+00 -0.00000000000E+00 -0.12487749275E+04  0.12487749275E+04  0.00000000000E+00 0. -1.
         24    2    1    2    0    0  0.38561170582E+03  0.37769913903E+03 -0.37296367873E+03  0.66099560283E+03  0.80375705431E+02 0.  0.
        254    2    1    2    0    0 -0.38561170582E+03 -0.37769913903E+03 -0.35257641634E+03  0.11110141570E+04  0.90481451166E+03 0.  0.
         23    2    4    4    0    0 -0.34986162072E+03 -0.21755065178E+03  0.24309935158E+03  0.48635558624E+03  0.87823811068E+02 0.  0.
         23    2    4    4    0    0 -0.35750085106E+02 -0.16014848725E+03 -0.59567576792E+03  0.62465857081E+03  0.91886359390E+02 0.  0.
          2    1    3    3  502    0  0.30032408231E+03  0.24863914988E+03 -0.28591549107E+03  0.48349110571E+03  0.00000000000E+00 0. -1.
         -1    1    3    3    0  502  0.85287623514E+02  0.12905998915E+03 -0.87048187658E+02  0.17750449712E+03  0.00000000000E+00 0.  1.
         11    1    5    5    0    0 -0.14668057740E+03 -0.11779409923E+03  0.15393565281E+03  0.24307782047E+03  0.00000000000E+00 0.  1.
        -11    1    5    5    0    0 -0.20318104332E+03 -0.99756552544E+02  0.89163698773E+02  0.24327776577E+03  0.00000000000E+00 0. -1.
          1    1    6    6  503    0 -0.11263780243E+02 -0.12861102539E+03 -0.30422051562E+03  0.33048115033E+03  0.00000000000E+00 0. -1.
         -1    1    6    6    0  503 -0.24486304863E+02 -0.31537461856E+02 -0.29145525230E+03  0.29417742048E+03  0.00000000000E+00 0.  1.
<mgrwt>
<rscale>  0 0.16166664E+04</rscale>
<asrwt>0</asrwt>
<pdfrwt beam="1">  1        2 0.19211922E+00 0.16166664E+04</pdfrwt>
<pdfrwt beam="2">  1       -1 0.80497667E-01 0.16166664E+04</pdfrwt>
<totfact> 0.29783099E+01</totfact>
</mgrwt>
</event>
<event>
12    6  0.1403409E-007  0.1945227E+04  0.7818608E-02  0.8632666E-01
          2   -1    0    0  501    0  0.00000000000E+00  0.00000000000E+00  0.17650647799E+04  0.17650647799E+04  0.00000000000E+00 0. -1.
         -1   -1    0    0    0  501 -0.00000000000E+00 -0.00000000000E+00 -0.53594460192E+03  0.53594460192E+03  0.00000000000E+00 0.  1.
         24    2    1    2    0    0  0.17504707676E+03 -0.71913507630E+03  0.69595816740E+03  0.10191322838E+04  0.80474245324E+02 0.  0.
        254    2    1    2    0    0 -0.17504707676E+03  0.71913507630E+03  0.53316201057E+03  0.12818770980E+04  0.90063889975E+03 0.  0.
         23    2    4    4    0    0 -0.20226226579E+03 -0.13434925070E+03  0.28705631294E+03  0.38748724582E+03  0.93729896784E+02 0.  0.
         23    2    4    4    0    0  0.27215189037E+02  0.85348432700E+03  0.24610569764E+03  0.89438985215E+03  0.10094072656E+03 0.  0.
          2    1    3    3  502    0  0.51665720448E+02 -0.27289124504E+03  0.31143384209E+03  0.41728888829E+03  0.00000000000E+00 0. -1.
         -1    1    3    3    0  502  0.12338135631E+03 -0.44624383126E+03  0.38452432531E+03  0.60184339556E+03  0.00000000000E+00 0.  1.
         11    1    5    5    0    0 -0.61820342199E+02 -0.19301300386E+02  0.26627603473E+02  0.70023740067E+02  0.00000000000E+00 0. -1.
        -11    1    5    5    0    0 -0.14044192360E+03 -0.11504795031E+03  0.26042870946E+03  0.31746350575E+03  0.00000000000E+00 0.  1.
          3    1    6    6  503    0  0.35205837045E+02  0.41459082756E+03  0.16703550196E+03  0.44835907951E+03  0.00000000000E+00 0. -1.
         -3    1    6    6    0  503 -0.79906480084E+01  0.43889349944E+03  0.79070195673E+02  0.44603077264E+03  0.00000000000E+00 0.  1.
<mgrwt>
<rscale>  0 0.19452269E+04</rscale>
<asrwt>0</asrwt>
<pdfrwt beam="1">  1        2 0.27154842E+00 0.19452269E+04</pdfrwt>
<pdfrwt beam="2">  1       -1 0.82453017E-01 0.19452269E+04</pdfrwt>
<totfact> 0.14020746E+01</totfact>
</mgrwt>
</event>
<event>
12    6  0.1403409E-007  0.3764687E+04  0.7818608E-02  0.8053776E-01
          2   -1    0    0  501    0  0.00000000000E+00  0.00000000000E+00  0.21931610070E+04  0.21931610070E+04  0.00000000000E+00 0. -1.
         -1   -1    0    0    0  501 -0.00000000000E+00 -0.00000000000E+00 -0.16155754128E+04  0.16155754128E+04  0.00000000000E+00 0.  1.
         24    2    1    2    0    0 -0.74430875192E+03  0.16046245216E+04  0.14052609271E+03  0.17760199190E+04  0.75390955781E+02 0.  0.
        254    2    1    2    0    0  0.74430875192E+03 -0.16046245216E+04  0.43705950143E+03  0.20327165009E+04  0.90116590677E+03 0.  0.
         23    2    4    4    0    0  0.93929788022E+03 -0.12952098073E+04  0.41044403864E+03  0.16542707062E+04  0.91095048859E+02 0.  0.
         23    2    4    4    0    0 -0.19498912830E+03 -0.30941471434E+03  0.26615462791E+02  0.37844579465E+03  0.93566078395E+02 0.  0.
          4    1    3    3  502    0 -0.49585400188E+03  0.10251845012E+04  0.59278521723E+02  0.11403457352E+04  0.00000000000E+00 0. -1.
         -3    1    3    3    0  502 -0.24845475004E+03  0.57944002038E+03  0.81247570983E+02  0.63567418370E+03  0.00000000000E+00 0.  1.
         11    1    5    5    0    0  0.64940189385E+03 -0.84251391752E+03  0.30324559440E+03  0.11061240489E+04  0.00000000000E+00 0. -1.
        -11    1    5    5    0    0  0.28989598637E+03 -0.45269588975E+03  0.10719844424E+03  0.54814665735E+03  0.00000000000E+00 0.  1.
          2    1    6    6  503    0 -0.15976996762E+02 -0.66013535442E+01 -0.16680575807E+02  0.24022570707E+02  0.00000000000E+00 0.  1.
         -2    1    6    6    0  503 -0.17901213153E+03 -0.30281336080E+03  0.43296038598E+02  0.35442322395E+03  0.00000000000E+00 0. -1.
<mgrwt>
<rscale>  0 0.37646870E+04</rscale>
<asrwt>0</asrwt>
<pdfrwt beam="1">  1        2 0.33740938E+00 0.37646870E+04</pdfrwt>
<pdfrwt beam="2">  1       -1 0.24855006E+00 0.37646870E+04</pdfrwt>
<totfact> 0.33947830E-01</totfact>
</mgrwt>
</event>
<event>
12    6  0.1403409E-007  0.1416051E+04  0.7818608E-02  0.8942281E-01
          2   -1    0    0  501    0  0.00000000000E+00  0.00000000000E+00  0.41017561897E+03  0.41017561897E+03  0.00000000000E+00 0. -1.
         -1   -1    0    0    0  501 -0.00000000000E+00 -0.00000000000E+00 -0.12221596481E+04  0.12221596481E+04  0.00000000000E+00 0.  1.
         24    2    1    2    0    0  0.40860342400E+03  0.54822349755E+02 -0.31387185583E+03  0.52476336888E+03  0.83059035054E+02 0.  0.
        254    2    1    2    0    0 -0.40860342400E+03 -0.54822349755E+02 -0.49811217329E+03  0.11075718982E+04  0.89924275050E+03 0.  0.
         23    2    4    4    0    0  0.97465876471E+02 -0.31383036308E+03 -0.39701530167E+03  0.52309880149E+03  0.89566246441E+02 0.  0.
         23    2    4    4    0    0 -0.50606930047E+03  0.25900801332E+03 -0.10109687162E+03  0.58447309669E+03  0.90536928721E+02 0.  0.
          4    1    3    3  502    0  0.21209661917E+01  0.11546735865E+02 -0.97985984322E+01  0.15291766999E+02  0.00000000000E+00 0. -1.
         -3    1    3    3    0  502  0.40648245780E+03  0.43275613889E+02 -0.30407325740E+03  0.50947160188E+03  0.00000000000E+00 0.  1.
         11    1    5    5    0    0  0.53479547776E+02 -0.22159581002E+03 -0.20978224809E+03  0.30979566921E+03  0.00000000000E+00 0. -1.
        -11    1    5    5    0    0  0.43986328695E+02 -0.92234553056E+02 -0.18723305357E+03  0.21330313228E+03  0.00000000000E+00 0.  1.
          3    1    6    6  503    0 -0.11916815499E+03  0.97234252897E+02 -0.51465547026E+02  0.16218585521E+03  0.00000000000E+00 0. -1.
         -3    1    6    6    0  503 -0.38690114548E+03  0.16177376043E+03 -0.49631324598E+02  0.42228724148E+03  0.00000000000E+00 0.  1.
<mgrwt>
<rscale>  0 0.14160510E+04</rscale>
<asrwt>0</asrwt>
<pdfrwt beam="1">  1        2 0.63103943E-01 0.14160510E+04</pdfrwt>
<pdfrwt beam="2">  1       -1 0.18802456E+00 0.14160510E+04</pdfrwt>
<totfact> 0.15683132E+01</totfact>
</mgrwt>
</event>
<event>
12    6  0.1403409E-007  0.1406638E+04  0.7818608E-02  0.8949028E-01
          4   -1    0    0  501    0  0.00000000000E+00  0.00000000000E+00  0.75654270683E+03  0.75654270683E+03  0.00000000000E+00 0. -1.
         -3   -1    0    0    0  501 -0.00000000000E+00 -0.00000000000E+00 -0.65383931954E+03  0.65383931954E+03  0.00000000000E+00 0.  1.
         24    2    1    2    0    0 -0.30597192377E+03  0.23949090661E+01  0.30324409371E+03  0.43833072434E+03  0.80946215518E+02 0.  0.
        254    2    1    2    0    0  0.30597192377E+03 -0.23949090661E+01 -0.20054070641E+03  0.97205130203E+03  0.90057903880E+03 0.  0.
         23    2    4    4    0    0  0.61507252644E+03  0.53721841292E+02 -0.12023372724E+03  0.63570683626E+03  0.92015126445E+02 0.  0.
         23    2    4    4    0    0 -0.30910060267E+03 -0.56116750358E+02 -0.80306979174E+02  0.33634446577E+03  0.89365074312E+02 0.  0.
          4    1    3    3  502    0 -0.17598270712E+03  0.38021019578E+02  0.15086029564E+03  0.23489218790E+03  0.00000000000E+00 0. -1.
         -3    1    3    3    0  502 -0.12998921664E+03 -0.35626110512E+02  0.15238379807E+03  0.20343853644E+03  0.00000000000E+00 0.  1.
         11    1    5    5    0    0  0.17718139794E+03  0.57273127487E+02 -0.41573431750E+02  0.19079258145E+03  0.00000000000E+00 0.  1.
        -11    1    5    5    0    0  0.43789112850E+03 -0.35512861948E+01 -0.78660295490E+02  0.44491425482E+03  0.00000000000E+00 0. -1.
          4    1    6    6  503    0 -0.29855029099E+02 -0.26623832969E+02  0.10268766520E+02  0.41298895993E+02  0.00000000000E+00 0.  1.
         -4    1    6    6    0  503 -0.27924557357E+03 -0.29492917389E+02 -0.90575745694E+02  0.29504556977E+03  0.00000000000E+00 0. -1.
<mgrwt>
<rscale>  0 0.14066376E+04</rscale>
<asrwt>0</asrwt>
<pdfrwt beam="1">  1        4 0.11639119E+00 0.14066376E+04</pdfrwt>
<pdfrwt beam="2">  1       -3 0.10059066E+00 0.14066376E+04</pdfrwt>
<totfact> 0.10950476E+00</totfact>
</mgrwt>
</event>
<event>
12    6  0.1403409E-007  0.2438007E+04  0.7818608E-02  0.8425410E-01
          2   -1    0    0  501    0  0.00000000000E+00  0.00000000000E+00  0.17851633433E+04  0.17851633433E+04  0.00000000000E+00 0. -1.
         -1   -1    0    0    0  501 -0.00000000000E+00 -0.00000000000E+00 -0.83239942942E+03  0.83239942942E+03  0.00000000000E+00 0.  1.
         24    2    1    2    0    0 -0.94085462570E+03  0.27881287505E+03  0.76890704684E+01  0.98457258815E+03  0.79874986852E+02 0.  0.
        254    2    1    2    0    0  0.94085462570E+03 -0.27881287505E+03  0.94507484344E+03  0.16329901846E+04  0.90030352510E+03 0.  0.
         23    2    4    4    0    0 -0.13796293857E+03 -0.10293792000E+03  0.10917820407E+02  0.19270201484E+03  0.85935324110E+02 0.  0.
         23    2    4    4    0    0  0.10788175643E+04 -0.17587495505E+03  0.93415702303E+03  0.14402881698E+04  0.83673959406E+02 0.  0.
          4    1    3    3  502    0 -0.46961336921E+03  0.14452681799E+03  0.43456225576E+02  0.49326783921E+03  0.00000000000E+00 0. -1.
         -3    1    3    3    0  502 -0.47124125649E+03  0.13428605707E+03 -0.35767155108E+02  0.49130474894E+03  0.00000000000E+00 0.  1.
         11    1    5    5    0    0 -0.13584906539E+02 -0.93353483279E+01 -0.27777931946E+02  0.32300339275E+02  0.00000000000E+00 0. -1.
        -11    1    5    5    0    0 -0.12437803203E+03 -0.93602571673E+02  0.38695752353E+02  0.16040167557E+03  0.00000000000E+00 0.  1.
          3    1    6    6  503    0  0.30192806581E+03 -0.87218907642E+02  0.26145470435E+03  0.40881078410E+03  0.00000000000E+00 0. -1.
         -3    1    6    6    0  503  0.77688949846E+03 -0.88656047410E+02  0.67270231868E+03  0.10314773857E+04  0.00000000000E+00 0.  1.
<mgrwt>
<rscale>  0 0.24380065E+04</rscale>
<asrwt>0</asrwt>
<pdfrwt beam="1">  1        2 0.27464051E+00 0.24380065E+04</pdfrwt>
<pdfrwt beam="2">  1       -1 0.12806145E+00 0.24380065E+04</pdfrwt>
<totfact> 0.47269091E+00</totfact>
</mgrwt>
</event>
<event>
12    6  0.1403409E-007  0.1533502E+04  0.7818608E-02  0.8862475E-01
          2   -1    0    0  501    0  0.00000000000E+00  0.00000000000E+00  0.20772193361E+04  0.20772193361E+04  0.00000000000E+00 0. -1.
         -1   -1    0    0    0  501 -0.00000000000E+00 -0.00000000000E+00 -0.28302618190E+03  0.28302618190E+03  0.00000000000E+00 0.  1.
         24    2    1    2    0    0  0.38033307948E+03  0.31908547876E+03  0.66756052543E+03  0.83578590680E+03  0.80201201870E+02 0.  0.
        254    2    1    2    0    0 -0.38033307948E+03 -0.31908547876E+03  0.11266326288E+04  0.15244596112E+04  0.89900346601E+03 0.  0.
         23    2    4    4    0    0  0.25920658698E+03  0.54959008526E+01  0.16509815940E+03  0.32139898111E+03  0.93923602807E+02 0.  0.
         23    2    4    4    0    0 -0.63953966646E+03 -0.32458137961E+03  0.96153446942E+03  0.12030606301E+04  0.91881918439E+02 0.  0.
          4    1    3    3  502    0  0.11362517005E+03  0.13413468776E+03  0.27560542731E+03  0.32689623016E+03  0.00000000000E+00 0. -1.
         -3    1    3    3    0  502  0.26670790943E+03  0.18495079100E+03  0.39195509812E+03  0.50888967663E+03  0.00000000000E+00 0.  1.
         11    1    5    5    0    0  0.35706488140E+02 -0.41507776632E+01 -0.10001429655E+02  0.37312341734E+02  0.00000000000E+00 0. -1.
        -11    1    5    5    0    0  0.22350009884E+03  0.96466785158E+01  0.17509958905E+03  0.28408663938E+03  0.00000000000E+00 0.  1.
          4    1    6    6  503    0 -0.23314262750E+03 -0.93376724280E+02  0.40056069802E+03  0.47278279388E+03  0.00000000000E+00 0. -1.
         -4    1    6    6    0  503 -0.40639703896E+03 -0.23120465533E+03  0.56097377140E+03  0.73027783625E+03  0.00000000000E+00 0.  1.
<mgrwt>
<rscale>  0 0.15335025E+04</rscale>
<asrwt>0</asrwt>
<pdfrwt beam="1">  1        2 0.31957220E+00 0.15335025E+04</pdfrwt>
<pdfrwt beam="2">  1       -1 0.43542491E-01 0.15335025E+04</pdfrwt>
<totfact> 0.34607656E+01</totfact>
</mgrwt>
</event>
<event>
12    6  0.1403409E-007  0.2680313E+04  0.7818608E-02  0.8341421E-01
         -1   -1    0    0    0  501 -0.00000000000E+00  0.00000000000E+00  0.15505272000E+04  0.15505272000E+04  0.00000000000E+00 0.  1.
          2   -1    0    0  501    0  0.00000000000E+00 -0.00000000000E+00 -0.11583279201E+04  0.11583279201E+04  0.00000000000E+00 0. -1.
         24    2    1    2    0    0  0.12808130661E+03 -0.53080083501E+03  0.12375425900E+04  0.13549789193E+04  0.79384269432E+02 0.  0.
        254    2    1    2    0    0 -0.12808130661E+03  0.53080083501E+03 -0.84534331007E+03  0.13538762008E+04  0.90566059185E+03 0.  0.
         23    2    4    4    0    0 -0.36700358299E+03  0.10879249602E+03 -0.22075389775E+02  0.39401511143E+03  0.90736696453E+02 0.  0.
         23    2    4    4    0    0  0.23892227637E+03  0.42200833899E+03 -0.82326792029E+03  0.95986108936E+03  0.91587935676E+02 0.  0.
          4    1    3    3  502    0  0.38685764251E+02 -0.53921681071E+02  0.13666570735E+03  0.15192646777E+03  0.00000000000E+00 0. -1.
         -3    1    3    3    0  502  0.89395542363E+02 -0.47687915394E+03  0.11008768826E+04  0.12030524515E+04  0.00000000000E+00 0.  1.
         11    1    5    5    0    0 -0.14629228486E+03 -0.27615449661E-01  0.54960240929E+01  0.14639549055E+03  0.00000000000E+00 0. -1.
        -11    1    5    5    0    0 -0.22071129813E+03  0.10882011147E+03 -0.27571413868E+02  0.24761962088E+03  0.00000000000E+00 0.  1.
          3    1    6    6  503    0  0.65865554539E+02  0.20396063294E+03 -0.33100327250E+03  0.39433662963E+03  0.00000000000E+00 0. -1.
         -3    1    6    6    0  503  0.17305672183E+03  0.21804770605E+03 -0.49226464779E+03  0.56552445973E+03  0.00000000000E+00 0.  1.
<mgrwt>
<rscale>  0 0.26803126E+04</rscale>
<asrwt>0</asrwt>
<pdfrwt beam="1">  1        2 0.17820430E+00 0.26803126E+04</pdfrwt>
<pdfrwt beam="2">  1       -1 0.23854265E+00 0.26803126E+04</pdfrwt>
<totfact> 0.16655107E+00</totfact>
</mgrwt>
</event>
<event>
12    6  0.1403409E-007  0.1666541E+04  0.7818608E-02  0.8780681E-01
          2   -1    0    0  501    0  0.00000000000E+00  0.00000000000E+00  0.81907252788E+03  0.81907252788E+03  0.00000000000E+00 0. -1.
         -1   -1    0    0    0  501 -0.00000000000E+00 -0.00000000000E+00 -0.84771450272E+03  0.84771450272E+03  0.00000000000E+00 0.  1.
         24    2    1    2    0    0 -0.58232944956E+03  0.19050172913E+02  0.48691955493E+02  0.59026563420E+03  0.81068585005E+02 0.  0.
        254    2    1    2    0    0  0.58232944956E+03 -0.19050172913E+02 -0.77333930335E+02  0.10765213964E+04  0.90191312398E+03 0.  0.
         23    2    4    4    0    0  0.30511438692E+03  0.30636043740E+03  0.27068729028E+03  0.51772757669E+03  0.88423570615E+02 0.  0.
         23    2    4    4    0    0  0.27721506264E+03 -0.32541061031E+03 -0.34802122061E+03  0.55879381971E+03  0.91605167373E+02 0.  0.
          4    1    3    3  502    0 -0.93583300212E+02  0.32439176682E+02  0.15013979718E+02  0.10017761152E+03  0.00000000000E+00 0. -1.
         -3    1    3    3    0  502 -0.48874614934E+03 -0.13389003769E+02  0.33677975775E+02  0.49008802268E+03  0.00000000000E+00 0.  1.
         11    1    5    5    0    0  0.17773393034E+03  0.20736760390E+03  0.12501045509E+03  0.30036359138E+03  0.00000000000E+00 0. -1.
        -11    1    5    5    0    0  0.12738045658E+03  0.98992833493E+02  0.14567683519E+03  0.21736398531E+03  0.00000000000E+00 0.  1.
          3    1    6    6  503    0  0.25803780005E+03 -0.32539746087E+03 -0.31753181391E+03  0.52277477621E+03  0.00000000000E+00 0. -1.
         -3    1    6    6    0  503  0.19177262584E+02 -0.13149439379E-01 -0.30489406708E+02  0.36019043498E+02  0.00000000000E+00 0.  1.
<mgrwt>
<rscale>  0 0.16665409E+04</rscale>
<asrwt>0</asrwt>
<pdfrwt beam="1">  1        2 0.12601116E+00 0.16665409E+04</pdfrwt>
<pdfrwt beam="2">  1       -1 0.13041762E+00 0.16665409E+04</pdfrwt>
<totfact> 0.18288318E+01</totfact>
</mgrwt>
</event>
<event>
12    6  0.1403409E-007  0.3046772E+04  0.7818608E-02  0.8230500E-01
          2   -1    0    0  501    0  0.00000000000E+00  0.00000000000E+00  0.25267175352E+04  0.25267175352E+04  0.00000000000E+00 0. -1.
         -1   -1    0    0    0  501 -0.00000000000E+00 -0.00000000000E+00 -0.91846601219E+03  0.91846601219E+03  0.00000000000E+00 0.  1.
         24    2    1    2    0    0  0.41778705051E+03 -0.12608191964E+04  0.11885206417E+04  0.17840772540E+04  0.78353474380E+02 0.  0.
        254    2    1    2    0    0 -0.41778705051E+03  0.12608191964E+04  0.41973088134E+03  0.16611062934E+04  0.90492488063E+03 0.  0.
         23    2    4    4    0    0 -0.37946727868E+03  0.13612759046E+04  0.48995621324E+03  0.14985228789E+04  0.91903338909E+02 0.  0.
         23    2    4    4    0    0 -0.38319771832E+02 -0.10045670820E+03 -0.70225331900E+02  0.16258341447E+03  0.99708646993E+02 0.  0.
          2    1    3    3  502    0  0.24011086218E+03 -0.76987856010E+03  0.67343541940E+03  0.10506576453E+04  0.00000000000E+00 0. -1.
         -1    1    3    3    0  502  0.17767618833E+03 -0.49094063632E+03  0.51508522232E+03  0.73341960878E+03  0.00000000000E+00 0.  1.
         11    1    5    5    0    0 -0.13138625765E+03  0.48511933534E+03  0.22094324804E+03  0.54901642696E+03  0.00000000000E+00 0. -1.
        -11    1    5    5    0    0 -0.24808102102E+03  0.87615656928E+03  0.26901296520E+03  0.94950645196E+03  0.00000000000E+00 0.  1.
          2    1    6    6  503    0 -0.47439514771E+02 -0.32278312216E+02 -0.74064530727E+02  0.93690723730E+02  0.00000000000E+00 0. -1.
         -2    1    6    6    0  503  0.91197429386E+01 -0.68178395980E+02  0.38391988277E+01  0.68892690739E+02  0.00000000000E+00 0.  1.
<mgrwt>
<rscale>  0 0.30467715E+04</rscale>
<asrwt>0</asrwt>
<pdfrwt beam="1">  1        2 0.38872577E+00 0.30467715E+04</pdfrwt>
<pdfrwt beam="2">  1       -1 0.14130246E+00 0.30467715E+04</pdfrwt>
<totfact> 0.13314163E+00</totfact>
</mgrwt>
</event>
<event>
12    6  0.1403409E-007  0.1755785E+04  0.7818608E-02  0.8730172E-01
          2   -1    0    0  501    0  0.00000000000E+00  0.00000000000E+00  0.12578454101E+04  0.12578454101E+04  0.00000000000E+00 0. -1.
         -3   -1    0    0    0  501 -0.00000000000E+00 -0.00000000000E+00 -0.61271094636E+03  0.61271094636E+03  0.00000000000E+00 0.  1.
         24    2    1    2    0    0  0.62554287164E+03 -0.14238908457E+03  0.31031154266E+03  0.71710210242E+03  0.79772402049E+02 0.  0.
        254    2    1    2    0    0 -0.62554287164E+03  0.14238908457E+03  0.33482292111E+03  0.11534542541E+04  0.89820476066E+03 0.  0.
         23    2    4    4    0    0 -0.52704635933E+03  0.10954774732E+03  0.62637660400E+03  0.83090758154E+03  0.91001017517E+02 0.  0.
         23    2    4    4    0    0 -0.98496512310E+02  0.32841337252E+02 -0.29155368289E+03  0.32254667254E+03  0.90844315124E+02 0.  0.
          2    1    3    3  502    0  0.20294180347E+03 -0.65143658211E+02  0.67213194029E+02  0.22348755055E+03  0.00000000000E+00 0. -1.
         -1    1    3    3    0  502  0.42260106817E+03 -0.77245426362E+02  0.24309834863E+03  0.49361455187E+03  0.00000000000E+00 0.  1.
         11    1    5    5    0    0 -0.24366463811E+02 -0.12598357611E+02  0.44995632491E+02  0.52697724015E+02  0.00000000000E+00 0. -1.
        -11    1    5    5    0    0 -0.50267989552E+03  0.12214610493E+03  0.58138097151E+03  0.77820985752E+03  0.00000000000E+00 0.  1.
          3    1    6    6  503    0 -0.49932770642E+02  0.60191571425E+02 -0.13071252277E+03  0.15232225859E+03  0.00000000000E+00 0. -1.
         -3    1    6    6    0  503 -0.48563741667E+02 -0.27350234173E+02 -0.16084116012E+03  0.17022441395E+03  0.00000000000E+00 0.  1.
<mgrwt>
<rscale>  0 0.17557855E+04</rscale>
<asrwt>0</asrwt>
<pdfrwt beam="1">  1        2 0.19351468E+00 0.17557855E+04</pdfrwt>
<pdfrwt beam="2">  1       -3 0.94263223E-01 0.17557855E+04</pdfrwt>
<totfact> 0.10563046E+01</totfact>
</mgrwt>
</event>
<event>
12    6  0.1403409E-007  0.2663301E+04  0.7818608E-02  0.8347012E-01
          2   -1    0    0  501    0  0.00000000000E+00  0.00000000000E+00  0.18248914178E+04  0.18248914178E+04  0.00000000000E+00 0. -1.
         -1   -1    0    0    0  501 -0.00000000000E+00 -0.00000000000E+00 -0.97172488275E+03  0.97172488275E+03  0.00000000000E+00 0.  1.
         24    2    1    2    0    0 -0.14686058128E+03  0.11299592486E+04  0.69023258826E+03  0.13346256600E+04  0.80179129165E+02 0.  0.
        254    2    1    2    0    0  0.14686058128E+03 -0.11299592486E+04  0.16293394682E+03  0.14619906405E+04  0.90138406256E+03 0.  0.
         23    2    4    4    0    0  0.26881382584E+03  0.17405863940E+02  0.10427600184E+03  0.30312038840E+03  0.91894767214E+02 0.  0.
         23    2    4    4    0    0 -0.12195324455E+03 -0.11473651125E+04  0.58657944971E+02  0.11588702521E+04  0.90665382202E+02 0.  0.
          4    1    3    3  502    0 -0.39469263136E+02  0.25025882818E+03  0.19250947286E+03  0.31819365323E+03  0.00000000000E+00 0. -1.
         -3    1    3    3    0  502 -0.10739131815E+03  0.87970042039E+03  0.49772311540E+03  0.10164320068E+04  0.00000000000E+00 0.  1.
         11    1    5    5    0    0 -0.74789978392E+01  0.43900289388E+00  0.51616733754E+01  0.90978571243E+01  0.00000000000E+00 0. -1.
        -11    1    5    5    0    0  0.27629282367E+03  0.16966861046E+02  0.99114328469E+02  0.29402253127E+03  0.00000000000E+00 0.  1.
          1    1    6    6  503    0 -0.54498202794E+02 -0.85633933999E+03  0.59442777536E+02  0.86012822482E+03  0.00000000000E+00 0. -1.
         -1    1    6    6    0  503 -0.67455041756E+02 -0.29102577252E+03 -0.78483256539E+00  0.29874202733E+03  0.00000000000E+00 0.  1.
<mgrwt>
<rscale>  0 0.26633005E+04</rscale>
<asrwt>0</asrwt>
<pdfrwt beam="1">  1        2 0.28075253E+00 0.26633005E+04</pdfrwt>
<pdfrwt beam="2">  1       -1 0.14949614E+00 0.26633005E+04</pdfrwt>
<totfact> 0.29472730E+00</totfact>
</mgrwt>
</event>
<event>
12    6  0.1403409E-007  0.1279993E+04  0.7818608E-02  0.9045583E-01
          2   -1    0    0  501    0  0.00000000000E+00  0.00000000000E+00  0.24270764478E+04  0.24270764478E+04  0.00000000000E+00 0. -1.
         -1   -1    0    0    0  501 -0.00000000000E+00 -0.00000000000E+00 -0.16876088186E+03  0.16876088186E+03  0.00000000000E+00 0.  1.
         24    2    1    2    0    0 -0.30368192102E+03 -0.12990423720E+02  0.39844297513E+03  0.50743125450E+03  0.79612896881E+02 0.  0.
        254    2    1    2    0    0  0.30368192102E+03  0.12990423720E+02  0.18598725908E+04  0.20884060751E+04  0.89995689920E+03 0.  0.
         23    2    4    4    0    0  0.13249350158E+03  0.40497918669E+03  0.13403082428E+04  0.14093129404E+04  0.90410776804E+02 0.  0.
         23    2    4    4    0    0  0.17118841944E+03 -0.39198876297E+03  0.51956434797E+03  0.67909313475E+03  0.90882939715E+02 0.  0.
          4    1    3    3  502    0 -0.19329399996E+03  0.30270577893E+02  0.24759884692E+03  0.31556943341E+03  0.00000000000E+00 0. -1.
         -3    1    3    3    0  502 -0.11038792106E+03 -0.43261001612E+02  0.15084412821E+03  0.19186182109E+03  0.00000000000E+00 0.  1.
         11    1    5    5    0    0  0.91906169007E+02  0.16828026549E+03  0.50531602582E+03  0.54047134763E+03  0.00000000000E+00 0.  1.
        -11    1    5    5    0    0  0.40587332572E+02  0.23669892120E+03  0.83499221698E+03  0.86884159274E+03  0.00000000000E+00 0. -1.
          4    1    6    6  503    0 -0.11202336894E+02 -0.22671955060E+02  0.33540139624E+02  0.42005367087E+02  0.00000000000E+00 0.  1.
         -4    1    6    6    0  503  0.18239075633E+03 -0.36931680791E+03  0.48602420835E+03  0.63708776766E+03  0.00000000000E+00 0. -1.
<mgrwt>
<rscale>  0 0.12799931E+04</rscale>
<asrwt>0</asrwt>
<pdfrwt beam="1">  1        2 0.37339635E+00 0.12799931E+04</pdfrwt>
<pdfrwt beam="2">  1       -1 0.25963214E-01 0.12799931E+04</pdfrwt>
<totfact> 0.56518556E+01</totfact>
</mgrwt>
</event>
<event>
12    6  0.1403409E-007  0.1938607E+04  0.7818608E-02  0.8635875E-01
         -1   -1    0    0    0  501 -0.00000000000E+00  0.00000000000E+00  0.12101781794E+04  0.12101781794E+04  0.00000000000E+00 0.  1.
          2   -1    0    0  501    0  0.00000000000E+00 -0.00000000000E+00 -0.77637233828E+03  0.77637233828E+03  0.00000000000E+00 0. -1.
         24    2    1    2    0    0  0.65617529439E+03  0.22372800289E+03  0.48303642438E+03  0.84904393883E+03  0.83253747929E+02 0.  0.
        254    2    1    2    0    0 -0.65617529439E+03 -0.22372800289E+03 -0.49230583247E+02  0.11375065789E+04  0.90048727385E+03 0.  0.
         23    2    4    4    0    0 -0.66830274951E+03 -0.50221099751E+03 -0.76147803224E+01  0.84080261503E+03  0.89702851404E+02 0.  0.
         23    2    4    4    0    0  0.12127455117E+02  0.27848299461E+03 -0.41615802924E+02  0.29670396382E+03  0.92744345588E+02 0.  0.
          4    1    3    3  502    0  0.42963218170E+03  0.14327068687E+03  0.26642005100E+03  0.52544261803E+03  0.00000000000E+00 0. -1.
         -3    1    3    3    0  502  0.22654311269E+03  0.80457316026E+02  0.21661637337E+03  0.32360132080E+03  0.00000000000E+00 0.  1.
         11    1    5    5    0    0 -0.36390127350E+03 -0.31934450216E+03 -0.29260237824E+02  0.48503732788E+03  0.00000000000E+00 0.  1.
        -11    1    5    5    0    0 -0.30440147600E+03 -0.18286649535E+03  0.21645457502E+02  0.35576528715E+03  0.00000000000E+00 0. -1.
          1    1    6    6  503    0  0.12649966633E+02  0.94977689271E+02 -0.58759779032E+02  0.11239882004E+03  0.00000000000E+00 0. -1.
         -1    1    6    6    0  503 -0.52251151584E+00  0.18350530534E+03  0.17143976107E+02  0.18430514378E+03  0.00000000000E+00 0.  1.
<mgrwt>
<rscale>  0 0.19386066E+04</rscale>
<asrwt>0</asrwt>
<pdfrwt beam="1">  1        2 0.11944190E+00 0.19386066E+04</pdfrwt>
<pdfrwt beam="2">  1       -1 0.18618126E+00 0.19386066E+04</pdfrwt>
<totfact> 0.71807568E+00</totfact>
</mgrwt>
</event>
<event>
12    6  0.1403409E-007  0.1541831E+04  0.7818608E-02  0.8857103E-01
          2   -1    0    0  501    0  0.00000000000E+00  0.00000000000E+00  0.13292844189E+04  0.13292844189E+04  0.00000000000E+00 0. -1.
         -1   -1    0    0    0  501 -0.00000000000E+00 -0.00000000000E+00 -0.44709073626E+03  0.44709073626E+03  0.00000000000E+00 0.  1.
         24    2    1    2    0    0 -0.49489165973E+03 -0.91819329360E+02  0.31140394681E+03  0.59728957547E+03  0.80211437909E+02 0.  0.
        254    2    1    2    0    0  0.49489165973E+03  0.91819329360E+02  0.57078973580E+03  0.11790855796E+04  0.90060720491E+03 0.  0.
         23    2    4    4    0    0  0.39368285479E+03  0.20826886184E+03  0.78021676496E+03  0.90299257685E+03  0.91078452750E+02 0.  0.
         23    2    4    4    0    0  0.10120880493E+03 -0.11644953248E+03 -0.20942702917E+03  0.27609300279E+03  0.92541611375E+02 0.  0.
          4    1    3    3  502    0 -0.23878475933E+02 -0.14552874751E+02  0.38138618749E+02  0.47291881084E+02  0.00000000000E+00 0. -1.
         -3    1    3    3    0  502 -0.47101318379E+03 -0.77266454609E+02  0.27326532806E+03  0.54999769439E+03  0.00000000000E+00 0.  1.
         11    1    5    5    0    0  0.28237606006E+03  0.13258090855E+03  0.46176048075E+03  0.55725817912E+03  0.00000000000E+00 0. -1.
        -11    1    5    5    0    0  0.11130679474E+03  0.75687953285E+02  0.31845628421E+03  0.34573439774E+03  0.00000000000E+00 0.  1.
          3    1    6    6  503    0  0.15084867019E+01 -0.19340891722E+02  0.53867566552E+01  0.20133622923E+02  0.00000000000E+00 0. -1.
         -3    1    6    6    0  503  0.99700318232E+02 -0.97108640755E+02 -0.21481378582E+03  0.25595937987E+03  0.00000000000E+00 0.  1.
<mgrwt>
<rscale>  0 0.15418311E+04</rscale>
<asrwt>0</asrwt>
<pdfrwt beam="1">  1        2 0.20450529E+00 0.15418311E+04</pdfrwt>
<pdfrwt beam="2">  1       -1 0.68783191E-01 0.15418311E+04</pdfrwt>
<totfact> 0.37326608E+01</totfact>
</mgrwt>
</event>
<event>
12    6  0.1403409E-007  0.2066392E+04  0.7818608E-02  0.8576194E-01
          2   -1    0    0  501    0  0.00000000000E+00  0.00000000000E+00  0.70976372115E+03  0.70976372115E+03  0.00000000000E+00 0. -1.
         -1   -1    0    0    0  501 -0.00000000000E+00 -0.00000000000E+00 -0.15040134326E+04  0.15040134326E+04  0.00000000000E+00 0.  1.
         24    2    1    2    0    0  0.62460514889E+03 -0.29997110040E+02  0.27009829973E+03  0.68593909898E+03  0.80795651837E+02 0.  0.
        254    2    1    2    0    0 -0.62460514889E+03  0.29997110040E+02 -0.10643480112E+04  0.15278380548E+04  0.90023386632E+03 0.  0.
         23    2    4    4    0    0  0.22327585380E+03  0.16409951239E+02 -0.27609579718E+03  0.36665306581E+03  0.89912112953E+02 0.  0.
         23    2    4    4    0    0 -0.84788100269E+03  0.13587158801E+02 -0.78825221403E+03  0.11611849890E+04  0.89006854326E+02 0.  0.
          2    1    3    3  502    0  0.31041603770E+03 -0.54949243075E+02  0.12887338608E+03  0.34056700576E+03  0.00000000000E+00 0. -1.
         -1    1    3    3    0  502  0.31418911119E+03  0.24952133035E+02  0.14122491365E+03  0.34537209321E+03  0.00000000000E+00 0.  1.
         11    1    5    5    0    0  0.14579365221E+03  0.16348053934E+02 -0.23973781318E+03  0.28106452455E+03  0.00000000000E+00 0.  1.
        -11    1    5    5    0    0  0.77482201589E+02  0.61897305249E-01 -0.36357984007E+02  0.85588541262E+02  0.00000000000E+00 0. -1.
          1    1    6    6  503    0 -0.15714858614E+03  0.58735034399E+01 -0.19590286625E+03  0.25121327428E+03  0.00000000000E+00 0. -1.
         -1    1    6    6    0  503 -0.69073241655E+03  0.77136553613E+01 -0.59234934777E+03  0.90997171471E+03  0.00000000000E+00 0.  1.
<mgrwt>
<rscale>  0 0.20663922E+04</rscale>
<asrwt>0</asrwt>
<pdfrwt beam="1">  1        2 0.10919442E+00 0.20663922E+04</pdfrwt>
<pdfrwt beam="2">  1       -1 0.23138668E+00 0.20663922E+04</pdfrwt>
<totfact> 0.39237821E+00</totfact>
</mgrwt>
</event>
<event>
12    6  0.1403409E-007  0.2323003E+04  0.7818608E-02  0.8468906E-01
          2   -1    0    0  501    0  0.00000000000E+00  0.00000000000E+00  0.21003191984E+04  0.21003191984E+04  0.00000000000E+00 0. -1.
         -1   -1    0    0    0  501 -0.00000000000E+00 -0.00000000000E+00 -0.64232389595E+03  0.64232389595E+03  0.00000000000E+00 0.  1.
         24    2    1    2    0    0 -0.17006787292E+03 -0.60132000588E+03 -0.27962479647E+03  0.68925081122E+03  0.79798640929E+02 0.  0.
        254    2    1    2    0    0  0.17006787292E+03  0.60132000588E+03  0.17376200989E+04  0.20533922831E+04  0.89810212637E+03 0.  0.
         23    2    4    4    0    0  0.15009576352E+03 -0.20715901544E+03  0.32942720065E+03  0.42709595718E+03  0.91897117510E+02 0.  0.
         23    2    4    4    0    0  0.19972109404E+02  0.80847902132E+03  0.14081928983E+04  0.16262963259E+04  0.88290928226E+02 0.  0.
          2    1    3    3  502    0 -0.33894972327E+02 -0.26468828889E+03 -0.11904698936E+03  0.29220017985E+03  0.00000000000E+00 0. -1.
         -1    1    3    3    0  502 -0.13617290059E+03 -0.33663171698E+03 -0.16057780711E+03  0.39705063137E+03  0.00000000000E+00 0.  1.
         11    1    5    5    0    0  0.56593079284E+02 -0.56672947747E+02  0.17345634364E+03  0.19105418807E+03  0.00000000000E+00 0. -1.
        -11    1    5    5    0    0  0.93502684232E+02 -0.15048606769E+03  0.15597085701E+03  0.23604176911E+03  0.00000000000E+00 0.  1.
          1    1    6    6  503    0 -0.25555242929E+02  0.50263235320E+03  0.83206722168E+03  0.97243416966E+03  0.00000000000E+00 0. -1.
         -1    1    6    6    0  503  0.45527352334E+02  0.30584666812E+03  0.57612567658E+03  0.65386215628E+03  0.00000000000E+00 0.  1.
<mgrwt>
<rscale>  0 0.23230025E+04</rscale>
<asrwt>0</asrwt>
<pdfrwt beam="1">  1        2 0.32312603E+00 0.23230025E+04</pdfrwt>
<pdfrwt beam="2">  1       -1 0.98819062E-01 0.23230025E+04</pdfrwt>
<totfact> 0.59227301E+00</totfact>
</mgrwt>
</event>
<event>
12    6  0.1403409E-007  0.1904975E+04  0.7818608E-02  0.8652384E-01
         -1   -1    0    0    0  501 -0.00000000000E+00  0.00000000000E+00  0.93006694389E+03  0.93006694389E+03  0.00000000000E+00 0.  1.
          2   -1    0    0  501    0  0.00000000000E+00 -0.00000000000E+00 -0.97544833836E+03  0.97544833836E+03  0.00000000000E+00 0. -1.
         24    2    1    2    0    0  0.69752933364E+03  0.10610826183E+03  0.19697781188E+03  0.73679250819E+03  0.79099982544E+02 0.  0.
        254    2    1    2    0    0 -0.69752933364E+03 -0.10610826183E+03 -0.24235920634E+03  0.11687227741E+04  0.89964926675E+03 0.  0.
         23    2    4    4    0    0 -0.49757310875E+03 -0.41679696618E+03 -0.38719910483E+03  0.76131820981E+03  0.91561783721E+02 0.  0.
         23    2    4    4    0    0 -0.19995622489E+03  0.31068870435E+03  0.14483989849E+03  0.40740456424E+03  0.92140761241E+02 0.  0.
          2    1    3    3  502    0  0.88998799302E+02  0.40189004783E+02  0.20668429647E+02  0.99815461562E+02  0.00000000000E+00 0. -1.
         -1    1    3    3    0  502  0.60853053434E+03  0.65919257047E+02  0.17630938223E+03  0.63697704663E+03  0.00000000000E+00 0.  1.
         11    1    5    5    0    0 -0.46170298781E+03 -0.37896123672E+03 -0.38178525927E+03  0.70890144032E+03  0.00000000000E+00 0.  1.
        -11    1    5    5    0    0 -0.35870120944E+02 -0.37835729462E+02 -0.54138455580E+01  0.52416769493E+02  0.00000000000E+00 0. -1.
          2    1    6    6  503    0 -0.15484993226E+03  0.24294010974E+03  0.69191200388E+02  0.29628672035E+03  0.00000000000E+00 0. -1.
         -2    1    6    6    0  503 -0.45106292628E+02  0.67748594614E+02  0.75648698101E+02  0.11111784389E+03  0.00000000000E+00 0.  1.
<mgrwt>
<rscale>  0 0.19049748E+04</rscale>
<asrwt>0</asrwt>
<pdfrwt beam="1">  1        2 0.15006897E+00 0.19049748E+04</pdfrwt>
<pdfrwt beam="2">  1       -1 0.14308722E+00 0.19049748E+04</pdfrwt>
<totfact> 0.11045191E+01</totfact>
</mgrwt>
</event>
<event>
12    6  0.1403409E-007  0.3114085E+04  0.7818608E-02  0.8211883E-01
         -1   -1    0    0    0  501 -0.00000000000E+00  0.00000000000E+00  0.78356974369E+03  0.78356974369E+03  0.00000000000E+00 0.  1.
          2   -1    0    0  501    0  0.00000000000E+00 -0.00000000000E+00 -0.30940218490E+04  0.30940218490E+04  0.00000000000E+00 0. -1.
         24    2    1    2    0    0 -0.11400288432E+04 -0.36081680973E+03 -0.92496733373E+02  0.12018980588E+04  0.78414057636E+02 0.  0.
        254    2    1    2    0    0  0.11400288432E+04  0.36081680973E+03 -0.22179553719E+04  0.26756935339E+04  0.90008628589E+03 0.  0.
         23    2    4    4    0    0  0.66329058777E+03 -0.45299306942E+02 -0.17907954660E+04  0.19124493037E+04  0.92236149591E+02 0.  0.
         23    2    4    4    0    0  0.47673825545E+03  0.40611611667E+03 -0.42715990596E+03  0.76324423021E+03  0.88693321410E+02 0.  0.
          2    1    3    3  502    0 -0.68322776133E+03 -0.22214689285E+03 -0.17428484611E+02  0.71864676158E+03  0.00000000000E+00 0. -1.
         -1    1    3    3    0  502 -0.45680108189E+03 -0.13866991688E+03 -0.75068248762E+02  0.48325129718E+03  0.00000000000E+00 0.  1.
         11    1    5    5    0    0  0.20355767025E+02 -0.89692977846E+01 -0.28295581948E+02  0.35992297949E+02  0.00000000000E+00 0. -1.
        -11    1    5    5    0    0  0.64293482074E+03 -0.36330009157E+02 -0.17624998840E+04  0.18764570058E+04  0.00000000000E+00 0.  1.
          3    1    6    6  503    0  0.14890541842E+02  0.16608698352E+02 -0.39612591883E+02  0.45461352081E+02  0.00000000000E+00 0. -1.
         -3    1    6    6    0  503  0.46184771361E+03  0.38950741832E+03 -0.38754731408E+03  0.71778287813E+03  0.00000000000E+00 0.  1.
<mgrwt>
<rscale>  0 0.31140854E+04</rscale>
<asrwt>0</asrwt>
<pdfrwt beam="1">  1        2 0.47600336E+00 0.31140854E+04</pdfrwt>
<pdfrwt beam="2">  1       -1 0.12054919E+00 0.31140854E+04</pdfrwt>
<totfact> 0.89460520E-01</totfact>
</mgrwt>
</event>
<event>
12    6  0.1403409E-007  0.2052807E+04  0.7818608E-02  0.8582322E-01
          2   -1    0    0  501    0  0.00000000000E+00  0.00000000000E+00  0.71434562448E+03  0.71434562448E+03  0.00000000000E+00 0. -1.
         -1   -1    0    0    0  501 -0.00000000000E+00 -0.00000000000E+00 -0.14747826790E+04  0.14747826790E+04  0.00000000000E+00 0.  1.
         24    2    1    2    0    0  0.78400370048E+02  0.73576053386E+03 -0.69798574614E+03  0.10203106840E+04  0.79747155359E+02 0.  0.
        254    2    1    2    0    0 -0.78400370048E+02 -0.73576053386E+03 -0.62451308368E+02  0.11688176195E+04  0.90263186323E+03 0.  0.
         23    2    4    4    0    0 -0.15793979995E+03  0.45038722556E+01  0.28703130537E+03  0.34050074420E+03  0.92674275077E+02 0.  0.
         23    2    4    4    0    0  0.79539429901E+02 -0.74026440612E+03 -0.34948261374E+03  0.82831687530E+03  0.98248851020E+02 0.  0.
          2    1    3    3  502    0  0.60589138095E+02  0.22237947460E+03 -0.22077933189E+03  0.31916639511E+03  0.00000000000E+00 0. -1.
         -1    1    3    3    0  502  0.17811231953E+02  0.51338105926E+03 -0.47720641426E+03  0.70114428886E+03  0.00000000000E+00 0.  1.
         11    1    5    5    0    0 -0.14027066622E+03 -0.29214737047E+02  0.20548222003E+03  0.25050409859E+03  0.00000000000E+00 0.  1.
        -11    1    5    5    0    0 -0.17669133731E+02  0.33718609302E+02  0.81549085345E+02  0.89996645608E+02  0.00000000000E+00 0. -1.
          1    1    6    6  503    0  0.37957129420E+01 -0.31313004880E+03 -0.10453486453E+03  0.33013992912E+03  0.00000000000E+00 0. -1.
         -1    1    6    6    0  503  0.75743716958E+02 -0.42713435732E+03 -0.24494774921E+03  0.49817694618E+03  0.00000000000E+00 0.  1.
<mgrwt>
<rscale>  0 0.20528074E+04</rscale>
<asrwt>0</asrwt>
<pdfrwt beam="1">  1        2 0.10989933E+00 0.20528074E+04</pdfrwt>
<pdfrwt beam="2">  1       -1 0.22688964E+00 0.20528074E+04</pdfrwt>
<totfact> 0.41732436E+00</totfact>
</mgrwt>
</event>
<event>
12    6  0.1403409E-007  0.2262564E+04  0.7818608E-02  0.8492830E-01
          2   -1    0    0  501    0  0.00000000000E+00  0.00000000000E+00  0.18932857840E+04  0.18932857840E+04  0.00000000000E+00 0. -1.
         -1   -1    0    0    0  501 -0.00000000000E+00 -0.00000000000E+00 -0.67596701048E+03  0.67596701048E+03  0.00000000000E+00 0.  1.
         24    2    1    2    0    0 -0.84906905579E+03 -0.17686299660E+03  0.95341312535E+03  0.12915913879E+04  0.83743325449E+02 0.  0.
        254    2    1    2    0    0  0.84906905579E+03  0.17686299660E+03  0.26390564822E+03  0.12776614067E+04  0.90031866462E+03 0.  0.
         23    2    4    4    0    0 -0.37759245140E+02  0.31506935926E+03  0.16509222233E+03  0.36935732956E+03  0.92059400878E+02 0.  0.
         23    2    4    4    0    0  0.88682830093E+03 -0.13820636266E+03  0.98813425895E+02  0.90830407710E+03  0.98421386611E+02 0.  0.
          4    1    3    3  502    0 -0.70392880484E+03 -0.15333020603E+03  0.83473017212E+03  0.11026333818E+04  0.00000000000E+00 0. -1.
         -3    1    3    3    0  502 -0.14514025094E+03 -0.23532790572E+02  0.11868295322E+03  0.18895800608E+03  0.00000000000E+00 0.  1.
         11    1    5    5    0    0 -0.37007886499E+02  0.29793151624E+03  0.12398689932E+03  0.32481613758E+03  0.00000000000E+00 0. -1.
        -11    1    5    5    0    0 -0.75135864123E+00  0.17137843020E+02  0.41105323009E+02  0.44541191979E+02  0.00000000000E+00 0.  1.
          2    1    6    6  503    0  0.55895305119E+03 -0.11365523326E+03  0.10230078860E+03  0.57949243035E+03  0.00000000000E+00 0. -1.
         -2    1    6    6    0  503  0.32787524973E+03 -0.24551129405E+02 -0.34873627035E+01  0.32881164675E+03  0.00000000000E+00 0.  1.
<mgrwt>
<rscale>  0 0.22625638E+04</rscale>
<asrwt>0</asrwt>
<pdfrwt beam="1">  1        2 0.29127473E+00 0.22625638E+04</pdfrwt>
<pdfrwt beam="2">  1       -1 0.10399493E+00 0.22625638E+04</pdfrwt>
<totfact> 0.69023981E+00</totfact>
</mgrwt>
</event>
<event>
12    6  0.1403409E-007  0.2298720E+04  0.7818608E-02  0.8478426E-01
         -1   -1    0    0    0  501 -0.00000000000E+00  0.00000000000E+00  0.11667809850E+04  0.11667809850E+04  0.00000000000E+00 0.  1.
          2   -1    0    0  501    0  0.00000000000E+00 -0.00000000000E+00 -0.11321991754E+04  0.11321991754E+04  0.00000000000E+00 0. -1.
         24    2    1    2    0    0 -0.51424851283E+03 -0.45086169713E+03  0.70444845715E+03  0.98516352417E+03  0.81066255001E+02 0.  0.
        254    2    1    2    0    0  0.51424851283E+03  0.45086169713E+03 -0.66986664755E+03  0.13138166363E+04  0.89981388372E+03 0.  0.
         23    2    4    4    0    0 -0.60547133745E+01  0.20450933270E+03  0.17723260530E+03  0.28536996130E+03  0.90354256763E+02 0.  0.
         23    2    4    4    0    0  0.52030322621E+03  0.24635236443E+03 -0.84709925285E+03  0.10284466750E+04  0.93383533921E+02 0.  0.
          2    1    3    3  502    0 -0.10335715223E+03 -0.50870485703E+02  0.11287330457E+03  0.16127892025E+03  0.00000000000E+00 0. -1.
         -1    1    3    3    0  502 -0.41089136060E+03 -0.39999121143E+03  0.59157515258E+03  0.82388460392E+03  0.00000000000E+00 0.  1.
         11    1    5    5    0    0 -0.33901074386E+02  0.84354004872E+02  0.11682905033E+03  0.14803346913E+03  0.00000000000E+00 0.  1.
        -11    1    5    5    0    0  0.27846361011E+02  0.12015532783E+03  0.60403554964E+02  0.13733649217E+03  0.00000000000E+00 0. -1.
          1    1    6    6  503    0  0.34196231923E+03  0.18041577130E+03 -0.49300804080E+03  0.62653412245E+03  0.00000000000E+00 0.  1.
         -1    1    6    6    0  503  0.17834090698E+03  0.65936593127E+02 -0.35409121205E+03  0.40191255251E+03  0.00000000000E+00 0. -1.
<mgrwt>
<rscale>  0 0.22987201E+04</rscale>
<asrwt>0</asrwt>
<pdfrwt beam="1">  1        2 0.17418449E+00 0.22987201E+04</pdfrwt>
<pdfrwt beam="2">  1       -1 0.17950477E+00 0.22987201E+04</pdfrwt>
<totfact> 0.45149164E+00</totfact>
</mgrwt>
</event>
<event>
12    6  0.1403409E-007  0.3407869E+04  0.7818608E-02  0.8135978E-01
         -1   -1    0    0    0  501 -0.00000000000E+00  0.00000000000E+00  0.16754946523E+04  0.16754946523E+04  0.00000000000E+00 0.  1.
          2   -1    0    0  501    0  0.00000000000E+00 -0.00000000000E+00 -0.17328567625E+04  0.17328567625E+04  0.00000000000E+00 0. -1.
         24    2    1    2    0    0 -0.23986489184E+03  0.14690649324E+04  0.51262834637E+03  0.15763206527E+04  0.79448326360E+02 0.  0.
        254    2    1    2    0    0  0.23986489184E+03 -0.14690649324E+04 -0.56999045655E+03  0.18320307621E+04  0.90319469155E+03 0.  0.
         23    2    4    4    0    0 -0.33321757225E+03 -0.47427310346E+03 -0.24095431359E+03  0.63425750087E+03  0.90855209237E+02 0.  0.
         23    2    4    4    0    0  0.57308246409E+03 -0.99479182896E+03 -0.32903614296E+03  0.11977732613E+04  0.91442377545E+02 0.  0.
          2    1    3    3  502    0 -0.13207215116E+03  0.56875373529E+03  0.19811303410E+03  0.61658141295E+03  0.00000000000E+00 0. -1.
         -1    1    3    3    0  502 -0.10779274068E+03  0.90031119714E+03  0.31451531228E+03  0.95973923974E+03  0.00000000000E+00 0.  1.
         11    1    5    5    0    0 -0.19684164447E+03 -0.27155529892E+03 -0.90737714111E+02  0.34745107013E+03  0.00000000000E+00 0.  1.
        -11    1    5    5    0    0 -0.13637592778E+03 -0.20271780454E+03 -0.15021659948E+03  0.28680643074E+03  0.00000000000E+00 0. -1.
          3    1    6    6  503    0  0.47813271428E+03 -0.81125153256E+03 -0.23391953801E+03  0.97028773661E+03  0.00000000000E+00 0. -1.
         -3    1    6    6    0  503  0.94949749808E+02 -0.18354029640E+03 -0.95116604947E+02  0.22748552466E+03  0.00000000000E+00 0.  1.
<mgrwt>
<rscale>  0 0.34078687E+04</rscale>
<asrwt>0</asrwt>
<pdfrwt beam="1">  1        2 0.26659335E+00 0.34078687E+04</pdfrwt>
<pdfrwt beam="2">  1       -1 0.25776841E+00 0.34078687E+04</pdfrwt>
<totfact> 0.54962619E-01</totfact>
</mgrwt>
</event>
<event>
12    6  0.1403409E-007  0.1358648E+04  0.7818608E-02  0.8984308E-01
         -1   -1    0    0    0  501 -0.00000000000E+00  0.00000000000E+00  0.48390835621E+03  0.48390835621E+03  0.00000000000E+00 0.  1.
          2   -1    0    0  501    0  0.00000000000E+00 -0.00000000000E+00 -0.95365335948E+03  0.95365335948E+03  0.00000000000E+00 0. -1.
         24    2    1    2    0    0 -0.14864548177E+03 -0.34015550458E+03 -0.16512170043E+03  0.41617572668E+03  0.90198741564E+02 0.  0.
        254    2    1    2    0    0  0.14864548177E+03  0.34015550458E+03 -0.30462330285E+03  0.10213859890E+04  0.90146144418E+03 0.  0.
         23    2    4    4    0    0  0.35674973504E+03  0.29143056668E+03 -0.52272140474E+03  0.70277250561E+03  0.91920503779E+02 0.  0.
         23    2    4    4    0    0 -0.20810425327E+03  0.48724937903E+02  0.21809810190E+03  0.31861348339E+03  0.90919029618E+02 0.  0.
          4    1    3    3  502    0 -0.48124876220E+02 -0.91473213647E+02 -0.91459005005E+02  0.13801486196E+03  0.00000000000E+00 0. -1.
         -3    1    3    3    0  502 -0.10052060555E+03 -0.24868229093E+03 -0.73662695422E+02  0.27816086472E+03  0.00000000000E+00 0.  1.
         11    1    5    5    0    0  0.50831491991E+02  0.74898439720E+02 -0.66389515549E+02  0.11225499822E+03  0.00000000000E+00 0.  1.
        -11    1    5    5    0    0  0.30591824305E+03  0.21653212696E+03 -0.45633188920E+03  0.59051750739E+03  0.00000000000E+00 0. -1.
          2    1    6    6  503    0 -0.21735666453E+03  0.46710399519E+02  0.21286619262E+03  0.30779505681E+03  0.00000000000E+00 0. -1.
         -2    1    6    6    0  503  0.92524112583E+01  0.20145383841E+01  0.52319092751E+01  0.10818426580E+02  0.00000000000E+00 0.  1.
<mgrwt>
<rscale>  0 0.13586476E+04</rscale>
<asrwt>0</asrwt>
<pdfrwt beam="1">  1        2 0.14671590E+00 0.13586476E+04</pdfrwt>
<pdfrwt beam="2">  1       -1 0.74447440E-01 0.13586476E+04</pdfrwt>
<totfact> 0.54622131E+01</totfact>
</mgrwt>
</event>
<event>
12    6  0.1403409E-007  0.3688889E+04  0.7818608E-02  0.8070429E-01
          2   -1    0    0  501    0  0.00000000000E+00  0.00000000000E+00  0.32416852831E+04  0.32416852831E+04  0.00000000000E+00 0. -1.
         -1   -1    0    0    0  501 -0.00000000000E+00 -0.00000000000E+00 -0.10494464140E+04  0.10494464140E+04  0.00000000000E+00 0.  1.
         24    2    1    2    0    0  0.96472089372E+03 -0.44405587115E+02 -0.64356668195E+03  0.11632684318E+04  0.79731495130E+02 0.  0.
        254    2    1    2    0    0 -0.96472089372E+03  0.44405587115E+02  0.28358055510E+04  0.31278632653E+04  0.89948720087E+03 0.  0.
         23    2    4    4    0    0 -0.73953745230E+02  0.29916773137E+03  0.36089162288E+03  0.48369021984E+03  0.93503889620E+02 0.  0.
         23    2    4    4    0    0 -0.89076714849E+03 -0.25476214425E+03  0.24749139281E+04  0.26441730455E+04  0.89901501147E+02 0.  0.
          4    1    3    3  502    0  0.25937008713E+03 -0.21767964995E+02 -0.13350153494E+03  0.29252238586E+03  0.00000000000E+00 0. -1.
         -3    1    3    3    0  502  0.70535080659E+03 -0.22637622120E+02 -0.51006514701E+03  0.87074604592E+03  0.00000000000E+00 0.  1.
         11    1    5    5    0    0 -0.13451218470E+01  0.19378435997E+03  0.20739410679E+03  0.28384239122E+03  0.00000000000E+00 0.  1.
        -11    1    5    5    0    0 -0.72608623383E+02  0.10538337140E+03  0.15349751610E+03  0.19984782862E+03  0.00000000000E+00 0. -1.
          3    1    6    6  503    0 -0.39107682793E+03 -0.15828231717E+03  0.11306285008E+04  0.12067788464E+04  0.00000000000E+00 0. -1.
         -3    1    6    6    0  503 -0.49969032057E+03 -0.96479827082E+02  0.13442854273E+04  0.14373941991E+04  0.00000000000E+00 0.  1.
<mgrwt>
<rscale>  0 0.36888887E+04</rscale>
<asrwt>0</asrwt>
<pdfrwt beam="1">  1        2 0.49872081E+00 0.36888887E+04</pdfrwt>
<pdfrwt beam="2">  1       -1 0.16145330E+00 0.36888887E+04</pdfrwt>
<totfact> 0.31833006E-01</totfact>
</mgrwt>
</event>
<event>
12    6  0.1403409E-007  0.2646812E+04  0.7818608E-02  0.8352472E-01
          2   -1    0    0  501    0  0.00000000000E+00  0.00000000000E+00  0.18501272424E+04  0.18501272424E+04  0.00000000000E+00 0. -1.
         -1   -1    0    0    0  501 -0.00000000000E+00 -0.00000000000E+00 -0.94663978458E+03  0.94663978458E+03  0.00000000000E+00 0.  1.
         24    2    1    2    0    0  0.11309895411E+04  0.28361492776E+03  0.50805250180E+03  0.12743772350E+04  0.79656908809E+02 0.  0.
        254    2    1    2    0    0 -0.11309895411E+04 -0.28361492776E+03  0.39543495602E+03  0.15223897920E+04  0.89539215152E+03 0.  0.
         23    2    4    4    0    0 -0.81593219669E+03  0.14612377067E+03 -0.30824519563E+02  0.83425943508E+03  0.89113119437E+02 0.  0.
         23    2    4    4    0    0 -0.31505734440E+03 -0.42973869843E+03  0.42625947558E+03  0.68813035692E+03  0.88824368236E+02 0.  0.
          2    1    3    3  502    0  0.50123601293E+03  0.13719109754E+03  0.18508342324E+03  0.55164736151E+03  0.00000000000E+00 0. -1.
         -1    1    3    3    0  502  0.62975352817E+03  0.14642383022E+03  0.32296907856E+03  0.72272987347E+03  0.00000000000E+00 0.  1.
         11    1    5    5    0    0 -0.39384724649E+03  0.11384193312E+03 -0.28113857041E+02  0.41093311896E+03  0.00000000000E+00 0.  1.
        -11    1    5    5    0    0 -0.42208495020E+03  0.32281837554E+02 -0.27106625220E+01  0.42332631612E+03  0.00000000000E+00 0. -1.
          3    1    6    6  503    0 -0.37739690400E+02 -0.11345150272E+03  0.94334533180E+02  0.15229751098E+03  0.00000000000E+00 0. -1.
         -3    1    6    6    0  503 -0.27731765400E+03 -0.31628719571E+03  0.33192494240E+03  0.53583284593E+03  0.00000000000E+00 0.  1.
<mgrwt>
<rscale>  0 0.26468125E+04</rscale>
<asrwt>0</asrwt>
<pdfrwt beam="1">  1        2 0.28463496E+00 0.26468125E+04</pdfrwt>
<pdfrwt beam="2">  1       -1 0.14563689E+00 0.26468125E+04</pdfrwt>
<totfact> 0.30649798E+00</totfact>
</mgrwt>
</event>
<event>
12    6  0.1403409E-007  0.2649370E+04  0.7818608E-02  0.8351622E-01
         -1   -1    0    0    0  501 -0.00000000000E+00  0.00000000000E+00  0.22022418429E+04  0.22022418429E+04  0.00000000000E+00 0.  1.
          2   -1    0    0  501    0  0.00000000000E+00 -0.00000000000E+00 -0.79681987299E+03  0.79681987299E+03  0.00000000000E+00 0. -1.
         24    2    1    2    0    0 -0.40165280275E+03  0.97517846113E+03  0.48642051439E+02  0.10587521752E+04  0.79322848615E+02 0.  0.
        254    2    1    2    0    0  0.40165280275E+03 -0.97517846113E+03  0.13567799185E+04  0.19403095407E+04  0.90091695596E+03 0.  0.
         23    2    4    4    0    0  0.27199989945E+03  0.85153338931E+02  0.18593400073E+03  0.35273815258E+03  0.92831649897E+02 0.  0.
         23    2    4    4    0    0  0.12965290330E+03 -0.10603318001E+04  0.11708459177E+04  0.15875713881E+04  0.91593382677E+02 0.  0.
          4    1    3    3  502    0 -0.20511942218E+03  0.45883914677E+03 -0.13562935930E+02  0.50278354507E+03  0.00000000000E+00 0. -1.
         -3    1    3    3    0  502 -0.19653338057E+03  0.51633931436E+03  0.62204987369E+02  0.55596863012E+03  0.00000000000E+00 0.  1.
         11    1    5    5    0    0  0.15224333506E+03  0.91060721616E+00  0.79746279263E+02  0.17186719097E+03  0.00000000000E+00 0. -1.
        -11    1    5    5    0    0  0.11975656439E+03  0.84242731715E+02  0.10618772147E+03  0.18087096160E+03  0.00000000000E+00 0.  1.
          3    1    6    6  503    0  0.10701449310E+03 -0.10186642823E+04  0.11281481281E+04  0.15237608805E+04  0.00000000000E+00 0. -1.
         -3    1    6    6    0  503  0.22638410199E+02 -0.41667517719E+02  0.42697789588E+02  0.63810507638E+02  0.00000000000E+00 0.  1.
<mgrwt>
<rscale>  0 0.26493698E+04</rscale>
<asrwt>0</asrwt>
<pdfrwt beam="1">  1        2 0.12258767E+00 0.26493698E+04</pdfrwt>
<pdfrwt beam="2">  1       -1 0.33880643E+00 0.26493698E+04</pdfrwt>
<totfact> 0.64101880E-01</totfact>
</mgrwt>
</event>
<event>
12    6  0.1403409E-007  0.2071702E+04  0.7818608E-02  0.8573812E-01
          2   -1    0    0  501    0  0.00000000000E+00  0.00000000000E+00  0.20084649823E+04  0.20084649823E+04  0.00000000000E+00 0. -1.
         -1   -1    0    0    0  501 -0.00000000000E+00 -0.00000000000E+00 -0.53423275389E+03  0.53423275389E+03  0.00000000000E+00 0.  1.
         24    2    1    2    0    0 -0.11373666013E+03  0.82247835494E+03  0.73610365004E+03  0.11124210439E+04  0.78900716289E+02 0.  0.
        254    2    1    2    0    0  0.11373666013E+03 -0.82247835494E+03  0.73812857838E+03  0.14302766923E+04  0.90080572058E+03 0.  0.
         23    2    4    4    0    0  0.12323767926E+02  0.81117297242E+02 -0.12283342694E+03  0.17487251262E+03  0.93597295521E+02 0.  0.
         23    2    4    4    0    0  0.10141289220E+03 -0.90359565219E+03  0.86096200533E+03  0.12554041797E+04  0.89523195252E+02 0.  0.
          4    1    3    3  502    0 -0.80384557982E+02  0.40608548611E+03  0.32463738044E+03  0.52607654193E+03  0.00000000000E+00 0. -1.
         -3    1    3    3    0  502 -0.33352102147E+02  0.41639286883E+03  0.41146626960E+03  0.58634450194E+03  0.00000000000E+00 0.  1.
         11    1    5    5    0    0 -0.35734146479E+01 -0.18182617691E+02 -0.35730398901E+01  0.18871764422E+02  0.00000000000E+00 0.  1.
        -11    1    5    5    0    0  0.15897182574E+02  0.99299914932E+02 -0.11926038705E+03  0.15600074820E+03  0.00000000000E+00 0. -1.
          1    1    6    6  503    0 -0.16796217908E+02 -0.13241610690E+03  0.12655053837E+03  0.18393253401E+03  0.00000000000E+00 0. -1.
         -1    1    6    6    0  503  0.11820911011E+03 -0.77117954528E+03  0.73441146696E+03  0.10714716457E+04  0.00000000000E+00 0.  1.
<mgrwt>
<rscale>  0 0.20717025E+04</rscale>
<asrwt>0</asrwt>
<pdfrwt beam="1">  1        2 0.30899461E+00 0.20717025E+04</pdfrwt>
<pdfrwt beam="2">  1       -1 0.82189655E-01 0.20717025E+04</pdfrwt>
<totfact> 0.10231317E+01</totfact>
</mgrwt>
</event>
<event>
12    6  0.1403409E-007  0.1440978E+04  0.7818608E-02  0.8924679E-01
          2   -1    0    0  501    0  0.00000000000E+00  0.00000000000E+00  0.12899109021E+04  0.12899109021E+04  0.00000000000E+00 0. -1.
         -1   -1    0    0    0  501 -0.00000000000E+00 -0.00000000000E+00 -0.40243436897E+03  0.40243436897E+03  0.00000000000E+00 0.  1.
         24    2    1    2    0    0  0.33768127459E+03  0.27390095961E+03  0.27775467117E+03  0.52153403368E+03  0.76155840544E+02 0.  0.
        254    2    1    2    0    0 -0.33768127459E+03 -0.27390095961E+03  0.60972186200E+03  0.11708112374E+04  0.89999323654E+03 0.  0.
         23    2    4    4    0    0 -0.19286392782E+03  0.30885521221E+03  0.33928844118E+03  0.50664857748E+03  0.94805579898E+02 0.  0.
         23    2    4    4    0    0 -0.14481734677E+03 -0.58275617182E+03  0.27043342083E+03  0.66416265996E+03  0.86028972249E+02 0.  0.
          4    1    3    3  502    0  0.86977421310E+02  0.11654138069E+03  0.91004688775E+02  0.17154829819E+03  0.00000000000E+00 0. -1.
         -3    1    3    3    0  502  0.25070385328E+03  0.15735957891E+03  0.18674998239E+03  0.34998573550E+03  0.00000000000E+00 0.  1.
         11    1    5    5    0    0 -0.10645764211E+03  0.24130439385E+03  0.26694532065E+03  0.37526103484E+03  0.00000000000E+00 0. -1.
        -11    1    5    5    0    0 -0.86406285714E+02  0.67550818359E+02  0.72343120525E+02  0.13138754263E+03  0.00000000000E+00 0.  1.
          1    1    6    6  503    0 -0.11757241694E+03 -0.36430850753E+03  0.13616304173E+03  0.40630571718E+03  0.00000000000E+00 0. -1.
         -1    1    6    6    0  503 -0.27244929826E+02 -0.21844766429E+03  0.13427037909E+03  0.25785694277E+03  0.00000000000E+00 0.  1.
<mgrwt>
<rscale>  0 0.14409781E+04</rscale>
<asrwt>0</asrwt>
<pdfrwt beam="1">  1        2 0.19844783E+00 0.14409781E+04</pdfrwt>
<pdfrwt beam="2">  1       -1 0.61912981E-01 0.14409781E+04</pdfrwt>
<totfact> 0.49050701E+01</totfact>
</mgrwt>
</event>
<event>
12    6  0.1403409E-007  0.3453436E+04  0.7818608E-02  0.8124914E-01
         -3   -1    0    0    0  501 -0.00000000000E+00  0.00000000000E+00  0.30838774262E+04  0.30838774262E+04  0.00000000000E+00 0.  1.
          4   -1    0    0  501    0  0.00000000000E+00 -0.00000000000E+00 -0.96682024910E+03  0.96682024910E+03  0.00000000000E+00 0. -1.
         24    2    1    2    0    0 -0.37350416232E+03  0.15587107351E+04  0.11428019741E+04  0.19701083917E+04  0.79032958336E+02 0.  0.
        254    2    1    2    0    0  0.37350416232E+03 -0.15587107351E+04  0.97425520307E+03  0.20805892836E+04  0.90032996807E+03 0.  0.
         23    2    4    4    0    0  0.56721824189E+03 -0.82545202436E+03  0.82823069860E+03  0.13028807073E+04  0.91784905997E+02 0.  0.
         23    2    4    4    0    0 -0.19371407957E+03 -0.73325871069E+03  0.14602450448E+03  0.77770857626E+03  0.91181095901E+02 0.  0.
          2    1    3    3  502    0 -0.22786327869E+03  0.80652983384E+03  0.57166398690E+03  0.10145007445E+04  0.00000000000E+00 0. -1.
         -1    1    3    3    0  502 -0.14564088363E+03  0.75218090122E+03  0.57113798716E+03  0.95560764727E+03  0.00000000000E+00 0.  1.
         11    1    5    5    0    0  0.26215659786E+03 -0.32761100107E+03  0.38994075052E+03  0.57280785499E+03  0.00000000000E+00 0. -1.
        -11    1    5    5    0    0  0.30506164404E+03 -0.49784102330E+03  0.43828994807E+03  0.73007285234E+03  0.00000000000E+00 0.  1.
          1    1    6    6  503    0 -0.58031381165E+02 -0.39563459372E+03  0.83909382135E+02  0.40857699073E+03  0.00000000000E+00 0. -1.
         -1    1    6    6    0  503 -0.13568269841E+03 -0.33762411697E+03  0.62115122343E+02  0.36913158552E+03  0.00000000000E+00 0.  1.
<mgrwt>
<rscale>  0 0.34534361E+04</rscale>
<asrwt>0</asrwt>
<pdfrwt beam="1">  1        4 0.14874158E+00 0.34534361E+04</pdfrwt>
<pdfrwt beam="2">  1       -3 0.47444268E+00 0.34534361E+04</pdfrwt>
<totfact> 0.23696270E-03</totfact>
</mgrwt>
</event>
<event>
12    6  0.1403409E-007  0.1125008E+04  0.7818608E-02  0.9181154E-01
          2   -1    0    0  501    0  0.00000000000E+00  0.00000000000E+00  0.21149812471E+04  0.21149812471E+04  0.00000000000E+00 0. -1.
         -1   -1    0    0    0  501 -0.00000000000E+00 -0.00000000000E+00 -0.14960452124E+03  0.14960452124E+03  0.00000000000E+00 0.  1.
         24    2    1    2    0    0 -0.18906735786E+03 -0.25115255452E+01  0.35254084291E+03  0.40809698854E+03  0.80655641876E+02 0.  0.
        254    2    1    2    0    0  0.18906735786E+03  0.25115255452E+01  0.16128358829E+04  0.18564887798E+04  0.89975453910E+03 0.  0.
         23    2    4    4    0    0  0.17016159148E+03 -0.29893371295E+03  0.14651871867E+04  0.15078115242E+04  0.91682978720E+02 0.  0.
         23    2    4    4    0    0  0.18905766383E+02  0.30144523850E+03  0.14764869626E+03  0.34867725558E+03  0.92460971430E+02 0.  0.
          2    1    3    3  502    0 -0.18703726756E+03  0.32415947232E+01  0.35519522498E+03  0.40144376348E+03  0.00000000000E+00 0. -1.
         -1    1    3    3    0  502 -0.20300903004E+01 -0.57531202684E+01 -0.26543820699E+01  0.66532250543E+01  0.00000000000E+00 0.  1.
         11    1    5    5    0    0  0.11177168193E+03 -0.26489564438E+03  0.12257874006E+04  0.12590541541E+04  0.00000000000E+00 0. -1.
        -11    1    5    5    0    0  0.58389909542E+02 -0.34038068572E+02  0.23939978602E+03  0.24875737013E+03  0.00000000000E+00 0.  1.
          4    1    6    6  503    0  0.52842826927E+02  0.22412452452E+03  0.94525748696E+02  0.24891621887E+03  0.00000000000E+00 0. -1.
         -4    1    6    6    0  503 -0.33937060544E+02  0.77320713981E+02  0.53122947569E+02  0.99761036719E+02  0.00000000000E+00 0.  1.
<mgrwt>
<rscale>  0 0.11250080E+04</rscale>
<asrwt>0</asrwt>
<pdfrwt beam="1">  1        2 0.32538171E+00 0.11250080E+04</pdfrwt>
<pdfrwt beam="2">  1       -1 0.23016082E-01 0.11250080E+04</pdfrwt>
<totfact> 0.10533677E+02</totfact>
</mgrwt>
</event>
<event>
12    6  0.1403409E-007  0.1014268E+04  0.7818608E-02  0.9293033E-01
          2   -1    0    0  501    0  0.00000000000E+00  0.00000000000E+00  0.42843613320E+03  0.42843613320E+03  0.00000000000E+00 0. -1.
         -1   -1    0    0    0  501 -0.00000000000E+00 -0.00000000000E+00 -0.60028713584E+03  0.60028713584E+03  0.00000000000E+00 0.  1.
         24    2    1    2    0    0 -0.23046571593E+02 -0.11709425683E+01 -0.92011488784E+02  0.12464924554E+03  0.80862876382E+02 0.  0.
        254    2    1    2    0    0  0.23046571593E+02  0.11709425683E+01 -0.79839513857E+02  0.90407402351E+03  0.90024606438E+03 0.  0.
         23    2    4    4    0    0  0.19356102224E+03  0.31724764687E+03  0.20725341456E+03  0.43548258385E+03  0.92623777809E+02 0.  0.
         23    2    4    4    0    0 -0.17051445065E+03 -0.31607670430E+03 -0.28709292842E+03  0.46859143965E+03  0.90420832146E+02 0.  0.
          2    1    3    3  502    0  0.19181958818E+01 -0.35136955239E+02 -0.18122830877E+02  0.39581840507E+02  0.00000000000E+00 0. -1.
         -1    1    3    3    0  502 -0.24964767475E+02  0.33966012671E+02 -0.73888657907E+02  0.85067405033E+02  0.00000000000E+00 0.  1.
         11    1    5    5    0    0  0.11322788926E+03  0.13771164390E+03  0.14305329678E+03  0.22858105235E+03  0.00000000000E+00 0. -1.
        -11    1    5    5    0    0  0.80333132982E+02  0.17953600297E+03  0.64200117783E+02  0.20690153151E+03  0.00000000000E+00 0.  1.
          4    1    6    6  503    0 -0.11421070492E+03 -0.27670741206E+03 -0.25275333754E+03  0.39178479634E+03  0.00000000000E+00 0.  1.
         -4    1    6    6    0  503 -0.56303745734E+02 -0.39369292243E+02 -0.34339590878E+02  0.76806643314E+02  0.00000000000E+00 0. -1.
<mgrwt>
<rscale>  0 0.10142676E+04</rscale>
<asrwt>0</asrwt>
<pdfrwt beam="1">  1        2 0.65913251E-01 0.10142676E+04</pdfrwt>
<pdfrwt beam="2">  1       -1 0.92351867E-01 0.10142676E+04</pdfrwt>
<totfact> 0.95854307E+01</totfact>
</mgrwt>
</event>
<event>
12    6  0.1403409E-007  0.2651536E+04  0.7818608E-02  0.8350903E-01
         -1   -1    0    0    0  501 -0.00000000000E+00  0.00000000000E+00  0.61916085639E+03  0.61916085639E+03  0.00000000000E+00 0.  1.
          2   -1    0    0  501    0  0.00000000000E+00 -0.00000000000E+00 -0.28387789943E+04  0.28387789943E+04  0.00000000000E+00 0. -1.
         24    2    1    2    0    0 -0.40384364361E+03 -0.95628219419E+03 -0.27293841450E+03  0.10760826323E+04  0.76766725190E+02 0.  0.
        254    2    1    2    0    0  0.40384364361E+03  0.95628219419E+03 -0.19466797234E+04  0.23818572183E+04  0.89783992986E+03 0.  0.
         23    2    4    4    0    0  0.97018754855E+02  0.20308839914E+03 -0.13435066987E+04  0.13652005155E+04  0.90025892254E+02 0.  0.
         23    2    4    4    0    0  0.30682488875E+03  0.75319379505E+03 -0.60317302463E+03  0.10166567028E+04  0.91272934061E+02 0.  0.
          2    1    3    3  502    0 -0.27286050201E+03 -0.69891277422E+03 -0.16834606596E+03  0.76894233688E+03  0.00000000000E+00 0. -1.
         -1    1    3    3    0  502 -0.13098314159E+03 -0.25736941997E+03 -0.10459234854E+03  0.30714029545E+03  0.00000000000E+00 0.  1.
         11    1    5    5    0    0  0.69471136466E+02  0.99013197131E+02 -0.47984595821E+03  0.49485553005E+03  0.00000000000E+00 0. -1.
        -11    1    5    5    0    0  0.27547618390E+02  0.10407520201E+03 -0.86366074054E+03  0.87034498545E+03  0.00000000000E+00 0.  1.
          2    1    6    6  503    0  0.21881951262E+03  0.50185076686E+03 -0.35401915934E+03  0.65197065615E+03  0.00000000000E+00 0. -1.
         -2    1    6    6    0  503  0.88005376129E+02  0.25134302819E+03 -0.24915386529E+03  0.36468604667E+03  0.00000000000E+00 0.  1.
<mgrwt>
<rscale>  0 0.26515360E+04</rscale>
<asrwt>0</asrwt>
<pdfrwt beam="1">  1        2 0.43673523E+00 0.26515360E+04</pdfrwt>
<pdfrwt beam="2">  1       -1 0.95255517E-01 0.26515360E+04</pdfrwt>
<totfact> 0.23338219E+00</totfact>
</mgrwt>
</event>
<event>
12    6  0.1403409E-007  0.1217029E+04  0.7818608E-02  0.9098080E-01
          2   -1    0    0  501    0  0.00000000000E+00  0.00000000000E+00  0.91857039209E+03  0.91857039209E+03  0.00000000000E+00 0. -1.
         -1   -1    0    0    0  501 -0.00000000000E+00 -0.00000000000E+00 -0.40311559344E+03  0.40311559344E+03  0.00000000000E+00 0.  1.
         24    2    1    2    0    0 -0.32922356455E+02  0.53625935707E+02  0.39933649830E+03  0.41186344657E+03  0.78754283787E+02 0.  0.
        254    2    1    2    0    0  0.32922356455E+02 -0.53625935707E+02  0.11611830036E+03  0.90982253895E+03  0.90018551987E+03 0.  0.
         23    2    4    4    0    0  0.28765564989E+03  0.95797528068E+02 -0.26908756547E+03  0.41593394476E+03  0.93112776856E+02 0.  0.
         23    2    4    4    0    0 -0.25473329343E+03 -0.14942346377E+03  0.38520586583E+03  0.49388859420E+03  0.91246710094E+02 0.  0.
          2    1    3    3  502    0 -0.46750917860E+02  0.32357887730E+02  0.36371340984E+03  0.36813058243E+03  0.00000000000E+00 0. -1.
         -1    1    3    3    0  502  0.13828561405E+02  0.21268047977E+02  0.35623088458E+02  0.43732864148E+02  0.00000000000E+00 0.  1.
         11    1    5    5    0    0  0.15232045357E+03  0.98507725472E+02 -0.14367321071E+03  0.23140286089E+03  0.00000000000E+00 0. -1.
        -11    1    5    5    0    0  0.13533519631E+03 -0.27101974034E+01 -0.12541435476E+03  0.18453108386E+03  0.00000000000E+00 0.  1.
          3    1    6    6  503    0 -0.10917916752E+02 -0.33350346538E+02  0.22445239134E+02  0.41656155370E+02  0.00000000000E+00 0. -1.
         -3    1    6    6    0  503 -0.24381537668E+03 -0.11607311724E+03  0.36276062669E+03  0.45223243883E+03  0.00000000000E+00 0.  1.
<mgrwt>
<rscale>  0 0.12170292E+04</rscale>
<asrwt>0</asrwt>
<pdfrwt beam="1">  1        2 0.14131852E+00 0.12170292E+04</pdfrwt>
<pdfrwt beam="2">  1       -1 0.62017784E-01 0.12170292E+04</pdfrwt>
<totfact> 0.84501676E+01</totfact>
</mgrwt>
</event>
<event>
12    6  0.1403409E-007  0.6541435E+04  0.7818608E-02  0.7626670E-01
          2   -1    0    0  501    0  0.00000000000E+00  0.00000000000E+00  0.38800911238E+04  0.38800911238E+04  0.00000000000E+00 0. -1.
         -1   -1    0    0    0  501 -0.00000000000E+00 -0.00000000000E+00 -0.27570468264E+04  0.27570468264E+04  0.00000000000E+00 0.  1.
         24    2    1    2    0    0 -0.24373463395E+04 -0.20715319168E+04  0.80192894864E+03  0.32986782321E+04  0.79286691281E+02 0.  0.
        254    2    1    2    0    0  0.24373463395E+04  0.20715319168E+04  0.32111534874E+03  0.33384597181E+04  0.90016474091E+03 0.  0.
         23    2    4    4    0    0  0.13476546870E+04  0.16327592856E+04  0.40527348047E+03  0.21574768348E+04  0.91562320985E+02 0.  0.
         23    2    4    4    0    0  0.10896916525E+04  0.43877263125E+03 -0.84158131723E+02  0.11809828833E+04  0.87685004360E+02 0.  0.
          4    1    3    3  502    0 -0.15350897788E+04 -0.12733021856E+04  0.53090563297E+03  0.20638943471E+04  0.00000000000E+00 0. -1.
         -3    1    3    3    0  502 -0.90225656071E+03 -0.79822973121E+03  0.27102331566E+03  0.12347838850E+04  0.00000000000E+00 0.  1.
         11    1    5    5    0    0  0.23249203650E+03  0.29972632985E+03  0.10662403608E+03  0.39402678197E+03  0.00000000000E+00 0. -1.
        -11    1    5    5    0    0  0.11151626505E+04  0.13330329557E+04  0.29864944438E+03  0.17634500528E+04  0.00000000000E+00 0.  1.
          2    1    6    6  503    0  0.97028822550E+03  0.40718277824E+03 -0.52973604204E+02  0.10535953959E+04  0.00000000000E+00 0. -1.
         -2    1    6    6    0  503  0.11940342700E+03  0.31589853006E+02 -0.31184527519E+02  0.12738748741E+03  0.00000000000E+00 0.  1.
<mgrwt>
<rscale>  0 0.65414350E+04</rscale>
<asrwt>0</asrwt>
<pdfrwt beam="1">  1        2 0.59693710E+00 0.65414350E+04</pdfrwt>
<pdfrwt beam="2">  1       -1 0.42416105E+00 0.65414350E+04</pdfrwt>
<totfact> 0.15239533E-03</totfact>
</mgrwt>
</event>
<event>
12    6  0.1403409E-007  0.2495733E+04  0.7818608E-02  0.8404507E-01
          2   -1    0    0  501    0  0.00000000000E+00  0.00000000000E+00  0.12714772633E+04  0.12714772633E+04  0.00000000000E+00 0. -1.
         -1   -1    0    0    0  501 -0.00000000000E+00 -0.00000000000E+00 -0.12246943121E+04  0.12246943121E+04  0.00000000000E+00 0.  1.
         24    2    1    2    0    0 -0.17667658251E+03 -0.61602017765E+03 -0.85417688587E+03  0.10709298645E+04  0.81099618770E+02 0.  0.
        254    2    1    2    0    0  0.17667658251E+03  0.61602017765E+03  0.90095983708E+03  0.14252417110E+04  0.89938302885E+03 0.  0.
         23    2    4    4    0    0  0.47776732334E+03  0.34550536445E+03  0.79924814479E+03  0.99741324286E+03  0.91651557413E+02 0.  0.
         23    2    4    4    0    0 -0.30109074083E+03  0.27051481320E+03  0.10171169229E+03  0.42782846811E+03  0.94117115377E+02 0.  0.
          4    1    3    3  502    0 -0.76922757676E+02 -0.27646107451E+03 -0.31641792722E+03  0.42716289754E+03  0.00000000000E+00 0. -1.
         -3    1    3    3    0  502 -0.99753824834E+02 -0.33955910314E+03 -0.53775895865E+03  0.64376696693E+03  0.00000000000E+00 0.  1.
         11    1    5    5    0    0  0.40320742123E+03  0.29001491446E+03  0.72317721458E+03  0.87730847416E+03  0.00000000000E+00 0. -1.
        -11    1    5    5    0    0  0.74559902104E+02  0.55490449988E+02  0.76070930205E+02  0.12010476870E+03  0.00000000000E+00 0.  1.
          1    1    6    6  503    0 -0.98424919011E+02  0.13342795172E+03  0.85698371926E+01  0.16602386904E+03  0.00000000000E+00 0. -1.
         -1    1    6    6    0  503 -0.20266582181E+03  0.13708686148E+03  0.93141855102E+02  0.26180459907E+03  0.00000000000E+00 0.  1.
<mgrwt>
<rscale>  0 0.24957331E+04</rscale>
<asrwt>0</asrwt>
<pdfrwt beam="1">  1        2 0.19561189E+00 0.24957331E+04</pdfrwt>
<pdfrwt beam="2">  1       -1 0.18841451E+00 0.24957331E+04</pdfrwt>
<totfact> 0.31667094E+00</totfact>
</mgrwt>
</event>
<event>
12    6  0.1403409E-007  0.2384279E+04  0.7818608E-02  0.8445413E-01
          2   -1    0    0  501    0  0.00000000000E+00  0.00000000000E+00  0.18670816036E+04  0.18670816036E+04  0.00000000000E+00 0. -1.
         -1   -1    0    0    0  501 -0.00000000000E+00 -0.00000000000E+00 -0.76118622234E+03  0.76118622234E+03  0.00000000000E+00 0.  1.
         24    2    1    2    0    0 -0.29471944885E+03 -0.20971942766E+03 -0.57757597414E+03  0.68571133331E+03  0.75922558362E+02 0.  0.
        254    2    1    2    0    0  0.29471944885E+03  0.20971942766E+03  0.16834713554E+04  0.19425564926E+04  0.89922640685E+03 0.  0.
         23    2    4    4    0    0  0.61092315961E+01 -0.23996167885E+03  0.11641061728E+04  0.11919654994E+04  0.89552443667E+02 0.  0.
         23    2    4    4    0    0  0.28861021725E+03  0.44968110651E+03  0.51936518260E+03  0.75059099325E+03  0.90209152518E+02 0.  0.
          2    1    3    3  502    0 -0.82042251931E+02 -0.70668538014E+02 -0.11510970066E+03  0.15803549143E+03  0.00000000000E+00 0. -1.
         -1    1    3    3    0  502 -0.21267719692E+03 -0.13905088965E+03 -0.46246627348E+03  0.52767584188E+03  0.00000000000E+00 0.  1.
         11    1    5    5    0    0 -0.35311449724E+01 -0.18165634853E+03  0.66504182544E+03  0.68941433662E+03  0.00000000000E+00 0. -1.
        -11    1    5    5    0    0  0.96403765684E+01 -0.58305330317E+02  0.49906434735E+03  0.50255116277E+03  0.00000000000E+00 0.  1.
          3    1    6    6  503    0  0.37181417851E+02  0.61379761280E+02  0.11819056725E+03  0.13827126641E+03  0.00000000000E+00 0. -1.
         -3    1    6    6    0  503  0.25142879940E+03  0.38830134523E+03  0.40117461535E+03  0.61231972684E+03  0.00000000000E+00 0.  1.
<mgrwt>
<rscale>  0 0.23842792E+04</rscale>
<asrwt>0</asrwt>
<pdfrwt beam="1">  1        2 0.28724332E+00 0.23842792E+04</pdfrwt>
<pdfrwt beam="2">  1       -1 0.11710557E+00 0.23842792E+04</pdfrwt>
<totfact> 0.53327995E+00</totfact>
</mgrwt>
</event>
<event>
12    6  0.1403409E-007  0.2414400E+04  0.7818608E-02  0.8434132E-01
         -1   -1    0    0    0  501 -0.00000000000E+00  0.00000000000E+00  0.16132511924E+04  0.16132511924E+04  0.00000000000E+00 0.  1.
          2   -1    0    0  501    0  0.00000000000E+00 -0.00000000000E+00 -0.90335116471E+03  0.90335116471E+03  0.00000000000E+00 0. -1.
         24    2    1    2    0    0 -0.74599606023E+03  0.33457118633E+03  0.96506492058E+03  0.12673648110E+04  0.80095334001E+02 0.  0.
        254    2    1    2    0    0  0.74599606023E+03 -0.33457118633E+03 -0.25516489292E+03  0.12492375461E+04  0.90941592434E+03 0.  0.
         23    2    4    4    0    0 -0.42396605339E+02 -0.39317899982E+03 -0.19782194151E+03  0.45145555824E+03  0.91057138535E+02 0.  0.
         23    2    4    4    0    0  0.78839266557E+03  0.58607813493E+02 -0.57342951411E+02  0.79778198788E+03  0.90388136264E+02 0.  0.
          4    1    3    3  502    0 -0.19166226122E+03  0.92794968058E+02  0.20000562174E+03  0.29214307659E+03  0.00000000000E+00 0. -1.
         -3    1    3    3    0  502 -0.55433379901E+03  0.24177621827E+03  0.76505929884E+03  0.97522173437E+03  0.00000000000E+00 0.  1.
         11    1    5    5    0    0 -0.29679609012E+02 -0.16056736516E+03 -0.13031307015E+03  0.20891207288E+03  0.00000000000E+00 0. -1.
        -11    1    5    5    0    0 -0.12716996327E+02 -0.23261163466E+03 -0.67508871361E+02  0.24254348536E+03  0.00000000000E+00 0.  1.
          2    1    6    6  503    0  0.40832883062E+03 -0.95667576555E+01 -0.50882218336E+02  0.41159805261E+03  0.00000000000E+00 0. -1.
         -2    1    6    6    0  503  0.38006383495E+03  0.68174571149E+02 -0.64607330746E+01  0.38618393527E+03  0.00000000000E+00 0.  1.
<mgrwt>
<rscale>  0 0.24144004E+04</rscale>
<asrwt>0</asrwt>
<pdfrwt beam="1">  1        2 0.13897710E+00 0.24144004E+04</pdfrwt>
<pdfrwt beam="2">  1       -1 0.24819249E+00 0.24144004E+04</pdfrwt>
<totfact> 0.21404085E+00</totfact>
</mgrwt>
</event>
<event>
12    6  0.1403409E-007  0.2162761E+04  0.7818608E-02  0.8534090E-01
          2   -1    0    0  501    0  0.00000000000E+00  0.00000000000E+00  0.30275961473E+04  0.30275961473E+04  0.00000000000E+00 0. -1.
         -1   -1    0    0    0  501 -0.00000000000E+00 -0.00000000000E+00 -0.38624173779E+03  0.38624173779E+03  0.00000000000E+00 0.  1.
         24    2    1    2    0    0  0.41687254185E+03 -0.75615122973E+03  0.14441711111E+04  0.16848797776E+04  0.87420070070E+02 0.  0.
        254    2    1    2    0    0 -0.41687254185E+03  0.75615122973E+03  0.11971832984E+04  0.17289581075E+04  0.90027822861E+03 0.  0.
         23    2    4    4    0    0 -0.23080699471E+03  0.22079124134E+03  0.10972715294E+04  0.11462620595E+04  0.88832757380E+02 0.  0.
         23    2    4    4    0    0 -0.18606554714E+03  0.53535998839E+03  0.99911769046E+02  0.58269604795E+03  0.91222901165E+02 0.  0.
          2    1    3    3  502    0  0.27433456200E+03 -0.56848185467E+03  0.10865970192E+04  0.12566320675E+04  0.00000000000E+00 0. -1.
         -1    1    3    3    0  502  0.14253797985E+03 -0.18766937506E+03  0.35757409188E+03  0.42824771012E+03  0.00000000000E+00 0.  1.
         11    1    5    5    0    0 -0.10293583213E+03  0.11047722348E+03  0.36970602164E+03  0.39935390931E+03  0.00000000000E+00 0.  1.
        -11    1    5    5    0    0 -0.12787116258E+03  0.11031401786E+03  0.72756550776E+03  0.74690815021E+03  0.00000000000E+00 0. -1.
          1    1    6    6  503    0 -0.84140037416E+02  0.13966313650E+03  0.52747113839E+02  0.17136976283E+03  0.00000000000E+00 0. -1.
         -1    1    6    6    0  503 -0.10192550973E+03  0.39569685190E+03  0.47164655207E+02  0.41132628512E+03  0.00000000000E+00 0.  1.
<mgrwt>
<rscale>  0 0.21627612E+04</rscale>
<asrwt>0</asrwt>
<pdfrwt beam="1">  1        2 0.46578401E+00 0.21627612E+04</pdfrwt>
<pdfrwt beam="2">  1       -1 0.59421808E-01 0.21627612E+04</pdfrwt>
<totfact> 0.50187746E+00</totfact>
</mgrwt>
</event>
<event>
12    6  0.1403409E-007  0.1091424E+04  0.7818608E-02  0.9213591E-01
          2   -1    0    0  501    0  0.00000000000E+00  0.00000000000E+00  0.23653345110E+04  0.23653345110E+04  0.00000000000E+00 0. -1.
         -1   -1    0    0    0  501 -0.00000000000E+00 -0.00000000000E+00 -0.12590260508E+03  0.12590260508E+03  0.00000000000E+00 0.  1.
         24    2    1    2    0    0  0.54525345655E+02 -0.14503078162E+03  0.27446985209E+03  0.32550449528E+03  0.81317500003E+02 0.  0.
        254    2    1    2    0    0 -0.54525345655E+02  0.14503078162E+03  0.19649620539E+04  0.21657326208E+04  0.89739343146E+03 0.  0.
         23    2    4    4    0    0 -0.33932965221E+03 -0.97865374856E+02  0.35274052979E+03  0.50822816843E+03  0.95643846484E+02 0.  0.
         23    2    4    4    0    0  0.28480430656E+03  0.24289615648E+03  0.16122215241E+04  0.16575044524E+04  0.89166872367E+02 0.  0.
          4    1    3    3  502    0  0.39332779055E+02 -0.78016005421E+02  0.22343644653E+03  0.23991125494E+03  0.00000000000E+00 0. -1.
         -3    1    3    3    0  502  0.15192566600E+02 -0.67014776201E+02  0.51033405561E+02  0.85593240342E+02  0.00000000000E+00 0.  1.
         11    1    5    5    0    0 -0.21112106921E+03 -0.10809232053E+03  0.22352191812E+03  0.32591118960E+03  0.00000000000E+00 0.  1.
        -11    1    5    5    0    0 -0.12820858300E+03  0.10226945672E+02  0.12921861166E+03  0.18231697884E+03  0.00000000000E+00 0. -1.
          4    1    6    6  503    0  0.24961080754E+02  0.38963947162E+02  0.10892596195E+03  0.11834741196E+03  0.00000000000E+00 0. -1.
         -4    1    6    6    0  503  0.25984322580E+03  0.20393220932E+03  0.15032955621E+04  0.15391570404E+04  0.00000000000E+00 0.  1.
<mgrwt>
<rscale>  0 0.10914243E+04</rscale>
<asrwt>0</asrwt>
<pdfrwt beam="1">  1        2 0.36389758E+00 0.10914243E+04</pdfrwt>
<pdfrwt beam="2">  1       -1 0.19369633E-01 0.10914243E+04</pdfrwt>
<totfact> 0.10231942E+02</totfact>
</mgrwt>
</event>
<event>
12    6  0.1403409E-007  0.1426594E+04  0.7818608E-02  0.8934790E-01
         -1   -1    0    0    0  501 -0.00000000000E+00  0.00000000000E+00  0.17510564507E+03  0.17510564507E+03  0.00000000000E+00 0.  1.
          2   -1    0    0  501    0  0.00000000000E+00 -0.00000000000E+00 -0.29056314494E+04  0.29056314494E+04  0.00000000000E+00 0. -1.
         24    2    1    2    0    0 -0.17280727215E+03  0.34047102187E+03 -0.12247771287E+04  0.12854645485E+04  0.80976666702E+02 0.  0.
        254    2    1    2    0    0  0.17280727215E+03 -0.34047102187E+03 -0.15057486756E+04  0.17952725459E+04  0.89996753826E+03 0.  0.
         23    2    4    4    0    0 -0.32601484257E+02  0.26386152628E+03 -0.75273981881E+03  0.80330371696E+03  0.89408417002E+02 0.  0.
         23    2    4    4    0    0  0.20540875641E+03 -0.60433254816E+03 -0.75300885680E+03  0.99196882894E+03  0.97822457544E+02 0.  0.
          2    1    3    3  502    0 -0.16179326550E+03  0.25486111114E+03 -0.10044494897E+04  0.10488326959E+04  0.00000000000E+00 0. -1.
         -1    1    3    3    0  502 -0.11014006656E+02  0.85609910737E+02 -0.22032763898E+03  0.23663185258E+03  0.00000000000E+00 0.  1.
         11    1    5    5    0    0 -0.25314359591E+02  0.74110084580E+02 -0.12531910521E+03  0.14777685735E+03  0.00000000000E+00 0.  1.
        -11    1    5    5    0    0 -0.72871246665E+01  0.18975144170E+03 -0.62742071360E+03  0.65552685961E+03  0.00000000000E+00 0. -1.
          3    1    6    6  503    0  0.64476643352E+02 -0.30895890785E+03 -0.32318122005E+03  0.45172884043E+03  0.00000000000E+00 0. -1.
         -3    1    6    6    0  503  0.14093211306E+03 -0.29537364031E+03 -0.42982763674E+03  0.54023998851E+03  0.00000000000E+00 0.  1.
<mgrwt>
<rscale>  0 0.14265938E+04</rscale>
<asrwt>0</asrwt>
<pdfrwt beam="1">  1        2 0.44702019E+00 0.14265938E+04</pdfrwt>
<pdfrwt beam="2">  1       -1 0.26939332E-01 0.14265938E+04</pdfrwt>
<totfact> 0.27352480E+01</totfact>
</mgrwt>
</event>
<event>
12    6  0.1403409E-007  0.1653101E+04  0.7818608E-02  0.8788574E-01
         -1   -1    0    0    0  501 -0.00000000000E+00  0.00000000000E+00  0.31791068482E+03  0.31791068482E+03  0.00000000000E+00 0.  1.
          2   -1    0    0  501    0  0.00000000000E+00 -0.00000000000E+00 -0.21489855366E+04  0.21489855366E+04  0.00000000000E+00 0. -1.
         24    2    1    2    0    0 -0.42954733748E+03 -0.31830754317E+03 -0.96938744840E+03  0.11100015113E+04  0.80998288267E+02 0.  0.
        254    2    1    2    0    0  0.42954733748E+03  0.31830754317E+03 -0.86168740333E+03  0.13568947101E+04  0.90156944608E+03 0.  0.
         23    2    4    4    0    0  0.41648755506E+03 -0.85353871777E+02 -0.40188337806E+02  0.43654280736E+03  0.90594443577E+02 0.  0.
         23    2    4    4    0    0  0.13059782412E+02  0.40366141494E+03 -0.82149906552E+03  0.92035190276E+03  0.95256571570E+02 0.  0.
          4    1    3    3  502    0 -0.19455059260E+03 -0.96219165010E+02 -0.36986173939E+03  0.42884235688E+03  0.00000000000E+00 0. -1.
         -3    1    3    3    0  502 -0.23499674488E+03 -0.22208837816E+03 -0.59952570902E+03  0.68115915437E+03  0.00000000000E+00 0.  1.
         11    1    5    5    0    0  0.42055544560E+02  0.14644406759E+02  0.10313780407E+02  0.45711065879E+02  0.00000000000E+00 0. -1.
        -11    1    5    5    0    0  0.37443201051E+03 -0.99998278536E+02 -0.50502118213E+02  0.39083174148E+03  0.00000000000E+00 0.  1.
          4    1    6    6  503    0  0.98572615399E+01  0.19288216490E+03 -0.49896005596E+03  0.53503442187E+03  0.00000000000E+00 0. -1.
         -4    1    6    6    0  503  0.32025208724E+01  0.21077925005E+03 -0.32253900956E+03  0.38531748089E+03  0.00000000000E+00 0.  1.
<mgrwt>
<rscale>  0 0.16531007E+04</rscale>
<asrwt>0</asrwt>
<pdfrwt beam="1">  1        2 0.33061316E+00 0.16531007E+04</pdfrwt>
<pdfrwt beam="2">  1       -1 0.48909336E-01 0.16531007E+04</pdfrwt>
<totfact> 0.25127062E+01</totfact>
</mgrwt>
</event>
<event>
12    6  0.1403409E-007  0.2302792E+04  0.7818608E-02  0.8476821E-01
         -1   -1    0    0    0  501 -0.00000000000E+00  0.00000000000E+00  0.15807130085E+04  0.15807130085E+04  0.00000000000E+00 0.  1.
          2   -1    0    0  501    0  0.00000000000E+00 -0.00000000000E+00 -0.83867999425E+03  0.83867999425E+03  0.00000000000E+00 0. -1.
         24    2    1    2    0    0  0.27370570449E+03  0.81914585878E+03  0.78719651745E+03  0.11712430894E+04  0.78849646458E+02 0.  0.
        254    2    1    2    0    0 -0.27370570449E+03 -0.81914585878E+03 -0.45163503178E+02  0.12481499134E+04  0.89995761768E+03 0.  0.
         23    2    4    4    0    0 -0.10519367530E+02  0.61247221375E+02  0.25427777790E+03  0.27677022881E+03  0.89903793040E+02 0.  0.
         23    2    4    4    0    0 -0.26318633696E+03 -0.88039308016E+03 -0.29944128108E+03  0.97137968456E+03  0.97746545794E+02 0.  0.
          4    1    3    3  502    0  0.19658974899E+03  0.55748961299E+03  0.48979450877E+03  0.76768539052E+03  0.00000000000E+00 0. -1.
         -3    1    3    3    0  502  0.77115955505E+02  0.26165624579E+03  0.29740200868E+03  0.40355769888E+03  0.00000000000E+00 0.  1.
         11    1    5    5    0    0  0.21256229797E+02  0.62614420090E+02  0.10457970603E+03  0.12373078769E+03  0.00000000000E+00 0.  1.
        -11    1    5    5    0    0 -0.31775597327E+02 -0.13671987154E+01  0.14969807187E+03  0.15303944113E+03  0.00000000000E+00 0. -1.
          3    1    6    6  503    0 -0.12529929471E+03 -0.52200924649E+03 -0.21449359282E+03  0.57810126106E+03  0.00000000000E+00 0. -1.
         -3    1    6    6    0  503 -0.13788704225E+03 -0.35838383366E+03 -0.84947688266E+02  0.39327842350E+03  0.00000000000E+00 0.  1.
<mgrwt>
<rscale>  0 0.23027917E+04</rscale>
<asrwt>0</asrwt>
<pdfrwt beam="1">  1        2 0.12902769E+00 0.23027917E+04</pdfrwt>
<pdfrwt beam="2">  1       -1 0.24318662E+00 0.23027917E+04</pdfrwt>
<totfact> 0.25820527E+00</totfact>
</mgrwt>
</event>
<event>
12    6  0.1403409E-007  0.3057624E+04  0.7818608E-02  0.8227465E-01
         -1   -1    0    0    0  501 -0.00000000000E+00  0.00000000000E+00  0.12946788842E+04  0.12946788842E+04  0.00000000000E+00 0.  1.
          2   -1    0    0  501    0  0.00000000000E+00 -0.00000000000E+00 -0.18052865021E+04  0.18052865021E+04  0.00000000000E+00 0. -1.
         24    2    1    2    0    0 -0.12263283652E+04  0.66476790761E+03 -0.21579125251E+03  0.14137283729E+04  0.79148071919E+02 0.  0.
        254    2    1    2    0    0  0.12263283652E+04 -0.66476790761E+03 -0.29481636543E+03  0.16862370134E+04  0.90037822376E+03 0.  0.
         23    2    4    4    0    0  0.83702270048E+03 -0.26508910405E+03  0.23283566322E+03  0.91324573408E+03  0.94477989671E+02 0.  0.
         23    2    4    4    0    0  0.38930566473E+03 -0.39967880356E+03 -0.52765202866E+03  0.77299127936E+03  0.88299535710E+02 0.  0.
          4    1    3    3  502    0 -0.58390732541E+03  0.27229968025E+03 -0.10630108966E+03  0.65298912870E+03  0.00000000000E+00 0. -1.
         -3    1    3    3    0  502 -0.64242103980E+03  0.39246822736E+03 -0.10949016285E+03  0.76073924418E+03  0.00000000000E+00 0.  1.
         11    1    5    5    0    0  0.26403647421E+03 -0.54116340266E+02  0.10599431292E+03  0.28961808018E+03  0.00000000000E+00 0. -1.
        -11    1    5    5    0    0  0.57298622628E+03 -0.21097276378E+03  0.12684135031E+03  0.62362765390E+03  0.00000000000E+00 0.  1.
          2    1    6    6  503    0 -0.29963896233E+01  0.18545351330E+01 -0.33354095548E+01  0.48520725708E+01  0.00000000000E+00 0. -1.
         -2    1    6    6    0  503  0.39230205435E+03 -0.40153333870E+03 -0.52431661910E+03  0.76813920679E+03  0.00000000000E+00 0.  1.
<mgrwt>
<rscale>  0 0.30576241E+04</rscale>
<asrwt>0</asrwt>
<pdfrwt beam="1">  1        2 0.27773638E+00 0.30576241E+04</pdfrwt>
<pdfrwt beam="2">  1       -1 0.19918137E+00 0.30576241E+04</pdfrwt>
<totfact> 0.12670209E+00</totfact>
</mgrwt>
</event>
<event>
12    6  0.1403409E-007  0.1342186E+04  0.7818608E-02  0.8996765E-01
          2   -1    0    0  501    0  0.00000000000E+00  0.00000000000E+00  0.13924561519E+04  0.13924561519E+04  0.00000000000E+00 0. -1.
         -1   -1    0    0    0  501 -0.00000000000E+00 -0.00000000000E+00 -0.32343248045E+03  0.32343248045E+03  0.00000000000E+00 0.  1.
         24    2    1    2    0    0 -0.28855327481E+03  0.15061482371E+03  0.12713917518E+03  0.35897125900E+03  0.82147290887E+02 0.  0.
        254    2    1    2    0    0  0.28855327481E+03 -0.15061482371E+03  0.94188449626E+03  0.13569173733E+04  0.92094002858E+03 0.  0.
         23    2    4    4    0    0 -0.17745986200E+03  0.27292733590E+03  0.28301846674E+03  0.44088752145E+03  0.91109937728E+02 0.  0.
         23    2    4    4    0    0  0.46601313681E+03 -0.42354215961E+03  0.65886602952E+03  0.91602985188E+03  0.91924099339E+02 0.  0.
          2    1    3    3  502    0 -0.35145832120E+02 -0.88954232623E+01  0.14866977351E+02  0.39183990174E+02  0.00000000000E+00 0. -1.
         -1    1    3    3    0  502 -0.25340744269E+03  0.15951024697E+03  0.11227219783E+03  0.31978726883E+03  0.00000000000E+00 0.  1.
         11    1    5    5    0    0 -0.11752600375E+03  0.22488190817E+03  0.17457324254E+03  0.30799358953E+03  0.00000000000E+00 0. -1.
        -11    1    5    5    0    0 -0.59933858252E+02  0.48045427736E+02  0.10844522420E+03  0.13289393193E+03  0.00000000000E+00 0.  1.
          1    1    6    6  503    0  0.77154901882E+02 -0.85636137071E+02  0.17307086038E+03  0.20794217843E+03  0.00000000000E+00 0. -1.
         -1    1    6    6    0  503  0.38885823492E+03 -0.33790602254E+03  0.48579516914E+03  0.70808767346E+03  0.00000000000E+00 0.  1.
<mgrwt>
<rscale>  0 0.13421856E+04</rscale>
<asrwt>0</asrwt>
<pdfrwt beam="1">  1        2 0.21422402E+00 0.13421856E+04</pdfrwt>
<pdfrwt beam="2">  1       -1 0.49758844E-01 0.13421856E+04</pdfrwt>
<totfact> 0.65933377E+01</totfact>
</mgrwt>
</event>
<event>
12    6  0.1403409E-007  0.1562562E+04  0.7818608E-02  0.8843884E-01
         -1   -1    0    0    0  501 -0.00000000000E+00  0.00000000000E+00  0.56203967975E+03  0.56203967975E+03  0.00000000000E+00 0.  1.
          2   -1    0    0  501    0  0.00000000000E+00 -0.00000000000E+00 -0.10860443597E+04  0.10860443597E+04  0.00000000000E+00 0. -1.
         24    2    1    2    0    0  0.12801580646E+03  0.46741585184E+03 -0.36965445559E+03  0.61479076629E+03  0.80359470652E+02 0.  0.
        254    2    1    2    0    0 -0.12801580646E+03 -0.46741585184E+03 -0.15435022441E+03  0.10332932732E+04  0.89944725883E+03 0.  0.
         23    2    4    4    0    0  0.28765933131E+03 -0.47697073984E+03  0.36527974680E+02  0.56629852510E+03  0.95450243823E+02 0.  0.
         23    2    4    4    0    0 -0.41567513777E+03  0.95548880030E+01 -0.19087819909E+03  0.46699474810E+03  0.93661581359E+02 0.  0.
          2    1    3    3  502    0  0.11225588379E+03  0.26822251140E+03 -0.20328585215E+03  0.35478139290E+03  0.00000000000E+00 0. -1.
         -1    1    3    3    0  502  0.15759922674E+02  0.19919334044E+03 -0.16636860344E+03  0.26000937339E+03  0.00000000000E+00 0.  1.
         11    1    5    5    0    0  0.19021605236E+03 -0.39175100021E+03  0.34137461476E+02  0.43682531865E+03  0.00000000000E+00 0.  1.
        -11    1    5    5    0    0  0.97443278947E+02 -0.85219739634E+02  0.23905132041E+01  0.12947320645E+03  0.00000000000E+00 0. -1.
          1    1    6    6  503    0 -0.14800816484E+03 -0.41317709800E+02 -0.64549114259E+02  0.16667380765E+03  0.00000000000E+00 0. -1.
         -1    1    6    6    0  503 -0.26766697292E+03  0.50872597803E+02 -0.12632908483E+03  0.30032094045E+03  0.00000000000E+00 0.  1.
<mgrwt>
<rscale>  0 0.15625620E+04</rscale>
<asrwt>0</asrwt>
<pdfrwt beam="1">  1        2 0.16708375E+00 0.15625620E+04</pdfrwt>
<pdfrwt beam="2">  1       -1 0.86467644E-01 0.15625620E+04</pdfrwt>
<totfact> 0.32160176E+01</totfact>
</mgrwt>
</event>
<event>
12    6  0.1403409E-007  0.2599931E+04  0.7818608E-02  0.8368225E-01
          2   -1    0    0  501    0  0.00000000000E+00  0.00000000000E+00  0.28345044990E+04  0.28345044990E+04  0.00000000000E+00 0. -1.
         -1   -1    0    0    0  501 -0.00000000000E+00 -0.00000000000E+00 -0.59619240490E+03  0.59619240490E+03  0.00000000000E+00 0.  1.
         24    2    1    2    0    0 -0.32084817534E+02 -0.11399193432E+04  0.10867872106E+04  0.15772826642E+04  0.79174597243E+02 0.  0.
        254    2    1    2    0    0  0.32084817534E+02  0.11399193432E+04  0.11515248835E+04  0.18534142398E+04  0.89927150641E+03 0.  0.
         23    2    4    4    0    0 -0.10987864533E+03  0.85534237619E+03  0.26450256753E+03  0.90659065906E+03  0.90890690772E+02 0.  0.
         23    2    4    4    0    0  0.14196346286E+03  0.28457696706E+03  0.88702231598E+03  0.94682358071E+03  0.92350576523E+02 0.  0.
          2    1    3    3  502    0 -0.59458730459E+01 -0.74672185356E+03  0.66309003432E+03  0.99865773597E+03  0.00000000000E+00 0. -1.
         -1    1    3    3    0  502 -0.26138944488E+02 -0.39319748968E+03  0.42369717631E+03  0.57862492819E+03  0.00000000000E+00 0.  1.
         11    1    5    5    0    0 -0.71883618626E+02  0.38404406484E+03  0.16089454188E+03  0.42254485202E+03  0.00000000000E+00 0.  1.
        -11    1    5    5    0    0 -0.37995026699E+02  0.47129831134E+03  0.10360802565E+03  0.48404580704E+03  0.00000000000E+00 0. -1.
          3    1    6    6  503    0  0.82398712429E+01  0.97297359427E+01  0.12706743228E+03  0.12770550335E+03  0.00000000000E+00 0. -1.
         -3    1    6    6    0  503  0.13372359162E+03  0.27484723112E+03  0.75995488370E+03  0.81911807736E+03  0.00000000000E+00 0.  1.
<mgrwt>
<rscale>  0 0.25999308E+04</rscale>
<asrwt>0</asrwt>
<pdfrwt beam="1">  1        2 0.43607761E+00 0.25999308E+04</pdfrwt>
<pdfrwt beam="2">  1       -1 0.91721910E-01 0.25999308E+04</pdfrwt>
<totfact> 0.25664372E+00</totfact>
</mgrwt>
</event>
<event>
12    6  0.1403409E-007  0.1938519E+04  0.7818608E-02  0.8635917E-01
          2   -1    0    0  501    0  0.00000000000E+00  0.00000000000E+00  0.26556390714E+04  0.26556390714E+04  0.00000000000E+00 0. -1.
         -1   -1    0    0    0  501 -0.00000000000E+00 -0.00000000000E+00 -0.35376209712E+03  0.35376209712E+03  0.00000000000E+00 0.  1.
         24    2    1    2    0    0 -0.20364933708E+03  0.72870325434E+03  0.95699651951E+03  0.12226087424E+04  0.80301389871E+02 0.  0.
        254    2    1    2    0    0  0.20364933708E+03 -0.72870325434E+03  0.13448804548E+04  0.17867924261E+04  0.90080089426E+03 0.  0.
         23    2    4    4    0    0  0.57490926642E+02 -0.46570182742E+03  0.13888372503E+04  0.14687075583E+04  0.89719481927E+02 0.  0.
         23    2    4    4    0    0  0.14615841044E+03 -0.26300142692E+03 -0.43956795539E+02  0.31808486778E+03  0.93347478440E+02 0.  0.
          4    1    3    3  502    0 -0.66961706484E+02  0.38826426763E+03  0.50038570844E+03  0.63688214676E+03  0.00000000000E+00 0. -1.
         -1    1    3    3    0  502 -0.13668763059E+03  0.34043898670E+03  0.45661081107E+03  0.58572659562E+03  0.00000000000E+00 0.  1.
         11    1    5    5    0    0  0.10385608684E+02 -0.35316429049E+03  0.96433136836E+03  0.10270189214E+04  0.00000000000E+00 0. -1.
        -11    1    5    5    0    0  0.47105317959E+02 -0.11253753693E+03  0.42450588194E+03  0.44168863693E+03  0.00000000000E+00 0.  1.
          2    1    6    6  503    0  0.79952302932E+02 -0.17577940106E+03 -0.70215338642E+02  0.20547740109E+03  0.00000000000E+00 0. -1.
         -2    1    6    6    0  503  0.66206107503E+02 -0.87222025864E+02  0.26258543104E+02  0.11260746668E+03  0.00000000000E+00 0.  1.
<mgrwt>
<rscale>  0 0.19385195E+04</rscale>
<asrwt>0</asrwt>
<pdfrwt beam="1">  1        2 0.40855985E+00 0.19385195E+04</pdfrwt>
<pdfrwt beam="2">  1       -1 0.54424940E-01 0.19385195E+04</pdfrwt>
<totfact> 0.10239291E+01</totfact>
</mgrwt>
</event>
<event>
12    6  0.1403409E-007  0.2470993E+04  0.7818608E-02  0.8413393E-01
          2   -1    0    0  501    0  0.00000000000E+00  0.00000000000E+00  0.24923603307E+04  0.24923603307E+04  0.00000000000E+00 0. -1.
         -1   -1    0    0    0  501 -0.00000000000E+00 -0.00000000000E+00 -0.61245232332E+03  0.61245232332E+03  0.00000000000E+00 0.  1.
         24    2    1    2    0    0 -0.23971899271E+02 -0.71730975592E+03 -0.18103344053E+03  0.74395682438E+03  0.74771064323E+02 0.  0.
        254    2    1    2    0    0  0.23971899271E+02  0.71730975592E+03  0.20609414480E+04  0.23608558297E+04  0.90058462054E+03 0.  0.
         23    2    4    4    0    0  0.41312456889E+03  0.13275047152E+03  0.80353148991E+03  0.91781473671E+03  0.91795634628E+02 0.  0.
         23    2    4    4    0    0 -0.38915266962E+03  0.58455928440E+03  0.12574099581E+04  0.14430410930E+04  0.90213281475E+02 0.  0.
          4    1    3    3  502    0  0.23217584619E+02 -0.38602244811E+03 -0.87417914722E+02  0.39647733667E+03  0.00000000000E+00 0. -1.
         -3    1    3    3    0  502 -0.47189483890E+02 -0.33128730781E+03 -0.93615525813E+02  0.34747948771E+03  0.00000000000E+00 0.  1.
         11    1    5    5    0    0  0.37086255124E+02  0.32554007038E+02  0.14172001306E+03  0.15006570493E+03  0.00000000000E+00 0. -1.
        -11    1    5    5    0    0  0.37603831377E+03  0.10019646448E+03  0.66181147684E+03  0.76774903178E+03  0.00000000000E+00 0.  1.
          2    1    6    6  503    0 -0.15810011249E+03  0.19633479147E+03  0.37747689699E+03  0.45390726329E+03  0.00000000000E+00 0. -1.
         -2    1    6    6    0  503 -0.23105255714E+03  0.38822449293E+03  0.87993306107E+03  0.98913382969E+03  0.00000000000E+00 0.  1.
<mgrwt>
<rscale>  0 0.24709932E+04</rscale>
<asrwt>0</asrwt>
<pdfrwt beam="1">  1        2 0.38344005E+00 0.24709932E+04</pdfrwt>
<pdfrwt beam="2">  1       -1 0.94223435E-01 0.24709932E+04</pdfrwt>
<totfact> 0.38998261E+00</totfact>
</mgrwt>
</event>
<event>
12    6  0.1403409E-007  0.5217458E+04  0.7818608E-02  0.7795811E-01
          2   -1    0    0  501    0  0.00000000000E+00  0.00000000000E+00  0.36378492328E+04  0.36378492328E+04  0.00000000000E+00 0. -1.
         -1   -1    0    0    0  501 -0.00000000000E+00 -0.00000000000E+00 -0.18707394669E+04  0.18707394669E+04  0.00000000000E+00 0.  1.
         24    2    1    2    0    0 -0.22460903771E+04 -0.11601528602E+04  0.73668144831E+03  0.26343054881E+04  0.77389966869E+02 0.  0.
        254    2    1    2    0    0  0.22460903771E+04  0.11601528602E+04  0.10304283176E+04  0.28742832116E+04  0.89935800516E+03 0.  0.
         23    2    4    4    0    0  0.22329421864E+04  0.12001000993E+04  0.86292513205E+03  0.26794770915E+04  0.93202169500E+02 0.  0.
         23    2    4    4    0    0  0.13148190729E+02 -0.39947239102E+02  0.16750318551E+03  0.19480612003E+03  0.90130185934E+02 0.  0.
          4    1    3    3  502    0 -0.52605078863E+03 -0.30707854098E+03  0.16663858696E+03  0.63150224165E+03  0.00000000000E+00 0. -1.
         -3    1    3    3    0  502 -0.17200395885E+04 -0.85307431924E+03  0.57004286135E+03  0.20028032464E+04  0.00000000000E+00 0.  1.
         11    1    5    5    0    0  0.21366598032E+04  0.11258171380E+04  0.82171940939E+03  0.25510786210E+04  0.00000000000E+00 0.  1.
        -11    1    5    5    0    0  0.96282383230E+02  0.74282961275E+02  0.41205722666E+02  0.12839847054E+03  0.00000000000E+00 0. -1.
          2    1    6    6  503    0  0.32121023224E+02 -0.54131771964E+02  0.15650494333E+03  0.16868848851E+03  0.00000000000E+00 0. -1.
         -2    1    6    6    0  503 -0.18972832495E+02  0.14184532862E+02  0.10998242174E+02  0.26117631522E+02  0.00000000000E+00 0.  1.
<mgrwt>
<rscale>  0 0.52174584E+04</rscale>
<asrwt>0</asrwt>
<pdfrwt beam="1">  1        2 0.55966911E+00 0.52174584E+04</pdfrwt>
<pdfrwt beam="2">  1       -1 0.28780607E+00 0.52174584E+04</pdfrwt>
<totfact> 0.20816908E-02</totfact>
</mgrwt>
</event>
<event>
12    6  0.1403409E-007  0.2105915E+04  0.7818608E-02  0.8558642E-01
         -1   -1    0    0    0  501 -0.00000000000E+00  0.00000000000E+00  0.68058269176E+03  0.68058269176E+03  0.00000000000E+00 0.  1.
          2   -1    0    0  501    0  0.00000000000E+00 -0.00000000000E+00 -0.16290740007E+04  0.16290740007E+04  0.00000000000E+00 0. -1.
         24    2    1    2    0    0  0.61753829023E+02  0.79712751435E+03 -0.73281388535E+03  0.10874865673E+04  0.79906407651E+02 0.  0.
        254    2    1    2    0    0 -0.61753829023E+02 -0.79712751435E+03 -0.21567742358E+03  0.12221701251E+04  0.89886442482E+03 0.  0.
         23    2    4    4    0    0  0.19474585822E+03 -0.30523650810E+02 -0.33569219951E+03  0.39981794654E+03  0.91145460694E+02 0.  0.
         23    2    4    4    0    0 -0.25649968724E+03 -0.76660386354E+03  0.12001477594E+03  0.82235217860E+03  0.91575029640E+02 0.  0.
          2    1    3    3  502    0  0.32339165496E+02  0.47428023875E+03 -0.38224279006E+03  0.60999763692E+03  0.00000000000E+00 0. -1.
         -1    1    3    3    0  502  0.29414663527E+02  0.32284727560E+03 -0.35057109529E+03  0.47748893039E+03  0.00000000000E+00 0.  1.
         11    1    5    5    0    0  0.14568170488E+03 -0.39724151269E+01 -0.16452802344E+03  0.21979174169E+03  0.00000000000E+00 0. -1.
        -11    1    5    5    0    0  0.49064153340E+02 -0.26551235683E+02 -0.17116417608E+03  0.18002620485E+03  0.00000000000E+00 0.  1.
          4    1    6    6  503    0 -0.23460542887E+03 -0.58026643235E+03  0.89368698369E+02  0.63224647410E+03  0.00000000000E+00 0. -1.
         -4    1    6    6    0  503 -0.21894258379E+02 -0.18633743119E+03  0.30646077568E+02  0.19010570450E+03  0.00000000000E+00 0.  1.
<mgrwt>
<rscale>  0 0.21059151E+04</rscale>
<asrwt>0</asrwt>
<pdfrwt beam="1">  1        2 0.25062677E+00 0.21059151E+04</pdfrwt>
<pdfrwt beam="2">  1       -1 0.10470503E+00 0.21059151E+04</pdfrwt>
<totfact> 0.96577894E+00</totfact>
</mgrwt>
</event>
<event>
12    6  0.1403409E-007  0.2916202E+04  0.7818608E-02  0.8268073E-01
          2   -1    0    0  501    0  0.00000000000E+00  0.00000000000E+00  0.29875646908E+04  0.29875646908E+04  0.00000000000E+00 0. -1.
         -1   -1    0    0    0  501 -0.00000000000E+00 -0.00000000000E+00 -0.71163599841E+03  0.71163599841E+03  0.00000000000E+00 0.  1.
         24    2    1    2    0    0 -0.91925893740E+03 -0.87217777982E+03  0.14876093797E+04  0.19559036365E+04  0.82742342018E+02 0.  0.
        254    2    1    2    0    0  0.91925893740E+03  0.87217777982E+03  0.78831931269E+03  0.17432970527E+04  0.90105837853E+03 0.  0.
         23    2    4    4    0    0  0.94973204931E+03  0.34860878815E+03  0.44058232853E+03  0.11069834434E+04  0.88207159465E+02 0.  0.
         23    2    4    4    0    0 -0.30473111916E+02  0.52356899167E+03  0.34773698416E+03  0.63631360932E+03  0.94450514383E+02 0.  0.
          4    1    3    3  502    0 -0.72566796111E+03 -0.66420408085E+03  0.11986605757E+04  0.15506605775E+04  0.00000000000E+00 0. -1.
         -3    1    3    3    0  502 -0.19359097629E+03 -0.20797369897E+03  0.28894880393E+03  0.40524305899E+03  0.00000000000E+00 0.  1.
         11    1    5    5    0    0  0.20673817033E+03  0.43215140967E+02  0.11206632414E+03  0.23909638325E+03  0.00000000000E+00 0. -1.
        -11    1    5    5    0    0  0.74299387899E+03  0.30539364718E+03  0.32851600440E+03  0.86788706010E+03  0.00000000000E+00 0.  1.
          2    1    6    6  503    0 -0.47570724194E+02  0.20580977543E+03  0.10384456734E+03  0.23538124740E+03  0.00000000000E+00 0. -1.
         -2    1    6    6    0  503  0.17097612278E+02  0.31775921624E+03  0.24389241682E+03  0.40093236192E+03  0.00000000000E+00 0.  1.
<mgrwt>
<rscale>  0 0.29162020E+04</rscale>
<asrwt>0</asrwt>
<pdfrwt beam="1">  1        2 0.45962533E+00 0.29162020E+04</pdfrwt>
<pdfrwt beam="2">  1       -1 0.10948246E+00 0.29162020E+04</pdfrwt>
<totfact> 0.13391908E+00</totfact>
</mgrwt>
</event>
<event>
12    6  0.1403409E-007  0.2311637E+04  0.7818608E-02  0.8473347E-01
          2   -1    0    0  501    0  0.00000000000E+00  0.00000000000E+00  0.28307227676E+04  0.28307227676E+04  0.00000000000E+00 0. -1.
         -1   -1    0    0    0  501 -0.00000000000E+00 -0.00000000000E+00 -0.47193479029E+03  0.47193479029E+03  0.00000000000E+00 0.  1.
         24    2    1    2    0    0  0.51822469059E+03 -0.76346713554E+03  0.53636611130E+03  0.10703755667E+04  0.81094706763E+02 0.  0.
        254    2    1    2    0    0 -0.51822469059E+03  0.76346713554E+03  0.18224218660E+04  0.22322819912E+04  0.90023471022E+03 0.  0.
         23    2    4    4    0    0 -0.21525161270E+03  0.89661260515E+03  0.14907363298E+04  0.17551303045E+04  0.89107576577E+02 0.  0.
         23    2    4    4    0    0 -0.30297307789E+03 -0.13314546961E+03  0.33168553624E+03  0.47715168674E+03  0.90211059227E+02 0.  0.
          4    1    3    3  502    0  0.34088784154E+03 -0.47970426740E+03  0.29880587507E+03  0.66000428457E+03  0.00000000000E+00 0. -1.
         -1    1    3    3    0  502  0.17733684905E+03 -0.28376286814E+03  0.23756023624E+03  0.41037128214E+03  0.00000000000E+00 0.  1.
         11    1    5    5    0    0 -0.12047251914E+03  0.45192442096E+03  0.67433908787E+03  0.82065980501E+03  0.00000000000E+00 0.  1.
        -11    1    5    5    0    0 -0.94779093558E+02  0.44468818419E+03  0.81639724191E+03  0.93447049944E+03  0.00000000000E+00 0. -1.
          2    1    6    6  503    0 -0.40125772538E+02 -0.27032174994E+02  0.99871144955E+02  0.11097324768E+03  0.00000000000E+00 0.  1.
         -2    1    6    6    0  503 -0.26284730535E+03 -0.10611329462E+03  0.23181439128E+03  0.36617843906E+03  0.00000000000E+00 0. -1.
<mgrwt>
<rscale>  0 0.23116371E+04</rscale>
<asrwt>0</asrwt>
<pdfrwt beam="1">  1        2 0.43549580E+00 0.23116371E+04</pdfrwt>
<pdfrwt beam="2">  1       -1 0.72605354E-01 0.23116371E+04</pdfrwt>
<totfact> 0.43686683E+00</totfact>
</mgrwt>
</event>
<event>
12    6  0.1403409E-007  0.1940074E+04  0.7818608E-02  0.8635162E-01
         -1   -1    0    0    0  501 -0.00000000000E+00  0.00000000000E+00  0.59429962212E+03  0.59429962212E+03  0.00000000000E+00 0.  1.
          2   -1    0    0  501    0  0.00000000000E+00 -0.00000000000E+00 -0.15833291946E+04  0.15833291946E+04  0.00000000000E+00 0. -1.
         24    2    1    2    0    0 -0.14228908089E+02  0.58939645701E+03 -0.92395410782E+03  0.10989592704E+04  0.80185031148E+02 0.  0.
        254    2    1    2    0    0  0.14228908089E+02 -0.58939645701E+03 -0.65075464700E+02  0.10786695464E+04  0.90094535286E+03 0.  0.
         23    2    4    4    0    0 -0.43201394240E+03 -0.24087572122E+03 -0.19651822065E+02  0.50345703804E+03  0.91791260714E+02 0.  0.
         23    2    4    4    0    0  0.44624285048E+03 -0.34852073579E+03 -0.45423642635E+02  0.57521250835E+03  0.90591045735E+02 0.  0.
          2    1    3    3  502    0 -0.97302388114E+01  0.13157126442E+03 -0.27189299325E+03  0.30221097754E+03  0.00000000000E+00 0. -1.
         -1    1    3    3    0  502 -0.44986692772E+01  0.45782519259E+03 -0.65206111457E+03  0.79674829283E+03  0.00000000000E+00 0.  1.
         11    1    5    5    0    0 -0.63287959779E+02 -0.73865845994E+02  0.88336091344E+01  0.97670679878E+02  0.00000000000E+00 0. -1.
        -11    1    5    5    0    0 -0.36872598262E+03 -0.16700987523E+03 -0.28485431200E+02  0.40578635816E+03  0.00000000000E+00 0.  1.
          4    1    6    6  503    0  0.27960374377E+03 -0.16611643308E+03 -0.43649368027E+02  0.32814355121E+03  0.00000000000E+00 0. -1.
         -4    1    6    6    0  503  0.16663910672E+03 -0.18240430271E+03 -0.17742746075E+01  0.24706895714E+03  0.00000000000E+00 0.  1.
<mgrwt>
<rscale>  0 0.19400742E+04</rscale>
<asrwt>0</asrwt>
<pdfrwt beam="1">  1        2 0.24358910E+00 0.19400742E+04</pdfrwt>
<pdfrwt beam="2">  1       -1 0.91430713E-01 0.19400742E+04</pdfrwt>
<totfact> 0.14135265E+01</totfact>
</mgrwt>
</event>
<event>
12    6  0.1403409E-007  0.3245141E+04  0.7818608E-02  0.8176996E-01
          2   -1    0    0  501    0  0.00000000000E+00  0.00000000000E+00  0.13917899527E+04  0.13917899527E+04  0.00000000000E+00 0. -1.
         -1   -1    0    0    0  501 -0.00000000000E+00 -0.00000000000E+00 -0.18916181200E+04  0.18916181200E+04  0.00000000000E+00 0.  1.
         24    2    1    2    0    0 -0.72951812497E+03  0.10878133068E+04 -0.96366317617E+03  0.16279309603E+04  0.77317587751E+02 0.  0.
        254    2    1    2    0    0  0.72951812497E+03 -0.10878133068E+04  0.46383500884E+03  0.16554771124E+04  0.89995948187E+03 0.  0.
         23    2    4    4    0    0  0.76729897451E+03 -0.97256203379E+03  0.66188387233E+03  0.14074440087E+04  0.90464088372E+02 0.  0.
         23    2    4    4    0    0 -0.37780849542E+02 -0.11525127301E+03 -0.19804886348E+03  0.24803310368E+03  0.87102351688E+02 0.  0.
          4    1    3    3  502    0 -0.34208870976E+03  0.57625020098E+03 -0.50675921909E+03  0.84017491370E+03  0.00000000000E+00 0. -1.
         -3    1    3    3    0  502 -0.38742941521E+03  0.51156310582E+03 -0.45690395707E+03  0.78775604662E+03  0.00000000000E+00 0.  1.
         11    1    5    5    0    0  0.39353402556E+03 -0.48667530958E+03  0.38489818340E+03  0.73475744148E+03  0.00000000000E+00 0. -1.
        -11    1    5    5    0    0  0.37376494895E+03 -0.48588672420E+03  0.27698568893E+03  0.67268656720E+03  0.00000000000E+00 0.  1.
          1    1    6    6  503    0  0.41960446635E+01 -0.48939189409E+02 -0.19228181523E+02  0.52748213387E+02  0.00000000000E+00 0. -1.
         -1    1    6    6    0  503 -0.41976894206E+02 -0.66312083604E+02 -0.17882068196E+03  0.19528489029E+03  0.00000000000E+00 0.  1.
<mgrwt>
<rscale>  0 0.32451410E+04</rscale>
<asrwt>0</asrwt>
<pdfrwt beam="1">  1        2 0.21412153E+00 0.32451410E+04</pdfrwt>
<pdfrwt beam="2">  1       -1 0.29101817E+00 0.32451410E+04</pdfrwt>
<totfact> 0.52768342E-01</totfact>
</mgrwt>
</event>
<event>
12    6  0.1403409E-007  0.1638268E+04  0.7818608E-02  0.8797377E-01
          2   -1    0    0  501    0  0.00000000000E+00  0.00000000000E+00  0.28334567716E+04  0.28334567716E+04  0.00000000000E+00 0. -1.
         -1   -1    0    0    0  501 -0.00000000000E+00 -0.00000000000E+00 -0.23680633916E+03  0.23680633916E+03  0.00000000000E+00 0.  1.
         24    2    1    2    0    0 -0.53336495043E+03  0.19791971014E+03  0.95604242485E+03  0.11154183742E+04  0.80564566129E+02 0.  0.
        254    2    1    2    0    0  0.53336495043E+03 -0.19791971014E+03  0.16406080075E+04  0.19548447365E+04  0.89787133131E+03 0.  0.
         23    2    4    4    0    0  0.33679554818E+03 -0.54115779135E+03  0.11514129055E+04  0.13192459379E+04  0.91515950873E+02 0.  0.
         23    2    4    4    0    0  0.19656940225E+03  0.34323808121E+03  0.48919510204E+03  0.63559879865E+03  0.90675656594E+02 0.  0.
          4    1    3    3  502    0 -0.24076712488E+03  0.97548161474E+02  0.51364753479E+03  0.57560250367E+03  0.00000000000E+00 0. -1.
         -3    1    3    3    0  502 -0.29259782555E+03  0.10037154867E+03  0.44239489006E+03  0.53981587051E+03  0.00000000000E+00 0.  1.
         11    1    5    5    0    0  0.36796611467E+01  0.10120914997E+01  0.26958879839E+02  0.27227659420E+02  0.00000000000E+00 0.  1.
        -11    1    5    5    0    0  0.33311588703E+03 -0.54216988285E+03  0.11244540257E+04  0.12920182785E+04  0.00000000000E+00 0. -1.
          2    1    6    6  503    0  0.38544659358E+02  0.92120239626E+02  0.18761672716E+03  0.21253673947E+03  0.00000000000E+00 0.  1.
         -2    1    6    6    0  503  0.15802474290E+03  0.25111784158E+03  0.30157837488E+03  0.42306205919E+03  0.00000000000E+00 0. -1.
<mgrwt>
<rscale>  0 0.16382680E+04</rscale>
<asrwt>0</asrwt>
<pdfrwt beam="1">  1        2 0.43591640E+00 0.16382680E+04</pdfrwt>
<pdfrwt beam="2">  1       -1 0.36431746E-01 0.16382680E+04</pdfrwt>
<totfact> 0.17416095E+01</totfact>
</mgrwt>
</event>
<event>
12    6  0.1403409E-007  0.1812844E+04  0.7818608E-02  0.8699499E-01
          2   -1    0    0  501    0  0.00000000000E+00  0.00000000000E+00  0.13485709133E+04  0.13485709133E+04  0.00000000000E+00 0. -1.
         -1   -1    0    0    0  501 -0.00000000000E+00 -0.00000000000E+00 -0.60923818971E+03  0.60923818971E+03  0.00000000000E+00 0.  1.
         24    2    1    2    0    0 -0.25892945746E+03 -0.49826611150E+03  0.69402237603E+03  0.89625056918E+03  0.79274475789E+02 0.  0.
        254    2    1    2    0    0  0.25892945746E+03  0.49826611150E+03  0.45310347526E+02  0.10615585338E+04  0.89974435885E+03 0.  0.
         23    2    4    4    0    0 -0.18740682989E+03 -0.10826111760E+03 -0.15125475793E+03  0.27916168979E+03  0.90617094277E+02 0.  0.
         23    2    4    4    0    0  0.44633628735E+03  0.60652722910E+03  0.19656510546E+03  0.78239684401E+03  0.80097564141E+02 0.  0.
          4    1    3    3  502    0 -0.19318255681E+03 -0.35998565193E+03  0.55707819611E+03  0.69082941920E+03  0.00000000000E+00 0. -1.
         -3    1    3    3    0  502 -0.65746900646E+02 -0.13828045958E+03  0.13694417992E+03  0.20542114998E+03  0.00000000000E+00 0.  1.
         11    1    5    5    0    0 -0.55678753316E+02 -0.10344132759E+02 -0.85047801707E+02  0.10217755736E+03  0.00000000000E+00 0.  1.
        -11    1    5    5    0    0 -0.13172807657E+03 -0.97916984841E+02 -0.66206956227E+02  0.17698413243E+03  0.00000000000E+00 0. -1.
          2    1    6    6  503    0  0.13195701757E+03  0.14882480962E+03  0.20869490927E+02  0.19999253511E+03  0.00000000000E+00 0. -1.
         -2    1    6    6    0  503  0.31437926977E+03  0.45770241948E+03  0.17569561453E+03  0.58240430890E+03  0.00000000000E+00 0.  1.
<mgrwt>
<rscale>  0 0.18128441E+04</rscale>
<asrwt>0</asrwt>
<pdfrwt beam="1">  1        2 0.20747245E+00 0.18128441E+04</pdfrwt>
<pdfrwt beam="2">  1       -1 0.93728953E-01 0.18128441E+04</pdfrwt>
<totfact> 0.18379528E+01</totfact>
</mgrwt>
</event>
<event>
12    6  0.1403409E-007  0.1841758E+04  0.7818608E-02  0.8684403E-01
          2   -1    0    0  501    0  0.00000000000E+00  0.00000000000E+00  0.17834320277E+04  0.17834320277E+04  0.00000000000E+00 0. -1.
         -1   -1    0    0    0  501 -0.00000000000E+00 -0.00000000000E+00 -0.47549800478E+03  0.47549800478E+03  0.00000000000E+00 0.  1.
         24    2    1    2    0    0 -0.53063315357E+03 -0.11666519624E+03 -0.35478557117E+02  0.55040078523E+03  0.80622482483E+02 0.  0.
        254    2    1    2    0    0  0.53063315357E+03  0.11666519624E+03  0.13434125800E+04  0.17085292473E+04  0.90505939962E+03 0.  0.
         23    2    4    4    0    0  0.56249309835E+03  0.13831910670E+02  0.27895444960E+03  0.63456609502E+03  0.90932593488E+02 0.  0.
         23    2    4    4    0    0 -0.31859944774E+02  0.10283328557E+03  0.10644581304E+04  0.10739631522E+04  0.93466572637E+02 0.  0.
          4    1    3    3  502    0 -0.29256499864E+03 -0.23794648066E+02 -0.26066632435E+02  0.29468616023E+03  0.00000000000E+00 0. -1.
         -3    1    3    3    0  502 -0.23806815494E+03 -0.92870548176E+02 -0.94119246813E+01  0.25571462500E+03  0.00000000000E+00 0.  1.
         11    1    5    5    0    0  0.33097235544E+03  0.30991648499E+02  0.20662460307E+03  0.39140376715E+03  0.00000000000E+00 0.  1.
        -11    1    5    5    0    0  0.23152074291E+03 -0.17159737828E+02  0.72329846527E+02  0.24316232787E+03  0.00000000000E+00 0. -1.
          4    1    6    6  503    0 -0.31681346996E+02  0.10094641398E+03  0.58432183412E+03  0.59382311514E+03  0.00000000000E+00 0.  1.
         -4    1    6    6    0  503 -0.17859777815E+00  0.18868715918E+01  0.48013629631E+03  0.48014003709E+03  0.00000000000E+00 0. -1.
<mgrwt>
<rscale>  0 0.18417583E+04</rscale>
<asrwt>0</asrwt>
<pdfrwt beam="1">  1        2 0.27437416E+00 0.18417583E+04</pdfrwt>
<pdfrwt beam="2">  1       -1 0.73153540E-01 0.18417583E+04</pdfrwt>
<totfact> 0.17788319E+01</totfact>
</mgrwt>
</event>
<event>
12    6  0.1403409E-007  0.1638080E+04  0.7818608E-02  0.8797489E-01
          2   -1    0    0  501    0  0.00000000000E+00  0.00000000000E+00  0.71344486722E+03  0.71344486722E+03  0.00000000000E+00 0. -1.
         -1   -1    0    0    0  501 -0.00000000000E+00 -0.00000000000E+00 -0.94026454177E+03  0.94026454177E+03  0.00000000000E+00 0.  1.
         24    2    1    2    0    0  0.36565928266E+02  0.50035163003E+03  0.18697301791E+03  0.54277500392E+03  0.89201875945E+02 0.  0.
        254    2    1    2    0    0 -0.36565928266E+02 -0.50035163003E+03 -0.41379269246E+03  0.11109344051E+04  0.90070086002E+03 0.  0.
         23    2    4    4    0    0  0.38322313966E+03 -0.13526872092E+03 -0.91429316348E+01  0.41651969998E+03  0.90815558340E+02 0.  0.
         23    2    4    4    0    0 -0.41978906793E+03 -0.36508290911E+03 -0.40464976082E+03  0.69441470509E+03  0.94667637719E+02 0.  0.
          2    1    3    3  502    0  0.37236813699E+02  0.21526264683E+03  0.12259152490E+03  0.25050602666E+03  0.00000000000E+00 0. -1.
         -1    1    3    3    0  502 -0.67088543301E+00  0.28508898320E+03  0.64381493015E+02  0.29226897726E+03  0.00000000000E+00 0.  1.
         11    1    5    5    0    0  0.39315548662E+02 -0.44976044027E+02 -0.12069316487E+02  0.60944444402E+02  0.00000000000E+00 0.  1.
        -11    1    5    5    0    0  0.34390759100E+03 -0.90292676894E+02  0.29263848526E+01  0.35557525558E+03  0.00000000000E+00 0. -1.
          1    1    6    6  503    0 -0.38883075639E+03 -0.33669381414E+03 -0.33743341333E+03  0.61515314356E+03  0.00000000000E+00 0. -1.
         -1    1    6    6    0  503 -0.30958311542E+02 -0.28389094970E+02 -0.67216347489E+02  0.79261561532E+02  0.00000000000E+00 0.  1.
<mgrwt>
<rscale>  0 0.16380805E+04</rscale>
<asrwt>0</asrwt>
<pdfrwt beam="1">  1        2 0.10976075E+00 0.16380805E+04</pdfrwt>
<pdfrwt beam="2">  1       -1 0.14465608E+00 0.16380805E+04</pdfrwt>
<totfact> 0.16792144E+01</totfact>
</mgrwt>
</event>
<event>
12    6  0.1403409E-007  0.2034696E+04  0.7818608E-02  0.8590569E-01
          2   -1    0    0  501    0  0.00000000000E+00  0.00000000000E+00  0.86791351729E+03  0.86791351729E+03  0.00000000000E+00 0. -1.
         -1   -1    0    0    0  501 -0.00000000000E+00 -0.00000000000E+00 -0.11925112895E+04  0.11925112895E+04  0.00000000000E+00 0.  1.
         24    2    1    2    0    0 -0.12030839191E+03  0.80067716191E+03 -0.27540108668E+02  0.81413737092E+03  0.80642261708E+02 0.  0.
        254    2    1    2    0    0  0.12030839191E+03 -0.80067716191E+03 -0.29705766358E+03  0.12462874359E+04  0.89968388374E+03 0.  0.
         23    2    4    4    0    0  0.44316139263E+03 -0.14890161994E+03 -0.13108010492E+03  0.49407443839E+03  0.91454056329E+02 0.  0.
         23    2    4    4    0    0 -0.32285300072E+03 -0.65177554197E+03 -0.16597755866E+03  0.75221299753E+03  0.96075108584E+02 0.  0.
          2    1    3    3  502    0 -0.38960830249E+02  0.40828317905E+03 -0.47644464148E+02  0.41289598637E+03  0.00000000000E+00 0. -1.
         -1    1    3    3    0  502 -0.81347561663E+02  0.39239398285E+03  0.20104355480E+02  0.40124138455E+03  0.00000000000E+00 0.  1.
         11    1    5    5    0    0  0.29893131936E+02  0.12813186280E+02 -0.69253503278E+01  0.33252632328E+02  0.00000000000E+00 0. -1.
        -11    1    5    5    0    0  0.41326826070E+03 -0.16171480622E+03 -0.12415475460E+03  0.46082180606E+03  0.00000000000E+00 0.  1.
          4    1    6    6  503    0 -0.28496669365E+01 -0.67044010543E+02 -0.15041846847E+02  0.68769739769E+02  0.00000000000E+00 0. -1.
         -4    1    6    6    0  503 -0.32000333379E+03 -0.58473153143E+03 -0.15093571181E+03  0.68344325776E+03  0.00000000000E+00 0.  1.
<mgrwt>
<rscale>  0 0.20346957E+04</rscale>
<asrwt>0</asrwt>
<pdfrwt beam="1">  1        2 0.13352516E+00 0.20346957E+04</pdfrwt>
<pdfrwt beam="2">  1       -1 0.18346328E+00 0.20346957E+04</pdfrwt>
<totfact> 0.64081684E+00</totfact>
</mgrwt>
</event>
<event>
12    6  0.1403409E-007  0.1765162E+04  0.7818608E-02  0.8725048E-01
          2   -1    0    0  501    0  0.00000000000E+00  0.00000000000E+00  0.25027978181E+04  0.25027978181E+04  0.00000000000E+00 0. -1.
         -1   -1    0    0    0  501 -0.00000000000E+00 -0.00000000000E+00 -0.31123136099E+03  0.31123136099E+03  0.00000000000E+00 0.  1.
         24    2    1    2    0    0 -0.55255235959E+03 -0.28665533694E+03  0.51635492479E+03  0.81279117609E+03  0.80757013863E+02 0.  0.
        254    2    1    2    0    0  0.55255235959E+03  0.28665533694E+03  0.16752115323E+04  0.20012380030E+04  0.90063004299E+03 0.  0.
         23    2    4    4    0    0 -0.14798720849E+03 -0.14299325504E+03  0.16170775275E+03  0.27658595961E+03  0.89460107800E+02 0.  0.
         23    2    4    4    0    0  0.70053956809E+03  0.42964859198E+03  0.15135037795E+04  0.17246520434E+04  0.91528033797E+02 0.  0.
          2    1    3    3  502    0 -0.38365112646E+03 -0.20890341991E+03  0.31400617610E+03  0.53798578449E+03  0.00000000000E+00 0. -1.
         -1    1    3    3    0  502 -0.16890123313E+03 -0.77751917024E+02  0.20234874870E+03  0.27480539160E+03  0.00000000000E+00 0.  1.
         11    1    5    5    0    0 -0.12994397119E+03 -0.78536698563E+02  0.13915232182E+03  0.20595343488E+03  0.00000000000E+00 0. -1.
        -11    1    5    5    0    0 -0.18043237303E+02 -0.64456556478E+02  0.22555430931E+02  0.70632524731E+02  0.00000000000E+00 0.  1.
          3    1    6    6  503    0  0.43860323762E+03  0.23080594292E+03  0.84469389447E+03  0.97936303723E+03  0.00000000000E+00 0. -1.
         -3    1    6    6    0  503  0.26193633046E+03  0.19884264906E+03  0.66880988508E+03  0.74528900615E+03  0.00000000000E+00 0.  1.
<mgrwt>
<rscale>  0 0.17651619E+04</rscale>
<asrwt>0</asrwt>
<pdfrwt beam="1">  1        2 0.38504581E+00 0.17651619E+04</pdfrwt>
<pdfrwt beam="2">  1       -1 0.47881749E-01 0.17651619E+04</pdfrwt>
<totfact> 0.16313158E+01</totfact>
</mgrwt>
</event>
<event>
12    6  0.1403409E-007  0.1969099E+04  0.7818608E-02  0.8621206E-01
          2   -1    0    0  501    0  0.00000000000E+00  0.00000000000E+00  0.21094961223E+04  0.21094961223E+04  0.00000000000E+00 0. -1.
         -1   -1    0    0    0  501 -0.00000000000E+00 -0.00000000000E+00 -0.45951133395E+03  0.45951133395E+03  0.00000000000E+00 0.  1.
         24    2    1    2    0    0 -0.20211639908E+03 -0.58695261372E+03  0.47203585812E+02  0.62784521310E+03  0.81222063282E+02 0.  0.
        254    2    1    2    0    0  0.20211639908E+03  0.58695261372E+03  0.16027812025E+04  0.19411622432E+04  0.90213017991E+03 0.  0.
         23    2    4    4    0    0  0.32091465982E+03 -0.60239742259E+02  0.95481773503E+03  0.10132275360E+04  0.91313127434E+02 0.  0.
         23    2    4    4    0    0 -0.11879826074E+03  0.64719235598E+03  0.64796346752E+03  0.92793470711E+03  0.90747964334E+02 0.  0.
          4    1    3    3  502    0 -0.92343842441E+02 -0.24250639722E+03  0.59084922564E+02  0.26613486432E+03  0.00000000000E+00 0. -1.
         -3    1    3    3    0  502 -0.10977255664E+03 -0.34444621650E+03 -0.11881336752E+02  0.36171034878E+03  0.00000000000E+00 0.  1.
         11    1    5    5    0    0  0.10476938518E+03  0.23070456801E+02  0.31505217484E+03  0.33281638018E+03  0.00000000000E+00 0.  1.
        -11    1    5    5    0    0  0.21614527464E+03 -0.83310199060E+02  0.63976556019E+03  0.68041115586E+03  0.00000000000E+00 0. -1.
          2    1    6    6  503    0 -0.79669718793E+00 -0.25833504281E+01 -0.48349839914E-01  0.27038423680E+01  0.00000000000E+00 0. -1.
         -2    1    6    6    0  503 -0.11800156356E+03  0.64977570641E+03  0.64801181736E+03  0.92523086474E+03  0.00000000000E+00 0.  1.
<mgrwt>
<rscale>  0 0.19690987E+04</rscale>
<asrwt>0</asrwt>
<pdfrwt beam="1">  1        2 0.32453786E+00 0.19690987E+04</pdfrwt>
<pdfrwt beam="2">  1       -1 0.70694053E-01 0.19690987E+04</pdfrwt>
<totfact> 0.12443866E+01</totfact>
</mgrwt>
</event>
<event>
12    6  0.1403409E-007  0.2799074E+04  0.7818608E-02  0.8303556E-01
         -1   -1    0    0    0  501 -0.00000000000E+00  0.00000000000E+00  0.80372957820E+03  0.80372957820E+03  0.00000000000E+00 0.  1.
          2   -1    0    0  501    0  0.00000000000E+00 -0.00000000000E+00 -0.24370177649E+04  0.24370177649E+04  0.00000000000E+00 0. -1.
         24    2    1    2    0    0 -0.16408440180E+03 -0.11034189731E+04 -0.72092755049E+02  0.11207829613E+04  0.80622329381E+02 0.  0.
        254    2    1    2    0    0  0.16408440180E+03  0.11034189731E+04 -0.15611954317E+04  0.21199643818E+04  0.90136600957E+03 0.  0.
         23    2    4    4    0    0  0.39992689011E+03  0.58569516938E+03 -0.13062781754E+04  0.14896018730E+04  0.97830053878E+02 0.  0.
         23    2    4    4    0    0 -0.23584248832E+03  0.51772380369E+03 -0.25491725623E+03  0.63036250884E+03  0.93351319354E+02 0.  0.
          2    1    3    3  502    0 -0.29569932483E+02 -0.46910970873E+03 -0.28501325085E+02  0.47090405101E+03  0.00000000000E+00 0. -1.
         -1    1    3    3    0  502 -0.13451446931E+03 -0.63430926434E+03 -0.43591429964E+02  0.64987891030E+03  0.00000000000E+00 0.  1.
         11    1    5    5    0    0  0.42880829515E+02  0.56462409229E+02 -0.78600709741E+02  0.10585292045E+03  0.00000000000E+00 0. -1.
        -11    1    5    5    0    0  0.35704606060E+03  0.52923276015E+03 -0.12276774657E+04  0.13837489525E+04  0.00000000000E+00 0.  1.
          1    1    6    6  503    0 -0.12694942953E+03  0.17569431149E+03 -0.11229377280E+03  0.24411992986E+03  0.00000000000E+00 0. -1.
         -1    1    6    6    0  503 -0.10889305878E+03  0.34202949220E+03 -0.14262348343E+03  0.38624257898E+03  0.00000000000E+00 0.  1.
<mgrwt>
<rscale>  0 0.27990736E+04</rscale>
<asrwt>0</asrwt>
<pdfrwt beam="1">  1        2 0.37492580E+00 0.27990736E+04</pdfrwt>
<pdfrwt beam="2">  1       -1 0.12365071E+00 0.27990736E+04</pdfrwt>
<totfact> 0.21528424E+00</totfact>
</mgrwt>
</event>
<event>
12    6  0.1403409E-007  0.2007683E+04  0.7818608E-02  0.8603037E-01
         -1   -1    0    0    0  501 -0.00000000000E+00  0.00000000000E+00  0.11094122028E+04  0.11094122028E+04  0.00000000000E+00 0.  1.
          2   -1    0    0  501    0  0.00000000000E+00 -0.00000000000E+00 -0.90831648494E+03  0.90831648494E+03  0.00000000000E+00 0. -1.
         24    2    1    2    0    0 -0.67619905379E+03  0.26530105755E+03 -0.25554632602E+03  0.77429064727E+03  0.81192796583E+02 0.  0.
        254    2    1    2    0    0  0.67619905379E+03 -0.26530105755E+03  0.45664204393E+03  0.12434380405E+04  0.89999244044E+03 0.  0.
         23    2    4    4    0    0  0.73947446174E+03  0.10807391126E+03  0.39272594605E+03  0.84899136973E+03  0.89723059012E+02 0.  0.
         23    2    4    4    0    0 -0.63275407947E+02 -0.37337496881E+03  0.63916097878E+02  0.39444667079E+03  0.89945894544E+02 0.  0.
          4    1    3    3  502    0 -0.17370613438E+03  0.56506727586E+02 -0.10049793228E+03  0.20848660815E+03  0.00000000000E+00 0. -1.
         -3    1    3    3    0  502 -0.50249291941E+03  0.20879432996E+03 -0.15504839374E+03  0.56580403912E+03  0.00000000000E+00 0.  1.
         11    1    5    5    0    0  0.18909747355E+03  0.59384463605E+02  0.77106429331E+02  0.21267291897E+03  0.00000000000E+00 0.  1.
        -11    1    5    5    0    0  0.55037698819E+03  0.48689447656E+02  0.31561951672E+03  0.63631845076E+03  0.00000000000E+00 0. -1.
          2    1    6    6  503    0  0.21890866382E+02 -0.11672225208E+03  0.16263199235E+02  0.11986569906E+03  0.00000000000E+00 0.  1.
         -2    1    6    6    0  503 -0.85166274329E+02 -0.25665271673E+03  0.47652898642E+02  0.27458097173E+03  0.00000000000E+00 0. -1.
<mgrwt>
<rscale>  0 0.20076826E+04</rscale>
<asrwt>0</asrwt>
<pdfrwt beam="1">  1        2 0.13974100E+00 0.20076826E+04</pdfrwt>
<pdfrwt beam="2">  1       -1 0.17067880E+00 0.20076826E+04</pdfrwt>
<totfact> 0.74585579E+00</totfact>
</mgrwt>
</event>
<event>
12    6  0.1403409E-007  0.2508125E+04  0.7818608E-02  0.8400097E-01
         -1   -1    0    0    0  501 -0.00000000000E+00  0.00000000000E+00  0.10830947711E+04  0.10830947711E+04  0.00000000000E+00 0.  1.
          2   -1    0    0  501    0  0.00000000000E+00 -0.00000000000E+00 -0.14520174447E+04  0.14520174447E+04  0.00000000000E+00 0. -1.
         24    2    1    2    0    0 -0.37179271470E+03  0.11497609010E+03 -0.11909994242E+04  0.12553196830E+04  0.76802045259E+02 0.  0.
        254    2    1    2    0    0  0.37179271470E+03 -0.11497609010E+03  0.82207675061E+03  0.12797925328E+04  0.90033850250E+03 0.  0.
         23    2    4    4    0    0  0.12121782425E+03 -0.25593305528E+03  0.91353090076E+03  0.96083614294E+03  0.92042909823E+02 0.  0.
         23    2    4    4    0    0  0.25057489045E+03  0.14095696518E+03 -0.91454150144E+02  0.31895638984E+03  0.10350205449E+03 0.  0.
          4    1    3    3  502    0 -0.64740062750E+02  0.36400120745E+02 -0.31822932369E+03  0.32678149729E+03  0.00000000000E+00 0. -1.
         -3    1    3    3    0  502 -0.30705265195E+03  0.78575969353E+02 -0.87277010050E+03  0.92853818573E+03  0.00000000000E+00 0.  1.
         11    1    5    5    0    0  0.63064765118E+02 -0.18776026912E+03  0.73301633399E+03  0.75930496453E+03  0.00000000000E+00 0. -1.
        -11    1    5    5    0    0  0.58153059131E+02 -0.68172786153E+02  0.18051456676E+03  0.20153117841E+03  0.00000000000E+00 0.  1.
          3    1    6    6  503    0  0.16352785100E+03  0.84468556711E+02 -0.53784396433E+01  0.18413370886E+03  0.00000000000E+00 0. -1.
         -3    1    6    6    0  503  0.87047039454E+02  0.56488408468E+02 -0.86075710501E+02  0.13482268098E+03  0.00000000000E+00 0.  1.
<mgrwt>
<rscale>  0 0.25081248E+04</rscale>
<asrwt>0</asrwt>
<pdfrwt beam="1">  1        2 0.22338730E+00 0.25081248E+04</pdfrwt>
<pdfrwt beam="2">  1       -1 0.16662996E+00 0.25081248E+04</pdfrwt>
<totfact> 0.35757169E+00</totfact>
</mgrwt>
</event>
<event>
12    6  0.1403409E-007  0.1045415E+04  0.7818608E-02  0.9260090E-01
          2   -1    0    0  501    0  0.00000000000E+00  0.00000000000E+00  0.79972808377E+03  0.79972808377E+03  0.00000000000E+00 0. -1.
         -1   -1    0    0    0  501 -0.00000000000E+00 -0.00000000000E+00 -0.34164514579E+03  0.34164514579E+03  0.00000000000E+00 0.  1.
         24    2    1    2    0    0 -0.70194330017E+02  0.23136438565E+02 -0.36098259639E+02  0.11715017793E+03  0.83417870287E+02 0.  0.
        254    2    1    2    0    0  0.70194330017E+02 -0.23136438565E+02  0.49418119762E+03  0.10242230516E+04  0.89406670033E+03 0.  0.
         23    2    4    4    0    0  0.60699806964E+02  0.64038130680E+02 -0.24464345903E+03  0.27471812447E+03  0.88511451895E+02 0.  0.
         23    2    4    4    0    0  0.94945230537E+01 -0.87174569244E+02  0.73882465665E+03  0.74950492716E+03  0.90588139757E+02 0.  0.
          4    1    3    3  502    0 -0.19101924967E+01 -0.16738135031E+02  0.15367377886E+02  0.22802857338E+02  0.00000000000E+00 0. -1.
         -3    1    3    3    0  502 -0.68284137521E+02  0.39874573596E+02 -0.51465637525E+02  0.94347320588E+02  0.00000000000E+00 0.  1.
         11    1    5    5    0    0  0.75397484322E+02  0.34645841181E+02 -0.12054852146E+03  0.14634569000E+03  0.00000000000E+00 0. -1.
        -11    1    5    5    0    0 -0.14697677358E+02  0.29392289498E+02 -0.12409493757E+03  0.12837243447E+03  0.00000000000E+00 0.  1.
          4    1    6    6  503    0 -0.59105831667E+01  0.95842020242E+01  0.13441175767E+02  0.17534455447E+02  0.00000000000E+00 0. -1.
         -4    1    6    6    0  503  0.15405106220E+02 -0.96758771268E+02  0.72538348089E+03  0.73197047171E+03  0.00000000000E+00 0.  1.
<mgrwt>
<rscale>  0 0.10454152E+04</rscale>
<asrwt>0</asrwt>
<pdfrwt beam="1">  1        2 0.12303509E+00 0.10454152E+04</pdfrwt>
<pdfrwt beam="2">  1       -1 0.52560792E-01 0.10454152E+04</pdfrwt>
<totfact> 0.14286030E+02</totfact>
</mgrwt>
</event>
<event>
12    6  0.1403409E-007  0.1698037E+04  0.7818608E-02  0.8762485E-01
         -1   -1    0    0    0  501 -0.00000000000E+00  0.00000000000E+00  0.26605403225E+03  0.26605403225E+03  0.00000000000E+00 0.  1.
          2   -1    0    0  501    0  0.00000000000E+00 -0.00000000000E+00 -0.27093459950E+04  0.27093459950E+04  0.00000000000E+00 0. -1.
         24    2    1    2    0    0  0.59323845661E+03 -0.12170536489E+03 -0.82050743492E+03  0.10229433093E+04  0.80227807449E+02 0.  0.
        254    2    1    2    0    0 -0.59323845661E+03  0.12170536489E+03 -0.16227845279E+04  0.19524567180E+04  0.90106245589E+03 0.  0.
         23    2    4    4    0    0 -0.25740833521E+03  0.87143469661E+02  0.65649483248E+01  0.28604596683E+03  0.89028991072E+02 0.  0.
         23    2    4    4    0    0 -0.33583012140E+03  0.34561895231E+02 -0.16293494762E+04  0.16664107512E+04  0.90380755186E+02 0.  0.
          4    1    3    3  502    0  0.12681596134E+03 -0.52037459824E+02 -0.22279106861E+03  0.26158372565E+03  0.00000000000E+00 0. -1.
         -3    1    3    3    0  502  0.46642249527E+03 -0.69667905067E+02 -0.59771636631E+03  0.76135958367E+03  0.00000000000E+00 0.  1.
         11    1    5    5    0    0 -0.78766817940E+01 -0.28350490797E+01 -0.17800338983E+02  0.19670579231E+02  0.00000000000E+00 0.  1.
        -11    1    5    5    0    0 -0.24953165342E+03  0.89978518741E+02  0.24365287308E+02  0.26637538760E+03  0.00000000000E+00 0. -1.
          1    1    6    6  503    0 -0.49040876324E+02  0.30204913888E+02 -0.18131800865E+03  0.19024606339E+03  0.00000000000E+00 0.  1.
         -1    1    6    6    0  503 -0.28678924507E+03  0.43569813430E+01 -0.14480314675E+04  0.14761646878E+04  0.00000000000E+00 0. -1.
<mgrwt>
<rscale>  0 0.16980370E+04</rscale>
<asrwt>0</asrwt>
<pdfrwt beam="1">  1        2 0.41682246E+00 0.16980370E+04</pdfrwt>
<pdfrwt beam="2">  1       -1 0.40931390E-01 0.16980370E+04</pdfrwt>
<totfact> 0.16633708E+01</totfact>
</mgrwt>
</event>
<event>
12    6  0.1403409E-007  0.1548880E+04  0.7818608E-02  0.8852583E-01
          2   -1    0    0  501    0  0.00000000000E+00  0.00000000000E+00  0.21551948239E+04  0.21551948239E+04  0.00000000000E+00 0. -1.
         -1   -1    0    0    0  501 -0.00000000000E+00 -0.00000000000E+00 -0.27828467920E+03  0.27828467920E+03  0.00000000000E+00 0.  1.
         24    2    1    2    0    0  0.12871295149E+03 -0.46525189791E+03  0.36931915348E+03  0.61296038356E+03  0.79356425728E+02 0.  0.
        254    2    1    2    0    0 -0.12871295149E+03  0.46525189791E+03  0.15075909912E+04  0.18205191196E+04  0.89912897596E+03 0.  0.
         23    2    4    4    0    0 -0.15690517488E+03 -0.11617862558E+03  0.10576420897E+04  0.10793383215E+04  0.90816934595E+02 0.  0.
         23    2    4    4    0    0  0.28192223393E+02  0.58143052348E+03  0.44994890159E+03  0.74118079801E+03  0.89658832267E+02 0.  0.
          4    1    3    3  502    0  0.49934632197E+02 -0.18100464573E+03  0.19323962123E+03  0.26943960451E+03  0.00000000000E+00 0. -1.
         -3    1    3    3    0  502  0.78778319293E+02 -0.28424725218E+03  0.17607953225E+03  0.34352077905E+03  0.00000000000E+00 0.  1.
         11    1    5    5    0    0 -0.46232761592E+02 -0.81277785295E+01  0.44516224228E+03  0.44763037317E+03  0.00000000000E+00 0. -1.
        -11    1    5    5    0    0 -0.11067241329E+03 -0.10805084705E+03  0.61247984737E+03  0.63170794838E+03  0.00000000000E+00 0.  1.
          4    1    6    6  503    0  0.49687849503E+02  0.32965276719E+03  0.29207373932E+03  0.44322330546E+03  0.00000000000E+00 0.  1.
         -4    1    6    6    0  503 -0.21495626110E+02  0.25177775629E+03  0.15787516227E+03  0.29795749255E+03  0.00000000000E+00 0. -1.
<mgrwt>
<rscale>  0 0.15488805E+04</rscale>
<asrwt>0</asrwt>
<pdfrwt beam="1">  1        2 0.33156842E+00 0.15488805E+04</pdfrwt>
<pdfrwt beam="2">  1       -1 0.42813029E-01 0.15488805E+04</pdfrwt>
<totfact> 0.32264360E+01</totfact>
</mgrwt>
</event>
<event>
12    6  0.1403409E-007  0.1540172E+04  0.7818608E-02  0.8858170E-01
          2   -1    0    0  501    0  0.00000000000E+00  0.00000000000E+00  0.10034104974E+04  0.10034104974E+04  0.00000000000E+00 0. -1.
         -1   -1    0    0    0  501 -0.00000000000E+00 -0.00000000000E+00 -0.59101670413E+03  0.59101670413E+03  0.00000000000E+00 0.  1.
         24    2    1    2    0    0 -0.37134156152E+03 -0.29105192900E+03  0.31400522617E+03  0.57231038852E+03  0.79587172661E+02 0.  0.
        254    2    1    2    0    0  0.37134156152E+03  0.29105192900E+03  0.98388567136E+02  0.10221168131E+04  0.90135269939E+03 0.  0.
         23    2    4    4    0    0  0.28386064140E+03  0.51610771892E+03  0.32468169353E+03  0.67900972778E+03  0.93230719380E+02 0.  0.
         23    2    4    4    0    0  0.87480920121E+02 -0.22505578992E+03 -0.22629312640E+03  0.34310708528E+03  0.90613867352E+02 0.  0.
          4    1    3    3  502    0 -0.27888352190E+03 -0.17357930082E+03  0.22771963744E+03  0.39970242148E+03  0.00000000000E+00 0. -1.
         -3    1    3    3    0  502 -0.92458039624E+02 -0.11747262818E+03  0.86285588732E+02  0.17260796704E+03  0.00000000000E+00 0.  1.
         11    1    5    5    0    0  0.10535213299E+03  0.24612487760E+03  0.19077579083E+03  0.32874295379E+03  0.00000000000E+00 0. -1.
        -11    1    5    5    0    0  0.17850850841E+03  0.26998284132E+03  0.13390590270E+03  0.35026677399E+03  0.00000000000E+00 0.  1.
          2    1    6    6  503    0  0.89443381250E+02 -0.15794660303E+03 -0.20233857944E+03  0.27182374544E+03  0.00000000000E+00 0. -1.
         -2    1    6    6    0  503 -0.19624611288E+01 -0.67109186889E+02 -0.23954546956E+02  0.71283339838E+02  0.00000000000E+00 0.  1.
<mgrwt>
<rscale>  0 0.15401719E+04</rscale>
<asrwt>0</asrwt>
<pdfrwt beam="1">  1        2 0.15437085E+00 0.15401719E+04</pdfrwt>
<pdfrwt beam="2">  1       -1 0.90925647E-01 0.15401719E+04</pdfrwt>
<totfact> 0.32533196E+01</totfact>
</mgrwt>
</event>
<event>
12    6  0.1403409E-007  0.4005848E+04  0.7818608E-02  0.8003368E-01
         -1   -1    0    0    0  501 -0.00000000000E+00  0.00000000000E+00  0.24118141158E+04  0.24118141158E+04  0.00000000000E+00 0.  1.
          2   -1    0    0  501    0  0.00000000000E+00 -0.00000000000E+00 -0.16633553141E+04  0.16633553141E+04  0.00000000000E+00 0. -1.
         24    2    1    2    0    0 -0.52978924008E+03  0.18075826140E+04  0.61681608258E+03  0.19835173238E+04  0.76467958850E+02 0.  0.
        254    2    1    2    0    0  0.52978924008E+03 -0.18075826140E+04  0.13164271915E+03  0.20916521062E+04  0.89980396887E+03 0.  0.
         23    2    4    4    0    0  0.24695117027E+03 -0.84485103418E+03  0.50305437670E+03  0.10174570350E+04  0.86005591465E+02 0.  0.
         23    2    4    4    0    0  0.28283806981E+03 -0.96273157982E+03 -0.37141165755E+03  0.10741950711E+04  0.95388484523E+02 0.  0.
          2    1    3    3  502    0 -0.23396387898E+03  0.93350983410E+03  0.31883701672E+03  0.10138228397E+04  0.00000000000E+00 0. -1.
         -1    1    3    3    0  502 -0.29582536110E+03  0.87407277990E+03  0.29797906586E+03  0.96969448411E+03  0.00000000000E+00 0.  1.
         11    1    5    5    0    0  0.95766456238E+02 -0.44434683779E+03  0.22700538175E+03  0.50808145975E+03  0.00000000000E+00 0.  1.
        -11    1    5    5    0    0  0.15118471403E+03 -0.40050419639E+03  0.27604899495E+03  0.50937557528E+03  0.00000000000E+00 0. -1.
          4    1    6    6  503    0  0.17516699423E+03 -0.70655770455E+03 -0.23734472620E+03  0.76566297075E+03  0.00000000000E+00 0. -1.
         -4    1    6    6    0  503  0.10767107558E+03 -0.25617387527E+03 -0.13406693135E+03  0.30853210038E+03  0.00000000000E+00 0.  1.
<mgrwt>
<rscale>  0 0.40058476E+04</rscale>
<asrwt>0</asrwt>
<pdfrwt beam="1">  1        2 0.25590082E+00 0.40058476E+04</pdfrwt>
<pdfrwt beam="2">  1       -1 0.37104833E+00 0.40058476E+04</pdfrwt>
<totfact> 0.10369347E-01</totfact>
</mgrwt>
</event>
<event>
12    6  0.1403409E-007  0.2639183E+04  0.7818608E-02  0.8355012E-01
          2   -1    0    0  501    0  0.00000000000E+00  0.00000000000E+00  0.18535537668E+04  0.18535537668E+04  0.00000000000E+00 0. -1.
         -1   -1    0    0    0  501 -0.00000000000E+00 -0.00000000000E+00 -0.93945009626E+03  0.93945009626E+03  0.00000000000E+00 0.  1.
         24    2    1    2    0    0  0.47103543942E+03  0.10650476026E+04  0.43412806072E+03  0.12453642730E+04  0.79146815397E+02 0.  0.
        254    2    1    2    0    0 -0.47103543942E+03 -0.10650476026E+04  0.47997560980E+03  0.15476395901E+04  0.89922796540E+03 0.  0.
         23    2    4    4    0    0 -0.30185314390E+03 -0.35633617041E+03  0.63832682965E+03  0.79624214895E+03  0.91921877096E+02 0.  0.
         23    2    4    4    0    0 -0.16918229552E+03 -0.70871143217E+03 -0.15835121985E+03  0.75139744111E+03  0.92889517522E+02 0.  0.
          2    1    3    3  502    0  0.25971926108E+03  0.62958335390E+03  0.29102482483E+03  0.74062456262E+03  0.00000000000E+00 0. -1.
         -1    1    3    3    0  502  0.21131617834E+03  0.43546424868E+03  0.14310323589E+03  0.50473971038E+03  0.00000000000E+00 0.  1.
         11    1    5    5    0    0 -0.21970759114E+03 -0.26547769956E+03  0.53300509127E+03  0.63470013541E+03  0.00000000000E+00 0. -1.
        -11    1    5    5    0    0 -0.82145552763E+02 -0.90858470855E+02  0.10532173838E+03  0.16154201355E+03  0.00000000000E+00 0.  1.
          1    1    6    6  503    0 -0.15393729383E+03 -0.45746109881E+03 -0.11110219095E+03  0.49528884925E+03  0.00000000000E+00 0. -1.
         -1    1    6    6    0  503 -0.15245001685E+02 -0.25125033336E+03 -0.47249028902E+02  0.25610859186E+03  0.00000000000E+00 0.  1.
<mgrwt>
<rscale>  0 0.26391826E+04</rscale>
<asrwt>0</asrwt>
<pdfrwt beam="1">  1        2 0.28516212E+00 0.26391826E+04</pdfrwt>
<pdfrwt beam="2">  1       -1 0.14453078E+00 0.26391826E+04</pdfrwt>
<totfact> 0.31160667E+00</totfact>
</mgrwt>
</event>
<event>
12    6  0.1403409E-007  0.1819083E+04  0.7818608E-02  0.8696217E-01
         -1   -1    0    0    0  501 -0.00000000000E+00  0.00000000000E+00  0.42984739603E+03  0.42984739603E+03  0.00000000000E+00 0.  1.
          2   -1    0    0  501    0  0.00000000000E+00 -0.00000000000E+00 -0.19245561280E+04  0.19245561280E+04  0.00000000000E+00 0. -1.
         24    2    1    2    0    0  0.38012235612E+03  0.40380936324E+03 -0.10835756148E+04  0.12209551526E+04  0.95080829436E+02 0.  0.
        254    2    1    2    0    0 -0.38012235612E+03 -0.40380936324E+03 -0.41113311714E+03  0.11334483714E+04  0.89895481714E+03 0.  0.
         23    2    4    4    0    0 -0.16681111834E+03 -0.47142139381E+03 -0.62963843548E+03  0.80913142170E+03  0.90471091545E+02 0.  0.
         23    2    4    4    0    0 -0.21331123778E+03  0.67612030563E+02  0.21850531834E+03  0.32431694974E+03  0.85812813201E+02 0.  0.
          4    1    3    3  502    0  0.31173493787E+03  0.36754747792E+03 -0.97502676974E+03  0.10876336799E+04  0.00000000000E+00 0. -1.
         -1    1    3    3    0  502  0.68387418249E+02  0.36261885325E+02 -0.10854884508E+03  0.13332147265E+03  0.00000000000E+00 0.  1.
         11    1    5    5    0    0 -0.92678802181E+02 -0.33793886827E+03 -0.48864652360E+03  0.60130480132E+03  0.00000000000E+00 0. -1.
        -11    1    5    5    0    0 -0.74132316162E+02 -0.13348252554E+03 -0.14099191188E+03  0.20782662038E+03  0.00000000000E+00 0.  1.
          1    1    6    6  503    0 -0.49386326757E+02 -0.13768032175E+02  0.22010595301E+02  0.55794572192E+02  0.00000000000E+00 0. -1.
         -1    1    6    6    0  503 -0.16392491102E+03  0.81380062738E+02  0.19649472304E+03  0.26852237755E+03  0.00000000000E+00 0.  1.
<mgrwt>
<rscale>  0 0.18190827E+04</rscale>
<asrwt>0</asrwt>
<pdfrwt beam="1">  1        2 0.29608555E+00 0.18190827E+04</pdfrwt>
<pdfrwt beam="2">  1       -1 0.66130370E-01 0.18190827E+04</pdfrwt>
<totfact> 0.18306088E+01</totfact>
</mgrwt>
</event>
<event>
12    6  0.1403409E-007  0.2385965E+04  0.7818608E-02  0.8444777E-01
          2   -1    0    0  501    0  0.00000000000E+00  0.00000000000E+00  0.20466980925E+04  0.20466980925E+04  0.00000000000E+00 0. -1.
         -1   -1    0    0    0  501 -0.00000000000E+00 -0.00000000000E+00 -0.69536773521E+03  0.69536773521E+03  0.00000000000E+00 0.  1.
         24    2    1    2    0    0 -0.53886238888E+03 -0.86160391000E+03  0.69818646038E+03  0.12354530816E+04  0.78396501243E+02 0.  0.
        254    2    1    2    0    0  0.53886238888E+03  0.86160391000E+03  0.65314389695E+03  0.15066127462E+04  0.90030608405E+03 0.  0.
         23    2    4    4    0    0  0.31575908694E+03  0.98176555632E+03  0.33194247469E+03  0.10871326715E+04  0.90023499195E+02 0.  0.
         23    2    4    4    0    0  0.22310330194E+03 -0.12016164632E+03  0.32120142225E+03  0.41948007467E+03  0.92624374787E+02 0.  0.
          4    1    3    3  502    0 -0.47422668849E+03 -0.76352199715E+03  0.64623972144E+03  0.11070151624E+04  0.00000000000E+00 0. -1.
         -3    1    3    3    0  502 -0.64635700392E+02 -0.98081912852E+02  0.51946738941E+02  0.12843791917E+03  0.00000000000E+00 0.  1.
         11    1    5    5    0    0  0.18906738274E+03  0.50890669473E+03  0.13470190929E+03  0.55935418433E+03  0.00000000000E+00 0.  1.
        -11    1    5    5    0    0  0.12669170419E+03  0.47285886159E+03  0.19724056540E+03  0.52777848718E+03  0.00000000000E+00 0. -1.
          3    1    6    6  503    0  0.16030668879E+03 -0.12920487588E+03  0.23480400758E+03  0.31229001969E+03  0.00000000000E+00 0. -1.
         -3    1    6    6    0  503  0.62796613152E+02  0.90432295648E+01  0.86397414670E+02  0.10719005498E+03  0.00000000000E+00 0.  1.
<mgrwt>
<rscale>  0 0.23859655E+04</rscale>
<asrwt>0</asrwt>
<pdfrwt beam="1">  1        2 0.31487663E+00 0.23859655E+04</pdfrwt>
<pdfrwt beam="2">  1       -1 0.10697965E+00 0.23859655E+04</pdfrwt>
<totfact> 0.52532122E+00</totfact>
</mgrwt>
</event>
<event>
12    6  0.1403409E-007  0.1276438E+04  0.7818608E-02  0.9048461E-01
         -1   -1    0    0    0  501 -0.00000000000E+00  0.00000000000E+00  0.35965823332E+03  0.35965823332E+03  0.00000000000E+00 0.  1.
          2   -1    0    0  501    0  0.00000000000E+00 -0.00000000000E+00 -0.11325300987E+04  0.11325300987E+04  0.00000000000E+00 0. -1.
         24    2    1    2    0    0 -0.13005484279E+02  0.28871291536E+03 -0.34091528958E+03  0.45356228712E+03  0.77273692243E+02 0.  0.
        254    2    1    2    0    0  0.13005484279E+02 -0.28871291536E+03 -0.43195657580E+03  0.10386260449E+04  0.89924039479E+03 0.  0.
         23    2    4    4    0    0 -0.37494193699E+03 -0.11355526612E+03  0.31226774274E+02  0.40312669734E+03  0.89776211221E+02 0.  0.
         23    2    4    4    0    0  0.38794742127E+03 -0.17515764924E+03 -0.46318335007E+03  0.63549934755E+03  0.90206436565E+02 0.  0.
          2    1    3    3  502    0 -0.10441013073E+02  0.22397247046E+03 -0.30777846171E+03  0.38078900164E+03  0.00000000000E+00 0. -1.
         -1    1    3    3    0  502 -0.25644712057E+01  0.64740444901E+02 -0.33136827869E+02  0.72773285481E+02  0.00000000000E+00 0.  1.
         11    1    5    5    0    0 -0.12710393190E+03 -0.71460162573E+02 -0.18136685850E+02  0.14693843511E+03  0.00000000000E+00 0.  1.
        -11    1    5    5    0    0 -0.24783800509E+03 -0.42095103547E+02  0.49363460124E+02  0.25618826223E+03  0.00000000000E+00 0. -1.
          2    1    6    6  503    0  0.37622244033E+03 -0.17943871297E+03 -0.46304203314E+03  0.62301645305E+03  0.00000000000E+00 0. -1.
         -2    1    6    6    0  503  0.11724980934E+02  0.42810637270E+01 -0.14131693255E+00  0.12482894497E+02  0.00000000000E+00 0.  1.
<mgrwt>
<rscale>  0 0.12764384E+04</rscale>
<asrwt>0</asrwt>
<pdfrwt beam="1">  1        2 0.17423540E+00 0.12764384E+04</pdfrwt>
<pdfrwt beam="2">  1       -1 0.55332036E-01 0.12764384E+04</pdfrwt>
<totfact> 0.76906450E+01</totfact>
</mgrwt>
</event>
<event>
12    6  0.1403409E-007  0.1746258E+04  0.7818608E-02  0.8735413E-01
          2   -1    0    0  501    0  0.00000000000E+00  0.00000000000E+00  0.21397710631E+04  0.21397710631E+04  0.00000000000E+00 0. -1.
         -1   -1    0    0    0  501 -0.00000000000E+00 -0.00000000000E+00 -0.35627829175E+03  0.35627829175E+03  0.00000000000E+00 0.  1.
         24    2    1    2    0    0 -0.45835205200E+03  0.42110117067E+03  0.86393006607E+03  0.10679072261E+04  0.81473216137E+02 0.  0.
        254    2    1    2    0    0  0.45835205200E+03 -0.42110117067E+03  0.91956270530E+03  0.14281421288E+04  0.89809886512E+03 0.  0.
         23    2    4    4    0    0  0.57458521247E+03  0.32313051817E+02  0.67712186065E+03  0.89310181788E+03  0.89132167166E+02 0.  0.
         23    2    4    4    0    0 -0.11623316047E+03 -0.45341422248E+03  0.24244084465E+03  0.53504031090E+03  0.91629506144E+02 0.  0.
          4    1    3    3  502    0 -0.30714338712E+03  0.24914200064E+03  0.59837865981E+03  0.71726272540E+03  0.00000000000E+00 0. -1.
         -3    1    3    3    0  502 -0.15120866488E+03  0.17195917002E+03  0.26555140627E+03  0.35064450069E+03  0.00000000000E+00 0.  1.
         11    1    5    5    0    0  0.17951986652E+03 -0.18457827378E+02  0.25849932354E+03  0.31526175496E+03  0.00000000000E+00 0. -1.
        -11    1    5    5    0    0  0.39506534595E+03  0.50770879196E+02  0.41862253711E+03  0.57784006292E+03  0.00000000000E+00 0.  1.
          1    1    6    6  503    0 -0.44481380467E+02 -0.87206148794E+02  0.17886129807E+02  0.99515924530E+02  0.00000000000E+00 0. -1.
         -1    1    6    6    0  503 -0.71751780000E+02 -0.36620807369E+03  0.22455471484E+03  0.43552438637E+03  0.00000000000E+00 0.  1.
<mgrwt>
<rscale>  0 0.17462577E+04</rscale>
<asrwt>0</asrwt>
<pdfrwt beam="1">  1        2 0.32919554E+00 0.17462577E+04</pdfrwt>
<pdfrwt beam="2">  1       -1 0.54812046E-01 0.17462577E+04</pdfrwt>
<totfact> 0.20277324E+01</totfact>
</mgrwt>
</event>
<event>
12    6  0.1403409E-007  0.4126316E+04  0.7818608E-02  0.7979538E-01
         -1   -1    0    0    0  501 -0.00000000000E+00  0.00000000000E+00  0.17619469132E+04  0.17619469132E+04  0.00000000000E+00 0.  1.
          2   -1    0    0  501    0  0.00000000000E+00 -0.00000000000E+00 -0.24158621474E+04  0.24158621474E+04  0.00000000000E+00 0. -1.
         24    2    1    2    0    0 -0.88578647078E+03  0.17506386566E+04 -0.26117995228E+03  0.19810060920E+04  0.82563862155E+02 0.  0.
        254    2    1    2    0    0  0.88578647078E+03 -0.17506386566E+04 -0.39273528193E+03  0.21968029687E+04  0.90683455142E+03 0.  0.
         23    2    4    4    0    0  0.40195787302E+03 -0.51266134690E+03 -0.54707184947E+03  0.85565631865E+03  0.92023577892E+02 0.  0.
         23    2    4    4    0    0  0.48382859776E+03 -0.12379773097E+04  0.15433656754E+03  0.13411466500E+04  0.90424716791E+02 0.  0.
          4    1    3    3  502    0 -0.24651596162E+03  0.48637686189E+03 -0.11000945094E+03  0.55626850568E+03  0.00000000000E+00 0. -1.
         -3    1    3    3    0  502 -0.63927050916E+03  0.12642617947E+04 -0.15117050134E+03  0.14247375863E+04  0.00000000000E+00 0.  1.
         11    1    5    5    0    0  0.10091756923E+03 -0.99933642737E+02 -0.16515627285E+03  0.21782489112E+03  0.00000000000E+00 0.  1.
        -11    1    5    5    0    0  0.30104030379E+03 -0.41272770416E+03 -0.38191557662E+03  0.63783142754E+03  0.00000000000E+00 0. -1.
          4    1    6    6  503    0  0.35616247724E+02 -0.15024534847E+03 -0.14655071519E+01  0.15441609227E+03  0.00000000000E+00 0.  1.
         -4    1    6    6    0  503  0.44821235004E+03 -0.10877319612E+04  0.15580207469E+03  0.11867305577E+04  0.00000000000E+00 0. -1.
<mgrwt>
<rscale>  0 0.41263160E+04</rscale>
<asrwt>0</asrwt>
<pdfrwt beam="1">  1        2 0.37167110E+00 0.41263160E+04</pdfrwt>
<pdfrwt beam="2">  1       -1 0.27106876E+00 0.41263160E+04</pdfrwt>
<totfact> 0.17575503E-01</totfact>
</mgrwt>
</event>
<event>
12    6  0.1403409E-007  0.3332432E+04  0.7818608E-02  0.8154692E-01
          2   -1    0    0  501    0  0.00000000000E+00  0.00000000000E+00  0.18763520777E+04  0.18763520777E+04  0.00000000000E+00 0. -1.
         -1   -1    0    0    0  501 -0.00000000000E+00 -0.00000000000E+00 -0.14796131959E+04  0.14796131959E+04  0.00000000000E+00 0.  1.
         24    2    1    2    0    0 -0.14905795986E+04 -0.39687667838E+03  0.12613468602E+03  0.15496524084E+04  0.78574741801E+02 0.  0.
        254    2    1    2    0    0  0.14905795986E+04  0.39687667838E+03  0.27060419583E+03  0.18063128652E+04  0.90011160331E+03 0.  0.
         23    2    4    4    0    0  0.10783324812E+04  0.22421000579E+03 -0.23037150032E+03  0.11288140137E+04  0.89883161221E+02 0.  0.
         23    2    4    4    0    0  0.41224711749E+03  0.17266667258E+03  0.50097569615E+03  0.67749885152E+03  0.90920734593E+02 0.  0.
          4    1    3    3  502    0 -0.82512126372E+03 -0.18204400136E+03  0.54612954479E+02  0.84672763807E+03  0.00000000000E+00 0. -1.
         -3    1    3    3    0  502 -0.66545833492E+03 -0.21483267702E+03  0.71521731539E+02  0.70292477031E+03  0.00000000000E+00 0.  1.
         11    1    5    5    0    0  0.96081769856E+03  0.18859430354E+03 -0.23094683146E+03  0.10060193339E+04  0.00000000000E+00 0. -1.
        -11    1    5    5    0    0  0.11751478260E+03  0.35615702256E+02  0.57533113764E+00  0.12279467978E+03  0.00000000000E+00 0.  1.
          1    1    6    6  503    0  0.18560063218E+03  0.10225564017E+03  0.17827698061E+03  0.27692326090E+03  0.00000000000E+00 0. -1.
         -1    1    6    6    0  503  0.22664648531E+03  0.70411032412E+02  0.32269871555E+03  0.40057559063E+03  0.00000000000E+00 0.  1.
<mgrwt>
<rscale>  0 0.33324317E+04</rscale>
<asrwt>0</asrwt>
<pdfrwt beam="1">  1        2 0.28866955E+00 0.33324317E+04</pdfrwt>
<pdfrwt beam="2">  1       -1 0.22763280E+00 0.33324317E+04</pdfrwt>
<totfact> 0.72597814E-01</totfact>
</mgrwt>
</event>
<event>
12    6  0.1403409E-007  0.1826092E+04  0.7818608E-02  0.8692546E-01
          2   -1    0    0  501    0  0.00000000000E+00  0.00000000000E+00  0.48143404863E+03  0.48143404863E+03  0.00000000000E+00 0. -1.
         -1   -1    0    0    0  501 -0.00000000000E+00 -0.00000000000E+00 -0.17316040361E+04  0.17316040361E+04  0.00000000000E+00 0.  1.
         24    2    1    2    0    0  0.50392609675E+03  0.13913753531E+03  0.68491398466E+02  0.53319329163E+03  0.79393008898E+02 0.  0.
        254    2    1    2    0    0 -0.50392609675E+03 -0.13913753531E+03 -0.13186613859E+04  0.16798447931E+04  0.89983882634E+03 0.  0.
         23    2    4    4    0    0 -0.47495789266E+03 -0.42415489643E+03 -0.52182265392E+03  0.82833610468E+03  0.91375293194E+02 0.  0.
         23    2    4    4    0    0 -0.28968204087E+02  0.28501736112E+03 -0.79683873197E+03  0.85150868838E+03  0.89671782758E+02 0.  0.
          4    1    3    3  502    0  0.32329775368E+03  0.12765783537E+03  0.38170715139E+02  0.34967837216E+03  0.00000000000E+00 0. -1.
         -3    1    3    3    0  502  0.18062834307E+03  0.11479699946E+02  0.30320683327E+02  0.18351491947E+03  0.00000000000E+00 0.  1.
         11    1    5    5    0    0 -0.44897540714E+03 -0.41319343190E+03 -0.51695541578E+03  0.79971909461E+03  0.00000000000E+00 0.  1.
        -11    1    5    5    0    0 -0.25982485515E+02 -0.10961464533E+02 -0.48672381468E+01  0.28617010072E+02  0.00000000000E+00 0. -1.
          3    1    6    6  503    0 -0.10912308459E+02  0.11343530897E+03 -0.44895498225E+03  0.46319242641E+03  0.00000000000E+00 0. -1.
         -3    1    6    6    0  503 -0.18055895629E+02  0.17158205215E+03 -0.34788374972E+03  0.38831626196E+03  0.00000000000E+00 0.  1.
<mgrwt>
<rscale>  0 0.18260922E+04</rscale>
<asrwt>0</asrwt>
<pdfrwt beam="1">  1        2 0.74066777E-01 0.18260922E+04</pdfrwt>
<pdfrwt beam="2">  1       -1 0.26640062E+00 0.18260922E+04</pdfrwt>
<totfact> 0.37786246E+00</totfact>
</mgrwt>
</event>
<event>
12    6  0.1403409E-007  0.1508583E+04  0.7818608E-02  0.8878766E-01
          2   -1    0    0  501    0  0.00000000000E+00  0.00000000000E+00  0.49218843526E+03  0.49218843526E+03  0.00000000000E+00 0. -1.
         -1   -1    0    0    0  501 -0.00000000000E+00 -0.00000000000E+00 -0.11559704589E+04  0.11559704589E+04  0.00000000000E+00 0.  1.
         24    2    1    2    0    0 -0.30409690024E+03 -0.18390991871E+03 -0.56879694320E+03  0.67530145130E+03  0.78767408294E+02 0.  0.
        254    2    1    2    0    0  0.30409690024E+03  0.18390991871E+03 -0.94985080480E+02  0.97285744290E+03  0.90062847821E+03 0.  0.
         23    2    4    4    0    0  0.50493274138E+03  0.37362880818E+03 -0.19615141900E+03  0.66439758070E+03  0.91614444506E+02 0.  0.
         23    2    4    4    0    0 -0.20083584114E+03 -0.18971888947E+03  0.10116633852E+03  0.30845986220E+03  0.92652935352E+02 0.  0.
          2    1    3    3  502    0 -0.52456405630E+02 -0.69837330338E+02 -0.15004018741E+03  0.17361159247E+03  0.00000000000E+00 0. -1.
         -1    1    3    3    0  502 -0.25164049461E+03 -0.11407258837E+03 -0.41875675579E+03  0.50168985884E+03  0.00000000000E+00 0.  1.
         11    1    5    5    0    0  0.44797960526E+03  0.34461170407E+03 -0.20201332916E+03  0.60021024522E+03  0.00000000000E+00 0. -1.
        -11    1    5    5    0    0  0.56953136117E+02  0.29017104110E+02  0.58619101603E+01  0.64187335474E+02  0.00000000000E+00 0.  1.
          2    1    6    6  503    0 -0.16368217881E+03 -0.16824254356E+03  0.11755883126E+03  0.26252140471E+03  0.00000000000E+00 0. -1.
         -2    1    6    6    0  503 -0.37153662335E+02 -0.21476345905E+02 -0.16392492737E+02  0.45938457489E+02  0.00000000000E+00 0.  1.
<mgrwt>
<rscale>  0 0.15085825E+04</rscale>
<asrwt>0</asrwt>
<pdfrwt beam="1">  1        2 0.75721298E-01 0.15085825E+04</pdfrwt>
<pdfrwt beam="2">  1       -1 0.17784161E+00 0.15085825E+04</pdfrwt>
<totfact> 0.14932907E+01</totfact>
</mgrwt>
</event>
<event>
12    6  0.1403409E-007  0.2005864E+04  0.7818608E-02  0.8603884E-01
         -1   -1    0    0    0  501 -0.00000000000E+00  0.00000000000E+00  0.98051580988E+03  0.98051580988E+03  0.00000000000E+00 0.  1.
          2   -1    0    0  501    0  0.00000000000E+00 -0.00000000000E+00 -0.10258605296E+04  0.10258605296E+04  0.00000000000E+00 0. -1.
         24    2    1    2    0    0 -0.45539341118E+03  0.61340470925E+01 -0.67566692532E+03  0.81873168929E+03  0.79843594492E+02 0.  0.
        254    2    1    2    0    0  0.45539341118E+03 -0.61340470925E+01  0.63032220561E+03  0.11876446502E+04  0.89764856530E+03 0.  0.
         23    2    4    4    0    0  0.63711470747E+03  0.22284203371E+03  0.32206979421E+03  0.75338740676E+03  0.91048942125E+02 0.  0.
         23    2    4    4    0    0 -0.18172129629E+03 -0.22897608081E+03  0.30825241140E+03  0.43425724343E+03  0.90039598131E+02 0.  0.
          2    1    3    3  502    0 -0.42254407897E+03  0.26852697614E+02 -0.62444405047E+03  0.75445008994E+03  0.00000000000E+00 0. -1.
         -1    1    3    3    0  502 -0.32849332212E+02 -0.20718650521E+02 -0.51222874858E+02  0.64281599349E+02  0.00000000000E+00 0.  1.
         11    1    5    5    0    0  0.21227092513E+03  0.12041862227E+03  0.11333537374E+03  0.26908083764E+03  0.00000000000E+00 0.  1.
        -11    1    5    5    0    0  0.42484378235E+03  0.10242341144E+03  0.20873442047E+03  0.48430656913E+03  0.00000000000E+00 0. -1.
          4    1    6    6  503    0 -0.11721990339E+03 -0.91974164154E+02  0.11210737765E+03  0.18646130093E+03  0.00000000000E+00 0. -1.
         -4    1    6    6    0  503 -0.64501392899E+02 -0.13700191665E+03  0.19614503375E+03  0.24779594250E+03  0.00000000000E+00 0.  1.
<mgrwt>
<rscale>  0 0.20058639E+04</rscale>
<asrwt>0</asrwt>
<pdfrwt beam="1">  1        2 0.15782470E+00 0.20058639E+04</pdfrwt>
<pdfrwt beam="2">  1       -1 0.15084859E+00 0.20058639E+04</pdfrwt>
<totfact> 0.88254706E+00</totfact>
</mgrwt>
</event>
<event>
12    6  0.1403409E-007  0.1688623E+04  0.7818608E-02  0.8767880E-01
          2   -1    0    0  501    0  0.00000000000E+00  0.00000000000E+00  0.31149990540E+04  0.31149990540E+04  0.00000000000E+00 0. -1.
         -1   -1    0    0    0  501 -0.00000000000E+00 -0.00000000000E+00 -0.22884827183E+03  0.22884827183E+03  0.00000000000E+00 0.  1.
         24    2    1    2    0    0 -0.11409996029E+02  0.45736382680E+03  0.26499190230E+03  0.53467114142E+03  0.79628280845E+02 0.  0.
        254    2    1    2    0    0  0.11409996029E+02 -0.45736382680E+03  0.26211588798E+04  0.28091761844E+04  0.90093568219E+03 0.  0.
         23    2    4    4    0    0  0.15733398128E+03  0.22493271366E+03  0.53876627689E+03  0.61106667267E+03  0.88230776932E+02 0.  0.
         23    2    4    4    0    0 -0.14592398525E+03 -0.68229654046E+03  0.20823926029E+04  0.21981095117E+04  0.92217644919E+02 0.  0.
          2    1    3    3  502    0  0.26108748011E+02  0.27159816339E+03  0.18065582711E+03  0.32723654586E+03  0.00000000000E+00 0. -1.
         -1    1    3    3    0  502 -0.37518744039E+02  0.18576566340E+03  0.84336075192E+02  0.20743459555E+03  0.00000000000E+00 0.  1.
         11    1    5    5    0    0 -0.67385696442E+01  0.37084304326E+02  0.53322467090E+02  0.65298847193E+02  0.00000000000E+00 0.  1.
        -11    1    5    5    0    0  0.16407255093E+03  0.18784840934E+03  0.48544380980E+03  0.54576782548E+03  0.00000000000E+00 0. -1.
          4    1    6    6  503    0  0.66941558979E+01 -0.11538137396E+03  0.39074631228E+03  0.40748049492E+03  0.00000000000E+00 0.  1.
         -4    1    6    6    0  503 -0.15261814115E+03 -0.56691516650E+03  0.16916462907E+04  0.17906290168E+04  0.00000000000E+00 0. -1.
<mgrwt>
<rscale>  0 0.16886233E+04</rscale>
<asrwt>0</asrwt>
<pdfrwt beam="1">  1        2 0.47923059E+00 0.16886233E+04</pdfrwt>
<pdfrwt beam="2">  1       -1 0.35207429E-01 0.16886233E+04</pdfrwt>
<totfact> 0.12328431E+01</totfact>
</mgrwt>
</event>
<event>
12    6  0.1403409E-007  0.2054334E+04  0.7818608E-02  0.8581631E-01
         -3   -1    0    0    0  501 -0.00000000000E+00  0.00000000000E+00  0.41237541614E+03  0.41237541614E+03  0.00000000000E+00 0.  1.
          2   -1    0    0  501    0  0.00000000000E+00 -0.00000000000E+00 -0.25585224687E+04  0.25585224687E+04  0.00000000000E+00 0. -1.
         24    2    1    2    0    0  0.14944697369E+03  0.77268483344E+03 -0.49769414867E+03  0.93468382670E+03  0.80982346772E+02 0.  0.
        254    2    1    2    0    0 -0.14944697369E+03 -0.77268483344E+03 -0.16484529039E+04  0.20362140581E+04  0.89966352848E+03 0.  0.
         23    2    4    4    0    0 -0.46008144096E+03 -0.27576442840E+03 -0.11055078853E+04  0.12321194339E+04  0.90827654271E+02 0.  0.
         23    2    4    4    0    0  0.31063446727E+03 -0.49692040504E+03 -0.54294501861E+03  0.80409462421E+03  0.91406839154E+02 0.  0.
          4    1    3    3  502    0  0.24061831966E+02  0.33082018904E+03 -0.19955863826E+03  0.38709768707E+03  0.00000000000E+00 0. -1.
         -3    1    3    3    0  502  0.12538514172E+03  0.44186464441E+03 -0.29813551041E+03  0.54758613962E+03  0.00000000000E+00 0.  1.
         11    1    5    5    0    0 -0.45816157557E+03 -0.27553267236E+03 -0.10659072771E+04  0.11924716375E+04  0.00000000000E+00 0. -1.
        -11    1    5    5    0    0 -0.19198653963E+01 -0.23175604183E+00 -0.39600608211E+02  0.39647796467E+02  0.00000000000E+00 0.  1.
          2    1    6    6  503    0  0.66377713452E+02 -0.18711877692E+03 -0.17657675880E+03  0.26570432678E+03  0.00000000000E+00 0.  1.
         -2    1    6    6    0  503  0.24425675382E+03 -0.30980162812E+03 -0.36636825981E+03  0.53839029743E+03  0.00000000000E+00 0. -1.
<mgrwt>
<rscale>  0 0.20543337E+04</rscale>
<asrwt>0</asrwt>
<pdfrwt beam="1">  1        2 0.39361883E+00 0.20543337E+04</pdfrwt>
<pdfrwt beam="2">  1       -3 0.63442374E-01 0.20543337E+04</pdfrwt>
<totfact> 0.46156442E+00</totfact>
</mgrwt>
</event>
<event>
12    6  0.1403409E-007  0.1563665E+04  0.7818608E-02  0.8843186E-01
         -1   -1    0    0    0  501 -0.00000000000E+00  0.00000000000E+00  0.36403695319E+03  0.36403695319E+03  0.00000000000E+00 0.  1.
          2   -1    0    0  501    0  0.00000000000E+00 -0.00000000000E+00 -0.16791215771E+04  0.16791215771E+04  0.00000000000E+00 0. -1.
         24    2    1    2    0    0  0.22442435730E+03 -0.66214321114E+02 -0.10501373703E+04  0.10789014196E+04  0.80555249752E+02 0.  0.
        254    2    1    2    0    0 -0.22442435730E+03  0.66214321114E+02 -0.26494725355E+03  0.96425711063E+03  0.89713103824E+03 0.  0.
         23    2    4    4    0    0 -0.46135225376E+03 -0.92682567373E+02  0.10214523503E+03  0.48975618664E+03  0.89395262540E+02 0.  0.
         23    2    4    4    0    0  0.23692789647E+03  0.15889688849E+03 -0.36709248859E+03  0.47450092399E+03  0.94927247927E+02 0.  0.
          4    1    3    3  502    0  0.17672911003E+03 -0.46383199984E+02 -0.93532858618E+03  0.95300794524E+03  0.00000000000E+00 0. -1.
         -3    1    3    3    0  502  0.47695247261E+02 -0.19831121130E+02 -0.11480878415E+03  0.12589347440E+03  0.00000000000E+00 0.  1.
         11    1    5    5    0    0 -0.19125580043E+03 -0.69154764221E+02  0.77039527074E+02  0.21747701337E+03  0.00000000000E+00 0.  1.
        -11    1    5    5    0    0 -0.27009645333E+03 -0.23527803152E+02  0.25105707960E+02  0.27227917327E+03  0.00000000000E+00 0. -1.
          4    1    6    6  503    0  0.14004008902E+03  0.49288758324E+02 -0.13805931088E+03  0.20273377013E+03  0.00000000000E+00 0. -1.
         -4    1    6    6    0  503  0.96887807446E+02  0.10960813016E+03 -0.22903317770E+03  0.27176715386E+03  0.00000000000E+00 0.  1.
<mgrwt>
<rscale>  0 0.15636653E+04</rscale>
<asrwt>0</asrwt>
<pdfrwt beam="1">  1        2 0.25832640E+00 0.15636653E+04</pdfrwt>
<pdfrwt beam="2">  1       -1 0.56005684E-01 0.15636653E+04</pdfrwt>
<totfact> 0.35588473E+01</totfact>
</mgrwt>
</event>
<event>
12    6  0.1403409E-007  0.1336271E+04  0.7818608E-02  0.9001286E-01
         -1   -1    0    0    0  501 -0.00000000000E+00  0.00000000000E+00  0.55414849199E+03  0.55414849199E+03  0.00000000000E+00 0.  1.
          2   -1    0    0  501    0  0.00000000000E+00 -0.00000000000E+00 -0.80556990746E+03  0.80556990746E+03  0.00000000000E+00 0. -1.
         24    2    1    2    0    0 -0.14022581162E+03  0.31894875523E+03  0.94968750835E+01  0.35907092047E+03  0.86314243245E+02 0.  0.
        254    2    1    2    0    0  0.14022581162E+03 -0.31894875523E+03 -0.26091829055E+03  0.10006474790E+04  0.90101356047E+03 0.  0.
         23    2    4    4    0    0  0.37259452914E+03 -0.29094267827E+03 -0.47111650333E+03  0.67443253535E+03  0.97129603335E+02 0.  0.
         23    2    4    4    0    0 -0.23236871752E+03 -0.28006076955E+02  0.21019821278E+03  0.32621494363E+03  0.86332725902E+02 0.  0.
          4    1    3    3  502    0 -0.38658016456E+02  0.67265734233E+02 -0.33091200149E+02  0.84345413423E+02  0.00000000000E+00 0. -1.
         -3    1    3    3    0  502 -0.10156779516E+03  0.25168302099E+03  0.42588075233E+02  0.27472550705E+03  0.00000000000E+00 0.  1.
         11    1    5    5    0    0  0.12645224723E+03 -0.85975819750E+02 -0.93368209901E+02  0.17916371014E+03  0.00000000000E+00 0.  1.
        -11    1    5    5    0    0  0.24614228191E+03 -0.20496685852E+03 -0.37774829343E+03  0.49526882521E+03  0.00000000000E+00 0. -1.
          1    1    6    6  503    0 -0.72235186615E+02  0.45533753042E+00  0.12045647915E+03  0.14045601763E+03  0.00000000000E+00 0. -1.
         -1    1    6    6    0  503 -0.16013353091E+03 -0.28461414486E+02  0.89741733630E+02  0.18575892601E+03  0.00000000000E+00 0.  1.
<mgrwt>
<rscale>  0 0.13362715E+04</rscale>
<asrwt>0</asrwt>
<pdfrwt beam="1">  1        2 0.12393383E+00 0.13362715E+04</pdfrwt>
<pdfrwt beam="2">  1       -1 0.85253614E-01 0.13362715E+04</pdfrwt>
<totfact> 0.51841806E+01</totfact>
</mgrwt>
</event>
<event>
12    6  0.1403409E-007  0.4236651E+04  0.7818608E-02  0.7958437E-01
         -1   -1    0    0    0  501 -0.00000000000E+00  0.00000000000E+00  0.84447865493E+03  0.84447865493E+03  0.00000000000E+00 0.  1.
          2   -1    0    0  501    0  0.00000000000E+00 -0.00000000000E+00 -0.53136972722E+04  0.53136972722E+04  0.00000000000E+00 0. -1.
         24    2    1    2    0    0  0.14912301239E+04  0.44748807133E+03 -0.26074103897E+03  0.15817491696E+04  0.99657862896E+02 0.  0.
        254    2    1    2    0    0 -0.14912301239E+04 -0.44748807133E+03 -0.42084775783E+04  0.45764267575E+04  0.89910259895E+03 0.  0.
         23    2    4    4    0    0 -0.12090106366E+03 -0.36010243291E+03 -0.61735087063E+03  0.73066194153E+03  0.91945342191E+02 0.  0.
         23    2    4    4    0    0 -0.13703290603E+04 -0.87385638428E+02 -0.35911267076E+04  0.38457648160E+04  0.90983549143E+02 0.  0.
          2    1    3    3  502    0  0.40363566604E+03  0.97349193769E+02 -0.10794102910E+03  0.42901035208E+03  0.00000000000E+00 0. -1.
         -1    1    3    3    0  502  0.10875944579E+04  0.35013887756E+03 -0.15280000987E+03  0.11527388175E+04  0.00000000000E+00 0.  1.
         11    1    5    5    0    0  0.58850529966E+01 -0.68113545711E+02 -0.15406932289E+03  0.16855694947E+03  0.00000000000E+00 0.  1.
        -11    1    5    5    0    0 -0.12678611666E+03 -0.29198888719E+03 -0.46328154774E+03  0.56210499206E+03  0.00000000000E+00 0. -1.
          1    1    6    6  503    0 -0.11461162054E+04 -0.43258681075E+02 -0.30382485094E+04  0.32475233139E+04  0.00000000000E+00 0. -1.
         -1    1    6    6    0  503 -0.22421285484E+03 -0.44126957353E+02 -0.55287819825E+03  0.59824150202E+03  0.00000000000E+00 0.  1.
<mgrwt>
<rscale>  0 0.42366515E+04</rscale>
<asrwt>0</asrwt>
<pdfrwt beam="1">  1        2 0.81749188E+00 0.42366515E+04</pdfrwt>
<pdfrwt beam="2">  1       -1 0.12991979E+00 0.42366515E+04</pdfrwt>
<totfact> 0.54335698E-03</totfact>
</mgrwt>
</event>
<event>
12    6  0.1403409E-007  0.1237373E+04  0.7818608E-02  0.9080758E-01
          2   -1    0    0  501    0  0.00000000000E+00  0.00000000000E+00  0.73068408872E+03  0.73068408872E+03  0.00000000000E+00 0. -1.
         -1   -1    0    0    0  501 -0.00000000000E+00 -0.00000000000E+00 -0.52385578456E+03  0.52385578456E+03  0.00000000000E+00 0.  1.
         24    2    1    2    0    0  0.26401513502E+03  0.49864076365E+02 -0.30590339527E+02  0.28166469017E+03  0.78796009963E+02 0.  0.
        254    2    1    2    0    0 -0.26401513502E+03 -0.49864076365E+02  0.23741864369E+03  0.97287518311E+03  0.90439377038E+03 0.  0.
         23    2    4    4    0    0  0.14664106177E+03 -0.10661532892E+03 -0.25271850869E+03  0.32428051035E+03  0.91764783021E+02 0.  0.
         23    2    4    4    0    0 -0.41065619679E+03  0.56751252559E+02  0.49013715238E+03  0.64859467276E+03  0.92635871858E+02 0.  0.
          4    1    3    3  502    0  0.19450218505E+03  0.57738876278E+02  0.54598826205E+01  0.20296474605E+03  0.00000000000E+00 0. -1.
         -3    1    3    3    0  502  0.69512949974E+02 -0.78747999126E+01 -0.36050222147E+02  0.78699944121E+02  0.00000000000E+00 0.  1.
         11    1    5    5    0    0  0.96866868589E+02 -0.66215542553E+02 -0.22636600711E+03  0.25496913044E+03  0.00000000000E+00 0. -1.
        -11    1    5    5    0    0  0.49774193177E+02 -0.40399786372E+02 -0.26352501584E+02  0.69311379910E+02  0.00000000000E+00 0.  1.
          3    1    6    6  503    0 -0.39095926814E+03  0.72272458010E+02  0.47446426604E+03  0.61902245297E+03  0.00000000000E+00 0. -1.
         -3    1    6    6    0  503 -0.19696928646E+02 -0.15521205451E+02  0.15672886341E+02  0.29572219785E+02  0.00000000000E+00 0.  1.
<mgrwt>
<rscale>  0 0.12373732E+04</rscale>
<asrwt>0</asrwt>
<pdfrwt beam="1">  1        2 0.11241294E+00 0.12373732E+04</pdfrwt>
<pdfrwt beam="2">  1       -1 0.80593197E-01 0.12373732E+04</pdfrwt>
<totfact> 0.66981436E+01</totfact>
</mgrwt>
</event>
<event>
12    6  0.1403409E-007  0.2343107E+04  0.7818608E-02  0.8461116E-01
         -1   -1    0    0    0  501 -0.00000000000E+00  0.00000000000E+00  0.10544807940E+04  0.10544807940E+04  0.00000000000E+00 0.  1.
          2   -1    0    0  501    0  0.00000000000E+00 -0.00000000000E+00 -0.13016239015E+04  0.13016239015E+04  0.00000000000E+00 0. -1.
         24    2    1    2    0    0  0.64253305739E+03 -0.21786253895E+03  0.62882941359E+03  0.92849329796E+03  0.79753101715E+02 0.  0.
        254    2    1    2    0    0 -0.64253305739E+03  0.21786253895E+03 -0.87597252113E+03  0.14276113975E+04  0.90024087265E+03 0.  0.
         23    2    4    4    0    0 -0.76573497385E+03 -0.76823918851E+02 -0.73395045739E+03  0.10672551716E+04  0.89990903103E+02 0.  0.
         23    2    4    4    0    0  0.12320191645E+03  0.29468645780E+03 -0.14202206374E+03  0.36035622594E+03  0.87564389806E+02 0.  0.
          4    1    3    3  502    0  0.16270290074E+03 -0.62315428746E+02  0.11690329544E+03  0.20981379138E+03  0.00000000000E+00 0. -1.
         -3    1    3    3    0  502  0.47983015666E+03 -0.15554711020E+03  0.51192611815E+03  0.71867950658E+03  0.00000000000E+00 0.  1.
         11    1    5    5    0    0 -0.71740152837E+03 -0.61179753548E+02 -0.65493806063E+03  0.97331997741E+03  0.00000000000E+00 0.  1.
        -11    1    5    5    0    0 -0.48333445477E+02 -0.15644165303E+02 -0.79012396759E+02  0.93935194157E+02  0.00000000000E+00 0. -1.
          4    1    6    6  503    0  0.43985328314E+02  0.15282450445E+03 -0.27051682696E+02  0.16131283831E+03  0.00000000000E+00 0. -1.
         -4    1    6    6    0  503  0.79216588136E+02  0.14186195335E+03 -0.11497038105E+03  0.19904338764E+03  0.00000000000E+00 0.  1.
<mgrwt>
<rscale>  0 0.23431068E+04</rscale>
<asrwt>0</asrwt>
<pdfrwt beam="1">  1        2 0.20024983E+00 0.23431068E+04</pdfrwt>
<pdfrwt beam="2">  1       -1 0.16222782E+00 0.23431068E+04</pdfrwt>
<totfact> 0.47745666E+00</totfact>
</mgrwt>
</event>
<event>
12    6  0.1403409E-007  0.1506661E+04  0.7818608E-02  0.8880036E-01
         -1   -1    0    0    0  501 -0.00000000000E+00  0.00000000000E+00  0.88481282716E+03  0.88481282716E+03  0.00000000000E+00 0.  1.
          2   -1    0    0  501    0  0.00000000000E+00 -0.00000000000E+00 -0.64138603313E+03  0.64138603313E+03  0.00000000000E+00 0. -1.
         24    2    1    2    0    0  0.90727393080E+02  0.46507979208E+03 -0.70106997175E+01  0.48058638181E+03  0.79896480610E+02 0.  0.
        254    2    1    2    0    0 -0.90727393080E+02 -0.46507979208E+03  0.25043749375E+03  0.10456124785E+04  0.89780612830E+03 0.  0.
         23    2    4    4    0    0 -0.22650693155E+03  0.18555231061E+03 -0.46309212967E+02  0.31096267981E+03  0.93905244865E+02 0.  0.
         23    2    4    4    0    0  0.13577953847E+03 -0.65063210269E+03  0.29674670672E+03  0.73464979867E+03  0.99466087773E+02 0.  0.
          4    1    3    3  502    0  0.25724631473E+02  0.14290146579E+03 -0.39050519747E+02  0.15035800172E+03  0.00000000000E+00 0. -1.
         -3    1    3    3    0  502  0.65002761607E+02  0.32217832630E+03  0.32039820029E+02  0.33022838010E+03  0.00000000000E+00 0.  1.
         11    1    5    5    0    0 -0.10558703327E+03  0.14187686551E+03 -0.44572105413E+02  0.18238513959E+03  0.00000000000E+00 0. -1.
        -11    1    5    5    0    0 -0.12091989829E+03  0.43675445096E+02 -0.17371075539E+01  0.12857754022E+03  0.00000000000E+00 0.  1.
          2    1    6    6  503    0  0.18019969557E+02 -0.32127017137E+03  0.15627063025E+03  0.35771462396E+03  0.00000000000E+00 0. -1.
         -2    1    6    6    0  503  0.11775956892E+03 -0.32936193132E+03  0.14047607647E+03  0.37693517471E+03  0.00000000000E+00 0.  1.
<mgrwt>
<rscale>  0 0.15066607E+04</rscale>
<asrwt>0</asrwt>
<pdfrwt beam="1">  1        2 0.98674774E-01 0.15066607E+04</pdfrwt>
<pdfrwt beam="2">  1       -1 0.13612505E+00 0.15066607E+04</pdfrwt>
<totfact> 0.22744445E+01</totfact>
</mgrwt>
</event>
<event>
12    6  0.1403409E-007  0.2723077E+04  0.7818608E-02  0.8327556E-01
         -1   -1    0    0    0  501 -0.00000000000E+00  0.00000000000E+00  0.25066380765E+04  0.25066380765E+04  0.00000000000E+00 0.  1.
          2   -1    0    0  501    0  0.00000000000E+00 -0.00000000000E+00 -0.73955124195E+03  0.73955124195E+03  0.00000000000E+00 0. -1.
         24    2    1    2    0    0 -0.93269939859E+03  0.63451295727E+03  0.13141308980E+04  0.17337075381E+04  0.79164066685E+02 0.  0.
        254    2    1    2    0    0  0.93269939859E+03 -0.63451295727E+03  0.45295593660E+03  0.15124817804E+04  0.89994288403E+03 0.  0.
         23    2    4    4    0    0  0.52238343139E+03  0.12743081149E+03  0.32175155322E+03  0.63275249984E+03  0.87912473189E+02 0.  0.
         23    2    4    4    0    0  0.41031596720E+03 -0.76194376876E+03  0.13120438338E+03  0.87972928058E+03  0.88269571177E+02 0.  0.
          4    1    3    3  502    0 -0.57117453638E+03  0.43002095773E+03  0.80533373394E+03  0.10769033374E+04  0.00000000000E+00 0. -1.
         -3    1    3    3    0  502 -0.36152486221E+03  0.20449199955E+03  0.50879716405E+03  0.65680420067E+03  0.00000000000E+00 0.  1.
         11    1    5    5    0    0  0.12014999810E+03  0.85553047588E+01  0.37810517207E+02  0.12624916037E+03  0.00000000000E+00 0.  1.
        -11    1    5    5    0    0  0.40223343329E+03  0.11887550673E+03  0.28394103602E+03  0.50650333946E+03  0.00000000000E+00 0. -1.
          2    1    6    6  503    0  0.39700788192E+03 -0.69743259300E+03  0.10729223160E+03  0.80965369329E+03  0.00000000000E+00 0. -1.
         -2    1    6    6    0  503  0.13308085275E+02 -0.64511175760E+02  0.23912151777E+02  0.70075587291E+02  0.00000000000E+00 0.  1.
<mgrwt>
<rscale>  0 0.27230772E+04</rscale>
<asrwt>0</asrwt>
<pdfrwt beam="1">  1        2 0.11377712E+00 0.27230772E+04</pdfrwt>
<pdfrwt beam="2">  1       -1 0.38563662E+00 0.27230772E+04</pdfrwt>
<totfact> 0.34162871E-01</totfact>
</mgrwt>
</event>
<event>
12    6  0.1403409E-007  0.1261571E+04  0.7818608E-02  0.9060607E-01
         -1   -1    0    0    0  501 -0.00000000000E+00  0.00000000000E+00  0.27102436732E+03  0.27102436732E+03  0.00000000000E+00 0.  1.
          2   -1    0    0  501    0  0.00000000000E+00 -0.00000000000E+00 -0.14680989184E+04  0.14680989184E+04  0.00000000000E+00 0. -1.
         24    2    1    2    0    0  0.85071686510E+01  0.28724957240E+03 -0.42912344222E+03  0.52108289007E+03  0.69251432505E+02 0.  0.
        254    2    1    2    0    0 -0.85071686510E+01 -0.28724957240E+03 -0.76795110886E+03  0.12180403956E+04  0.90071572156E+03 0.  0.
         23    2    4    4    0    0  0.93264078664E+02 -0.82177139415E+02 -0.91723307468E+03  0.93057497050E+03  0.95927012997E+02 0.  0.
         23    2    4    4    0    0 -0.10177124732E+03 -0.20507243298E+03  0.14928196582E+03  0.28746542515E+03  0.89102052667E+02 0.  0.
          4    1    3    3  502    0  0.22653686395E+02  0.91420911988E+02 -0.18680614627E+03  0.20920685682E+03  0.00000000000E+00 0. -1.
         -3    1    3    3    0  502 -0.14146517744E+02  0.19582866041E+03 -0.24231729595E+03  0.31187603325E+03  0.00000000000E+00 0.  1.
         11    1    5    5    0    0 -0.75586038933E+01 -0.43071338063E+02 -0.16892594261E+03  0.17449425991E+03  0.00000000000E+00 0. -1.
        -11    1    5    5    0    0  0.10082268256E+03 -0.39105801352E+02 -0.74830713206E+03  0.75608071058E+03  0.00000000000E+00 0.  1.
          3    1    6    6  503    0 -0.75217370512E+02 -0.70153044159E+02  0.34934596438E+02  0.10862563445E+03  0.00000000000E+00 0. -1.
         -3    1    6    6    0  503 -0.26553876803E+02 -0.13491938882E+03  0.11434736938E+03  0.17883979070E+03  0.00000000000E+00 0.  1.
<mgrwt>
<rscale>  0 0.12615714E+04</rscale>
<asrwt>0</asrwt>
<pdfrwt beam="1">  1        2 0.22586137E+00 0.12615714E+04</pdfrwt>
<pdfrwt beam="2">  1       -1 0.41696057E-01 0.12615714E+04</pdfrwt>
<totfact> 0.83588438E+01</totfact>
</mgrwt>
</event>
<event>
12    6  0.1403409E-007  0.3288606E+04  0.7818608E-02  0.8165801E-01
         -1   -1    0    0    0  501 -0.00000000000E+00  0.00000000000E+00  0.81822628879E+03  0.81822628879E+03  0.00000000000E+00 0.  1.
          2   -1    0    0  501    0  0.00000000000E+00 -0.00000000000E+00 -0.33043829203E+04  0.33043829203E+04  0.00000000000E+00 0. -1.
         24    2    1    2    0    0  0.14153717577E+04 -0.26609541999E+03 -0.17615956995E+04  0.22767776560E+04  0.80081841183E+02 0.  0.
        254    2    1    2    0    0 -0.14153717577E+04  0.26609541999E+03 -0.72456093198E+03  0.18458315531E+04  0.89890021323E+03 0.  0.
         23    2    4    4    0    0 -0.20483773607E+02  0.24646091763E+03  0.14424634958E+02  0.26438252307E+03  0.92344352899E+02 0.  0.
         23    2    4    4    0    0 -0.13948879841E+04  0.19634502358E+02 -0.73898556694E+03  0.15814490300E+04  0.93719606801E+02 0.  0.
          4    1    3    3  502    0  0.97163528426E+03 -0.17506129580E+03 -0.12640940445E+04  0.16039499170E+04  0.00000000000E+00 0. -1.
         -3    1    3    3    0  502  0.44373647340E+03 -0.91034124184E+02 -0.49750165499E+03  0.67282773896E+03  0.00000000000E+00 0.  1.
         11    1    5    5    0    0 -0.98597869681E+01  0.75283840982E+02 -0.38185553567E+02  0.84988285153E+02  0.00000000000E+00 0. -1.
        -11    1    5    5    0    0 -0.10623986639E+02  0.17117707665E+03  0.52610188526E+02  0.17939423792E+03  0.00000000000E+00 0.  1.
          3    1    6    6  503    0 -0.48689931319E+02  0.82476842972E+01 -0.95877376002E+01  0.50305649985E+02  0.00000000000E+00 0. -1.
         -3    1    6    6    0  503 -0.13461980527E+04  0.11386818061E+02 -0.72939782934E+03  0.15311433800E+04  0.00000000000E+00 0.  1.
<mgrwt>
<rscale>  0 0.32886064E+04</rscale>
<asrwt>0</asrwt>
<pdfrwt beam="1">  1        2 0.50836661E+00 0.32886064E+04</pdfrwt>
<pdfrwt beam="2">  1       -1 0.12588097E+00 0.32886064E+04</pdfrwt>
<totfact> 0.57689245E-01</totfact>
</mgrwt>
</event>
<event>
12    6  0.1403409E-007  0.1789587E+04  0.7818608E-02  0.8711856E-01
         -1   -1    0    0    0  501 -0.00000000000E+00  0.00000000000E+00  0.27564870310E+03  0.27564870310E+03  0.00000000000E+00 0.  1.
          2   -1    0    0  501    0  0.00000000000E+00 -0.00000000000E+00 -0.29046239802E+04  0.29046239802E+04  0.00000000000E+00 0. -1.
         24    2    1    2    0    0  0.27867635497E+03 -0.48197904665E+03 -0.16212332028E+04  0.17159369124E+04  0.77962024285E+02 0.  0.
        254    2    1    2    0    0 -0.27867635497E+03  0.48197904665E+03 -0.10077420743E+04  0.14643357709E+04  0.90485957442E+03 0.  0.
         23    2    4    4    0    0  0.45500276498E+02  0.62523439253E+03 -0.86388077852E+03  0.10712904377E+04  0.91568999363E+02 0.  0.
         23    2    4    4    0    0 -0.32417663147E+03 -0.14325534588E+03 -0.14386129579E+03  0.39304533322E+03  0.90421120443E+02 0.  0.
          4    1    3    3  502    0  0.15935209305E+03 -0.25863553709E+03 -0.76722779399E+03  0.82518114283E+03  0.00000000000E+00 0. -1.
         -3    1    3    3    0  502  0.11932426192E+03 -0.22334350956E+03 -0.85400540876E+03  0.89075576952E+03  0.00000000000E+00 0.  1.
         11    1    5    5    0    0 -0.14739972952E+02  0.36946702288E+03 -0.53462339855E+03  0.65003486527E+03  0.00000000000E+00 0.  1.
        -11    1    5    5    0    0  0.60240249450E+02  0.25576736966E+03 -0.32925737997E+03  0.42125557243E+03  0.00000000000E+00 0. -1.
          3    1    6    6  503    0 -0.12961901562E+03 -0.29606603929E+02 -0.92435954893E+02  0.16193222645E+03  0.00000000000E+00 0. -1.
         -3    1    6    6    0  503 -0.19455761585E+03 -0.11364874195E+03 -0.51425340901E+02  0.23111310677E+03  0.00000000000E+00 0.  1.
<mgrwt>
<rscale>  0 0.17895875E+04</rscale>
<asrwt>0</asrwt>
<pdfrwt beam="1">  1        2 0.44686521E+00 0.17895875E+04</pdfrwt>
<pdfrwt beam="2">  1       -1 0.42407495E-01 0.17895875E+04</pdfrwt>
<totfact> 0.11781608E+01</totfact>
</mgrwt>
</event>
<event>
12    6  0.1403409E-007  0.1710483E+04  0.7818608E-02  0.8755408E-01
         -1   -1    0    0    0  501 -0.00000000000E+00  0.00000000000E+00  0.24204561397E+03  0.24204561397E+03  0.00000000000E+00 0.  1.
          2   -1    0    0  501    0  0.00000000000E+00 -0.00000000000E+00 -0.30219005441E+04  0.30219005441E+04  0.00000000000E+00 0. -1.
         24    2    1    2    0    0 -0.53160049076E+03 -0.31139380132E+03 -0.10272513759E+04  0.12005193264E+04  0.80225198210E+02 0.  0.
        254    2    1    2    0    0  0.53160049076E+03  0.31139380132E+03 -0.17526035542E+04  0.20634268317E+04  0.89807899996E+03 0.  0.
         23    2    4    4    0    0  0.39664541501E+03 -0.16363073344E+03 -0.13490534898E+04  0.14186781133E+04  0.92734398254E+02 0.  0.
         23    2    4    4    0    0  0.13495507576E+03  0.47502453475E+03 -0.40355006437E+03  0.64474871834E+03  0.94800180728E+02 0.  0.
          4    1    3    3  502    0 -0.16506522789E+03 -0.97304024599E+02 -0.39457447938E+03  0.43863837319E+03  0.00000000000E+00 0. -1.
         -3    1    3    3    0  502 -0.36653526288E+03 -0.21408977672E+03 -0.63267689654E+03  0.76188095319E+03  0.00000000000E+00 0.  1.
         11    1    5    5    0    0  0.16206167274E+03 -0.11673646274E+03 -0.60624440459E+03  0.63829747422E+03  0.00000000000E+00 0. -1.
        -11    1    5    5    0    0  0.23458374227E+03 -0.46894270694E+02 -0.74280908524E+03  0.78038063910E+03  0.00000000000E+00 0.  1.
          3    1    6    6  503    0  0.59222943462E+02  0.25305367717E+03 -0.27043319713E+03  0.37507017300E+03  0.00000000000E+00 0. -1.
         -3    1    6    6    0  503  0.75732132294E+02  0.22197085758E+03 -0.13311686723E+03  0.26967854534E+03  0.00000000000E+00 0.  1.
<mgrwt>
<rscale>  0 0.17104827E+04</rscale>
<asrwt>0</asrwt>
<pdfrwt beam="1">  1        2 0.46490775E+00 0.17104827E+04</pdfrwt>
<pdfrwt beam="2">  1       -1 0.37237789E-01 0.17104827E+04</pdfrwt>
<totfact> 0.12733615E+01</totfact>
</mgrwt>
</event>
<event>
12    6  0.1403409E-007  0.2556372E+04  0.7818608E-02  0.8383173E-01
         -1   -1    0    0    0  501 -0.00000000000E+00  0.00000000000E+00  0.16397200347E+04  0.16397200347E+04  0.00000000000E+00 0.  1.
          2   -1    0    0  501    0  0.00000000000E+00 -0.00000000000E+00 -0.99636497559E+03  0.99636497559E+03  0.00000000000E+00 0. -1.
         24    2    1    2    0    0 -0.10880815527E+04  0.25695085267E+03  0.26719161150E+03  0.11521224444E+04  0.77778939845E+02 0.  0.
        254    2    1    2    0    0  0.10880815527E+04 -0.25695085267E+03  0.37616344762E+03  0.14839625659E+04  0.90038922232E+03 0.  0.
         23    2    4    4    0    0  0.10331639840E+04 -0.45630758267E+03  0.48499901970E+03  0.12323507387E+04  0.88430007505E+02 0.  0.
         23    2    4    4    0    0  0.54917568746E+02  0.19935673000E+03 -0.10883557208E+03  0.25161182724E+03  0.93296756147E+02 0.  0.
          2    1    3    3  502    0 -0.67788223574E+03  0.12232786993E+03  0.15491192030E+03  0.70603550644E+03  0.00000000000E+00 0. -1.
         -1    1    3    3    0  502 -0.41019931698E+03  0.13462298274E+03  0.11227969119E+03  0.44608693793E+03  0.00000000000E+00 0.  1.
         11    1    5    5    0    0  0.10143672458E+04 -0.43463256214E+03  0.46585222235E+03  0.11978583666E+04  0.00000000000E+00 0. -1.
        -11    1    5    5    0    0  0.18796738164E+02 -0.21675020525E+02  0.19146797353E+02  0.34492372043E+02  0.00000000000E+00 0.  1.
          1    1    6    6  503    0  0.20168097446E+02  0.18692223347E+03 -0.10260229822E+03  0.21418194396E+03  0.00000000000E+00 0. -1.
         -1    1    6    6    0  503  0.34749471299E+02  0.12434496531E+02 -0.62332738534E+01  0.37429883282E+02  0.00000000000E+00 0.  1.
<mgrwt>
<rscale>  0 0.25563721E+04</rscale>
<asrwt>0</asrwt>
<pdfrwt beam="1">  1        2 0.15328692E+00 0.25563721E+04</pdfrwt>
<pdfrwt beam="2">  1       -1 0.25226462E+00 0.25563721E+04</pdfrwt>
<totfact> 0.17270123E+00</totfact>
</mgrwt>
</event>
<event>
12    6  0.1403409E-007  0.1234172E+04  0.7818608E-02  0.9083461E-01
          2   -1    0    0  501    0  0.00000000000E+00  0.00000000000E+00  0.14739032103E+04  0.14739032103E+04  0.00000000000E+00 0. -1.
         -1   -1    0    0    0  501 -0.00000000000E+00 -0.00000000000E+00 -0.25835834478E+03  0.25835834478E+03  0.00000000000E+00 0.  1.
         24    2    1    2    0    0  0.21772118179E+03 -0.14814497660E+03  0.15093248199E+03  0.31376288412E+03  0.79480099635E+02 0.  0.
        254    2    1    2    0    0 -0.21772118179E+03  0.14814497660E+03  0.10646123835E+04  0.14184986709E+04  0.89966077232E+03 0.  0.
         23    2    4    4    0    0  0.26838353575E+03 -0.18733700016E+03  0.43112755936E+03  0.54774386539E+03  0.83830160160E+02 0.  0.
         23    2    4    4    0    0 -0.48610471754E+03  0.33548197675E+03  0.63348482414E+03  0.87075480554E+03  0.89805099013E+02 0.  0.
          2    1    3    3  502    0  0.49998059961E+02 -0.59399258896E+02  0.79182649484E+02  0.11089621245E+03  0.00000000000E+00 0. -1.
         -1    1    3    3    0  502  0.16772312183E+03 -0.88745717703E+02  0.71749832507E+02  0.20286667167E+03  0.00000000000E+00 0.  1.
         11    1    5    5    0    0  0.55763707942E+02 -0.48783619013E+01  0.52645062892E+02  0.76843296293E+02  0.00000000000E+00 0. -1.
        -11    1    5    5    0    0  0.21261982781E+03 -0.18245863825E+03  0.37848249647E+03  0.47090056910E+03  0.00000000000E+00 0.  1.
          3    1    6    6  503    0 -0.71202229091E+02  0.33848925647E+02  0.12968651822E+03  0.15176989228E+03  0.00000000000E+00 0. -1.
         -3    1    6    6    0  503 -0.41490248845E+03  0.30163305111E+03  0.50379830592E+03  0.71898491326E+03  0.00000000000E+00 0.  1.
<mgrwt>
<rscale>  0 0.12341721E+04</rscale>
<asrwt>0</asrwt>
<pdfrwt beam="1">  1        2 0.22675433E+00 0.12341721E+04</pdfrwt>
<pdfrwt beam="2">  1       -1 0.39747439E-01 0.12341721E+04</pdfrwt>
<totfact> 0.90748428E+01</totfact>
</mgrwt>
</event>
<event>
12    6  0.1403409E-007  0.1333562E+04  0.7818608E-02  0.9003366E-01
          2   -1    0    0  501    0  0.00000000000E+00  0.00000000000E+00  0.28109648914E+03  0.28109648914E+03  0.00000000000E+00 0. -1.
         -1   -1    0    0    0  501 -0.00000000000E+00 -0.00000000000E+00 -0.15816520415E+04  0.15816520415E+04  0.00000000000E+00 0.  1.
         24    2    1    2    0    0 -0.23662905016E+03  0.18656388304E+03 -0.62009296153E+03  0.69407467175E+03  0.80155967920E+02 0.  0.
        254    2    1    2    0    0  0.23662905016E+03 -0.18656388304E+03 -0.68046259079E+03  0.11686738588E+04  0.90109370270E+03 0.  0.
         23    2    4    4    0    0  0.11473072619E+03  0.30811688238E+03 -0.52881968500E+03  0.62921688691E+03  0.90357505483E+02 0.  0.
         23    2    4    4    0    0  0.12189832397E+03 -0.49468076542E+03 -0.15164290580E+03  0.53945697193E+03  0.91923841465E+02 0.  0.
          2    1    3    3  502    0 -0.12027043398E+03  0.46400118829E+02 -0.23383706414E+03  0.26701633074E+03  0.00000000000E+00 0. -1.
         -1    1    3    3    0  502 -0.11635861618E+03  0.14016376421E+03 -0.38625589739E+03  0.42705834101E+03  0.00000000000E+00 0.  1.
         11    1    5    5    0    0  0.11403647821E+03  0.26522780592E+03 -0.39900447978E+03  0.49249840840E+03  0.00000000000E+00 0. -1.
        -11    1    5    5    0    0  0.69424797659E+00  0.42889076454E+02 -0.12981520522E+03  0.13671847851E+03  0.00000000000E+00 0.  1.
          1    1    6    6  503    0  0.22515406197E+02 -0.17485426346E+03 -0.12339406784E+02  0.17672922205E+03  0.00000000000E+00 0. -1.
         -1    1    6    6    0  503  0.99382917771E+02 -0.31982650195E+03 -0.13930349901E+03  0.36272774988E+03  0.00000000000E+00 0.  1.
<mgrwt>
<rscale>  0 0.13335619E+04</rscale>
<asrwt>0</asrwt>
<pdfrwt beam="1">  1        2 0.43245614E-01 0.13335619E+04</pdfrwt>
<pdfrwt beam="2">  1       -1 0.24333108E+00 0.13335619E+04</pdfrwt>
<totfact> 0.10208912E+01</totfact>
</mgrwt>
</event>
<event>
12    6  0.1403409E-007  0.1612537E+04  0.7818608E-02  0.8812883E-01
          2   -1    0    0  501    0  0.00000000000E+00  0.00000000000E+00  0.22982453292E+04  0.22982453292E+04  0.00000000000E+00 0. -1.
         -1   -1    0    0    0  501 -0.00000000000E+00 -0.00000000000E+00 -0.28285452677E+03  0.28285452677E+03  0.00000000000E+00 0.  1.
         24    2    1    2    0    0 -0.46329301912E+02  0.92668377584E+02  0.15637298602E+04  0.15688999536E+04  0.73906401567E+02 0.  0.
        254    2    1    2    0    0  0.46329301912E+02 -0.92668377584E+02  0.45166094216E+03  0.10121999023E+04  0.89989844049E+03 0.  0.
         23    2    4    4    0    0 -0.22913069164E+03  0.25986773257E+03 -0.15927434843E+02  0.35694495043E+03  0.84403211855E+02 0.  0.
         23    2    4    4    0    0  0.27545999355E+03 -0.35253611016E+03  0.46758837701E+03  0.65525495191E+03  0.10276305117E+03 0.  0.
          4    1    3    3  502    0  0.17546259252E+02  0.31404261701E+02  0.61479790472E+03  0.61584946416E+03  0.00000000000E+00 0. -1.
         -3    1    3    3    0  502 -0.63875561164E+02  0.61264115883E+02  0.94893195553E+03  0.95305048944E+03  0.00000000000E+00 0.  1.
         11    1    5    5    0    0 -0.13076526174E+03  0.19307305995E+03 -0.37259421003E+02  0.23614619330E+03  0.00000000000E+00 0. -1.
        -11    1    5    5    0    0 -0.98365429896E+02  0.66794672620E+02  0.21331986160E+02  0.12079875712E+03  0.00000000000E+00 0.  1.
          1    1    6    6  503    0  0.15826228836E+03 -0.24871930312E+03  0.35990720776E+03  0.46523267497E+03  0.00000000000E+00 0. -1.
         -1    1    6    6    0  503  0.11719770519E+03 -0.10381680704E+03  0.10768116924E+03  0.19002227694E+03  0.00000000000E+00 0.  1.
<mgrwt>
<rscale>  0 0.16125372E+04</rscale>
<asrwt>0</asrwt>
<pdfrwt beam="1">  1        2 0.35357619E+00 0.16125372E+04</pdfrwt>
<pdfrwt beam="2">  1       -1 0.43516083E-01 0.16125372E+04</pdfrwt>
<totfact> 0.25875387E+01</totfact>
</mgrwt>
</event>
<event>
12    6  0.1403409E-007  0.1643250E+04  0.7818608E-02  0.8794410E-01
         -1   -1    0    0    0  501 -0.00000000000E+00  0.00000000000E+00  0.33850394357E+03  0.33850394357E+03  0.00000000000E+00 0.  1.
          2   -1    0    0  501    0  0.00000000000E+00 -0.00000000000E+00 -0.19942683612E+04  0.19942683612E+04  0.00000000000E+00 0. -1.
         24    2    1    2    0    0 -0.50182533276E+03 -0.46613319791E+02 -0.19954818466E+03  0.54803611488E+03  0.80762856727E+02 0.  0.
        254    2    1    2    0    0  0.50182533276E+03  0.46613319791E+02 -0.14562162330E+04  0.17847361899E+04  0.90039773662E+03 0.  0.
         23    2    4    4    0    0  0.69398837179E+03 -0.17070031386E+03 -0.91394476991E+03  0.11637307674E+04  0.90641046662E+02 0.  0.
         23    2    4    4    0    0 -0.19216303902E+03  0.21731363365E+03 -0.54227146305E+03  0.62100542241E+03  0.86241208801E+02 0.  0.
          2    1    3    3  502    0 -0.11384785380E+03  0.38228600998E+01 -0.79066872589E+02  0.13866332758E+03  0.00000000000E+00 0. -1.
         -1    1    3    3    0  502 -0.38797747896E+03 -0.50436179891E+02 -0.12048131207E+03  0.40937278730E+03  0.00000000000E+00 0.  1.
         11    1    5    5    0    0  0.48837448877E+03 -0.16020901630E+03 -0.67255429562E+03  0.84646668614E+03  0.00000000000E+00 0. -1.
        -11    1    5    5    0    0  0.20561388301E+03 -0.10491297562E+02 -0.24139047429E+03  0.31726408131E+03  0.00000000000E+00 0.  1.
          3    1    6    6  503    0 -0.13323223706E+03  0.19489235490E+03 -0.46301786526E+03  0.51973012472E+03  0.00000000000E+00 0. -1.
         -3    1    6    6    0  503 -0.58930801967E+02  0.22421278750E+02 -0.79253597790E+02  0.10127529770E+03  0.00000000000E+00 0.  1.
<mgrwt>
<rscale>  0 0.16432501E+04</rscale>
<asrwt>0</asrwt>
<pdfrwt beam="1">  1        2 0.30681051E+00 0.16432501E+04</pdfrwt>
<pdfrwt beam="2">  1       -1 0.52077531E-01 0.16432501E+04</pdfrwt>
<totfact> 0.27208562E+01</totfact>
</mgrwt>
</event>
<event>
12    6  0.1403409E-007  0.2669488E+04  0.7818608E-02  0.8344973E-01
         -1   -1    0    0    0  501 -0.00000000000E+00  0.00000000000E+00  0.58176543165E+03  0.58176543165E+03  0.00000000000E+00 0.  1.
          2   -1    0    0  501    0  0.00000000000E+00 -0.00000000000E+00 -0.30623019306E+04  0.30623019306E+04  0.00000000000E+00 0. -1.
         24    2    1    2    0    0  0.22247358062E+03  0.52261711250E+03 -0.25151416442E+04  0.25797599504E+04  0.81245127300E+02 0.  0.
        254    2    1    2    0    0 -0.22247358062E+03 -0.52261711250E+03  0.34605145296E+02  0.10643074119E+04  0.89940514258E+03 0.  0.
         23    2    4    4    0    0 -0.30027093044E+03  0.13871247655E+03  0.16271804395E+03  0.37983338768E+03  0.91610358312E+02 0.  0.
         23    2    4    4    0    0  0.77797349819E+02 -0.66132958905E+03 -0.12811289865E+03  0.68447402418E+03  0.93180051469E+02 0.  0.
          4    1    3    3  502    0  0.16334244475E+03  0.29353712723E+03 -0.13903924390E+04  0.14303971245E+04  0.00000000000E+00 0. -1.
         -3    1    3    3    0  502  0.59131135866E+02  0.22907998527E+03 -0.11247492052E+04  0.11493628259E+04  0.00000000000E+00 0.  1.
         11    1    5    5    0    0 -0.18598998488E+03  0.58374243208E+02  0.13578850352E+03  0.23756755762E+03  0.00000000000E+00 0. -1.
        -11    1    5    5    0    0 -0.11428094556E+03  0.80338233338E+02  0.26929540433E+02  0.14226583005E+03  0.00000000000E+00 0.  1.
          4    1    6    6  503    0  0.94972331603E+02 -0.51420813524E+03 -0.11769989529E+03  0.53598788742E+03  0.00000000000E+00 0. -1.
         -4    1    6    6    0  503 -0.17174981784E+02 -0.14712145381E+03 -0.10413003362E+02  0.14848613676E+03  0.00000000000E+00 0.  1.
<mgrwt>
<rscale>  0 0.26694879E+04</rscale>
<asrwt>0</asrwt>
<pdfrwt beam="1">  1        2 0.47112339E+00 0.26694879E+04</pdfrwt>
<pdfrwt beam="2">  1       -1 0.89502372E-01 0.26694879E+04</pdfrwt>
<totfact> 0.19441358E+00</totfact>
</mgrwt>
</event>
<event>
12    6  0.1403409E-007  0.1301253E+04  0.7818608E-02  0.9028572E-01
          2   -1    0    0  501    0  0.00000000000E+00  0.00000000000E+00  0.25003083990E+03  0.25003083990E+03  0.00000000000E+00 0. -1.
         -1   -1    0    0    0  501 -0.00000000000E+00 -0.00000000000E+00 -0.16930504582E+04  0.16930504582E+04  0.00000000000E+00 0.  1.
         24    2    1    2    0    0  0.10911968490E+03  0.30721335452E+03 -0.46895560495E+03  0.57667661457E+03  0.79683169783E+02 0.  0.
        254    2    1    2    0    0 -0.10911968490E+03 -0.30721335452E+03 -0.97406401331E+03  0.13664046835E+04  0.90109594729E+03 0.  0.
         23    2    4    4    0    0 -0.49807728806E+03 -0.17917642542E+03 -0.51017553758E+03  0.74074935819E+03  0.90803943804E+02 0.  0.
         23    2    4    4    0    0  0.38895760315E+03 -0.12803692911E+03 -0.46388847573E+03  0.62565532530E+03  0.92577512937E+02 0.  0.
          2    1    3    3  502    0  0.10150832738E+03  0.23486820256E+03 -0.31063791915E+03  0.40244618263E+03  0.00000000000E+00 0. -1.
         -1    1    3    3    0  502  0.76113575264E+01  0.72345151961E+02 -0.15831768580E+03  0.17423043194E+03  0.00000000000E+00 0.  1.
         11    1    5    5    0    0 -0.12078990163E+03 -0.53704370761E+02 -0.18350133108E+03  0.22615724238E+03  0.00000000000E+00 0. -1.
        -11    1    5    5    0    0 -0.37728738643E+03 -0.12547205466E+03 -0.32667420650E+03  0.51459211581E+03  0.00000000000E+00 0.  1.
          3    1    6    6  503    0  0.12926465011E+03 -0.28517103606E+02 -0.91674517712E+02  0.16101798708E+03  0.00000000000E+00 0. -1.
         -3    1    6    6    0  503  0.25969295304E+03 -0.99519825500E+02 -0.37221395801E+03  0.46463733822E+03  0.00000000000E+00 0.  1.
<mgrwt>
<rscale>  0 0.13012530E+04</rscale>
<asrwt>0</asrwt>
<pdfrwt beam="1">  1        2 0.38466282E-01 0.13012530E+04</pdfrwt>
<pdfrwt beam="2">  1       -1 0.26046931E+00 0.13012530E+04</pdfrwt>
<totfact> 0.90269238E+00</totfact>
</mgrwt>
</event>
<event>
12    6  0.1403409E-007  0.1513545E+04  0.7818608E-02  0.8875496E-01
         -1   -1    0    0    0  501 -0.00000000000E+00  0.00000000000E+00  0.51251133791E+03  0.51251133791E+03  0.00000000000E+00 0.  1.
          2   -1    0    0  501    0  0.00000000000E+00 -0.00000000000E+00 -0.11174470924E+04  0.11174470924E+04  0.00000000000E+00 0. -1.
         24    2    1    2    0    0 -0.19643399070E+03 -0.17310296227E+03 -0.63679654894E+03  0.69331410493E+03  0.81385840956E+02 0.  0.
        254    2    1    2    0    0  0.19643399070E+03  0.17310296227E+03  0.31860794478E+02  0.93664432534E+03  0.89874163903E+03 0.  0.
         23    2    4    4    0    0  0.19687874097E+02  0.27940481071E+03 -0.37051420975E+03  0.47485529434E+03  0.98752773639E+02 0.  0.
         23    2    4    4    0    0  0.17674611660E+03 -0.10630184844E+03  0.40237500423E+03  0.46178903100E+03  0.93830658133E+02 0.  0.
          4    1    3    3  502    0 -0.74576855111E+02 -0.11452181431E+03 -0.36497243148E+03  0.38972019323E+03  0.00000000000E+00 0. -1.
         -3    1    3    3    0  502 -0.12185713559E+03 -0.58581147967E+02 -0.27182411746E+03  0.30359391170E+03  0.00000000000E+00 0.  1.
         11    1    5    5    0    0 -0.34258194062E+02  0.89724156677E+02 -0.15832224691E+03  0.18517554379E+03  0.00000000000E+00 0.  1.
        -11    1    5    5    0    0  0.53946068159E+02  0.18968065403E+03 -0.21219196285E+03  0.28967975056E+03  0.00000000000E+00 0. -1.
          3    1    6    6  503    0  0.21866672972E+02 -0.60924151985E+02  0.12900508226E+03  0.14433369298E+03  0.00000000000E+00 0. -1.
         -3    1    6    6    0  503  0.15487944363E+03 -0.45377696452E+02  0.27336992197E+03  0.31745533802E+03  0.00000000000E+00 0.  1.
<mgrwt>
<rscale>  0 0.15135446E+04</rscale>
<asrwt>0</asrwt>
<pdfrwt beam="1">  1        2 0.17191494E+00 0.15135446E+04</pdfrwt>
<pdfrwt beam="2">  1       -1 0.78847899E-01 0.15135446E+04</pdfrwt>
<totfact> 0.37646989E+01</totfact>
</mgrwt>
</event>
<event>
12    6  0.1403409E-007  0.2336801E+04  0.7818608E-02  0.8463551E-01
         -1   -1    0    0    0  501 -0.00000000000E+00  0.00000000000E+00  0.19623591874E+04  0.19623591874E+04  0.00000000000E+00 0.  1.
          2   -1    0    0  501    0  0.00000000000E+00 -0.00000000000E+00 -0.69567288141E+03  0.69567288141E+03  0.00000000000E+00 0. -1.
         24    2    1    2    0    0  0.73761797422E+03  0.65208078525E+03  0.68905403567E+03  0.12045960188E+04  0.83465430749E+02 0.  0.
        254    2    1    2    0    0 -0.73761797422E+03 -0.65208078525E+03  0.57763227033E+03  0.14534360500E+04  0.89973756468E+03 0.  0.
         23    2    4    4    0    0 -0.17865556518E+03  0.15805063479E+03  0.36060988209E+03  0.44142247519E+03  0.88974717860E+02 0.  0.
         23    2    4    4    0    0 -0.55896240904E+03 -0.81013142004E+03  0.21702238824E+03  0.10120135748E+04  0.91218781586E+02 0.  0.
          4    1    3    3  502    0  0.64883821339E+03  0.60678288343E+03  0.62246890729E+03  0.10847322413E+04  0.00000000000E+00 0. -1.
         -3    1    3    3    0  502  0.88779760832E+02  0.45297901820E+02  0.66585128382E+02  0.11986377753E+03  0.00000000000E+00 0.  1.
         11    1    5    5    0    0 -0.49856940246E+02  0.92961031306E+02  0.19543304563E+03  0.22208454056E+03  0.00000000000E+00 0. -1.
        -11    1    5    5    0    0 -0.12879862493E+03  0.65089603487E+02  0.16517683646E+03  0.21933793463E+03  0.00000000000E+00 0.  1.
          3    1    6    6  503    0 -0.50015364801E+03 -0.70298203865E+03  0.21766841964E+03  0.88978478251E+03  0.00000000000E+00 0. -1.
         -3    1    6    6    0  503 -0.58808761031E+02 -0.10714938139E+03 -0.64603139652E+00  0.12222879228E+03  0.00000000000E+00 0.  1.
<mgrwt>
<rscale>  0 0.23368013E+04</rscale>
<asrwt>0</asrwt>
<pdfrwt beam="1">  1        2 0.10702660E+00 0.23368013E+04</pdfrwt>
<pdfrwt beam="2">  1       -1 0.30190141E+00 0.23368013E+04</pdfrwt>
<totfact> 0.13675692E+00</totfact>
</mgrwt>
</event>
<event>
12    6  0.1403409E-007  0.2301646E+04  0.7818608E-02  0.8477273E-01
         -1   -1    0    0    0  501 -0.00000000000E+00  0.00000000000E+00  0.11321653435E+04  0.11321653435E+04  0.00000000000E+00 0.  1.
          2   -1    0    0  501    0  0.00000000000E+00 -0.00000000000E+00 -0.11697877115E+04  0.11697877115E+04  0.00000000000E+00 0. -1.
         24    2    1    2    0    0 -0.15360434663E+03 -0.14148494796E+03  0.93492138431E+03  0.96125344126E+03  0.79485204280E+02 0.  0.
        254    2    1    2    0    0  0.15360434663E+03  0.14148494796E+03 -0.97254375226E+03  0.13406996138E+04  0.89890033848E+03 0.  0.
         23    2    4    4    0    0  0.14577673724E+03 -0.33681140858E+03 -0.66420661402E+03  0.76426378118E+03  0.90751964359E+02 0.  0.
         23    2    4    4    0    0  0.78276093849E+01  0.47829635654E+03 -0.30833713824E+03  0.57643583260E+03  0.91530334519E+02 0.  0.
          4    1    3    3  502    0 -0.49490098460E+02 -0.44153502135E+02  0.15781200605E+03  0.17118244901E+03  0.00000000000E+00 0. -1.
         -3    1    3    3    0  502 -0.10411424817E+03 -0.97331445826E+02  0.77710937826E+03  0.79007099225E+03  0.00000000000E+00 0.  1.
         11    1    5    5    0    0  0.95838455817E+02 -0.11236004664E+03 -0.24197754203E+03  0.28348354545E+03  0.00000000000E+00 0.  1.
        -11    1    5    5    0    0  0.49938281426E+02 -0.22445136194E+03 -0.42222907199E+03  0.48078023572E+03  0.00000000000E+00 0. -1.
          1    1    6    6  503    0 -0.16837149364E+02  0.11520844984E+03 -0.11787769618E+03  0.16568532757E+03  0.00000000000E+00 0.  1.
         -1    1    6    6    0  503  0.24664758749E+02  0.36308790670E+03 -0.19045944206E+03  0.41075050503E+03  0.00000000000E+00 0. -1.
<mgrwt>
<rscale>  0 0.23016456E+04</rscale>
<asrwt>0</asrwt>
<pdfrwt beam="1">  1        2 0.17996734E+00 0.23016456E+04</pdfrwt>
<pdfrwt beam="2">  1       -1 0.17417928E+00 0.23016456E+04</pdfrwt>
<totfact> 0.46803639E+00</totfact>
</mgrwt>
</event>
<event>
12    6  0.1403409E-007  0.1935244E+04  0.7818608E-02  0.8637510E-01
          2   -1    0    0  501    0  0.00000000000E+00  0.00000000000E+00  0.14352127239E+04  0.14352127239E+04  0.00000000000E+00 0. -1.
         -1   -1    0    0    0  501 -0.00000000000E+00 -0.00000000000E+00 -0.65237160176E+03  0.65237160176E+03  0.00000000000E+00 0.  1.
         24    2    1    2    0    0  0.32150339752E+03 -0.63543684795E+03  0.33629258598E+02  0.71665364569E+03  0.72918437329E+02 0.  0.
        254    2    1    2    0    0 -0.32150339752E+03  0.63543684795E+03  0.74921186353E+03  0.13709306799E+04  0.90054877182E+03 0.  0.
         23    2    4    4    0    0  0.97867680998E+02 -0.18117879721E+03  0.14393479526E+03  0.26764272818E+03  0.92258143915E+02 0.  0.
         23    2    4    4    0    0 -0.41937107852E+03  0.81661564515E+03  0.60527706827E+03  0.11032879518E+04  0.90281569226E+02 0.  0.
          2    1    3    3  502    0  0.30746499238E+02 -0.61147794998E+02  0.25096521485E+02  0.72898802728E+02  0.00000000000E+00 0. -1.
         -1    1    3    3    0  502  0.29075689828E+03 -0.57428905295E+03  0.85327371132E+01  0.64375484296E+03  0.00000000000E+00 0.  1.
         11    1    5    5    0    0  0.49030446331E+02 -0.16576000865E+03  0.97215693106E+02  0.19832109348E+03  0.00000000000E+00 0. -1.
        -11    1    5    5    0    0  0.48837234667E+02 -0.15418788558E+02  0.46719102153E+02  0.69321634693E+02  0.00000000000E+00 0.  1.
          4    1    6    6  503    0 -0.17758066239E+03  0.38489641819E+03  0.32887040144E+03  0.53650338800E+03  0.00000000000E+00 0. -1.
         -4    1    6    6    0  503 -0.24179041613E+03  0.43171922697E+03  0.27640666682E+03  0.56678456377E+03  0.00000000000E+00 0.  1.
<mgrwt>
<rscale>  0 0.19352437E+04</rscale>
<asrwt>0</asrwt>
<pdfrwt beam="1">  1        2 0.22080196E+00 0.19352437E+04</pdfrwt>
<pdfrwt beam="2">  1       -1 0.10036486E+00 0.19352437E+04</pdfrwt>
<totfact> 0.13897802E+01</totfact>
</mgrwt>
</event>
<event>
12    6  0.1403409E-007  0.1580027E+04  0.7818608E-02  0.8832913E-01
          2   -1    0    0  501    0  0.00000000000E+00  0.00000000000E+00  0.19284554156E+04  0.19284554156E+04  0.00000000000E+00 0. -1.
         -1   -1    0    0    0  501 -0.00000000000E+00 -0.00000000000E+00 -0.32363780103E+03  0.32363780103E+03  0.00000000000E+00 0.  1.
         24    2    1    2    0    0 -0.43303859817E+03 -0.29671850361E+01  0.99227742178E+02  0.45591277443E+03  0.10236738435E+03 0.  0.
        254    2    1    2    0    0  0.43303859817E+03  0.29671850361E+01  0.15055898724E+04  0.17961804422E+04  0.87859665685E+03 0.  0.
         23    2    4    4    0    0  0.69472376670E+03  0.32224898268E+02  0.10962000108E+04  0.13013412386E+04  0.90305036256E+02 0.  0.
         23    2    4    4    0    0 -0.26168516853E+03 -0.29257713232E+02  0.40938986157E+03  0.49483920357E+03  0.89054126364E+02 0.  0.
          4    1    3    3  502    0 -0.28654598705E+03 -0.44894055663E+02  0.88127996467E+02  0.30313466099E+03  0.00000000000E+00 0. -1.
         -3    1    3    3    0  502 -0.14649261112E+03  0.41926870626E+02  0.11099745710E+02  0.15277811345E+03  0.00000000000E+00 0.  1.
         11    1    5    5    0    0  0.61673837253E+03  0.77523330888E+01  0.10020654388E+04  0.11766738981E+04  0.00000000000E+00 0.  1.
        -11    1    5    5    0    0  0.77985394173E+02  0.24472565179E+02  0.94134572081E+02  0.12466734060E+03  0.00000000000E+00 0. -1.
          2    1    6    6  503    0 -0.56191918836E+02 -0.88312573617E+01  0.16693488286E+03  0.17635979690E+03  0.00000000000E+00 0. -1.
         -2    1    6    6    0  503 -0.20549324969E+03 -0.20426455870E+02  0.24245497871E+03  0.31847940667E+03  0.00000000000E+00 0.  1.
<mgrwt>
<rscale>  0 0.15800267E+04</rscale>
<asrwt>0</asrwt>
<pdfrwt beam="1">  1        2 0.29668544E+00 0.15800267E+04</pdfrwt>
<pdfrwt beam="2">  1       -1 0.49790432E-01 0.15800267E+04</pdfrwt>
<totfact> 0.32414250E+01</totfact>
</mgrwt>
</event>
<event>
12    6  0.1403409E-007  0.1903811E+04  0.7818608E-02  0.8652962E-01
          2   -1    0    0  501    0  0.00000000000E+00  0.00000000000E+00  0.25602541179E+04  0.25602541179E+04  0.00000000000E+00 0. -1.
         -1   -1    0    0    0  501 -0.00000000000E+00 -0.00000000000E+00 -0.35391959016E+03  0.35391959016E+03  0.00000000000E+00 0.  1.
         24    2    1    2    0    0 -0.16032100742E+03 -0.23026183717E+03  0.19015378469E+04  0.19238775911E+04  0.82069867793E+02 0.  0.
        254    2    1    2    0    0  0.16032100742E+03  0.23026183717E+03  0.30479668084E+03  0.99029611698E+03  0.89947876216E+03 0.  0.
         23    2    4    4    0    0 -0.38851766773E+02  0.27865559596E+03  0.57154038211E+03  0.64252406500E+03  0.83787617117E+02 0.  0.
         23    2    4    4    0    0  0.19917277419E+03 -0.48393758793E+02 -0.26674370126E+03  0.34777205198E+03  0.88212516735E+02 0.  0.
          2    1    3    3  502    0 -0.12024996523E+03 -0.13375755888E+03  0.14048410934E+04  0.14163084538E+04  0.00000000000E+00 0. -1.
         -1    1    3    3    0  502 -0.40071042190E+02 -0.96504278288E+02  0.49669675353E+03  0.50756913727E+03  0.00000000000E+00 0.  1.
         11    1    5    5    0    0  0.11525983084E+02  0.57852729265E+02  0.65690109754E+02  0.88289167450E+02  0.00000000000E+00 0. -1.
        -11    1    5    5    0    0 -0.50377749857E+02  0.22080286669E+03  0.50585027235E+03  0.55423489755E+03  0.00000000000E+00 0.  1.
          3    1    6    6  503    0  0.85965668983E+02 -0.43469689077E+02 -0.64447231826E+02  0.11590149180E+03  0.00000000000E+00 0. -1.
         -3    1    6    6    0  503  0.11320710521E+03 -0.49240697167E+01 -0.20229646944E+03  0.23187056018E+03  0.00000000000E+00 0.  1.
<mgrwt>
<rscale>  0 0.19038110E+04</rscale>
<asrwt>0</asrwt>
<pdfrwt beam="1">  1        2 0.39388524E+00 0.19038110E+04</pdfrwt>
<pdfrwt beam="2">  1       -1 0.54449169E-01 0.19038110E+04</pdfrwt>
<totfact> 0.11672480E+01</totfact>
</mgrwt>
</event>
<event>
12    6  0.1403409E-007  0.2280810E+04  0.7818608E-02  0.8485526E-01
          2   -1    0    0  501    0  0.00000000000E+00  0.00000000000E+00  0.17916065450E+04  0.17916065450E+04  0.00000000000E+00 0. -1.
         -1   -1    0    0    0  501 -0.00000000000E+00 -0.00000000000E+00 -0.72589794566E+03  0.72589794566E+03  0.00000000000E+00 0.  1.
         24    2    1    2    0    0 -0.68628131468E+03 -0.66776915345E+03  0.35926891280E+03  0.10258949600E+04  0.80552045737E+02 0.  0.
        254    2    1    2    0    0  0.68628131468E+03  0.66776915345E+03  0.70643968656E+03  0.14916095307E+04  0.89941329547E+03 0.  0.
         23    2    4    4    0    0  0.65698123414E+02  0.66191120358E+03  0.47824820219E+03  0.82421179135E+03  0.90338525849E+02 0.  0.
         23    2    4    4    0    0  0.62058319127E+03  0.58579498657E+01  0.22819148437E+03  0.66739773933E+03  0.90501801403E+02 0.  0.
          4    1    3    3  502    0 -0.14767233632E+03 -0.10385419784E+03  0.81697070022E+02  0.19815959370E+03  0.00000000000E+00 0. -1.
         -3    1    3    3    0  502 -0.53860897836E+03 -0.56391495560E+03  0.27757184277E+03  0.82773536630E+03  0.00000000000E+00 0.  1.
         11    1    5    5    0    0  0.33642288731E+02  0.62406428867E+02  0.48991949860E+02  0.86177590509E+02  0.00000000000E+00 0. -1.
        -11    1    5    5    0    0  0.32055834683E+02  0.59950477471E+03  0.42925625233E+03  0.73803420084E+03  0.00000000000E+00 0.  1.
          4    1    6    6  503    0  0.40570525542E+02  0.28083331526E+01 -0.74384055021E+01  0.41342280468E+02  0.00000000000E+00 0. -1.
         -4    1    6    6    0  503  0.58001266573E+03  0.30496167131E+01  0.23562988988E+03  0.62605545886E+03  0.00000000000E+00 0.  1.
<mgrwt>
<rscale>  0 0.22808100E+04</rscale>
<asrwt>0</asrwt>
<pdfrwt beam="1">  1        2 0.27563178E+00 0.22808100E+04</pdfrwt>
<pdfrwt beam="2">  1       -1 0.11167661E+00 0.22808100E+04</pdfrwt>
<totfact> 0.66383909E+00</totfact>
</mgrwt>
</event>
<event>
12    6  0.1403409E-007  0.1907183E+04  0.7818608E-02  0.8651289E-01
         -1   -1    0    0    0  501 -0.00000000000E+00  0.00000000000E+00  0.55443748324E+03  0.55443748324E+03  0.00000000000E+00 0.  1.
          2   -1    0    0  501    0  0.00000000000E+00 -0.00000000000E+00 -0.16401070922E+04  0.16401070922E+04  0.00000000000E+00 0. -1.
         24    2    1    2    0    0  0.50503205317E+03  0.53121971540E+03 -0.52728764962E+03  0.90641067473E+03  0.79349133938E+02 0.  0.
        254    2    1    2    0    0 -0.50503205317E+03 -0.53121971540E+03 -0.55838195934E+03  0.12881339007E+04  0.90013708561E+03 0.  0.
         23    2    4    4    0    0 -0.72549139271E+03 -0.24903672639E+03 -0.48288975895E+03  0.91098827164E+03  0.91433362522E+02 0.  0.
         23    2    4    4    0    0  0.22045933954E+03 -0.28218298902E+03 -0.75492200383E+02  0.37714562907E+03  0.91160262881E+02 0.  0.
          4    1    3    3  502    0  0.25378014022E+03  0.23597465327E+03 -0.29002493620E+03  0.45188810582E+03  0.00000000000E+00 0. -1.
         -3    1    3    3    0  502  0.25125191295E+03  0.29524506213E+03 -0.23726271342E+03  0.45452256891E+03  0.00000000000E+00 0.  1.
         11    1    5    5    0    0 -0.44481551962E+03 -0.16861643047E+03 -0.24925614528E+03  0.53704838989E+03  0.00000000000E+00 0.  1.
        -11    1    5    5    0    0 -0.28067587309E+03 -0.80420295913E+02 -0.23363361367E+03  0.37393988176E+03  0.00000000000E+00 0. -1.
          2    1    6    6  503    0  0.81889245908E+02 -0.16957146454E+03 -0.61251815840E+02  0.19802049168E+03  0.00000000000E+00 0. -1.
         -2    1    6    6    0  503  0.13857009363E+03 -0.11261152448E+03 -0.14240384543E+02  0.17912513740E+03  0.00000000000E+00 0.  1.
<mgrwt>
<rscale>  0 0.19071831E+04</rscale>
<asrwt>0</asrwt>
<pdfrwt beam="1">  1        2 0.25232416E+00 0.19071831E+04</pdfrwt>
<pdfrwt beam="2">  1       -1 0.85298076E-01 0.19071831E+04</pdfrwt>
<totfact> 0.15342629E+01</totfact>
</mgrwt>
</event>
<event>
12    6  0.1403409E-007  0.1639713E+04  0.7818608E-02  0.8796515E-01
          2   -1    0    0  501    0  0.00000000000E+00  0.00000000000E+00  0.14340098292E+04  0.14340098292E+04  0.00000000000E+00 0. -1.
         -1   -1    0    0    0  501 -0.00000000000E+00 -0.00000000000E+00 -0.46873100402E+03  0.46873100402E+03  0.00000000000E+00 0.  1.
         24    2    1    2    0    0  0.41086071004E+03  0.38624571732E+03  0.24672891888E+03  0.62062578128E+03  0.79428733942E+02 0.  0.
        254    2    1    2    0    0 -0.41086071004E+03 -0.38624571732E+03  0.71854990633E+03  0.12821150520E+04  0.89972927118E+03 0.  0.
         23    2    4    4    0    0 -0.54865298021E+03 -0.10966126729E+02  0.66796461882E+03  0.86900408954E+03  0.88606021298E+02 0.  0.
         23    2    4    4    0    0  0.13779227016E+03 -0.37527959059E+03  0.50585287502E+02  0.41311096243E+03  0.90996236955E+02 0.  0.
          4    1    3    3  502    0  0.78211158244E+02  0.34984725016E+02  0.38917981202E+02  0.94103801832E+02  0.00000000000E+00 0. -1.
         -3    1    3    3    0  502  0.33264955180E+03  0.35126099230E+03  0.20781093768E+03  0.52652197945E+03  0.00000000000E+00 0.  1.
         11    1    5    5    0    0 -0.96604765753E+02  0.30223581562E+02  0.10518031818E+03  0.14597549446E+03  0.00000000000E+00 0. -1.
        -11    1    5    5    0    0 -0.45204821446E+03 -0.41189708291E+02  0.56278430064E+03  0.72302859509E+03  0.00000000000E+00 0.  1.
          2    1    6    6  503    0  0.40977242887E+02 -0.15688673134E+03 -0.21529982977E+02  0.16357298394E+03  0.00000000000E+00 0.  1.
         -2    1    6    6    0  503  0.96815027278E+02 -0.21839285924E+03  0.72115270479E+02  0.24953797850E+03  0.00000000000E+00 0. -1.
<mgrwt>
<rscale>  0 0.16397132E+04</rscale>
<asrwt>0</asrwt>
<pdfrwt beam="1">  1        2 0.22061689E+00 0.16397132E+04</pdfrwt>
<pdfrwt beam="2">  1       -1 0.72112463E-01 0.16397132E+04</pdfrwt>
<totfact> 0.29252795E+01</totfact>
</mgrwt>
</event>
<event>
12    6  0.1403409E-007  0.1548366E+04  0.7818608E-02  0.8852912E-01
          2   -1    0    0  501    0  0.00000000000E+00  0.00000000000E+00  0.13437621499E+04  0.13437621499E+04  0.00000000000E+00 0. -1.
         -1   -1    0    0    0  501 -0.00000000000E+00 -0.00000000000E+00 -0.44603095731E+03  0.44603095731E+03  0.00000000000E+00 0.  1.
         24    2    1    2    0    0 -0.17165438711E+03  0.31600504693E+03 -0.12003598082E+03  0.38712834788E+03  0.78328173360E+02 0.  0.
        254    2    1    2    0    0  0.17165438711E+03 -0.31600504693E+03  0.10177671734E+04  0.14026647593E+04  0.89570865213E+03 0.  0.
         23    2    4    4    0    0 -0.28821583466E+03  0.11745533226E+03  0.34042191156E+03  0.47166513244E+03  0.98573814277E+02 0.  0.
         23    2    4    4    0    0  0.45987022177E+03 -0.43346037919E+03  0.67734526185E+03  0.93099962690E+03  0.92710195387E+02 0.  0.
          2    1    3    3  502    0 -0.25879831990E+02  0.12558281001E+03 -0.43348588971E+02  0.13535105482E+03  0.00000000000E+00 0. -1.
         -1    1    3    3    0  502 -0.14577455512E+03  0.19042223691E+03 -0.76687391844E+02  0.25177729306E+03  0.00000000000E+00 0.  1.
         11    1    5    5    0    0 -0.25272779384E+03  0.67779238116E+02  0.24544839234E+03  0.35876214433E+03  0.00000000000E+00 0. -1.
        -11    1    5    5    0    0 -0.35488040813E+02  0.49676094148E+02  0.94973519218E+02  0.11290298811E+03  0.00000000000E+00 0.  1.
          2    1    6    6  503    0  0.20822743495E+03 -0.22983628454E+03  0.38893773558E+03  0.49744943915E+03  0.00000000000E+00 0. -1.
         -2    1    6    6    0  503  0.25164278682E+03 -0.20362409465E+03  0.28840752627E+03  0.43355018774E+03  0.00000000000E+00 0.  1.
<mgrwt>
<rscale>  0 0.15483663E+04</rscale>
<asrwt>0</asrwt>
<pdfrwt beam="1">  1        2 0.20673264E+00 0.15483663E+04</pdfrwt>
<pdfrwt beam="2">  1       -1 0.68620148E-01 0.15483663E+04</pdfrwt>
<totfact> 0.36771283E+01</totfact>
</mgrwt>
</event>
<event>
12    6  0.1403409E-007  0.1835213E+04  0.7818608E-02  0.8687794E-01
         -1   -1    0    0    0  501 -0.00000000000E+00  0.00000000000E+00  0.19738673827E+04  0.19738673827E+04  0.00000000000E+00 0.  1.
          2   -1    0    0  501    0  0.00000000000E+00 -0.00000000000E+00 -0.42657464580E+03  0.42657464580E+03  0.00000000000E+00 0. -1.
         24    2    1    2    0    0 -0.62822886919E+02  0.75719852545E+02 -0.30858634013E+03  0.33341705443E+03  0.79127692272E+02 0.  0.
        254    2    1    2    0    0  0.62822886919E+02 -0.75719852545E+02  0.18558790770E+04  0.20670249740E+04  0.90477891427E+03 0.  0.
         23    2    4    4    0    0  0.45661456164E+03  0.53727667193E+01  0.70890611813E+03  0.84815689680E+03  0.91085195058E+02 0.  0.
         23    2    4    4    0    0 -0.39379167472E+03 -0.81092619264E+02  0.11469729589E+04  0.12188680772E+04  0.91894098626E+02 0.  0.
          2    1    3    3  502    0 -0.37403425570E+02  0.85001333467E+02 -0.27516650013E+03  0.29041495438E+03  0.00000000000E+00 0. -1.
         -1    1    3    3    0  502 -0.25419461349E+02 -0.92814809221E+01 -0.33419839998E+02  0.43002100052E+02  0.00000000000E+00 0.  1.
         11    1    5    5    0    0  0.91202222738E+02 -0.15945554424E+02  0.90051455886E+02  0.12915638136E+03  0.00000000000E+00 0. -1.
        -11    1    5    5    0    0  0.36541233890E+03  0.21318321143E+02  0.61885466224E+03  0.71900051545E+03  0.00000000000E+00 0.  1.
          2    1    6    6  503    0 -0.16013770881E+03 -0.34896245522E+02  0.33933345684E+03  0.37684085324E+03  0.00000000000E+00 0.  1.
         -2    1    6    6    0  503 -0.23365396591E+03 -0.46196373743E+02  0.80763950203E+03  0.84202722400E+03  0.00000000000E+00 0. -1.
<mgrwt>
<rscale>  0 0.18352131E+04</rscale>
<asrwt>0</asrwt>
<pdfrwt beam="1">  1        2 0.65626870E-01 0.18352131E+04</pdfrwt>
<pdfrwt beam="2">  1       -1 0.30367190E+00 0.18352131E+04</pdfrwt>
<totfact> 0.24898576E+00</totfact>
</mgrwt>
</event>
<event>
12    6  0.1403409E-007  0.1876472E+04  0.7818608E-02  0.8666657E-01
          2   -1    0    0  501    0  0.00000000000E+00  0.00000000000E+00  0.80833898798E+03  0.80833898798E+03  0.00000000000E+00 0. -1.
         -1   -1    0    0    0  501 -0.00000000000E+00 -0.00000000000E+00 -0.10890071637E+04  0.10890071637E+04  0.00000000000E+00 0.  1.
         24    2    1    2    0    0  0.21442765102E+03 -0.24424798888E+03 -0.75572313132E+03  0.82635790881E+03  0.78189798784E+02 0.  0.
        254    2    1    2    0    0 -0.21442765102E+03  0.24424798888E+03  0.47505495556E+03  0.10709882429E+04  0.90316239296E+03 0.  0.
         23    2    4    4    0    0 -0.43845888193E+01 -0.16082666190E+03  0.56764550132E+03  0.59710238900E+03  0.91790021208E+02 0.  0.
         23    2    4    4    0    0 -0.21004306220E+03  0.40507465078E+03 -0.92590545759E+02  0.47388585391E+03  0.88267959555E+02 0.  0.
          4    1    3    3  502    0  0.45679109179E+02 -0.96128926748E+02 -0.19129805611E+03  0.21891162109E+03  0.00000000000E+00 0. -1.
         -3    1    3    3    0  502  0.16874854184E+03 -0.14811906214E+03 -0.56442507521E+03  0.60744628772E+03  0.00000000000E+00 0.  1.
         11    1    5    5    0    0 -0.25766406287E+02 -0.41241861014E+02  0.28992091349E+03  0.29397097624E+03  0.00000000000E+00 0. -1.
        -11    1    5    5    0    0  0.21381817467E+02 -0.11958480089E+03  0.27772458783E+03  0.30313141276E+03  0.00000000000E+00 0.  1.
          3    1    6    6  503    0 -0.14248996102E+03  0.33018762414E+03 -0.98476650972E+02  0.37286043892E+03  0.00000000000E+00 0. -1.
         -3    1    6    6    0  503 -0.67553101179E+02  0.74887026649E+02  0.58861052126E+01  0.10102541499E+03  0.00000000000E+00 0.  1.
<mgrwt>
<rscale>  0 0.18764722E+04</rscale>
<asrwt>0</asrwt>
<pdfrwt beam="1">  1        2 0.12435984E+00 0.18764722E+04</pdfrwt>
<pdfrwt beam="2">  1       -1 0.16753956E+00 0.18764722E+04</pdfrwt>
<totfact> 0.93351346E+00</totfact>
</mgrwt>
</event>
<event>
12    6  0.1403409E-007  0.2331484E+04  0.7818608E-02  0.8465610E-01
         -1   -1    0    0    0  501 -0.00000000000E+00  0.00000000000E+00  0.48837085395E+03  0.48837085395E+03  0.00000000000E+00 0.  1.
          2   -1    0    0  501    0  0.00000000000E+00 -0.00000000000E+00 -0.27826291598E+04  0.27826291598E+04  0.00000000000E+00 0. -1.
         24    2    1    2    0    0 -0.83828321413E+03 -0.52719897303E+03 -0.97974209892E+03  0.13954353069E+04  0.81777815150E+02 0.  0.
        254    2    1    2    0    0  0.83828321413E+03  0.52719897303E+03 -0.13145162069E+04  0.18755647068E+04  0.89951798597E+03 0.  0.
         23    2    4    4    0    0  0.36321625712E+02  0.25137814495E+03 -0.87622367265E+03  0.91668047411E+03  0.89582000649E+02 0.  0.
         23    2    4    4    0    0  0.80196158842E+03  0.27582082808E+03 -0.43829253424E+03  0.95888423273E+03  0.90217003418E+02 0.  0.
          4    1    3    3  502    0 -0.56482004129E+03 -0.39228447574E+03 -0.70776449285E+03  0.98683299818E+03  0.00000000000E+00 0. -1.
         -3    1    3    3    0  502 -0.27346317284E+03 -0.13491449728E+03 -0.27197760607E+03  0.40860230870E+03  0.00000000000E+00 0.  1.
         11    1    5    5    0    0 -0.13328959126E+02  0.38531442354E+02 -0.25253106568E+03  0.25580123599E+03  0.00000000000E+00 0.  1.
        -11    1    5    5    0    0  0.49650584838E+02  0.21284670259E+03 -0.62369260697E+03  0.66087923811E+03  0.00000000000E+00 0. -1.
          4    1    6    6  503    0  0.63666251809E+03  0.19171287704E+03 -0.37223227826E+03  0.76200384392E+03  0.00000000000E+00 0. -1.
         -4    1    6    6    0  503  0.16529907033E+03  0.84107951042E+02 -0.66060255986E+02  0.19688038881E+03  0.00000000000E+00 0.  1.
<mgrwt>
<rscale>  0 0.23314845E+04</rscale>
<asrwt>0</asrwt>
<pdfrwt beam="1">  1        2 0.42809678E+00 0.23314845E+04</pdfrwt>
<pdfrwt beam="2">  1       -1 0.75133980E-01 0.23314845E+04</pdfrwt>
<totfact> 0.43422227E+00</totfact>
</mgrwt>
</event>
<event>
12    6  0.1403409E-007  0.3049184E+04  0.7818608E-02  0.8229824E-01
          2   -1    0    0  501    0  0.00000000000E+00  0.00000000000E+00  0.21290495165E+04  0.21290495165E+04  0.00000000000E+00 0. -1.
         -1   -1    0    0    0  501 -0.00000000000E+00 -0.00000000000E+00 -0.10917457834E+04  0.10917457834E+04  0.00000000000E+00 0.  1.
         24    2    1    2    0    0 -0.77221143813E+03  0.10140593117E+04 -0.11419737673E+03  0.12821538055E+04  0.79060402592E+02 0.  0.
        254    2    1    2    0    0  0.77221143813E+03 -0.10140593117E+04  0.11515011098E+04  0.19386414944E+04  0.89874871070E+03 0.  0.
         23    2    4    4    0    0  0.37256677086E+03 -0.10427046239E+04  0.10186795979E+04  0.15072917821E+04  0.90451434223E+02 0.  0.
         23    2    4    4    0    0  0.39964466727E+03  0.28645312169E+02  0.13282151194E+03  0.43134971224E+03  0.88795305233E+02 0.  0.
          4    1    3    3  502    0 -0.11367101036E+03  0.19930165667E+03 -0.20311966969E+02  0.23033633007E+03  0.00000000000E+00 0. -1.
         -3    1    3    3    0  502 -0.65854042777E+03  0.81475765504E+03 -0.93885409758E+02  0.10518174754E+04  0.00000000000E+00 0.  1.
         11    1    5    5    0    0  0.12233623933E+03 -0.31476621149E+03  0.36699043378E+03  0.49872427436E+03  0.00000000000E+00 0. -1.
        -11    1    5    5    0    0  0.25023053153E+03 -0.72793841238E+03  0.65168916411E+03  0.10085675078E+04  0.00000000000E+00 0.  1.
          1    1    6    6  503    0  0.34692978683E+03  0.48839794715E+02  0.93687449461E+02  0.36266091700E+03  0.00000000000E+00 0. -1.
         -1    1    6    6    0  503  0.52714880446E+02 -0.20194482547E+02  0.39134062476E+02  0.68688795241E+02  0.00000000000E+00 0.  1.
<mgrwt>
<rscale>  0 0.30491840E+04</rscale>
<asrwt>0</asrwt>
<pdfrwt beam="1">  1        2 0.32754608E+00 0.30491840E+04</pdfrwt>
<pdfrwt beam="2">  1       -1 0.16796089E+00 0.30491840E+04</pdfrwt>
<totfact> 0.13978924E+00</totfact>
</mgrwt>
</event>
<event>
12    6  0.1403409E-007  0.3364077E+04  0.7818608E-02  0.8146780E-01
         -1   -1    0    0    0  501 -0.00000000000E+00  0.00000000000E+00  0.18301656390E+04  0.18301656390E+04  0.00000000000E+00 0.  1.
          2   -1    0    0  501    0  0.00000000000E+00 -0.00000000000E+00 -0.15459006919E+04  0.15459006919E+04  0.00000000000E+00 0. -1.
         24    2    1    2    0    0 -0.71638909728E+03 -0.12362217150E+04 -0.49729091822E+03  0.15150997333E+04  0.82288985513E+02 0.  0.
        254    2    1    2    0    0  0.71638909728E+03  0.12362217150E+04  0.78155586536E+03  0.18609665976E+04  0.90050521348E+03 0.  0.
         23    2    4    4    0    0  0.73675983615E+03  0.42802352347E+03  0.26390566811E+03  0.89665744886E+03  0.91264374901E+02 0.  0.
         23    2    4    4    0    0 -0.20370738865E+02  0.80819819149E+03  0.51765019725E+03  0.96430914876E+03  0.91274990736E+02 0.  0.
          2    1    3    3  502    0 -0.56526802929E+03 -0.94853976302E+03 -0.41746257098E+03  0.11804789812E+04  0.00000000000E+00 0. -1.
         -1    1    3    3    0  502 -0.15112106800E+03 -0.28768195195E+03 -0.79828347243E+02  0.33462075203E+03  0.00000000000E+00 0.  1.
         11    1    5    5    0    0  0.50713933809E+03  0.31016190434E+03  0.22508180389E+03  0.63565126727E+03  0.00000000000E+00 0.  1.
        -11    1    5    5    0    0  0.22962049806E+03  0.11786161914E+03  0.38823864215E+02  0.26100618159E+03  0.00000000000E+00 0. -1.
          1    1    6    6  503    0  0.19790575632E+01  0.72793950054E+03  0.48558716296E+03  0.87503984249E+03  0.00000000000E+00 0. -1.
         -1    1    6    6    0  503 -0.22349796429E+02  0.80258690948E+02  0.32063034292E+02  0.89269306265E+02  0.00000000000E+00 0.  1.
<mgrwt>
<rscale>  0 0.33640775E+04</rscale>
<asrwt>0</asrwt>
<pdfrwt beam="1">  1        2 0.23783088E+00 0.33640775E+04</pdfrwt>
<pdfrwt beam="2">  1       -1 0.28156394E+00 0.33640775E+04</pdfrwt>
<totfact> 0.49183622E-01</totfact>
</mgrwt>
</event>
<event>
12    6  0.1403409E-007  0.1387670E+04  0.7818608E-02  0.8962793E-01
         -1   -1    0    0    0  501 -0.00000000000E+00  0.00000000000E+00  0.65049825853E+03  0.65049825853E+03  0.00000000000E+00 0.  1.
          2   -1    0    0  501    0  0.00000000000E+00 -0.00000000000E+00 -0.74005844984E+03  0.74005844984E+03  0.00000000000E+00 0. -1.
         24    2    1    2    0    0 -0.31235860291E+03 -0.21855756756E+03 -0.13414846988E+03  0.41180666189E+03  0.79079755041E+02 0.  0.
        254    2    1    2    0    0  0.31235860291E+03  0.21855756756E+03  0.44588278565E+02  0.97875004649E+03  0.90034895000E+03 0.  0.
         23    2    4    4    0    0 -0.27026482165E+03 -0.11252660614E+02 -0.14232375042E+03  0.31897273133E+03  0.91202287298E+02 0.  0.
         23    2    4    4    0    0  0.58262342455E+03  0.22981022817E+03  0.18691202899E+03  0.65977731515E+03  0.90040008861E+02 0.  0.
          2    1    3    3  502    0 -0.15976211938E+03 -0.14409918358E+03 -0.10546865154E+03  0.23960831779E+03  0.00000000000E+00 0. -1.
         -1    1    3    3    0  502 -0.15259648352E+03 -0.74458383976E+02 -0.28679818337E+02  0.17219834409E+03  0.00000000000E+00 0.  1.
         11    1    5    5    0    0 -0.24172068752E+03 -0.10529861363E+02 -0.87732294354E+02  0.25736496309E+03  0.00000000000E+00 0. -1.
        -11    1    5    5    0    0 -0.28544134131E+02 -0.72279925052E+00 -0.54591456071E+02  0.61607768244E+02  0.00000000000E+00 0.  1.
          2    1    6    6  503    0  0.38548292958E+03  0.14453490118E+03  0.16626077745E+03  0.44399332515E+03  0.00000000000E+00 0. -1.
         -2    1    6    6    0  503  0.19714049497E+03  0.85275326991E+02  0.20651251540E+02  0.21578399000E+03  0.00000000000E+00 0.  1.
<mgrwt>
<rscale>  0 0.13876696E+04</rscale>
<asrwt>0</asrwt>
<pdfrwt beam="1">  1        2 0.11385515E+00 0.13876696E+04</pdfrwt>
<pdfrwt beam="2">  1       -1 0.10007666E+00 0.13876696E+04</pdfrwt>
<totfact> 0.40404328E+01</totfact>
</mgrwt>
</event>
<event>
12    6  0.1403409E-007  0.1388613E+04  0.7818608E-02  0.8962102E-01
         -1   -1    0    0    0  501 -0.00000000000E+00  0.00000000000E+00  0.81324165074E+03  0.81324165074E+03  0.00000000000E+00 0.  1.
          2   -1    0    0  501    0  0.00000000000E+00 -0.00000000000E+00 -0.59276553764E+03  0.59276553764E+03  0.00000000000E+00 0. -1.
         24    2    1    2    0    0  0.21835395377E+03  0.10572089914E+03 -0.25098635910E+03  0.35838852227E+03  0.81196199406E+02 0.  0.
        254    2    1    2    0    0 -0.21835395377E+03 -0.10572089914E+03  0.47146247220E+03  0.10476186661E+04  0.90353342454E+03 0.  0.
         23    2    4    4    0    0  0.55208325758E+02 -0.45989344614E+03  0.17900618624E+03  0.50498805547E+03  0.91759361455E+02 0.  0.
         23    2    4    4    0    0 -0.27356227953E+03  0.35417254700E+03  0.29245628596E+03  0.54263061065E+03  0.92966588512E+02 0.  0.
          2    1    3    3  502    0  0.19767796554E+03  0.10108373243E+03 -0.25357857608E+03  0.33704093708E+03  0.00000000000E+00 0. -1.
         -1    1    3    3    0  502  0.20675988232E+02  0.46371667131E+01  0.25922169819E+01  0.21347585188E+02  0.00000000000E+00 0.  1.
         11    1    5    5    0    0  0.72865726593E+02 -0.30540304629E+03  0.14488600564E+03  0.34579240799E+03  0.00000000000E+00 0. -1.
        -11    1    5    5    0    0 -0.17657400835E+02 -0.15449039986E+03  0.34120180606E+02  0.15919564748E+03  0.00000000000E+00 0.  1.
          1    1    6    6  503    0 -0.22725113395E+03  0.23510325841E+03  0.18498616198E+03  0.37568138112E+03  0.00000000000E+00 0. -1.
         -1    1    6    6    0  503 -0.46311145584E+02  0.11906928860E+03  0.10747012398E+03  0.16694922953E+03  0.00000000000E+00 0.  1.
<mgrwt>
<rscale>  0 0.13886132E+04</rscale>
<asrwt>0</asrwt>
<pdfrwt beam="1">  1        2 0.91194698E-01 0.13886132E+04</pdfrwt>
<pdfrwt beam="2">  1       -1 0.12511410E+00 0.13886132E+04</pdfrwt>
<totfact> 0.31293997E+01</totfact>
</mgrwt>
</event>
<event>
12    6  0.1403409E-007  0.2080321E+04  0.7818608E-02  0.8569962E-01
          2   -1    0    0  501    0  0.00000000000E+00  0.00000000000E+00  0.28712450861E+04  0.28712450861E+04  0.00000000000E+00 0. -1.
         -1   -1    0    0    0  501 -0.00000000000E+00 -0.00000000000E+00 -0.37681700426E+03  0.37681700426E+03  0.00000000000E+00 0.  1.
         24    2    1    2    0    0 -0.73779098092E+03 -0.13238126373E+02  0.37986213960E+03  0.83389001678E+03  0.81034162324E+02 0.  0.
        254    2    1    2    0    0  0.73779098092E+03  0.13238126373E+02  0.21145659422E+04  0.24141720736E+04  0.90129179363E+03 0.  0.
         23    2    4    4    0    0  0.62927546076E+03  0.34281263386E+03  0.93933979017E+03  0.11853445904E+04  0.95783345417E+02 0.  0.
         23    2    4    4    0    0  0.10851552017E+03 -0.32957450749E+03  0.11752261521E+04  0.12288274831E+04  0.92008155627E+02 0.  0.
          2    1    3    3  502    0 -0.46928609127E+03  0.30405365776E+02  0.23612530093E+03  0.52622151178E+03  0.00000000000E+00 0. -1.
         -1    1    3    3    0  502 -0.26850488966E+03 -0.43643492149E+02  0.14373683867E+03  0.30766850500E+03  0.00000000000E+00 0.  1.
         11    1    5    5    0    0  0.23730425426E+03  0.11613379670E+03  0.42155951287E+03  0.49750657355E+03  0.00000000000E+00 0. -1.
        -11    1    5    5    0    0  0.39197120649E+03  0.22667883716E+03  0.51778027730E+03  0.68783801690E+03  0.00000000000E+00 0.  1.
          1    1    6    6  503    0  0.21990349493E+01 -0.27768998955E+02  0.36015582632E+02  0.45531036118E+02  0.00000000000E+00 0. -1.
         -1    1    6    6    0  503  0.10631648522E+03 -0.30180550853E+03  0.11392105694E+04  0.11832964470E+04  0.00000000000E+00 0.  1.
<mgrwt>
<rscale>  0 0.20803211E+04</rscale>
<asrwt>0</asrwt>
<pdfrwt beam="1">  1        2 0.44173000E+00 0.20803211E+04</pdfrwt>
<pdfrwt beam="2">  1       -1 0.57971849E-01 0.20803211E+04</pdfrwt>
<totfact> 0.66354516E+00</totfact>
</mgrwt>
</event>
<event>
12    6  0.1403409E-007  0.3040810E+04  0.7818608E-02  0.8232172E-01
         -1   -1    0    0    0  501 -0.00000000000E+00  0.00000000000E+00  0.97678628204E+03  0.97678628204E+03  0.00000000000E+00 0.  1.
          2   -1    0    0  501    0  0.00000000000E+00 -0.00000000000E+00 -0.23665686210E+04  0.23665686210E+04  0.00000000000E+00 0. -1.
         24    2    1    2    0    0 -0.12332152732E+04  0.46915216695E+03 -0.16814397370E+03  0.13325781405E+04  0.81045905722E+02 0.  0.
        254    2    1    2    0    0  0.12332152732E+04 -0.46915216695E+03 -0.12216383653E+04  0.20107767626E+04  0.89994401362E+03 0.  0.
         23    2    4    4    0    0  0.49708639322E+03  0.24917737460E+03 -0.48308771290E+03  0.74131989306E+03  0.83649262791E+02 0.  0.
         23    2    4    4    0    0  0.73612887997E+03 -0.71832954155E+03 -0.73855065239E+03  0.12694568695E+04  0.90446775807E+02 0.  0.
          4    1    3    3  502    0 -0.89827764207E+03  0.37655789359E+03 -0.10920636329E+03  0.98011458475E+03  0.00000000000E+00 0. -1.
         -3    1    3    3    0  502 -0.33493763112E+03  0.92594273359E+02 -0.58937610407E+02  0.35246355573E+03  0.00000000000E+00 0.  1.
         11    1    5    5    0    0  0.15299611821E+03  0.42416418687E+02 -0.10881915993E+03  0.19248006216E+03  0.00000000000E+00 0. -1.
        -11    1    5    5    0    0  0.34409027500E+03  0.20676095591E+03 -0.37426855297E+03  0.54883983090E+03  0.00000000000E+00 0.  1.
          1    1    6    6  503    0  0.17427682934E+02 -0.21727741280E+02 -0.44383154887E+01  0.28204920102E+02  0.00000000000E+00 0. -1.
         -1    1    6    6    0  503  0.71870119703E+03 -0.69660180027E+03 -0.73411233690E+03  0.12412519494E+04  0.00000000000E+00 0.  1.
<mgrwt>
<rscale>  0 0.30408103E+04</rscale>
<asrwt>0</asrwt>
<pdfrwt beam="1">  1        2 0.36408748E+00 0.30408103E+04</pdfrwt>
<pdfrwt beam="2">  1       -1 0.15027481E+00 0.30408103E+04</pdfrwt>
<totfact> 0.13987120E+00</totfact>
</mgrwt>
</event>
<event>
12    6  0.1403409E-007  0.2196496E+04  0.7818608E-02  0.8519888E-01
          2   -1    0    0  501    0  0.00000000000E+00  0.00000000000E+00  0.77226102733E+03  0.77226102733E+03  0.00000000000E+00 0. -1.
         -1   -1    0    0    0  501 -0.00000000000E+00 -0.00000000000E+00 -0.15618406278E+04  0.15618406278E+04  0.00000000000E+00 0.  1.
         24    2    1    2    0    0  0.29328808183E+03 -0.43217881849E+03 -0.11248829903E+04  0.12426035267E+04  0.76846291430E+02 0.  0.
        254    2    1    2    0    0 -0.29328808183E+03  0.43217881849E+03  0.33530338985E+03  0.10914981284E+04  0.89785487194E+03 0.  0.
         23    2    4    4    0    0  0.19810489174E+03  0.32581088285E+03 -0.11726570949E+03  0.40892297207E+03  0.89824667803E+02 0.  0.
         23    2    4    4    0    0 -0.49139297357E+03  0.10636793564E+03  0.45256909935E+03  0.68257515638E+03  0.91152960579E+02 0.  0.
          4    1    3    3  502    0  0.20011431615E+03 -0.32056967752E+03 -0.73427217076E+03  0.82581249593E+03  0.00000000000E+00 0. -1.
         -3    1    3    3    0  502  0.93173765680E+02 -0.11160914097E+03 -0.39061081956E+03  0.41679103076E+03  0.00000000000E+00 0.  1.
         11    1    5    5    0    0  0.22625266111E+01  0.23037646008E+02 -0.30054064122E+02  0.37935457431E+02  0.00000000000E+00 0. -1.
        -11    1    5    5    0    0  0.19584236513E+03  0.30277323684E+03 -0.87211645371E+02  0.37098751463E+03  0.00000000000E+00 0.  1.
          2    1    6    6  503    0 -0.46879417699E+03  0.83105116286E+02  0.40532543707E+03  0.62527046202E+03  0.00000000000E+00 0.  1.
         -2    1    6    6    0  503 -0.22598796575E+02  0.23262819353E+02  0.47243662278E+02  0.57304694366E+02  0.00000000000E+00 0. -1.
<mgrwt>
<rscale>  0 0.21964960E+04</rscale>
<asrwt>0</asrwt>
<pdfrwt beam="1">  1        2 0.11880939E+00 0.21964960E+04</pdfrwt>
<pdfrwt beam="2">  1       -1 0.24028317E+00 0.21964960E+04</pdfrwt>
<totfact> 0.30395775E+00</totfact>
</mgrwt>
</event>
<event>
12    6  0.1403409E-007  0.1559253E+04  0.7818608E-02  0.8845979E-01
         -1   -1    0    0    0  501 -0.00000000000E+00  0.00000000000E+00  0.79617243872E+03  0.79617243872E+03  0.00000000000E+00 0.  1.
          2   -1    0    0  501    0  0.00000000000E+00 -0.00000000000E+00 -0.76342436300E+03  0.76342436300E+03  0.00000000000E+00 0. -1.
         24    2    1    2    0    0  0.17875213460E+03 -0.47856026769E+03 -0.67465448398E+02  0.52156578038E+03  0.80666108776E+02 0.  0.
        254    2    1    2    0    0 -0.17875213460E+03  0.47856026769E+03  0.10021352412E+03  0.10380310213E+04  0.89804977334E+03 0.  0.
         23    2    4    4    0    0  0.83332794589E+02  0.57682133313E+03 -0.19377116286E+03  0.62043743454E+03  0.87909849319E+02 0.  0.
         23    2    4    4    0    0 -0.26208492919E+03 -0.98261065448E+02  0.29398468697E+03  0.41759358680E+03  0.98049275695E+02 0.  0.
          2    1    3    3  502    0  0.14832920356E+03 -0.32242339035E+03 -0.73254093536E+02  0.36238730316E+03  0.00000000000E+00 0. -1.
         -1    1    3    3    0  502  0.30422931044E+02 -0.15613687734E+03  0.57886451380E+01  0.15917847722E+03  0.00000000000E+00 0.  1.
         11    1    5    5    0    0  0.79312353271E+01  0.10368798883E+03 -0.97126596772E+00  0.10399541759E+03  0.00000000000E+00 0.  1.
        -11    1    5    5    0    0  0.75401559262E+02  0.47313334431E+03 -0.19279989689E+03  0.51644201695E+03  0.00000000000E+00 0. -1.
          1    1    6    6  503    0 -0.23266973465E+03 -0.10341128363E+03  0.29235550019E+03  0.38768651962E+03  0.00000000000E+00 0. -1.
         -1    1    6    6    0  503 -0.29415194542E+02  0.51502181812E+01  0.16291867803E+01  0.29907067172E+02  0.00000000000E+00 0.  1.
<mgrwt>
<rscale>  0 0.15592529E+04</rscale>
<asrwt>0</asrwt>
<pdfrwt beam="1">  1        2 0.11744990E+00 0.15592529E+04</pdfrwt>
<pdfrwt beam="2">  1       -1 0.12248807E+00 0.15592529E+04</pdfrwt>
<totfact> 0.23693147E+01</totfact>
</mgrwt>
</event>
<event>
12    6  0.1403409E-007  0.1831939E+04  0.7818608E-02  0.8689497E-01
         -1   -1    0    0    0  501 -0.00000000000E+00  0.00000000000E+00  0.10724042435E+04  0.10724042435E+04  0.00000000000E+00 0.  1.
          2   -1    0    0  501    0  0.00000000000E+00 -0.00000000000E+00 -0.78235416353E+03  0.78235416353E+03  0.00000000000E+00 0. -1.
         24    2    1    2    0    0 -0.56333760113E+03 -0.19112720086E+03  0.46811615850E+03  0.76129187724E+03  0.80955078638E+02 0.  0.
        254    2    1    2    0    0  0.56333760113E+03  0.19112720086E+03 -0.17806607850E+03  0.10934665298E+04  0.90004592314E+03 0.  0.
         23    2    4    4    0    0  0.33685433118E+03  0.53660253311E+03 -0.16780805322E+02  0.64035942308E+03  0.91462977934E+02 0.  0.
         23    2    4    4    0    0  0.22648326995E+03 -0.34547533225E+03 -0.16128527318E+03  0.45310710673E+03  0.92979750827E+02 0.  0.
          2    1    3    3  502    0 -0.12754195090E+03 -0.86110899361E+01  0.10396026984E+03  0.16476904386E+03  0.00000000000E+00 0. -1.
         -1    1    3    3    0  502 -0.43579565022E+03 -0.18251611092E+03  0.36415588866E+03  0.59652283338E+03  0.00000000000E+00 0.  1.
         11    1    5    5    0    0  0.21178081212E+02  0.44942304647E+02  0.22960055002E+02  0.54731033213E+02  0.00000000000E+00 0. -1.
        -11    1    5    5    0    0  0.31567624997E+03  0.49166022846E+03 -0.39740860324E+02  0.58562838987E+03  0.00000000000E+00 0.  1.
          4    1    6    6  503    0  0.11622390001E+03 -0.15452393628E+03 -0.27774244787E+02  0.19533829755E+03  0.00000000000E+00 0. -1.
         -4    1    6    6    0  503  0.11025936994E+03 -0.19095139597E+03 -0.13351102839E+03  0.25776880918E+03  0.00000000000E+00 0.  1.
<mgrwt>
<rscale>  0 0.18319388E+04</rscale>
<asrwt>0</asrwt>
<pdfrwt beam="1">  1        2 0.12036218E+00 0.18319388E+04</pdfrwt>
<pdfrwt beam="2">  1       -1 0.16498527E+00 0.18319388E+04</pdfrwt>
<totfact> 0.10223340E+01</totfact>
</mgrwt>
</event>
<event>
12    6  0.1403409E-007  0.3609717E+04  0.7818608E-02  0.8088269E-01
          2   -1    0    0  501    0  0.00000000000E+00  0.00000000000E+00  0.77713791874E+03  0.77713791874E+03  0.00000000000E+00 0. -1.
         -1   -1    0    0    0  501 -0.00000000000E+00 -0.00000000000E+00 -0.41916816809E+04  0.41916816809E+04  0.00000000000E+00 0.  1.
         24    2    1    2    0    0 -0.57074121283E+03  0.13363944585E+04 -0.41152378731E+03  0.15133915895E+04  0.96470694062E+02 0.  0.
        254    2    1    2    0    0  0.57074121283E+03 -0.13363944585E+04 -0.30030199749E+04  0.34554280102E+04  0.90008781968E+03 0.  0.
         23    2    4    4    0    0 -0.14343374221E+03 -0.41755432269E+03 -0.14085647740E+04  0.14791595210E+04  0.94516217390E+02 0.  0.
         23    2    4    4    0    0  0.71417495504E+03 -0.91884013584E+03 -0.15944552009E+04  0.19762684891E+04  0.95061516186E+02 0.  0.
          4    1    3    3  502    0 -0.28610798914E+03  0.72815711002E+03 -0.17742488335E+03  0.80221577369E+03  0.00000000000E+00 0. -1.
         -3    1    3    3    0  502 -0.28463322369E+03  0.60823734852E+03 -0.23409890396E+03  0.71117581581E+03  0.00000000000E+00 0.  1.
         11    1    5    5    0    0 -0.90544946353E+01 -0.20345318826E+02 -0.25157371196E+02  0.33597755828E+02  0.00000000000E+00 0. -1.
        -11    1    5    5    0    0 -0.13437924758E+03 -0.39720900387E+03 -0.13834074028E+04  0.14455617652E+04  0.00000000000E+00 0.  1.
          4    1    6    6  503    0  0.17688936188E+03 -0.26567578087E+03 -0.37862845442E+03  0.49521002957E+03  0.00000000000E+00 0. -1.
         -4    1    6    6    0  503  0.53728559316E+03 -0.65316435497E+03 -0.12158267465E+04  0.14810584596E+04  0.00000000000E+00 0.  1.
<mgrwt>
<rscale>  0 0.36097173E+04</rscale>
<asrwt>0</asrwt>
<pdfrwt beam="1">  1        2 0.11955968E+00 0.36097173E+04</pdfrwt>
<pdfrwt beam="2">  1       -1 0.64487409E+00 0.36097173E+04</pdfrwt>
<totfact> 0.10065898E-02</totfact>
</mgrwt>
</event>
<event>
12    6  0.1403409E-007  0.1604014E+04  0.7818608E-02  0.8818086E-01
          2   -1    0    0  501    0  0.00000000000E+00  0.00000000000E+00  0.14061125537E+04  0.14061125537E+04  0.00000000000E+00 0. -1.
         -1   -1    0    0    0  501 -0.00000000000E+00 -0.00000000000E+00 -0.45744229539E+03  0.45744229539E+03  0.00000000000E+00 0.  1.
         24    2    1    2    0    0  0.26896211051E+03 -0.43909137582E+03  0.11514652363E+03  0.53385242463E+03  0.81227065477E+02 0.  0.
        254    2    1    2    0    0 -0.26896211051E+03  0.43909137582E+03  0.83352373469E+03  0.13297024245E+04  0.89900215136E+03 0.  0.
         23    2    4    4    0    0 -0.58060046075E+03  0.26075158502E+03  0.65587280210E+03  0.91847847806E+03  0.91352602673E+02 0.  0.
         23    2    4    4    0    0  0.31163835023E+03  0.17833979080E+03  0.17765093259E+03  0.41122394642E+03  0.92853314095E+02 0.  0.
          2    1    3    3  502    0  0.16590926421E+02 -0.47107539426E+01  0.11972766070E+02  0.20995170149E+02  0.00000000000E+00 0. -1.
         -1    1    3    3    0  502  0.25237118409E+03 -0.43438062188E+03  0.10317375756E+03  0.51285725448E+03  0.00000000000E+00 0.  1.
         11    1    5    5    0    0 -0.39001396415E+02 -0.38072871822E+01  0.28397391109E+02  0.48394381697E+02  0.00000000000E+00 0.  1.
        -11    1    5    5    0    0 -0.54159906433E+03  0.26455887221E+03  0.62747541099E+03  0.87008409636E+03  0.00000000000E+00 0. -1.
          1    1    6    6  503    0  0.27419739342E+03  0.18148003790E+03  0.13800147050E+03  0.35660008494E+03  0.00000000000E+00 0. -1.
         -1    1    6    6    0  503  0.37440956813E+02 -0.31402471065E+01  0.39649462092E+02  0.54623861482E+02  0.00000000000E+00 0.  1.
<mgrwt>
<rscale>  0 0.16040142E+04</rscale>
<asrwt>0</asrwt>
<pdfrwt beam="1">  1        2 0.21632501E+00 0.16040142E+04</pdfrwt>
<pdfrwt beam="2">  1       -1 0.70375738E-01 0.16040142E+04</pdfrwt>
<totfact> 0.32003798E+01</totfact>
</mgrwt>
</event>
<event>
12    6  0.1403409E-007  0.2398271E+04  0.7818608E-02  0.8440151E-01
          2   -1    0    0  501    0  0.00000000000E+00  0.00000000000E+00  0.12866833244E+04  0.12866833244E+04  0.00000000000E+00 0. -1.
         -1   -1    0    0    0  501 -0.00000000000E+00 -0.00000000000E+00 -0.11175447222E+04  0.11175447222E+04  0.00000000000E+00 0.  1.
         24    2    1    2    0    0  0.71356000800E+03  0.72112614892E+03  0.24205797016E+03  0.10461540788E+04  0.81581173737E+02 0.  0.
        254    2    1    2    0    0 -0.71356000800E+03 -0.72112614892E+03 -0.72919367913E+02  0.13580739678E+04  0.89992047439E+03 0.  0.
         23    2    4    4    0    0 -0.32721815847E+03 -0.58278289276E+03  0.35203451721E+03  0.76062447015E+03  0.88958754268E+02 0.  0.
         23    2    4    4    0    0 -0.38634184953E+03 -0.13834325616E+03 -0.42495388512E+03  0.59744949769E+03  0.89225649824E+02 0.  0.
          4    1    3    3  502    0  0.45138496427E+02  0.53577780145E+02 -0.33070218582E+01  0.70135574272E+02  0.00000000000E+00 0. -1.
         -3    1    3    3    0  502  0.66842151157E+03  0.66754836877E+03  0.24536499202E+03  0.97601850448E+03  0.00000000000E+00 0.  1.
         11    1    5    5    0    0 -0.24263440406E+03 -0.45470398845E+03  0.31018634832E+03  0.60153365810E+03  0.00000000000E+00 0.  1.
        -11    1    5    5    0    0 -0.84583754406E+02 -0.12807890431E+03  0.41848168888E+02  0.15909081204E+03  0.00000000000E+00 0. -1.
          2    1    6    6  503    0 -0.20573482230E+03 -0.80734940713E+02 -0.16544823472E+03  0.27607619624E+03  0.00000000000E+00 0.  1.
         -2    1    6    6    0  503 -0.18060702723E+03 -0.57608315445E+02 -0.25950565040E+03  0.32137330145E+03  0.00000000000E+00 0. -1.
<mgrwt>
<rscale>  0 0.23982712E+04</rscale>
<asrwt>0</asrwt>
<pdfrwt beam="1">  1        2 0.19795128E+00 0.23982712E+04</pdfrwt>
<pdfrwt beam="2">  1       -1 0.17192996E+00 0.23982712E+04</pdfrwt>
<totfact> 0.41084589E+00</totfact>
</mgrwt>
</event>
<event>
12    6  0.1403409E-007  0.1082033E+04  0.7818608E-02  0.9222883E-01
          2   -1    0    0  501    0  0.00000000000E+00  0.00000000000E+00  0.96576722688E+03  0.96576722688E+03  0.00000000000E+00 0. -1.
         -1   -1    0    0    0  501 -0.00000000000E+00 -0.00000000000E+00 -0.30307375352E+03  0.30307375352E+03  0.00000000000E+00 0.  1.
         24    2    1    2    0    0 -0.96027266314E+02 -0.11215318174E+03  0.67218560160E+02  0.17950217946E+03  0.76831800389E+02 0.  0.
        254    2    1    2    0    0  0.96027266314E+02  0.11215318174E+03  0.59547491320E+03  0.10893388009E+04  0.90014947588E+03 0.  0.
         23    2    4    4    0    0  0.53338817193E+02 -0.12857129923E+03  0.76198957246E+03  0.78001754747E+03  0.91780484934E+02 0.  0.
         23    2    4    4    0    0  0.42688449120E+02  0.24072448098E+03 -0.16651465926E+03  0.30932125347E+03  0.90454003085E+02 0.  0.
          4    1    3    3  502    0 -0.89380908336E+00 -0.53505015751E+02  0.31882689840E+02  0.62290380610E+02  0.00000000000E+00 0. -1.
         -3    1    3    3    0  502 -0.95133457230E+02 -0.58648165992E+02  0.35335870320E+02  0.11721179885E+03  0.00000000000E+00 0.  1.
         11    1    5    5    0    0  0.59400831002E+02 -0.97369887598E+02  0.38105060134E+03  0.39775484223E+03  0.00000000000E+00 0.  1.
        -11    1    5    5    0    0 -0.60620138087E+01 -0.31201411636E+02  0.38093897112E+03  0.38226270524E+03  0.00000000000E+00 0. -1.
          3    1    6    6  503    0  0.41777110715E+02  0.53197329717E+02 -0.17696066726E+02  0.69917334376E+02  0.00000000000E+00 0. -1.
         -3    1    6    6    0  503  0.91133840577E+00  0.18752715126E+03 -0.14881859253E+03  0.23940391910E+03  0.00000000000E+00 0.  1.
<mgrwt>
<rscale>  0 0.10820327E+04</rscale>
<asrwt>0</asrwt>
<pdfrwt beam="1">  1        2 0.14857957E+00 0.10820327E+04</pdfrwt>
<pdfrwt beam="2">  1       -1 0.46626732E-01 0.10820327E+04</pdfrwt>
<totfact> 0.13762602E+02</totfact>
</mgrwt>
</event>
<event>
12    6  0.1403409E-007  0.1596901E+04  0.7818608E-02  0.8822454E-01
         -1   -1    0    0    0  501 -0.00000000000E+00  0.00000000000E+00  0.48187643601E+03  0.48187643601E+03  0.00000000000E+00 0.  1.
          2   -1    0    0  501    0  0.00000000000E+00 -0.00000000000E+00 -0.13230006125E+04  0.13230006125E+04  0.00000000000E+00 0. -1.
         24    2    1    2    0    0 -0.48248045139E+03 -0.12794721494E+03 -0.55232862588E+02  0.50870813448E+03  0.81088970853E+02 0.  0.
        254    2    1    2    0    0  0.48248045139E+03  0.12794721494E+03 -0.78589131387E+03  0.12961689140E+04  0.90181529186E+03 0.  0.
         23    2    4    4    0    0  0.66967579012E+03 -0.98610888956E+02 -0.69672339895E+03  0.97558566294E+03  0.90300164951E+02 0.  0.
         23    2    4    4    0    0 -0.18719533874E+03  0.22655810390E+03 -0.89167914911E+02  0.32058325106E+03  0.91934947228E+02 0.  0.
          2    1    3    3  502    0 -0.18045940276E+00  0.40155069386E+01 -0.46228631295E+01  0.61259876823E+01  0.00000000000E+00 0. -1.
         -1    1    3    3    0  502 -0.48229999198E+03 -0.13196272188E+03 -0.50609999458E+02  0.50258214680E+03  0.00000000000E+00 0.  1.
         11    1    5    5    0    0  0.32264858216E+03 -0.66818194142E+02 -0.28032919720E+03  0.43260979813E+03  0.00000000000E+00 0.  1.
        -11    1    5    5    0    0  0.34702720797E+03 -0.31792694814E+02 -0.41639420176E+03  0.54297586481E+03  0.00000000000E+00 0. -1.
          4    1    6    6  503    0 -0.10104413899E+03  0.62800631815E+02 -0.10218836225E+02  0.11940796454E+03  0.00000000000E+00 0. -1.
         -4    1    6    6    0  503 -0.86151199741E+02  0.16375747208E+03 -0.78949078686E+02  0.20117528652E+03  0.00000000000E+00 0.  1.
<mgrwt>
<rscale>  0 0.15969005E+04</rscale>
<asrwt>0</asrwt>
<pdfrwt beam="1">  1        2 0.20353856E+00 0.15969005E+04</pdfrwt>
<pdfrwt beam="2">  1       -1 0.74134837E-01 0.15969005E+04</pdfrwt>
<totfact> 0.32105683E+01</totfact>
</mgrwt>
</event>
<event>
12    6  0.1403409E-007  0.3832113E+04  0.7818608E-02  0.8039298E-01
         -1   -1    0    0    0  501 -0.00000000000E+00  0.00000000000E+00  0.83287563460E+03  0.83287563460E+03  0.00000000000E+00 0.  1.
          2   -1    0    0  501    0  0.00000000000E+00 -0.00000000000E+00 -0.44079485001E+04  0.44079485001E+04  0.00000000000E+00 0. -1.
         24    2    1    2    0    0 -0.13941987105E+04  0.11072006719E+04 -0.12489630403E+04  0.21762182501E+04  0.79585325244E+02 0.  0.
        254    2    1    2    0    0  0.13941987105E+04 -0.11072006719E+04 -0.23261098253E+04  0.30646058846E+04  0.90074354647E+03 0.  0.
         23    2    4    4    0    0  0.58533663288E+03 -0.38990489649E+02 -0.10802505199E+04  0.12327678730E+04  0.92931216536E+02 0.  0.
         23    2    4    4    0    0  0.80886207760E+03 -0.10682101823E+04 -0.12458593054E+04  0.18318380116E+04  0.90190008818E+02 0.  0.
          2    1    3    3  502    0 -0.10294461365E+04  0.85282860417E+03 -0.96207177655E+03  0.16470148995E+04  0.00000000000E+00 0. -1.
         -1    1    3    3    0  502 -0.36475257399E+03  0.25437206777E+03 -0.28689126373E+03  0.52920335061E+03  0.00000000000E+00 0.  1.
         11    1    5    5    0    0  0.21937024096E+03 -0.59167414678E+02 -0.39726918799E+03  0.45765368272E+03  0.00000000000E+00 0.  1.
        -11    1    5    5    0    0  0.36596639192E+03  0.20176925029E+02 -0.68298133187E+03  0.77511419030E+03  0.00000000000E+00 0. -1.
          3    1    6    6  503    0  0.58426336584E+03 -0.78810630636E+03 -0.85805986458E+03  0.13033579562E+04  0.00000000000E+00 0. -1.
         -3    1    6    6    0  503  0.22459871176E+03 -0.28010387594E+03 -0.38779944081E+03  0.52848005538E+03  0.00000000000E+00 0.  1.
<mgrwt>
<rscale>  0 0.38321132E+04</rscale>
<asrwt>0</asrwt>
<pdfrwt beam="1">  1        2 0.67814593E+00 0.38321132E+04</pdfrwt>
<pdfrwt beam="2">  1       -1 0.12813471E+00 0.38321132E+04</pdfrwt>
<totfact> 0.71558158E-02</totfact>
</mgrwt>
</event>
<event>
12    6  0.1403409E-007  0.2595579E+04  0.7818608E-02  0.8369704E-01
          2   -1    0    0  501    0  0.00000000000E+00  0.00000000000E+00  0.36965016662E+04  0.36965016662E+04  0.00000000000E+00 0. -1.
         -1   -1    0    0    0  501 -0.00000000000E+00 -0.00000000000E+00 -0.45563553684E+03  0.45563553684E+03  0.00000000000E+00 0.  1.
         24    2    1    2    0    0  0.14806812116E+03  0.10590159260E+04  0.79616311544E+03  0.13355786691E+04  0.80347837112E+02 0.  0.
        254    2    1    2    0    0 -0.14806812116E+03 -0.10590159260E+04  0.24447030139E+04  0.28165585339E+04  0.90165971887E+03 0.  0.
         23    2    4    4    0    0 -0.14583008869E+03  0.10790470459E+03  0.58369559328E+03  0.61799617124E+03  0.91153069117E+02 0.  0.
         23    2    4    4    0    0 -0.22380324674E+01 -0.11669206306E+04  0.18610074206E+04  0.21985623627E+04  0.92838978694E+02 0.  0.
          2    1    3    3  502    0  0.70811801168E+02  0.65830639502E+03  0.45123878413E+03  0.80124781510E+03  0.00000000000E+00 0. -1.
         -1    1    3    3    0  502  0.77256319991E+02  0.40070953101E+03  0.34492433131E+03  0.53433085401E+03  0.00000000000E+00 0.  1.
         11    1    5    5    0    0 -0.99656392763E+02  0.11931553116E+03  0.44582219529E+03  0.47214936451E+03  0.00000000000E+00 0. -1.
        -11    1    5    5    0    0 -0.46173695929E+02 -0.11410826575E+02  0.13787339800E+03  0.14584680673E+03  0.00000000000E+00 0.  1.
          2    1    6    6  503    0  0.14425190416E+02 -0.11298903692E+04  0.17940158988E+04  0.21202248413E+04  0.00000000000E+00 0. -1.
         -2    1    6    6    0  503 -0.16663222883E+02 -0.37030261456E+02  0.66991521805E+02  0.78337521368E+02  0.00000000000E+00 0.  1.
<mgrwt>
<rscale>  0 0.25955789E+04</rscale>
<asrwt>0</asrwt>
<pdfrwt beam="1">  1        2 0.56869255E+00 0.25955789E+04</pdfrwt>
<pdfrwt beam="2">  1       -1 0.70097777E-01 0.25955789E+04</pdfrwt>
<totfact> 0.12170162E+00</totfact>
</mgrwt>
</event>
<event>
12    6  0.1403409E-007  0.1628837E+04  0.7818608E-02  0.8803026E-01
         -1   -1    0    0    0  501 -0.00000000000E+00  0.00000000000E+00  0.13051562013E+04  0.13051562013E+04  0.00000000000E+00 0.  1.
          2   -1    0    0  501    0  0.00000000000E+00 -0.00000000000E+00 -0.50819773006E+03  0.50819773006E+03  0.00000000000E+00 0. -1.
         24    2    1    2    0    0  0.70870393809E+02 -0.16346997673E+03 -0.31631048978E+03  0.37089985258E+03  0.75956097121E+02 0.  0.
        254    2    1    2    0    0 -0.70870393809E+02  0.16346997673E+03  0.11132689610E+04  0.14424540788E+04  0.89975604683E+03 0.  0.
         23    2    4    4    0    0 -0.14104673355E+03  0.51515718644E+03  0.73526276675E+03  0.91344171275E+03  0.92104932765E+02 0.  0.
         23    2    4    4    0    0  0.70176339738E+02 -0.35168720972E+03  0.37800619424E+03  0.52901236601E+03  0.91415471155E+02 0.  0.
          4    1    3    3  502    0  0.23490764137E+01 -0.23636379199E+01 -0.62366187044E+02  0.62455153756E+02  0.00000000000E+00 0. -1.
         -3    1    3    3    0  502  0.68521317396E+02 -0.16110633881E+03 -0.25394430274E+03  0.30844469882E+03  0.00000000000E+00 0.  1.
         11    1    5    5    0    0 -0.11380786700E+03  0.48733963690E+03  0.65566465208E+03  0.82483227888E+03  0.00000000000E+00 0.  1.
        -11    1    5    5    0    0 -0.27238866546E+02  0.27817549540E+02  0.79598114663E+02  0.88609433871E+02  0.00000000000E+00 0. -1.
          1    1    6    6  503    0 -0.14218656072E+02 -0.25455370256E+02  0.12061395601E+02  0.31553499318E+02  0.00000000000E+00 0. -1.
         -1    1    6    6    0  503  0.84394995810E+02 -0.32623183946E+03  0.36594479864E+03  0.49745886669E+03  0.00000000000E+00 0.  1.
<mgrwt>
<rscale>  0 0.16288369E+04</rscale>
<asrwt>0</asrwt>
<pdfrwt beam="1">  1        2 0.78184267E-01 0.16288369E+04</pdfrwt>
<pdfrwt beam="2">  1       -1 0.20079326E+00 0.16288369E+04</pdfrwt>
<totfact> 0.98192762E+00</totfact>
</mgrwt>
</event>
<event>
12    6  0.1403409E-007  0.1193137E+04  0.7818608E-02  0.9118885E-01
         -1   -1    0    0    0  501 -0.00000000000E+00  0.00000000000E+00  0.42910923894E+03  0.42910923894E+03  0.00000000000E+00 0.  1.
          2   -1    0    0  501    0  0.00000000000E+00 -0.00000000000E+00 -0.82937877345E+03  0.82937877345E+03  0.00000000000E+00 0. -1.
         24    2    1    2    0    0 -0.98171747705E+02 -0.22296422379E+03 -0.13815331727E+03  0.29115101573E+03  0.79572845587E+02 0.  0.
        254    2    1    2    0    0  0.98171747705E+02  0.22296422379E+03 -0.26211621724E+03  0.96733699665E+03  0.89871308915E+03 0.  0.
         23    2    4    4    0    0 -0.26453474086E+03  0.38625960436E+03  0.95455290903E+01  0.47722598001E+03  0.92078269882E+02 0.  0.
         23    2    4    4    0    0  0.36270648857E+03 -0.16329538057E+03 -0.27166174633E+03  0.49011101665E+03  0.90483844157E+02 0.  0.
          4    1    3    3  502    0 -0.44119095676E+02 -0.12960359469E+03 -0.11939009582E+03  0.18165236398E+03  0.00000000000E+00 0. -1.
         -3    1    3    3    0  502 -0.54052652030E+02 -0.93360629093E+02 -0.18763221446E+02  0.10949865175E+03  0.00000000000E+00 0.  1.
         11    1    5    5    0    0 -0.26224133807E+03  0.35579012335E+03 -0.78571213593E+01  0.44206206083E+03  0.00000000000E+00 0.  1.
        -11    1    5    5    0    0 -0.22934027902E+01  0.30469481006E+02  0.17402650450E+02  0.35163919176E+02  0.00000000000E+00 0. -1.
          4    1    6    6  503    0  0.27253471914E+03 -0.12246318676E+03 -0.24809077750E+03  0.38835736008E+03  0.00000000000E+00 0. -1.
         -4    1    6    6    0  503  0.90171769426E+02 -0.40832193814E+02 -0.23570968834E+02  0.10175365657E+03  0.00000000000E+00 0.  1.
<mgrwt>
<rscale>  0 0.11931372E+04</rscale>
<asrwt>0</asrwt>
<pdfrwt beam="1">  1        2 0.12759673E+00 0.11931372E+04</pdfrwt>
<pdfrwt beam="2">  1       -1 0.66016807E-01 0.11931372E+04</pdfrwt>
<totfact> 0.86013894E+01</totfact>
</mgrwt>
</event>
<event>
12    6  0.1403409E-007  0.1831031E+04  0.7818608E-02  0.8689970E-01
          2   -1    0    0  501    0  0.00000000000E+00  0.00000000000E+00  0.14625902508E+04  0.14625902508E+04  0.00000000000E+00 0. -1.
         -1   -1    0    0    0  501 -0.00000000000E+00 -0.00000000000E+00 -0.57307108244E+03  0.57307108244E+03  0.00000000000E+00 0.  1.
         24    2    1    2    0    0 -0.41531865280E+03  0.64797056016E+02  0.94841927760E+03  0.10405445786E+04  0.80905203864E+02 0.  0.
        254    2    1    2    0    0  0.41531865280E+03 -0.64797056016E+02 -0.58900109245E+02  0.99511675468E+03  0.90005549315E+03 0.  0.
         23    2    4    4    0    0  0.31740984720E+03  0.24000325052E+03 -0.36160655376E+03  0.54563891383E+03  0.92800609976E+02 0.  0.
         23    2    4    4    0    0  0.97908805603E+02 -0.30480030653E+03  0.30270644451E+03  0.44947784085E+03  0.88936925881E+02 0.  0.
          4    1    3    3  502    0 -0.41766519748E+03  0.62653865238E+02  0.92432137956E+03  0.10162380315E+04  0.00000000000E+00 0. -1.
         -3    1    3    3    0  502  0.23465446759E+01  0.21431907776E+01  0.24097898036E+02  0.24306547027E+02  0.00000000000E+00 0.  1.
         11    1    5    5    0    0  0.55354538148E+02  0.44495203356E+02 -0.22290978039E+02  0.74436790078E+02  0.00000000000E+00 0. -1.
        -11    1    5    5    0    0  0.26205530905E+03  0.19550804716E+03 -0.33931557572E+03  0.47120212376E+03  0.00000000000E+00 0.  1.
          3    1    6    6  503    0  0.60490108343E+02 -0.66974789757E+02  0.65592320930E+02  0.11156625043E+03  0.00000000000E+00 0. -1.
         -3    1    6    6    0  503  0.37418697260E+02 -0.23782551678E+03  0.23711412358E+03  0.33791159042E+03  0.00000000000E+00 0.  1.
<mgrwt>
<rscale>  0 0.18310305E+04</rscale>
<asrwt>0</asrwt>
<pdfrwt beam="1">  1        2 0.22501388E+00 0.18310305E+04</pdfrwt>
<pdfrwt beam="2">  1       -1 0.88164782E-01 0.18310305E+04</pdfrwt>
<totfact> 0.18080441E+01</totfact>
</mgrwt>
</event>
<event>
12    6  0.1403409E-007  0.2270740E+04  0.7818608E-02  0.8489548E-01
          2   -1    0    0  501    0  0.00000000000E+00  0.00000000000E+00  0.41073378131E+04  0.41073378131E+04  0.00000000000E+00 0. -1.
         -1   -1    0    0    0  501 -0.00000000000E+00 -0.00000000000E+00 -0.31384430707E+03  0.31384430707E+03  0.00000000000E+00 0.  1.
         24    2    1    2    0    0  0.64322927697E+03  0.29012371987E+03  0.28535907642E+04  0.29406269542E+04  0.79943469390E+02 0.  0.
        254    2    1    2    0    0 -0.64322927697E+03 -0.29012371987E+03  0.93990274180E+03  0.14805551660E+04  0.90039478005E+03 0.  0.
         23    2    4    4    0    0 -0.66868530880E+03 -0.53405793008E+03  0.59008859764E+03  0.10439893495E+04  0.96702088919E+02 0.  0.
         23    2    4    4    0    0  0.25456031831E+02  0.24393421021E+03  0.34981414416E+03  0.43656581645E+03  0.89821312488E+02 0.  0.
          2    1    3    3  502    0  0.59393072960E+03  0.28278397120E+03  0.27075839633E+04  0.27863473229E+04  0.00000000000E+00 0. -1.
         -1    1    3    3    0  502  0.49298547376E+02  0.73397486706E+01  0.14600680097E+03  0.15427963123E+03  0.00000000000E+00 0.  1.
         11    1    5    5    0    0 -0.23907558582E+02 -0.43284182240E+02  0.49115272037E+02  0.69695062500E+02  0.00000000000E+00 0.  1.
        -11    1    5    5    0    0 -0.64477775022E+03 -0.49077374784E+03  0.54097332561E+03  0.97429428705E+03  0.00000000000E+00 0. -1.
          3    1    6    6  503    0 -0.10085341275E+02  0.20914165664E+03  0.25927311607E+03  0.33326340239E+03  0.00000000000E+00 0. -1.
         -3    1    6    6    0  503  0.35541373106E+02  0.34792553569E+02  0.90541028082E+02  0.10330241407E+03  0.00000000000E+00 0.  1.
<mgrwt>
<rscale>  0 0.22707396E+04</rscale>
<asrwt>0</asrwt>
<pdfrwt beam="1">  1        2 0.63189809E+00 0.22707396E+04</pdfrwt>
<pdfrwt beam="2">  1       -1 0.48283742E-01 0.22707396E+04</pdfrwt>
<totfact> 0.12461293E+00</totfact>
</mgrwt>
</event>
<event>
12    6  0.1403409E-007  0.1136589E+04  0.7818608E-02  0.9170245E-01
         -1   -1    0    0    0  501 -0.00000000000E+00  0.00000000000E+00  0.12604821701E+03  0.12604821701E+03  0.00000000000E+00 0.  1.
          2   -1    0    0  501    0  0.00000000000E+00 -0.00000000000E+00 -0.25621853209E+04  0.25621853209E+04  0.00000000000E+00 0. -1.
         24    2    1    2    0    0  0.13102188209E+03  0.14982638093E+03 -0.49843723119E+03  0.54277626801E+03  0.80942730771E+02 0.  0.
        254    2    1    2    0    0 -0.13102188209E+03 -0.14982638093E+03 -0.19376998727E+04  0.21454572699E+04  0.89927271854E+03 0.  0.
         23    2    4    4    0    0  0.36470522839E+03 -0.17823059358E+03 -0.91417198813E+03  0.10044146278E+04  0.91445462708E+02 0.  0.
         23    2    4    4    0    0 -0.49572711048E+03  0.28404212649E+02 -0.10235278845E+04  0.11410426420E+04  0.88412743109E+02 0.  0.
          2    1    3    3  502    0 -0.76421367378E+00  0.28807086767E+02 -0.13047265696E+03  0.13361716388E+03  0.00000000000E+00 0. -1.
         -1    1    3    3    0  502  0.13178609577E+03  0.12101929416E+03 -0.36796457424E+03  0.40915910413E+03  0.00000000000E+00 0.  1.
         11    1    5    5    0    0  0.97020254180E+02 -0.75514475737E+02 -0.36086990842E+03  0.38123805761E+03  0.00000000000E+00 0. -1.
        -11    1    5    5    0    0  0.26768497421E+03 -0.10271611784E+03 -0.55330207971E+03  0.62317657024E+03  0.00000000000E+00 0.  1.
          1    1    6    6  503    0 -0.42041007167E+03 -0.73573205449E+01 -0.83459319337E+03  0.93452905624E+03  0.00000000000E+00 0. -1.
         -1    1    6    6    0  503 -0.75317038809E+02  0.35761533194E+02 -0.18893469117E+03  0.20651358580E+03  0.00000000000E+00 0.  1.
<mgrwt>
<rscale>  0 0.11365894E+04</rscale>
<asrwt>0</asrwt>
<pdfrwt beam="1">  1        2 0.39418233E+00 0.11365894E+04</pdfrwt>
<pdfrwt beam="2">  1       -1 0.19392035E-01 0.11365894E+04</pdfrwt>
<totfact> 0.78529988E+01</totfact>
</mgrwt>
</event>
<event>
12    6  0.1403409E-007  0.2845676E+04  0.7818608E-02  0.8289227E-01
         -1   -1    0    0    0  501 -0.00000000000E+00  0.00000000000E+00  0.10455560639E+04  0.10455560639E+04  0.00000000000E+00 0.  1.
          2   -1    0    0  501    0  0.00000000000E+00 -0.00000000000E+00 -0.19362590590E+04  0.19362590590E+04  0.00000000000E+00 0. -1.
         24    2    1    2    0    0 -0.32043589172E+03  0.68560757906E+03 -0.14811094390E+04  0.16651845360E+04  0.80109023240E+02 0.  0.
        254    2    1    2    0    0  0.32043589172E+03 -0.68560757906E+03  0.59040644389E+03  0.13166305868E+04  0.90122107161E+03 0.  0.
         23    2    4    4    0    0 -0.19413875201E+03 -0.18893393510E+03 -0.11498826915E+03  0.30775319257E+03  0.90021323194E+02 0.  0.
         23    2    4    4    0    0  0.51457464373E+03 -0.49667364396E+03  0.70539471305E+03  0.10088773942E+04  0.93702309529E+02 0.  0.
          2    1    3    3  502    0 -0.28583368960E+02  0.12004562010E+03 -0.27654844524E+03  0.30283164044E+03  0.00000000000E+00 0. -1.
         -1    1    3    3    0  502 -0.29185252276E+03  0.56556195896E+03 -0.12045609937E+04  0.13623528956E+04  0.00000000000E+00 0.  1.
         11    1    5    5    0    0 -0.69310937020E+02 -0.16703348707E+02 -0.42656421952E+02  0.83081756014E+02  0.00000000000E+00 0. -1.
        -11    1    5    5    0    0 -0.12482781499E+03 -0.17223058639E+03 -0.72331847201E+02  0.22467143655E+03  0.00000000000E+00 0.  1.
          4    1    6    6  503    0  0.36571511052E+03 -0.39260821997E+03  0.48480574462E+03  0.72313578702E+03  0.00000000000E+00 0. -1.
         -4    1    6    6    0  503  0.14885953321E+03 -0.10406542399E+03  0.22058896842E+03  0.28574160721E+03  0.00000000000E+00 0.  1.
<mgrwt>
<rscale>  0 0.28456756E+04</rscale>
<asrwt>0</asrwt>
<pdfrwt beam="1">  1        2 0.29788600E+00 0.28456756E+04</pdfrwt>
<pdfrwt beam="2">  1       -1 0.16085478E+00 0.28456756E+04</pdfrwt>
<totfact> 0.20586789E+00</totfact>
</mgrwt>
</event>
<event>
12    6  0.1403409E-007  0.2325181E+04  0.7818608E-02  0.8468058E-01
          2   -1    0    0  501    0  0.00000000000E+00  0.00000000000E+00  0.15723491789E+04  0.15723491789E+04  0.00000000000E+00 0. -1.
         -1   -1    0    0    0  501 -0.00000000000E+00 -0.00000000000E+00 -0.85961602447E+03  0.85961602447E+03  0.00000000000E+00 0.  1.
         24    2    1    2    0    0  0.11895752141E+03 -0.84096777137E+03  0.82694115694E+03  0.11881326398E+04  0.80310698304E+02 0.  0.
        254    2    1    2    0    0 -0.11895752141E+03  0.84096777137E+03 -0.11420800252E+03  0.12438325636E+04  0.90149780588E+03 0.  0.
         23    2    4    4    0    0 -0.15128002252E+03  0.15740737337E+03 -0.42515866768E+03  0.48654900246E+03  0.91144460535E+02 0.  0.
         23    2    4    4    0    0  0.32322501110E+02  0.68356039801E+03  0.31095066516E+03  0.75728356113E+03  0.92133131907E+02 0.  0.
          2    1    3    3  502    0  0.51462517749E+02 -0.31709665024E+03  0.36708368363E+03  0.48780027380E+03  0.00000000000E+00 0. -1.
         -1    1    3    3    0  502  0.67495003663E+02 -0.52387112113E+03  0.45985747331E+03  0.70033236597E+03  0.00000000000E+00 0.  1.
         11    1    5    5    0    0 -0.10619017788E+03  0.15207554420E+03 -0.37817156670E+03  0.42120904416E+03  0.00000000000E+00 0. -1.
        -11    1    5    5    0    0 -0.45089844642E+02  0.53318291684E+01 -0.46987100980E+02  0.65339958299E+02  0.00000000000E+00 0.  1.
          1    1    6    6  503    0  0.63919275465E+02  0.51943018575E+03  0.23706201216E+03  0.57453615139E+03  0.00000000000E+00 0. -1.
         -1    1    6    6    0  503 -0.31596774355E+02  0.16413021226E+03  0.73888653003E+02  0.18274740974E+03  0.00000000000E+00 0.  1.
<mgrwt>
<rscale>  0 0.23251809E+04</rscale>
<asrwt>0</asrwt>
<pdfrwt beam="1">  1        2 0.24189987E+00 0.23251809E+04</pdfrwt>
<pdfrwt beam="2">  1       -1 0.13224862E+00 0.23251809E+04</pdfrwt>
<totfact> 0.57826247E+00</totfact>
</mgrwt>
</event>
<event>
12    6  0.1403409E-007  0.2218734E+04  0.7818608E-02  0.8510671E-01
         -1   -1    0    0    0  501 -0.00000000000E+00  0.00000000000E+00  0.10835406613E+04  0.10835406613E+04  0.00000000000E+00 0.  1.
          2   -1    0    0  501    0  0.00000000000E+00 -0.00000000000E+00 -0.11358092896E+04  0.11358092896E+04  0.00000000000E+00 0. -1.
         24    2    1    2    0    0 -0.31907974115E+03  0.86037566581E+03 -0.12470987402E+03  0.92963037146E+03  0.81252122013E+02 0.  0.
        254    2    1    2    0    0  0.31907974115E+03 -0.86037566581E+03  0.72441245716E+02  0.12897195795E+04  0.90336631112E+03 0.  0.
         23    2    4    4    0    0  0.50434529934E+03 -0.59294865154E+03  0.34476133742E+03  0.85620759460E+03  0.90987806515E+02 0.  0.
         23    2    4    4    0    0 -0.18526555819E+03 -0.26742701427E+03 -0.27232009170E+03  0.43351198488E+03  0.89072294660E+02 0.  0.
          2    1    3    3  502    0 -0.19499988573E+03  0.46200373366E+03 -0.33900993837E+02  0.50261484532E+03  0.00000000000E+00 0. -1.
         -1    1    3    3    0  502 -0.12407985542E+03  0.39837193215E+03 -0.90808880183E+02  0.42701552614E+03  0.00000000000E+00 0.  1.
         11    1    5    5    0    0  0.31493968670E+02 -0.69435661638E+02  0.52745738985E+02  0.92710809244E+02  0.00000000000E+00 0. -1.
        -11    1    5    5    0    0  0.47285133067E+03 -0.52351298991E+03  0.29201559843E+03  0.76349678535E+03  0.00000000000E+00 0.  1.
          3    1    6    6  503    0 -0.11769052683E+03 -0.93676615966E+02 -0.13284068965E+03  0.20068138257E+03  0.00000000000E+00 0. -1.
         -3    1    6    6    0  503 -0.67575031367E+02 -0.17375039831E+03 -0.13947940205E+03  0.23283060231E+03  0.00000000000E+00 0.  1.
<mgrwt>
<rscale>  0 0.22187344E+04</rscale>
<asrwt>0</asrwt>
<pdfrwt beam="1">  1        2 0.17473989E+00 0.22187344E+04</pdfrwt>
<pdfrwt beam="2">  1       -1 0.16669856E+00 0.22187344E+04</pdfrwt>
<totfact> 0.56093708E+00</totfact>
</mgrwt>
</event>
<event>
12    6  0.1403409E-007  0.1597654E+04  0.7818608E-02  0.8821991E-01
          2   -1    0    0  501    0  0.00000000000E+00  0.00000000000E+00  0.13821353153E+04  0.13821353153E+04  0.00000000000E+00 0. -1.
         -1   -1    0    0    0  501 -0.00000000000E+00 -0.00000000000E+00 -0.46169449437E+03  0.46169449437E+03  0.00000000000E+00 0.  1.
         24    2    1    2    0    0 -0.19910741276E+02 -0.51100852388E+03  0.55888500225E+03  0.76160269595E+03  0.78486123899E+02 0.  0.
        254    2    1    2    0    0  0.19910741276E+02  0.51100852388E+03  0.36155581870E+03  0.10822271137E+04  0.88259093956E+03 0.  0.
         23    2    4    4    0    0  0.48999653897E+02  0.72550347265E+03  0.11431400703E+03  0.74226805189E+03  0.95592435564E+02 0.  0.
         23    2    4    4    0    0 -0.29088912622E+02 -0.21449494877E+03  0.24724181167E+03  0.33995906186E+03  0.87117176349E+02 0.  0.
          4    1    3    3  502    0 -0.18346948038E+02 -0.42143553338E+03  0.50101339381E+03  0.65494957064E+03  0.00000000000E+00 0. -1.
         -3    1    3    3    0  502 -0.15637932383E+01 -0.89572990497E+02  0.57871608436E+02  0.10665312531E+03  0.00000000000E+00 0.  1.
         11    1    5    5    0    0  0.77638657903E+01  0.21825989116E+03  0.78556428696E+02  0.23209646743E+03  0.00000000000E+00 0. -1.
        -11    1    5    5    0    0  0.41235788107E+02  0.50724358149E+03  0.35757578333E+02  0.51017158446E+03  0.00000000000E+00 0.  1.
          2    1    6    6  503    0  0.20201571829E+01 -0.30877669469E+01 -0.69588590210E+01  0.78766146685E+01  0.00000000000E+00 0. -1.
         -2    1    6    6    0  503 -0.31109069804E+02 -0.21140718183E+03  0.25420067069E+03  0.33208244719E+03  0.00000000000E+00 0.  1.
<mgrwt>
<rscale>  0 0.15976536E+04</rscale>
<asrwt>0</asrwt>
<pdfrwt beam="1">  1        2 0.21263620E+00 0.15976536E+04</pdfrwt>
<pdfrwt beam="2">  1       -1 0.71029923E-01 0.15976536E+04</pdfrwt>
<totfact> 0.32426723E+01</totfact>
</mgrwt>
</event>
<event>
12    6  0.1403409E-007  0.1142845E+04  0.7818608E-02  0.9164410E-01
         -1   -1    0    0    0  501 -0.00000000000E+00  0.00000000000E+00  0.39743382401E+03  0.39743382401E+03  0.00000000000E+00 0.  1.
          2   -1    0    0  501    0  0.00000000000E+00 -0.00000000000E+00 -0.82158027339E+03  0.82158027339E+03  0.00000000000E+00 0. -1.
         24    2    1    2    0    0 -0.15464247618E+03 -0.24060202804E+02 -0.22428821960E+03  0.28490685630E+03  0.79834344225E+02 0.  0.
        254    2    1    2    0    0  0.15464247618E+03  0.24060202804E+02 -0.19985822979E+03  0.93410724110E+03  0.89895485819E+03 0.  0.
         23    2    4    4    0    0 -0.17396676424E+03 -0.62201846301E+02 -0.45395908153E+03  0.49991517038E+03  0.98502919374E+02 0.  0.
         23    2    4    4    0    0  0.32860924042E+03  0.86262049105E+02  0.25410085175E+03  0.43419207072E+03  0.92359825752E+02 0.  0.
          4    1    3    3  502    0 -0.29541998292E+01 -0.17378924303E+02 -0.53770113967E+02  0.56586035933E+02  0.00000000000E+00 0. -1.
         -1    1    3    3    0  502 -0.15168827636E+03 -0.66812785019E+01 -0.17051810563E+03  0.22832082037E+03  0.00000000000E+00 0.  1.
         11    1    5    5    0    0 -0.11057464433E+03 -0.38801443124E+02 -0.16020459800E+03  0.19848883389E+03  0.00000000000E+00 0.  1.
        -11    1    5    5    0    0 -0.63392119908E+02 -0.23400403177E+02 -0.29375448353E+03  0.30142633649E+03  0.00000000000E+00 0. -1.
          4    1    6    6  503    0  0.27517603961E+03  0.85960274944E+02  0.17038349077E+03  0.33487543291E+03  0.00000000000E+00 0.  1.
         -4    1    6    6    0  503  0.53433200817E+02  0.30177416138E+00  0.83717360972E+02  0.99316637807E+02  0.00000000000E+00 0. -1.
<mgrwt>
<rscale>  0 0.11428452E+04</rscale>
<asrwt>0</asrwt>
<pdfrwt beam="1">  1        2 0.12639696E+00 0.11428452E+04</pdfrwt>
<pdfrwt beam="2">  1       -1 0.61143666E-01 0.11428452E+04</pdfrwt>
<totfact> 0.10193758E+02</totfact>
</mgrwt>
</event>
<event>
12    6  0.1403409E-007  0.1041698E+04  0.7818608E-02  0.9263958E-01
          2   -1    0    0  501    0  0.00000000000E+00  0.00000000000E+00  0.81290268280E+03  0.81290268280E+03  0.00000000000E+00 0. -1.
         -1   -1    0    0    0  501 -0.00000000000E+00 -0.00000000000E+00 -0.33372189256E+03  0.33372189256E+03  0.00000000000E+00 0.  1.
         24    2    1    2    0    0 -0.86748400343E+02 -0.25748236664E+01  0.13146368102E+03  0.17742830208E+03  0.81646728478E+02 0.  0.
        254    2    1    2    0    0  0.86748400343E+02  0.25748236664E+01  0.34771710921E+03  0.96919627329E+03  0.90050114571E+03 0.  0.
         23    2    4    4    0    0  0.26869173273E+03  0.65820729990E+02  0.58275117677E+03  0.65155638233E+03  0.91646983553E+02 0.  0.
         23    2    4    4    0    0 -0.18194333239E+03 -0.63245906323E+02 -0.23503406755E+03  0.31763989096E+03  0.92469814259E+02 0.  0.
          2    1    3    3  502    0 -0.66660977956E+02 -0.16985564568E+02  0.13589318262E+03  0.15231267993E+03  0.00000000000E+00 0. -1.
         -1    1    3    3    0  502 -0.20087422387E+02  0.14410740901E+02 -0.44295015938E+01  0.25115622147E+02  0.00000000000E+00 0.  1.
         11    1    5    5    0    0  0.81558219914E+02  0.60470236292E+02  0.24864353211E+03  0.26857400986E+03  0.00000000000E+00 0.  1.
        -11    1    5    5    0    0  0.18713351282E+03  0.53504936982E+01  0.33410764466E+03  0.38298237247E+03  0.00000000000E+00 0. -1.
          4    1    6    6  503    0 -0.29115003196E+02  0.22580957549E+02 -0.56445039115E+02  0.67406420285E+02  0.00000000000E+00 0. -1.
         -4    1    6    6    0  503 -0.15282832919E+03 -0.85826863873E+02 -0.17858902844E+03  0.25023347067E+03  0.00000000000E+00 0.  1.
<mgrwt>
<rscale>  0 0.10416975E+04</rscale>
<asrwt>0</asrwt>
<pdfrwt beam="1">  1        2 0.12506195E+00 0.10416975E+04</pdfrwt>
<pdfrwt beam="2">  1       -1 0.51341830E-01 0.10416975E+04</pdfrwt>
<totfact> 0.14622674E+02</totfact>
</mgrwt>
</event>
<event>
12    6  0.1403409E-007  0.2615160E+04  0.7818608E-02  0.8363070E-01
          2   -1    0    0  501    0  0.00000000000E+00  0.00000000000E+00  0.41071965936E+04  0.41071965936E+04  0.00000000000E+00 0. -1.
         -1   -1    0    0    0  501 -0.00000000000E+00 -0.00000000000E+00 -0.41628538204E+03  0.41628538204E+03  0.00000000000E+00 0.  1.
         24    2    1    2    0    0  0.95769433268E+03  0.61377377806E+03  0.19331243115E+04  0.22443459991E+04  0.78883931326E+02 0.  0.
        254    2    1    2    0    0 -0.95769433268E+03 -0.61377377806E+03  0.17577869001E+04  0.22791359765E+04  0.90041619707E+03 0.  0.
         23    2    4    4    0    0 -0.10869549429E+04 -0.45571534189E+03  0.16535083309E+04  0.20325692095E+04  0.90001503177E+02 0.  0.
         23    2    4    4    0    0  0.12926061023E+03 -0.15805843617E+03  0.10427856922E+03  0.24656676700E+03  0.90721419660E+02 0.  0.
          2    1    3    3  502    0  0.51006639254E+03  0.33387369754E+03  0.11122128907E+04  0.12683283822E+04  0.00000000000E+00 0. -1.
         -1    1    3    3    0  502  0.44762794014E+03  0.27990008053E+03  0.82091142075E+03  0.97601761695E+03  0.00000000000E+00 0.  1.
         11    1    5    5    0    0 -0.19908228921E+03 -0.90378544530E+02  0.25035956545E+03  0.33238825370E+03  0.00000000000E+00 0. -1.
        -11    1    5    5    0    0 -0.88787265370E+03 -0.36533679736E+03  0.14031487654E+04  0.17001809558E+04  0.00000000000E+00 0.  1.
          2    1    6    6  503    0  0.58531383670E+02 -0.84172806613E+02  0.29131329221E+01  0.10256447041E+03  0.00000000000E+00 0.  1.
         -2    1    6    6    0  503  0.70729226562E+02 -0.73885629560E+02  0.10136543630E+03  0.14400229658E+03  0.00000000000E+00 0. -1.
<mgrwt>
<rscale>  0 0.26151603E+04</rscale>
<asrwt>0</asrwt>
<pdfrwt beam="1">  1        2 0.63187637E+00 0.26151603E+04</pdfrwt>
<pdfrwt beam="2">  1       -1 0.64043908E-01 0.26151603E+04</pdfrwt>
<totfact> 0.69498921E-01</totfact>
</mgrwt>
</event>
<event>
12    6  0.1403409E-007  0.3051965E+04  0.7818608E-02  0.8229046E-01
          2   -1    0    0  501    0  0.00000000000E+00  0.00000000000E+00  0.89237327933E+03  0.89237327933E+03  0.00000000000E+00 0. -1.
         -1   -1    0    0    0  501 -0.00000000000E+00 -0.00000000000E+00 -0.26094713179E+04  0.26094713179E+04  0.00000000000E+00 0.  1.
         24    2    1    2    0    0 -0.46564395800E+03  0.12368739426E+04 -0.28592526799E+03  0.13545048132E+04  0.79047990104E+02 0.  0.
        254    2    1    2    0    0  0.46564395800E+03 -0.12368739426E+04 -0.14311727705E+04  0.21473397840E+04  0.90339980253E+03 0.  0.
         23    2    4    4    0    0  0.71476798593E+03 -0.84918483913E+03 -0.85449852746E+03  0.14035992627E+04  0.88966242123E+02 0.  0.
         23    2    4    4    0    0 -0.24912402793E+03 -0.38768910345E+03 -0.57667424307E+03  0.74374052121E+03  0.90725729799E+02 0.  0.
          4    1    3    3  502    0 -0.22087992570E+03  0.68673264543E+03 -0.13788944343E+03  0.73444071680E+03  0.00000000000E+00 0. -1.
         -3    1    3    3    0  502 -0.24476403230E+03  0.55014129714E+03 -0.14803582456E+03  0.62006409643E+03  0.00000000000E+00 0.  1.
         11    1    5    5    0    0  0.56425803357E+03 -0.67219806036E+03 -0.62838424968E+03  0.10793998916E+04  0.00000000000E+00 0.  1.
        -11    1    5    5    0    0  0.15050995235E+03 -0.17698677877E+03 -0.22611427778E+03  0.32419937111E+03  0.00000000000E+00 0. -1.
          3    1    6    6  503    0  0.14412666179E+01 -0.54371649772E+01  0.23213986467E+01  0.60851379713E+01  0.00000000000E+00 0. -1.
         -3    1    6    6    0  503 -0.25056529455E+03 -0.38225193847E+03 -0.57899564172E+03  0.73765538324E+03  0.00000000000E+00 0.  1.
<mgrwt>
<rscale>  0 0.30519649E+04</rscale>
<asrwt>0</asrwt>
<pdfrwt beam="1">  1        2 0.13728820E+00 0.30519649E+04</pdfrwt>
<pdfrwt beam="2">  1       -1 0.40145712E+00 0.30519649E+04</pdfrwt>
<totfact> 0.20140239E-01</totfact>
</mgrwt>
</event>
<event>
12    6  0.1403409E-007  0.1806409E+04  0.7818608E-02  0.8702899E-01
          2   -1    0    0  501    0  0.00000000000E+00  0.00000000000E+00  0.74910694503E+03  0.74910694503E+03  0.00000000000E+00 0. -1.
         -1   -1    0    0    0  501 -0.00000000000E+00 -0.00000000000E+00 -0.10890011218E+04  0.10890011218E+04  0.00000000000E+00 0.  1.
         24    2    1    2    0    0  0.25407534692E+02 -0.57850629368E+03 -0.48106636303E+03  0.75702845628E+03  0.79700459999E+02 0.  0.
        254    2    1    2    0    0 -0.25407534692E+02  0.57850629368E+03  0.14117218630E+03  0.10810796105E+04  0.90193595308E+03 0.  0.
         23    2    4    4    0    0 -0.34410141932E+03 -0.51613769895E+02  0.48399788673E+02  0.36335320992E+03  0.92807583712E+02 0.  0.
         23    2    4    4    0    0  0.31869388463E+03  0.63012006358E+03  0.92772397626E+02  0.71772640060E+03  0.88923460019E+02 0.  0.
          2    1    3    3  502    0  0.45840347747E+02 -0.33664579300E+03 -0.31154446494E+03  0.46096819962E+03  0.00000000000E+00 0. -1.
         -3    1    3    3    0  502 -0.20432813054E+02 -0.24186050068E+03 -0.16952189809E+03  0.29606025665E+03  0.00000000000E+00 0.  1.
         11    1    5    5    0    0 -0.31654836443E+02 -0.26590618400E+01  0.34343929302E+02  0.46782526225E+02  0.00000000000E+00 0. -1.
        -11    1    5    5    0    0 -0.31244658288E+03 -0.48954708055E+02  0.14055859371E+02  0.31657068370E+03  0.00000000000E+00 0.  1.
          3    1    6    6  503    0  0.10878499395E+02  0.52108652346E+02 -0.11908947207E+02  0.54547927752E+02  0.00000000000E+00 0. -1.
         -3    1    6    6    0  503  0.30781538523E+03  0.57801141123E+03  0.10468134483E+03  0.66317847285E+03  0.00000000000E+00 0.  1.
<mgrwt>
<rscale>  0 0.18064089E+04</rscale>
<asrwt>0</asrwt>
<pdfrwt beam="1">  1        2 0.11524722E+00 0.18064089E+04</pdfrwt>
<pdfrwt beam="2">  1       -1 0.16753863E+00 0.18064089E+04</pdfrwt>
<totfact> 0.10380918E+01</totfact>
</mgrwt>
</event>
<event>
12    6  0.1403409E-007  0.2511777E+04  0.7818608E-02  0.8398802E-01
         -1   -1    0    0    0  501 -0.00000000000E+00  0.00000000000E+00  0.94116326676E+03  0.94116326676E+03  0.00000000000E+00 0.  1.
          2   -1    0    0  501    0  0.00000000000E+00 -0.00000000000E+00 -0.16758576999E+04  0.16758576999E+04  0.00000000000E+00 0. -1.
         24    2    1    2    0    0 -0.53716342828E+03  0.38461527065E+03 -0.12255204221E+04  0.13944852844E+04  0.78838114377E+02 0.  0.
        254    2    1    2    0    0  0.53716342828E+03 -0.38461527065E+03  0.49082598896E+03  0.12225356823E+04  0.90399661940E+03 0.  0.
         23    2    4    4    0    0  0.45461389068E+03  0.21085448859E+03  0.17907172334E+03  0.53845351326E+03  0.82049368607E+02 0.  0.
         23    2    4    4    0    0  0.82549537607E+02 -0.59546975924E+03  0.31175426562E+03  0.68408216901E+03  0.96845399937E+02 0.  0.
          4    1    3    3  502    0 -0.33554845950E+03  0.28385683768E+03 -0.83409731816E+03  0.94280740829E+03  0.00000000000E+00 0. -1.
         -3    1    3    3    0  502 -0.20161496878E+03  0.10075843297E+03 -0.39142310391E+03  0.45167787606E+03  0.00000000000E+00 0.  1.
         11    1    5    5    0    0  0.19878694142E+03  0.92142866896E+02  0.35421423797E+02  0.22194871765E+03  0.00000000000E+00 0. -1.
        -11    1    5    5    0    0  0.25582694925E+03  0.11871162169E+03  0.14365029954E+03  0.31650479562E+03  0.00000000000E+00 0.  1.
          3    1    6    6  503    0  0.83167581838E+02 -0.39768848006E+03  0.24927243615E+03  0.47666520878E+03  0.00000000000E+00 0. -1.
         -3    1    6    6    0  503 -0.61804423013E+00 -0.19778127919E+03  0.62481829467E+02  0.20741696022E+03  0.00000000000E+00 0.  1.
<mgrwt>
<rscale>  0 0.25117768E+04</rscale>
<asrwt>0</asrwt>
<pdfrwt beam="1">  1        2 0.25782426E+00 0.25117768E+04</pdfrwt>
<pdfrwt beam="2">  1       -1 0.14479435E+00 0.25117768E+04</pdfrwt>
<totfact> 0.39357413E+00</totfact>
</mgrwt>
</event>
<event>
12    6  0.1403409E-007  0.1787462E+04  0.7818608E-02  0.8712995E-01
          2   -1    0    0  501    0  0.00000000000E+00  0.00000000000E+00  0.89781963238E+03  0.89781963238E+03  0.00000000000E+00 0. -1.
         -1   -1    0    0    0  501 -0.00000000000E+00 -0.00000000000E+00 -0.88966148373E+03  0.88966148373E+03  0.00000000000E+00 0.  1.
         24    2    1    2    0    0  0.62340847647E+03  0.85873948402E+02  0.21882159655E+03  0.67148469472E+03  0.83644130502E+02 0.  0.
        254    2    1    2    0    0 -0.62340847647E+03 -0.85873948402E+02 -0.21066344790E+03  0.11159964214E+04  0.89724938603E+03 0.  0.
         23    2    4    4    0    0 -0.30113194633E+03 -0.48145421080E+03 -0.14307697278E+03  0.59288277879E+03  0.92522230010E+02 0.  0.
         23    2    4    4    0    0 -0.32227653014E+03  0.39558026240E+03 -0.67586475115E+02  0.52311364260E+03  0.93456115786E+02 0.  0.
          4    1    3    3  502    0  0.23193451265E+03  0.31755748486E+02  0.12467635354E+03  0.26522865390E+03  0.00000000000E+00 0. -1.
         -3    1    3    3    0  502  0.39147396383E+03  0.54118199916E+02  0.94145243011E+02  0.40625604081E+03  0.00000000000E+00 0.  1.
         11    1    5    5    0    0  0.33570439084E+01 -0.32712479716E+02 -0.11682822537E+02  0.34897914199E+02  0.00000000000E+00 0. -1.
        -11    1    5    5    0    0 -0.30448899024E+03 -0.44874173109E+03 -0.13139415025E+03  0.55798486460E+03  0.00000000000E+00 0.  1.
          2    1    6    6  503    0 -0.27167869403E+03  0.28173596340E+03 -0.74187434256E+02  0.39835692697E+03  0.00000000000E+00 0. -1.
         -2    1    6    6    0  503 -0.50597836111E+02  0.11384429900E+03  0.66009591407E+01  0.12475671563E+03  0.00000000000E+00 0.  1.
<mgrwt>
<rscale>  0 0.17874625E+04</rscale>
<asrwt>0</asrwt>
<pdfrwt beam="1">  1        2 0.13812610E+00 0.17874625E+04</pdfrwt>
<pdfrwt beam="2">  1       -1 0.13687100E+00 0.17874625E+04</pdfrwt>
<totfact> 0.14108326E+01</totfact>
</mgrwt>
</event>
<event>
12    6  0.1403409E-007  0.1869179E+04  0.7818608E-02  0.8670352E-01
         -1   -1    0    0    0  501 -0.00000000000E+00  0.00000000000E+00  0.36301595399E+03  0.36301595399E+03  0.00000000000E+00 0.  1.
          2   -1    0    0  501    0  0.00000000000E+00 -0.00000000000E+00 -0.24061141330E+04  0.24061141330E+04  0.00000000000E+00 0. -1.
         24    2    1    2    0    0 -0.59049036319E+03 -0.35505527583E+03 -0.50269978666E+03  0.85664118558E+03  0.79899483087E+02 0.  0.
        254    2    1    2    0    0  0.59049036319E+03  0.35505527583E+03 -0.15403983924E+04  0.19124889014E+04  0.90002415134E+03 0.  0.
         23    2    4    4    0    0  0.56124239823E+02  0.52104924409E+03 -0.51169896414E+03  0.73804889896E+03  0.90763992276E+02 0.  0.
         23    2    4    4    0    0  0.53436612337E+03 -0.16599396825E+03 -0.10286994282E+04  0.11744400025E+04  0.89362489256E+02 0.  0.
          4    1    3    3  502    0 -0.95941362823E+02 -0.91352986941E+02 -0.11149621118E+03  0.17315172084E+03  0.00000000000E+00 0. -1.
         -3    1    3    3    0  502 -0.49454900037E+03 -0.26370228889E+03 -0.39120357548E+03  0.68348946473E+03  0.00000000000E+00 0.  1.
         11    1    5    5    0    0  0.19640364484E+02  0.34050286900E+03 -0.38575391059E+03  0.51491166936E+03  0.00000000000E+00 0.  1.
        -11    1    5    5    0    0  0.36483875340E+02  0.18054637509E+03 -0.12594505355E+03  0.22313722960E+03  0.00000000000E+00 0. -1.
          2    1    6    6  503    0  0.31237699006E+03 -0.11029648641E+03 -0.51902495202E+03  0.61573663173E+03  0.00000000000E+00 0.  1.
         -2    1    6    6    0  503  0.22198913331E+03 -0.55697481847E+02 -0.50967447621E+03  0.55870337075E+03  0.00000000000E+00 0. -1.
<mgrwt>
<rscale>  0 0.18691793E+04</rscale>
<asrwt>0</asrwt>
<pdfrwt beam="1">  1        2 0.37017141E+00 0.18691793E+04</pdfrwt>
<pdfrwt beam="2">  1       -1 0.55848608E-01 0.18691793E+04</pdfrwt>
<totfact> 0.13679135E+01</totfact>
</mgrwt>
</event>
<event>
12    6  0.1403409E-007  0.1709144E+04  0.7818608E-02  0.8756166E-01
         -1   -1    0    0    0  501 -0.00000000000E+00  0.00000000000E+00  0.19581382878E+04  0.19581382878E+04  0.00000000000E+00 0.  1.
          2   -1    0    0  501    0  0.00000000000E+00 -0.00000000000E+00 -0.37295289672E+03  0.37295289672E+03  0.00000000000E+00 0. -1.
         24    2    1    2    0    0 -0.40308633090E+03  0.46322374431E+03  0.54604711706E+03  0.82572452843E+03  0.81232477229E+02 0.  0.
        254    2    1    2    0    0  0.40308633090E+03 -0.46322374431E+03  0.10391382740E+04  0.15053666561E+04  0.89959190151E+03 0.  0.
         23    2    4    4    0    0  0.37778340812E+03 -0.96163201313E+00  0.94873970705E+03  0.10252530359E+04  0.91189514956E+02 0.  0.
         23    2    4    4    0    0  0.25302922772E+02 -0.46226211230E+03  0.90398566931E+02  0.48011362019E+03  0.89502452583E+02 0.  0.
          2    1    3    3  502    0 -0.32527919774E+03  0.32167917662E+03  0.39033344213E+03  0.60136864335E+03  0.00000000000E+00 0. -1.
         -1    1    3    3    0  502 -0.77807133153E+02  0.14154456770E+03  0.15571367493E+03  0.22435588509E+03  0.00000000000E+00 0.  1.
         11    1    5    5    0    0  0.36174470523E+03  0.19906451819E+02  0.88163555218E+03  0.95317193909E+03  0.00000000000E+00 0.  1.
        -11    1    5    5    0    0  0.16038702894E+02 -0.20868083832E+02  0.67104154862E+02  0.72081096781E+02  0.00000000000E+00 0. -1.
          2    1    6    6  503    0  0.24257187194E+02 -0.22430079059E+03  0.14292613285E+00  0.22560867940E+03  0.00000000000E+00 0. -1.
         -2    1    6    6    0  503  0.10457355784E+01 -0.23796132170E+03  0.90255640799E+02  0.25450494079E+03  0.00000000000E+00 0.  1.
<mgrwt>
<rscale>  0 0.17091441E+04</rscale>
<asrwt>0</asrwt>
<pdfrwt beam="1">  1        2 0.57377370E-01 0.17091441E+04</pdfrwt>
<pdfrwt beam="2">  1       -1 0.30125204E+00 0.17091441E+04</pdfrwt>
<totfact> 0.30380858E+00</totfact>
</mgrwt>
</event>
<event>
12    6  0.1403409E-007  0.3092884E+04  0.7818608E-02  0.8217693E-01
         -1   -1    0    0    0  501 -0.00000000000E+00  0.00000000000E+00  0.21387582402E+04  0.21387582402E+04  0.00000000000E+00 0.  1.
          2   -1    0    0  501    0  0.00000000000E+00 -0.00000000000E+00 -0.11181645353E+04  0.11181645353E+04  0.00000000000E+00 0. -1.
         24    2    1    2    0    0  0.18428054049E+03 -0.11178105577E+04  0.13590089493E+04  0.17711225447E+04  0.80684469746E+02 0.  0.
        254    2    1    2    0    0 -0.18428054049E+03  0.11178105577E+04 -0.33841524436E+03  0.14858002308E+04  0.89978757913E+03 0.  0.
         23    2    4    4    0    0 -0.50989295690E+03  0.91423350290E+03 -0.28077171443E+03  0.10876574104E+04  0.91390161099E+02 0.  0.
         23    2    4    4    0    0  0.32561241640E+03  0.20357705482E+03 -0.57643529931E+02  0.39814282032E+03  0.87908280971E+02 0.  0.
          4    1    3    3  502    0 -0.56822923929E+00 -0.12395479538E+03  0.12712391349E+03  0.17755450871E+03  0.00000000000E+00 0. -1.
         -3    1    3    3    0  502  0.18484876973E+03 -0.99385576234E+03  0.12318850358E+04  0.15935680360E+04  0.00000000000E+00 0.  1.
         11    1    5    5    0    0 -0.36684947029E+03  0.64382617710E+03 -0.24077549407E+03  0.77914281022E+03  0.00000000000E+00 0. -1.
        -11    1    5    5    0    0 -0.14304348661E+03  0.27040732580E+03 -0.39996220359E+02  0.30851460022E+03  0.00000000000E+00 0.  1.
          2    1    6    6  503    0  0.10273555989E+03  0.11060622400E+03 -0.53363839463E+01  0.15105233877E+03  0.00000000000E+00 0. -1.
         -2    1    6    6    0  503  0.22287685651E+03  0.92970830820E+02 -0.52307145984E+02  0.24709048155E+03  0.00000000000E+00 0.  1.
<mgrwt>
<rscale>  0 0.30928845E+04</rscale>
<asrwt>0</asrwt>
<pdfrwt beam="1">  1        2 0.17202531E+00 0.30928845E+04</pdfrwt>
<pdfrwt beam="2">  1       -1 0.32903973E+00 0.30928845E+04</pdfrwt>
<totfact> 0.43883795E-01</totfact>
</mgrwt>
</event>
<event>
12    6  0.1403409E-007  0.4305877E+04  0.7818608E-02  0.7945532E-01
          2   -1    0    0  501    0  0.00000000000E+00  0.00000000000E+00  0.28270287718E+04  0.28270287718E+04  0.00000000000E+00 0. -1.
         -1   -1    0    0    0  501 -0.00000000000E+00 -0.00000000000E+00 -0.16395815986E+04  0.16395815986E+04  0.00000000000E+00 0.  1.
         24    2    1    2    0    0 -0.55444028963E+03  0.62397493591E+03 -0.13834889161E+04  0.16177561001E+04  0.79652137810E+02 0.  0.
        254    2    1    2    0    0  0.55444028963E+03 -0.62397493591E+03  0.25709360893E+04  0.28488542703E+04  0.89972747144E+03 0.  0.
         23    2    4    4    0    0  0.45002239351E+02  0.10293957106E+03  0.21897431126E+02  0.14804930440E+03  0.93900703977E+02 0.  0.
         23    2    4    4    0    0  0.50943805028E+03 -0.72691450697E+03  0.25490386582E+04  0.27008049659E+04  0.93901839958E+02 0.  0.
          4    1    3    3  502    0 -0.34688322935E+03  0.36122185389E+03 -0.76281055944E+03  0.91251802838E+03  0.00000000000E+00 0. -1.
         -3    1    3    3    0  502 -0.20755706028E+03  0.26275308202E+03 -0.62067835668E+03  0.70523807174E+03  0.00000000000E+00 0.  1.
         11    1    5    5    0    0  0.55965245866E+02  0.80278480299E+02 -0.19322582438E+02  0.99750214716E+02  0.00000000000E+00 0. -1.
        -11    1    5    5    0    0 -0.10963006515E+02  0.22661090765E+02  0.41220013564E+02  0.48299089688E+02  0.00000000000E+00 0.  1.
          2    1    6    6  503    0  0.45254579616E+03 -0.68313320486E+03  0.23815165260E+04  0.25185491135E+04  0.00000000000E+00 0. -1.
         -2    1    6    6    0  503  0.56892254124E+02 -0.43781302109E+02  0.16752213211E+03  0.18225585242E+03  0.00000000000E+00 0.  1.
<mgrwt>
<rscale>  0 0.43058771E+04</rscale>
<asrwt>0</asrwt>
<pdfrwt beam="1">  1        2 0.43492750E+00 0.43058771E+04</pdfrwt>
<pdfrwt beam="2">  1       -1 0.25224332E+00 0.43058771E+04</pdfrwt>
<totfact> 0.13121924E-01</totfact>
</mgrwt>
</event>
<event>
12    6  0.1403409E-007  0.1443099E+04  0.7818608E-02  0.8923199E-01
          2   -1    0    0  501    0  0.00000000000E+00  0.00000000000E+00  0.20205065493E+04  0.20205065493E+04  0.00000000000E+00 0. -1.
         -1   -1    0    0    0  501 -0.00000000000E+00 -0.00000000000E+00 -0.25767484881E+03  0.25767484881E+03  0.00000000000E+00 0.  1.
         24    2    1    2    0    0 -0.81591375150E+02 -0.36489741123E+03  0.17205847048E+03  0.41931913060E+03  0.80107070859E+02 0.  0.
        254    2    1    2    0    0  0.81591375150E+02  0.36489741123E+03  0.15907732300E+04  0.18588622676E+04  0.88600349158E+03 0.  0.
         23    2    4    4    0    0  0.45875074400E+03  0.31876641610E+03  0.10304303246E+04  0.11757441155E+04  0.92321709791E+02 0.  0.
         23    2    4    4    0    0 -0.37715936885E+03  0.46130995126E+02  0.56034290547E+03  0.68311815209E+03  0.91043834347E+02 0.  0.
          2    1    3    3  502    0 -0.51798970488E+00 -0.78258254509E+02  0.68327999451E+02  0.10389099201E+03  0.00000000000E+00 0. -1.
         -1    1    3    3    0  502 -0.81073385445E+02 -0.28663915672E+03  0.10373047103E+03  0.31542813859E+03  0.00000000000E+00 0.  1.
         11    1    5    5    0    0  0.11968591321E+03  0.60173149007E+02  0.17982751328E+03  0.22423973826E+03  0.00000000000E+00 0.  1.
        -11    1    5    5    0    0  0.33906483080E+03  0.25859326710E+03  0.85060281129E+03  0.95150437721E+03  0.00000000000E+00 0. -1.
          2    1    6    6  503    0  0.33016348716E+01 -0.69080548008E-01  0.22231037182E+02  0.22474976732E+02  0.00000000000E+00 0.  1.
         -2    1    6    6    0  503 -0.38046100372E+03  0.46200075674E+02  0.53811186829E+03  0.66064317536E+03  0.00000000000E+00 0. -1.
<mgrwt>
<rscale>  0 0.14430991E+04</rscale>
<asrwt>0</asrwt>
<pdfrwt beam="1">  1        2 0.31084715E+00 0.14430991E+04</pdfrwt>
<pdfrwt beam="2">  1       -1 0.39642286E-01 0.14430991E+04</pdfrwt>
<totfact> 0.44562549E+01</totfact>
</mgrwt>
</event>
<event>
12    6  0.1403409E-007  0.1172064E+04  0.7818608E-02  0.9137666E-01
         -1   -1    0    0    0  501 -0.00000000000E+00  0.00000000000E+00  0.70892240185E+03  0.70892240185E+03  0.00000000000E+00 0.  1.
          2   -1    0    0  501    0  0.00000000000E+00 -0.00000000000E+00 -0.48444444047E+03  0.48444444047E+03  0.00000000000E+00 0. -1.
         24    2    1    2    0    0 -0.87021456690E+02  0.18755293430E+03 -0.54705184819E+02  0.22894939791E+03  0.81708827357E+02 0.  0.
        254    2    1    2    0    0  0.87021456690E+02 -0.18755293430E+03  0.27918314619E+03  0.96441744441E+03  0.89967157390E+03 0.  0.
         23    2    4    4    0    0 -0.37546466997E+03 -0.17382082215E+02 -0.76846470684E+01  0.38700605461E+03  0.91862817977E+02 0.  0.
         23    2    4    4    0    0  0.46248612666E+03 -0.17017085208E+03  0.28686779326E+03  0.57741138980E+03  0.90880394003E+02 0.  0.
          4    1    3    3  502    0 -0.53937211510E+02  0.10079375738E+03 -0.71150070346E+02  0.13465116718E+03  0.00000000000E+00 0. -1.
         -3    1    3    3    0  502 -0.33084245180E+02  0.86759176919E+02  0.16444885528E+02  0.94298230730E+02  0.00000000000E+00 0.  1.
         11    1    5    5    0    0 -0.12475611569E+03  0.35030385488E+02 -0.17100821020E+02  0.13070445435E+03  0.00000000000E+00 0. -1.
        -11    1    5    5    0    0 -0.25070855428E+03 -0.52412467703E+02  0.94161739512E+01  0.25630160025E+03  0.00000000000E+00 0.  1.
          3    1    6    6  503    0  0.62929724847E+02 -0.59131368062E+02  0.46121651785E+02  0.97897271267E+02  0.00000000000E+00 0. -1.
         -3    1    6    6    0  503  0.39955640181E+03 -0.11103948402E+03  0.24074614148E+03  0.47951411854E+03  0.00000000000E+00 0.  1.
<mgrwt>
<rscale>  0 0.11720640E+04</rscale>
<asrwt>0</asrwt>
<pdfrwt beam="1">  1        2 0.74529914E-01 0.11720640E+04</pdfrwt>
<pdfrwt beam="2">  1       -1 0.10906498E+00 0.11720640E+04</pdfrwt>
<totfact> 0.56274630E+01</totfact>
</mgrwt>
</event>
