<event>
12    1  0.1477245E-007  0.1762377E+04  0.7818608E-02  0.8726567E-01
          2   -1    0    0  501    0  0.00000000000E+00  0.00000000000E+00  0.12624727887E+04  0.12624727887E+04  0.00000000000E+00 0. -1.
         -2   -1    0    0    0  501 -0.00000000000E+00 -0.00000000000E+00 -0.61505712777E+03  0.61505712777E+03  0.00000000000E+00 0.  1.
         23    2    1    2    0    0 -0.16409056317E+03  0.49065500809E+03 -0.16961897525E+03  0.55142233333E+03  0.87338096197E+02 0.  0.
        254    2    1    2    0    0  0.16409056317E+03 -0.49065500809E+03  0.81703463613E+03  0.13261075831E+04  0.90738507561E+03 0.  0.
        -24    2    4    4    0    0  0.36938357590E+03 -0.63761899961E+03  0.42790000416E+03  0.85533369710E+03  0.74128975552E+02 0.  0.
         24    2    4    4    0    0 -0.20529301273E+03  0.14696399152E+03  0.38913463197E+03  0.47077388600E+03  0.80365751840E+02 0.  0.
         13    1    3    3    0    0 -0.11062432030E+03  0.29708870229E+03 -0.60026478912E+02  0.32264936919E+03  0.00000000000E+00 0. -1.
        -13    1    3    3    0    0 -0.53466242874E+02  0.19356630580E+03 -0.10959249634E+03  0.22877296414E+03  0.00000000000E+00 0.  1.
          4    1    6    6  502    0 -0.22650692010E+02  0.56812941166E+02  0.95819121859E+02  0.11367527544E+03  0.00000000000E+00 0. -1.
          1    1    5    5  503    0  0.76113772291E+02 -0.14830723144E+03  0.13236487503E+03  0.21285864176E+03  0.00000000000E+00 0. -1.
         -2    1    5    5    0  503  0.29326980360E+03 -0.48931176817E+03  0.29553512913E+03  0.64247505534E+03  0.00000000000E+00 0.  1.
         -3    1    6    6    0  502 -0.18264232072E+03  0.90151050357E+02  0.29331551011E+03  0.35709861056E+03  0.00000000000E+00 0.  1.
<mgrwt>
<rscale>  0 0.17623767E+04</rscale>
<asrwt>0</asrwt>
<pdfrwt beam="1">  1        2 0.19422658E+00 0.17623767E+04</pdfrwt>
<pdfrwt beam="2">  1       -2 0.94624174E-01 0.17623767E+04</pdfrwt>
<totfact> 0.15492664E+01</totfact>
</mgrwt>
</event>
<event>
12    1  0.1477245E-007  0.1312376E+04  0.7818608E-02  0.9019808E-01
          2   -1    0    0  501    0  0.00000000000E+00  0.00000000000E+00  0.47996768499E+03  0.47996768499E+03  0.00000000000E+00 0. -1.
         -2   -1    0    0    0  501 -0.00000000000E+00 -0.00000000000E+00 -0.89710788951E+03  0.89710788951E+03  0.00000000000E+00 0.  1.
         23    2    1    2    0    0  0.14583424479E+03  0.71464168932E+02  0.19847749745E+03  0.27287170003E+03  0.93224960649E+02 0.  0.
        254    2    1    2    0    0 -0.14583424479E+03 -0.71464168932E+02 -0.61561770197E+03  0.11042038745E+04  0.90216754932E+03 0.  0.
        -24    2    4    4    0    0 -0.16596673011E+03  0.32622560462E+03 -0.58858255097E+03  0.69718227590E+03  0.75270219282E+02 0.  0.
         24    2    4    4    0    0  0.20132485322E+02 -0.39768977355E+03 -0.27035150996E+02  0.40702159857E+03  0.79832382928E+02 0.  0.
         13    1    3    3    0    0  0.10638505935E+03  0.64093516921E+02  0.19678805249E+03  0.23270431317E+03  0.00000000000E+00 0. -1.
        -13    1    3    3    0    0  0.39449185438E+02  0.73706520109E+01  0.16894449584E+01  0.40167386859E+02  0.00000000000E+00 0.  1.
          2    1    6    6  502    0 -0.19976965551E+02 -0.53641182820E+02 -0.19797515577E+02  0.60567295383E+02  0.00000000000E+00 0. -1.
          3    1    5    5  503    0 -0.20675543536E+02  0.98806506764E+02 -0.20067727109E+03  0.22463653090E+03  0.00000000000E+00 0. -1.
         -4    1    5    5    0  503 -0.14529118658E+03  0.22741909786E+03 -0.38790527987E+03  0.47254574500E+03  0.00000000000E+00 0.  1.
         -1    1    6    6    0  502  0.40109450873E+02 -0.34404859073E+03 -0.72376354191E+01  0.34645430319E+03  0.00000000000E+00 0.  1.
<mgrwt>
<rscale>  0 0.13123762E+04</rscale>
<asrwt>0</asrwt>
<pdfrwt beam="1">  1        2 0.73841183E-01 0.13123762E+04</pdfrwt>
<pdfrwt beam="2">  1       -2 0.13801660E+00 0.13123762E+04</pdfrwt>
<totfact> 0.23552827E+01</totfact>
</mgrwt>
</event>
<event>
12    1  0.1477245E-007  0.1347189E+04  0.7818608E-02  0.8992958E-01
         -2   -1    0    0    0  501 -0.00000000000E+00  0.00000000000E+00  0.12182167029E+03  0.12182167029E+03  0.00000000000E+00 0.  1.
          2   -1    0    0  501    0  0.00000000000E+00 -0.00000000000E+00 -0.37245413057E+04  0.37245413057E+04  0.00000000000E+00 0. -1.
         23    2    1    2    0    0  0.29796475957E+03  0.17074375212E+03 -0.65677108638E+03  0.74659821222E+03  0.90134365047E+02 0.  0.
        254    2    1    2    0    0 -0.29796475957E+03 -0.17074375212E+03 -0.29459485491E+04  0.30997647638E+04  0.90110615933E+03 0.  0.
        -24    2    4    4    0    0 -0.48047317409E+03 -0.17824217071E+03 -0.28087499331E+04  0.28561993772E+04  0.78574508324E+02 0.  0.
         24    2    4    4    0    0  0.18250841452E+03  0.74984185917E+01 -0.13719861595E+03  0.24356538657E+03  0.84469459941E+02 0.  0.
         11    1    3    3    0    0  0.18287739398E+02  0.16298941063E+02 -0.12591584175E+02  0.27543508929E+02  0.00000000000E+00 0. -1.
        -11    1    3    3    0    0  0.27967702017E+03  0.15444481105E+03 -0.64417950220E+03  0.71905470329E+03  0.00000000000E+00 0.  1.
          4    1    6    6  502    0  0.44774122379E+00  0.93133369157E+01  0.67119138237E+01  0.11488624978E+02  0.00000000000E+00 0. -1.
          3    1    5    5  503    0 -0.29608667852E+02 -0.73608614196E+01 -0.29910064824E+03  0.30065271207E+03  0.00000000000E+00 0. -1.
         -4    1    5    5    0  503 -0.45086450624E+03 -0.17088130929E+03 -0.25096492849E+04  0.25555466652E+04  0.00000000000E+00 0.  1.
         -3    1    6    6    0  502  0.18206067330E+03 -0.18149183240E+01 -0.14391052978E+03  0.23207676159E+03  0.00000000000E+00 0.  1.
<mgrwt>
<rscale>  0 0.13471894E+04</rscale>
<asrwt>0</asrwt>
<pdfrwt beam="1">  1        2 0.57300628E+00 0.13471894E+04</pdfrwt>
<pdfrwt beam="2">  1       -2 0.18741798E-01 0.13471894E+04</pdfrwt>
<totfact> 0.13415715E+01</totfact>
</mgrwt>
</event>
<event>
12    1  0.1477245E-007  0.1151049E+04  0.7818608E-02  0.9156817E-01
         -1   -1    0    0    0  501 -0.00000000000E+00  0.00000000000E+00  0.18811404051E+03  0.18811404051E+03  0.00000000000E+00 0.  1.
          1   -1    0    0  501    0  0.00000000000E+00 -0.00000000000E+00 -0.17607847141E+04  0.17607847141E+04  0.00000000000E+00 0. -1.
         23    2    1    2    0    0  0.90411281894E+02  0.18468100183E+03 -0.30530908504E+03  0.37950818156E+03  0.92366390714E+02 0.  0.
        254    2    1    2    0    0 -0.90411281894E+02 -0.18468100183E+03 -0.12673615886E+04  0.15693905731E+04  0.90249659406E+03 0.  0.
        -24    2    4    4    0    0  0.38006660001E+03 -0.21066813435E+03 -0.69752285745E+03  0.82569919372E+03  0.80058344804E+02 0.  0.
         24    2    4    4    0    0 -0.47047788191E+03  0.25987132521E+02 -0.56983873112E+03  0.74369137933E+03  0.79598491150E+02 0.  0.
         11    1    3    3    0    0  0.75974941305E+02  0.19366093258E+03 -0.28768528735E+03  0.35502052486E+03  0.00000000000E+00 0.  1.
        -11    1    3    3    0    0  0.14436340589E+02 -0.89799307462E+01 -0.17623797687E+02  0.24487656702E+02  0.00000000000E+00 0. -1.
          4    1    6    6  502    0 -0.27080061391E+03  0.54039110406E+02 -0.33657958618E+03  0.43536078806E+03  0.00000000000E+00 0. -1.
          3    1    5    5  503    0  0.29764308319E+03 -0.19103838040E+03 -0.60026859560E+03  0.69671332312E+03  0.00000000000E+00 0. -1.
         -4    1    5    5    0  503  0.82423516826E+02 -0.19629753955E+02 -0.97254261846E+02  0.12898587060E+03  0.00000000000E+00 0.  1.
         -3    1    6    6    0  502 -0.19967726800E+03 -0.28051977885E+02 -0.23325914494E+03  0.30833059127E+03  0.00000000000E+00 0.  1.
<mgrwt>
<rscale>  0 0.11510488E+04</rscale>
<asrwt>0</asrwt>
<pdfrwt beam="1">  1        1 0.27088995E+00 0.11510488E+04</pdfrwt>
<pdfrwt beam="2">  1       -1 0.28940622E-01 0.11510488E+04</pdfrwt>
<totfact> 0.46793417E+01</totfact>
</mgrwt>
</event>
<event>
12    1  0.1477245E-007  0.1389423E+04  0.7818608E-02  0.8961511E-01
         -4   -1    0    0    0  501 -0.00000000000E+00  0.00000000000E+00  0.52656632257E+03  0.52656632257E+03  0.00000000000E+00 0.  1.
          4   -1    0    0  501    0  0.00000000000E+00 -0.00000000000E+00 -0.91654920063E+03  0.91654920063E+03  0.00000000000E+00 0. -1.
         23    2    1    2    0    0  0.80530096523E+02  0.13975683210E+03 -0.48749376752E+03  0.52172843333E+03  0.92375950373E+02 0.  0.
        254    2    1    2    0    0 -0.80530096523E+02 -0.13975683210E+03  0.97510889468E+02  0.92138708986E+03  0.90190283691E+03 0.  0.
        -24    2    4    4    0    0  0.65782038553E+02  0.24206387526E+03 -0.26187389150E+03  0.37123054065E+03  0.79447989023E+02 0.  0.
         24    2    4    4    0    0 -0.14631213508E+03 -0.38182070736E+03  0.35938478097E+03  0.55015654921E+03  0.79501662941E+02 0.  0.
         13    1    3    3    0    0  0.12749413078E+02  0.17194873451E+02 -0.91094171564E+01  0.23263548478E+02  0.00000000000E+00 0.  1.
        -13    1    3    3    0    0  0.67780683445E+02  0.12256195865E+03 -0.47838435037E+03  0.49846488486E+03  0.00000000000E+00 0. -1.
          4    1    6    6  502    0 -0.87093637864E+02 -0.27797167013E+03  0.29411146475E+03  0.41395060677E+03  0.00000000000E+00 0. -1.
          3    1    5    5  503    0  0.17045661839E+02  0.14088984862E+03 -0.19275523143E+03  0.23936391390E+03  0.00000000000E+00 0. -1.
         -4    1    5    5    0  503  0.48736376714E+02  0.10117402663E+03 -0.69118660067E+02  0.13186662675E+03  0.00000000000E+00 0.  1.
         -1    1    6    6    0  502 -0.59218497213E+02 -0.10384903723E+03  0.65273316222E+02  0.13620594244E+03  0.00000000000E+00 0.  1.
<mgrwt>
<rscale>  0 0.13894228E+04</rscale>
<asrwt>0</asrwt>
<pdfrwt beam="1">  1        4 0.14100757E+00 0.13894228E+04</pdfrwt>
<pdfrwt beam="2">  1       -4 0.81010204E-01 0.13894228E+04</pdfrwt>
<totfact> 0.92048109E-01</totfact>
</mgrwt>
</event>
<event>
12    1  0.1477245E-007  0.1866146E+04  0.7818608E-02  0.8671894E-01
         -2   -1    0    0    0  501 -0.00000000000E+00  0.00000000000E+00  0.14215579497E+04  0.14215579497E+04  0.00000000000E+00 0.  1.
          2   -1    0    0  501    0  0.00000000000E+00 -0.00000000000E+00 -0.61244419830E+03  0.61244419830E+03  0.00000000000E+00 0. -1.
         23    2    1    2    0    0  0.54383738326E+03 -0.35491522882E+03  0.68140880591E+03  0.94551671371E+03  0.89218697905E+02 0.  0.
        254    2    1    2    0    0 -0.54383738326E+03  0.35491522882E+03  0.12770494553E+03  0.10884854343E+04  0.86415743274E+03 0.  0.
        -24    2    4    4    0    0  0.13136704156E+03 -0.12164556908E+03 -0.11158310751E+03  0.22443805885E+03  0.76594440365E+02 0.  0.
         24    2    4    4    0    0 -0.67520442482E+03  0.47656079790E+03  0.23928805303E+03  0.86404737548E+03  0.79422196978E+02 0.  0.
         13    1    3    3    0    0  0.38835010203E+03 -0.29131037345E+03  0.53782829684E+03  0.72452523235E+03  0.00000000000E+00 0.  1.
        -13    1    3    3    0    0  0.15548728122E+03 -0.63604855373E+02  0.14358050907E+03  0.22099148136E+03  0.00000000000E+00 0. -1.
          2    1    6    6  502    0 -0.45956538713E+03  0.32557103243E+03  0.20119377454E+03  0.59806001130E+03  0.00000000000E+00 0. -1.
          3    1    5    5  503    0  0.23973566615E+02 -0.25895024214E+02 -0.63660206262E+02  0.72786716073E+02  0.00000000000E+00 0. -1.
         -4    1    5    5    0  503  0.10739347494E+03 -0.95750544861E+02 -0.47922901243E+02  0.15165134277E+03  0.00000000000E+00 0.  1.
         -1    1    6    6    0  502 -0.21563903769E+03  0.15098976547E+03  0.38094278491E+02  0.26598736418E+03  0.00000000000E+00 0.  1.
<mgrwt>
<rscale>  0 0.18661457E+04</rscale>
<asrwt>0</asrwt>
<pdfrwt beam="1">  1        2 0.94222185E-01 0.18661457E+04</pdfrwt>
<pdfrwt beam="2">  1       -2 0.21870122E+00 0.18661457E+04</pdfrwt>
<totfact> 0.45729280E+00</totfact>
</mgrwt>
</event>
<event>
12    1  0.1477245E-007  0.2021328E+04  0.7818608E-02  0.8596714E-01
         -2   -1    0    0    0  501 -0.00000000000E+00  0.00000000000E+00  0.52912530896E+03  0.52912530896E+03  0.00000000000E+00 0.  1.
          2   -1    0    0  501    0  0.00000000000E+00 -0.00000000000E+00 -0.19304338563E+04  0.19304338563E+04  0.00000000000E+00 0. -1.
         23    2    1    2    0    0  0.24882175626E+03  0.30140319479E+03  0.29768626521E+03  0.49971868054E+03  0.91353680649E+02 0.  0.
        254    2    1    2    0    0 -0.24882175626E+03 -0.30140319479E+03 -0.16989948126E+04  0.19598404847E+04  0.89534082910E+03 0.  0.
        -24    2    4    4    0    0 -0.55074519461E+03 -0.35268537374E+03 -0.12297262079E+04  0.13950716760E+04  0.79317038929E+02 0.  0.
         24    2    4    4    0    0  0.30192343835E+03  0.51282178956E+02 -0.46926860468E+03  0.56476880870E+03  0.70449694378E+02 0.  0.
         11    1    3    3    0    0 -0.33000112318E+01  0.29682954731E+02  0.31246477815E+02  0.43223954603E+02  0.00000000000E+00 0. -1.
        -11    1    3    3    0    0  0.25212176750E+03  0.27172024006E+03  0.26643978740E+03  0.45649472594E+03  0.00000000000E+00 0.  1.
          2    1    6    6  502    0  0.22911150047E+03  0.56193403294E+02 -0.39864197566E+03  0.46321183381E+03  0.00000000000E+00 0. -1.
          1    1    5    5  503    0 -0.41323027665E+03 -0.23343314260E+03 -0.83648165775E+03  0.96174417459E+03  0.00000000000E+00 0. -1.
         -2    1    5    5    0  503 -0.13751491797E+03 -0.11925223115E+03 -0.39324455015E+03  0.43332750146E+03  0.00000000000E+00 0.  1.
         -1    1    6    6    0  502  0.72811937882E+02 -0.49112243383E+01 -0.70626629020E+02  0.10155697489E+03  0.00000000000E+00 0.  1.
<mgrwt>
<rscale>  0 0.20213277E+04</rscale>
<asrwt>0</asrwt>
<pdfrwt beam="1">  1        2 0.29698983E+00 0.20213277E+04</pdfrwt>
<pdfrwt beam="2">  1       -2 0.81403893E-01 0.20213277E+04</pdfrwt>
<totfact> 0.90023480E+00</totfact>
</mgrwt>
</event>
<event>
12    1  0.1477245E-007  0.3123666E+04  0.7818608E-02  0.8209273E-01
          2   -1    0    0  501    0  0.00000000000E+00  0.00000000000E+00  0.27729119162E+04  0.27729119162E+04  0.00000000000E+00 0. -1.
         -2   -1    0    0    0  501 -0.00000000000E+00 -0.00000000000E+00 -0.87969680571E+03  0.87969680571E+03  0.00000000000E+00 0.  1.
         23    2    1    2    0    0 -0.41928430730E+03  0.43391964515E+03 -0.64796954680E+03  0.89005291614E+03  0.90796867547E+02 0.  0.
        254    2    1    2    0    0  0.41928430730E+03 -0.43391964515E+03  0.25411846573E+04  0.27625558058E+04  0.90000529376E+03 0.  0.
        -24    2    4    4    0    0 -0.51237358822E+02 -0.80638262398E+02 -0.26550731419E+02  0.12704676441E+03  0.79423817006E+02 0.  0.
         24    2    4    4    0    0  0.47052166612E+03 -0.35328138275E+03  0.25677353887E+04  0.26355090413E+04  0.80277686765E+02 0.  0.
         11    1    3    3    0    0 -0.33058786968E+03  0.38907922946E+03 -0.53295396351E+03  0.73804533302E+03  0.00000000000E+00 0.  1.
        -11    1    3    3    0    0 -0.88696437626E+02  0.44840415691E+02 -0.11501558328E+03  0.15200758312E+03  0.00000000000E+00 0. -1.
          2    1    6    6  502    0  0.12176676928E+02 -0.18661606590E+02  0.52224967245E+02  0.56780051296E+02  0.00000000000E+00 0. -1.
          3    1    5    5  503    0 -0.38368235857E+02 -0.55397601631E+02  0.21954517579E+02  0.70873243409E+02  0.00000000000E+00 0. -1.
         -4    1    5    5    0  503 -0.12869122965E+02 -0.25240660767E+02 -0.48505248998E+02  0.56173521005E+02  0.00000000000E+00 0.  1.
         -1    1    6    6    0  502  0.45834498920E+03 -0.33461977616E+03  0.25155104214E+04  0.25787289901E+04  0.00000000000E+00 0.  1.
<mgrwt>
<rscale>  0 0.31236656E+04</rscale>
<asrwt>0</asrwt>
<pdfrwt beam="1">  1        2 0.42660183E+00 0.31236656E+04</pdfrwt>
<pdfrwt beam="2">  1       -2 0.13533797E+00 0.31236656E+04</pdfrwt>
<totfact> 0.79725344E-01</totfact>
</mgrwt>
</event>
<event>
12    1  0.1477245E-007  0.1350344E+04  0.7818608E-02  0.8990568E-01
          2   -1    0    0  501    0  0.00000000000E+00  0.00000000000E+00  0.91291368271E+03  0.91291368271E+03  0.00000000000E+00 0. -1.
         -2   -1    0    0    0  501 -0.00000000000E+00 -0.00000000000E+00 -0.49934336496E+03  0.49934336496E+03  0.00000000000E+00 0.  1.
         23    2    1    2    0    0  0.15545818368E+03 -0.19085783314E+03  0.40132089665E+03  0.47944511270E+03  0.90637711000E+02 0.  0.
        254    2    1    2    0    0 -0.15545818368E+03  0.19085783314E+03  0.12249421092E+02  0.93281193497E+03  0.89966332501E+03 0.  0.
        -24    2    4    4    0    0 -0.43139845713E+03  0.15739730334E+03 -0.26136910119E+03  0.53410500895E+03  0.77947505488E+02 0.  0.
         24    2    4    4    0    0  0.27594027345E+03  0.33460529801E+02  0.27361852228E+03  0.39870692602E+03  0.82689029225E+02 0.  0.
         13    1    3    3    0    0  0.11956803520E+03 -0.19204904739E+03  0.35220013128E+03  0.41859799823E+03  0.00000000000E+00 0. -1.
        -13    1    3    3    0    0  0.35890148470E+02  0.11912142457E+01  0.49120765372E+02  0.60847114470E+02  0.00000000000E+00 0.  1.
          2    1    6    6  502    0  0.14999751461E+03  0.59290306156E+02  0.15851601357E+03  0.22614579667E+03  0.00000000000E+00 0. -1.
          1    1    5    5  503    0 -0.43078294720E+02  0.47541965579E+01 -0.50678949724E+02  0.66683564737E+02  0.00000000000E+00 0. -1.
         -2    1    5    5    0  503 -0.38832016241E+03  0.15264310678E+03 -0.21069015147E+03  0.46742144421E+03  0.00000000000E+00 0.  1.
         -1    1    6    6    0  502  0.12594275884E+03 -0.25829776356E+02  0.11510250871E+03  0.17256112935E+03  0.00000000000E+00 0.  1.
<mgrwt>
<rscale>  0 0.13503442E+04</rscale>
<asrwt>0</asrwt>
<pdfrwt beam="1">  1        2 0.14044826E+00 0.13503442E+04</pdfrwt>
<pdfrwt beam="2">  1       -2 0.76822056E-01 0.13503442E+04</pdfrwt>
<totfact> 0.42505929E+01</totfact>
</mgrwt>
</event>
<event>
12    1  0.1477245E-007  0.1991466E+04  0.7818608E-02  0.8610621E-01
          1   -1    0    0  501    0  0.00000000000E+00  0.00000000000E+00  0.65406898054E+03  0.65406898054E+03  0.00000000000E+00 0. -1.
         -1   -1    0    0    0  501 -0.00000000000E+00 -0.00000000000E+00 -0.15158705643E+04  0.15158705643E+04  0.00000000000E+00 0.  1.
         23    2    1    2    0    0 -0.54924677538E+03 -0.37108828559E+03  0.11352413025E+03  0.67863186730E+03  0.90966736733E+02 0.  0.
        254    2    1    2    0    0  0.54924677538E+03  0.37108828559E+03 -0.97532571401E+03  0.14913076776E+04  0.91288542805E+03 0.  0.
        -24    2    4    4    0    0  0.48658056123E+03  0.63745726551E+02 -0.10467815677E+04  0.11588996549E+04  0.80452467756E+02 0.  0.
         24    2    4    4    0    0  0.62666214150E+02  0.30734255904E+03  0.71455853669E+02  0.33240802261E+03  0.83681846769E+02 0.  0.
         11    1    3    3    0    0 -0.51047048952E+02 -0.14138973544E+02 -0.87267276490E+01  0.53683028557E+02  0.00000000000E+00 0.  1.
        -11    1    3    3    0    0 -0.49819972643E+03 -0.35694931205E+03  0.12225085790E+03  0.62494883874E+03  0.00000000000E+00 0. -1.
          2    1    6    6  502    0  0.81305498395E+01  0.21360741689E+01 -0.87779552165E+01  0.12154059047E+02  0.00000000000E+00 0. -1.
          1    1    5    5  503    0  0.14608681459E+03  0.29753365167E+02 -0.40543014034E+03  0.43197247462E+03  0.00000000000E+00 0. -1.
         -2    1    5    5    0  503  0.34049374665E+03  0.33992361384E+02 -0.64135142734E+03  0.72692718032E+03  0.00000000000E+00 0.  1.
         -1    1    6    6    0  502  0.54535664310E+02  0.30520648487E+03  0.80233808885E+02  0.32025396356E+03  0.00000000000E+00 0.  1.
<mgrwt>
<rscale>  0 0.19914657E+04</rscale>
<asrwt>0</asrwt>
<pdfrwt beam="1">  1        1 0.10062600E+00 0.19914657E+04</pdfrwt>
<pdfrwt beam="2">  1       -1 0.23321086E+00 0.19914657E+04</pdfrwt>
<totfact> 0.25174783E+00</totfact>
</mgrwt>
</event>
<event>
12    1  0.1477245E-007  0.1306768E+04  0.7818608E-02  0.9024215E-01
          2   -1    0    0  501    0  0.00000000000E+00  0.00000000000E+00  0.13336625592E+04  0.13336625592E+04  0.00000000000E+00 0. -1.
         -2   -1    0    0    0  501 -0.00000000000E+00 -0.00000000000E+00 -0.32010411854E+03  0.32010411854E+03  0.00000000000E+00 0.  1.
         23    2    1    2    0    0  0.78060047263E+01  0.33469871308E+03  0.31545401146E+03  0.46841899800E+03  0.88436203509E+02 0.  0.
        254    2    1    2    0    0 -0.78060047263E+01 -0.33469871308E+03  0.69810442922E+03  0.11853476798E+04  0.89756067515E+03 0.  0.
        -24    2    4    4    0    0 -0.40437456966E+03 -0.78344016987E+02  0.53476231013E+03  0.67964797289E+03  0.79335119144E+02 0.  0.
         24    2    4    4    0    0  0.39656856493E+03 -0.25635469609E+03  0.16334211908E+03  0.50569970687E+03  0.77892161127E+02 0.  0.
         13    1    3    3    0    0 -0.58108823551E-01  0.33410617023E+03  0.31679501448E+03  0.46041939313E+03  0.00000000000E+00 0. -1.
        -13    1    3    3    0    0  0.78641135498E+01  0.59254284944E+00 -0.13410030285E+01  0.79996048699E+01  0.00000000000E+00 0.  1.
          4    1    6    6  502    0  0.69157073236E+02 -0.68808381065E+02  0.59810667575E+02  0.11443168285E+03  0.00000000000E+00 0. -1.
          3    1    5    5  503    0 -0.15857804435E+02  0.90934700244E+01  0.43935319642E+02  0.47586484117E+02  0.00000000000E+00 0. -1.
         -4    1    5    5    0  503 -0.38851676522E+03 -0.87437487011E+02  0.49082699049E+03  0.63206148877E+03  0.00000000000E+00 0.  1.
         -3    1    6    6    0  502  0.32741149169E+03 -0.18754631503E+03  0.10353145151E+03  0.39126802403E+03  0.00000000000E+00 0.  1.
<mgrwt>
<rscale>  0 0.13067683E+04</rscale>
<asrwt>0</asrwt>
<pdfrwt beam="1">  1        2 0.20517885E+00 0.13067683E+04</pdfrwt>
<pdfrwt beam="2">  1       -2 0.49246788E-01 0.13067683E+04</pdfrwt>
<totfact> 0.60412628E+01</totfact>
</mgrwt>
</event>
<event>
12    1  0.1477245E-007  0.1056374E+04  0.7818608E-02  0.9248788E-01
          2   -1    0    0  501    0  0.00000000000E+00  0.00000000000E+00  0.25133279799E+04  0.25133279799E+04  0.00000000000E+00 0. -1.
         -2   -1    0    0    0  501 -0.00000000000E+00 -0.00000000000E+00 -0.11100083648E+03  0.11100083648E+03  0.00000000000E+00 0.  1.
         23    2    1    2    0    0 -0.32712940141E+02 -0.37698677256E+02  0.73543962748E+02  0.12702391127E+03  0.90747081821E+02 0.  0.
        254    2    1    2    0    0  0.32712940141E+02  0.37698677256E+02  0.23287831807E+04  0.24973049051E+04  0.90044953207E+03 0.  0.
        -24    2    4    4    0    0 -0.28124032303E+03  0.33354071542E+03  0.90999880696E+03  0.10123167037E+04  0.79635116585E+02 0.  0.
         24    2    4    4    0    0  0.31395326317E+03 -0.29584203817E+03  0.14187843737E+04  0.14849882014E+04  0.78432749670E+02 0.  0.
         13    1    3    3    0    0 -0.34075683093E+02  0.18725759079E+02  0.55508100187E+02  0.67771346583E+02  0.00000000000E+00 0. -1.
        -13    1    3    3    0    0  0.13627429524E+01 -0.56424436335E+02  0.18035862561E+02  0.59252564691E+02  0.00000000000E+00 0.  1.
          4    1    6    6  502    0  0.22335012358E+03 -0.16756898431E+03  0.83494764967E+03  0.88039889817E+03  0.00000000000E+00 0. -1.
          1    1    5    5  503    0 -0.27307236052E+03  0.29037981311E+03  0.83806448855E+03  0.92803073059E+03  0.00000000000E+00 0. -1.
         -2    1    5    5    0  503 -0.81679625109E+01  0.43160902314E+02  0.71934318410E+02  0.84285973123E+02  0.00000000000E+00 0.  1.
         -3    1    6    6    0  502  0.90603139597E+02 -0.12827305386E+03  0.58383672404E+03  0.60458930323E+03  0.00000000000E+00 0.  1.
<mgrwt>
<rscale>  0 0.10563740E+04</rscale>
<asrwt>0</asrwt>
<pdfrwt beam="1">  1        2 0.38666580E+00 0.10563740E+04</pdfrwt>
<pdfrwt beam="2">  1       -2 0.17077054E-01 0.10563740E+04</pdfrwt>
<totfact> 0.96777687E+01</totfact>
</mgrwt>
</event>
<event>
12    1  0.1477245E-007  0.2281469E+04  0.7818608E-02  0.8485264E-01
          2   -1    0    0  501    0  0.00000000000E+00  0.00000000000E+00  0.17141353981E+04  0.17141353981E+04  0.00000000000E+00 0. -1.
         -2   -1    0    0    0  501 -0.00000000000E+00 -0.00000000000E+00 -0.75914351591E+03  0.75914351591E+03  0.00000000000E+00 0.  1.
         23    2    1    2    0    0 -0.35296984226E+03  0.55985590555E+03 -0.34574982629E+03  0.75255208107E+03  0.93623436350E+02 0.  0.
        254    2    1    2    0    0  0.35296984226E+03 -0.55985590555E+03  0.13007417085E+04  0.17207268329E+04  0.91156211905E+03 0.  0.
        -24    2    4    4    0    0  0.14621600755E+03  0.23484868962E+03  0.22156399734E+03  0.36243778607E+03  0.75746392486E+02 0.  0.
         24    2    4    4    0    0  0.20675383471E+03 -0.79470459516E+03  0.10791777111E+04  0.13582890468E+04  0.77601938633E+02 0.  0.
         13    1    3    3    0    0 -0.42943452230E+00  0.20093860209E+02  0.17414801311E+01  0.20173754860E+02  0.00000000000E+00 0. -1.
        -13    1    3    3    0    0 -0.35254040773E+03  0.53976204534E+03 -0.34749130642E+03  0.73237832621E+03  0.00000000000E+00 0.  1.
          2    1    6    6  502    0 -0.49322998371E+01 -0.17485957183E+02  0.35737021048E+02  0.40090160310E+02  0.00000000000E+00 0. -1.
          3    1    5    5  503    0  0.11095505027E+03  0.13584972108E+03  0.17405817610E+03  0.24710811109E+03  0.00000000000E+00 0. -1.
         -4    1    5    5    0  503  0.35260957281E+02  0.98998968536E+02  0.47505821239E+02  0.11532967498E+03  0.00000000000E+00 0.  1.
         -1    1    6    6    0  502  0.21168613454E+03 -0.77721863798E+03  0.10434406901E+04  0.13181988865E+04  0.00000000000E+00 0.  1.
<mgrwt>
<rscale>  0 0.22814686E+04</rscale>
<asrwt>0</asrwt>
<pdfrwt beam="1">  1        2 0.26371314E+00 0.22814686E+04</pdfrwt>
<pdfrwt beam="2">  1       -2 0.11679131E+00 0.22814686E+04</pdfrwt>
<totfact> 0.49653545E+00</totfact>
</mgrwt>
</event>
<event>
12    1  0.1477245E-007  0.2625067E+04  0.7818608E-02  0.8359736E-01
          2   -1    0    0  501    0  0.00000000000E+00  0.00000000000E+00  0.19520347634E+04  0.19520347634E+04  0.00000000000E+00 0.  1.
         -2   -1    0    0    0  501 -0.00000000000E+00 -0.00000000000E+00 -0.88253758030E+03  0.88253758030E+03  0.00000000000E+00 0. -1.
         23    2    1    2    0    0 -0.97661980145E+03 -0.27412948568E+03  0.10342297418E+04  0.14513331888E+04  0.88338294968E+02 0.  0.
        254    2    1    2    0    0  0.97661980145E+03  0.27412948568E+03  0.35267441223E+02  0.13832391549E+04  0.93977314061E+03 0.  0.
        -24    2    4    4    0    0  0.64671138259E+03  0.52600318194E+03 -0.24882002378E+03  0.87363983348E+03  0.80126117007E+02 0.  0.
         24    2    4    4    0    0  0.32990841886E+03 -0.25187369627E+03  0.28408746501E+03  0.50959932144E+03  0.81889296830E+02 0.  0.
         11    1    3    3    0    0 -0.19972723842E+03 -0.53684148995E+02  0.26388609255E+03  0.33527425708E+03  0.00000000000E+00 0. -1.
        -11    1    3    3    0    0 -0.77689256302E+03 -0.22044533668E+03  0.77034364930E+03  0.11160589317E+04  0.00000000000E+00 0.  1.
          4    1    6    6  502    0  0.16088203992E+03 -0.11624100632E+03  0.18490343929E+03  0.27126423314E+03  0.00000000000E+00 0. -1.
          1    1    5    5  503    0  0.39956618883E+03  0.28393969889E+03 -0.17011408956E+03  0.51885806858E+03  0.00000000000E+00 0. -1.
         -2    1    5    5    0  503  0.24714519376E+03  0.24206348306E+03 -0.78705934223E+02  0.35478176490E+03  0.00000000000E+00 0.  1.
         -3    1    6    6    0  502  0.16902637894E+03 -0.13563268995E+03  0.99184025720E+02  0.23833508831E+03  0.00000000000E+00 0.  1.
<mgrwt>
<rscale>  0 0.26250669E+04</rscale>
<asrwt>0</asrwt>
<pdfrwt beam="1">  1        2 0.30031304E+00 0.26250669E+04</pdfrwt>
<pdfrwt beam="2">  1       -2 0.13577501E+00 0.26250669E+04</pdfrwt>
<totfact> 0.24383197E+00</totfact>
</mgrwt>
</event>
<event>
12    1  0.1477245E-007  0.2186633E+04  0.7818608E-02  0.8524012E-01
         -3   -1    0    0    0  501 -0.00000000000E+00  0.00000000000E+00  0.10009568954E+04  0.10009568954E+04  0.00000000000E+00 0.  1.
          3   -1    0    0  501    0  0.00000000000E+00 -0.00000000000E+00 -0.11941984492E+04  0.11941984492E+04  0.00000000000E+00 0. -1.
         23    2    1    2    0    0  0.67841144324E+03  0.42587546805E+02 -0.69267283295E+03  0.97484762913E+03  0.92067698283E+02 0.  0.
        254    2    1    2    0    0 -0.67841144324E+03 -0.42587546805E+02  0.49943127913E+03  0.12203077154E+04  0.88185233024E+03 0.  0.
        -24    2    4    4    0    0 -0.85210891833E+03  0.53697929003E+02  0.24850696104E+03  0.89279461943E+03  0.79708509731E+02 0.  0.
         24    2    4    4    0    0  0.17369747509E+03 -0.96285475808E+02  0.25092431808E+03  0.32751309602E+03  0.69714481668E+02 0.  0.
         11    1    3    3    0    0  0.52781658665E+03  0.67967948847E+02 -0.56019344086E+03  0.77267501732E+03  0.00000000000E+00 0. -1.
        -11    1    3    3    0    0  0.15059485659E+03 -0.25380402042E+02 -0.13247939208E+03  0.20217261181E+03  0.00000000000E+00 0.  1.
          2    1    6    6  502    0  0.61063749740E+02 -0.71850024762E+02  0.97698927563E+02  0.13578029326E+03  0.00000000000E+00 0. -1.
          1    1    5    5  503    0 -0.18087333270E+03  0.44164292326E+02  0.56562744507E+02  0.19458928867E+03  0.00000000000E+00 0. -1.
         -2    1    5    5    0  503 -0.67123558563E+03  0.95336366770E+01  0.19194421654E+03  0.69820533076E+03  0.00000000000E+00 0.  1.
         -1    1    6    6    0  502  0.11263372535E+03 -0.24435451046E+02  0.15322539052E+03  0.19173280276E+03  0.00000000000E+00 0.  1.
<mgrwt>
<rscale>  0 0.21866332E+04</rscale>
<asrwt>0</asrwt>
<pdfrwt beam="1">  1        3 0.18372284E+00 0.21866332E+04</pdfrwt>
<pdfrwt beam="2">  1       -3 0.15399337E+00 0.21866332E+04</pdfrwt>
<totfact> 0.13492771E-01</totfact>
</mgrwt>
</event>
<event>
12    1  0.1477245E-007  0.1778299E+04  0.7818608E-02  0.8717926E-01
          1   -1    0    0  501    0  0.00000000000E+00  0.00000000000E+00  0.13048564374E+04  0.13048564374E+04  0.00000000000E+00 0. -1.
         -1   -1    0    0    0  501 -0.00000000000E+00 -0.00000000000E+00 -0.60588032882E+03  0.60588032882E+03  0.00000000000E+00 0.  1.
         23    2    1    2    0    0 -0.17994579805E+03 -0.66960263510E+02 -0.41573900522E+03  0.46649081801E+03  0.88941529713E+02 0.  0.
        254    2    1    2    0    0  0.17994579805E+03  0.66960263510E+02  0.11147151138E+04  0.14442459482E+04  0.89799354497E+03 0.  0.
        -24    2    4    4    0    0  0.48134572440E+02 -0.51271724910E+02 -0.13956273305E+03  0.17498703024E+03  0.78720883217E+02 0.  0.
         24    2    4    4    0    0  0.13181122561E+03  0.11823198842E+03  0.12542778468E+04  0.12692589179E+04  0.80326094369E+02 0.  0.
         11    1    3    3    0    0 -0.64881457023E+02 -0.38565151897E+02 -0.77905362075E+02  0.10847174677E+03  0.00000000000E+00 0. -1.
        -11    1    3    3    0    0 -0.11506434103E+03 -0.28395111613E+02 -0.33783364314E+03  0.35801907125E+03  0.00000000000E+00 0.  1.
          4    1    6    6  502    0 -0.44495875523E+01  0.39934961253E+00  0.17450554267E+03  0.17456271862E+03  0.00000000000E+00 0. -1.
          1    1    5    5  503    0 -0.15952363108E+02  0.52709731156E+01 -0.93355973038E+01  0.19220156693E+02  0.00000000000E+00 0. -1.
         -2    1    5    5    0  503  0.64086935548E+02 -0.56542698025E+02 -0.13022713575E+03  0.15576687354E+03  0.00000000000E+00 0.  1.
         -3    1    6    6    0  502  0.13626081316E+03  0.11783263881E+03  0.10797723041E+04  0.10946961993E+04  0.00000000000E+00 0.  1.
<mgrwt>
<rscale>  0 0.17782990E+04</rscale>
<asrwt>0</asrwt>
<pdfrwt beam="1">  1        1 0.20074714E+00 0.17782990E+04</pdfrwt>
<pdfrwt beam="2">  1       -1 0.93212359E-01 0.17782990E+04</pdfrwt>
<totfact> 0.94791688E+00</totfact>
</mgrwt>
</event>
<event>
12    1  0.1477245E-007  0.1274656E+04  0.7818608E-02  0.9049908E-01
          4   -1    0    0  501    0  0.00000000000E+00  0.00000000000E+00  0.21830686363E+04  0.21830686363E+04  0.00000000000E+00 0. -1.
         -4   -1    0    0    0  501 -0.00000000000E+00 -0.00000000000E+00 -0.18606242854E+03  0.18606242854E+03  0.00000000000E+00 0.  1.
         23    2    1    2    0    0  0.11130975273E+03  0.61201501485E+02  0.10263774946E+04  0.10386568611E+04  0.96030353532E+02 0.  0.
        254    2    1    2    0    0 -0.11130975273E+03 -0.61201501485E+02  0.97062871321E+03  0.13304742038E+04  0.90105827963E+03 0.  0.
        -24    2    4    4    0    0 -0.46755842467E+02 -0.20311025601E+03  0.10935257703E+04  0.11160079031E+04  0.78962931579E+02 0.  0.
         24    2    4    4    0    0 -0.64553910267E+02  0.14190875453E+03 -0.12289705712E+03  0.21446630069E+03  0.81159137147E+02 0.  0.
         13    1    3    3    0    0  0.41413844808E+02 -0.24286908453E+02  0.36102783724E+03  0.36420606767E+03  0.00000000000E+00 0. -1.
        -13    1    3    3    0    0  0.69895907926E+02  0.85488409938E+02  0.66534965735E+03  0.67445079340E+03  0.00000000000E+00 0.  1.
          4    1    6    6  502    0 -0.29738119464E+02  0.25392273977E+02 -0.73410719440E+02  0.83176060593E+02  0.00000000000E+00 0. -1.
          1    1    5    5  503    0 -0.43289677703E+02 -0.12564962156E+03  0.85306410944E+03  0.86335404001E+03  0.00000000000E+00 0. -1.
         -2    1    5    5    0  503 -0.34661647642E+01 -0.77460634452E+02  0.24046166089E+03  0.25265386312E+03  0.00000000000E+00 0.  1.
         -3    1    6    6    0  502 -0.34815790803E+02  0.11651648055E+03 -0.49486337680E+02  0.13129024010E+03  0.00000000000E+00 0.  1.
<mgrwt>
<rscale>  0 0.12746561E+04</rscale>
<asrwt>0</asrwt>
<pdfrwt beam="1">  1        4 0.33585670E+00 0.12746561E+04</pdfrwt>
<pdfrwt beam="2">  1       -4 0.28624990E-01 0.12746561E+04</pdfrwt>
<totfact> 0.42984328E-01</totfact>
</mgrwt>
</event>
<event>
12    1  0.1477245E-007  0.1869033E+04  0.7818608E-02  0.8670426E-01
         -4   -1    0    0    0  501 -0.00000000000E+00  0.00000000000E+00  0.17690261780E+04  0.17690261780E+04  0.00000000000E+00 0.  1.
          4   -1    0    0  501    0  0.00000000000E+00 -0.00000000000E+00 -0.49367325918E+03  0.49367325918E+03  0.00000000000E+00 0. -1.
         23    2    1    2    0    0  0.25239602267E+02  0.57091106896E+03  0.10147671881E+04  0.11681698639E+04  0.91059863379E+02 0.  0.
        254    2    1    2    0    0 -0.25239602267E+02 -0.57091106896E+03  0.26058573073E+03  0.10945295733E+04  0.89638918867E+03 0.  0.
        -24    2    4    4    0    0 -0.94305257971E+02  0.61198765364E+02  0.41374179186E+03  0.43658761389E+03  0.82387521517E+02 0.  0.
         24    2    4    4    0    0  0.69065655704E+02 -0.63210983433E+03 -0.15315606113E+03  0.65794195940E+03  0.71399827937E+02 0.  0.
         11    1    3    3    0    0  0.49257388172E+02  0.19168200889E+03  0.31918521841E+03  0.37556289283E+03  0.00000000000E+00 0. -1.
        -11    1    3    3    0    0 -0.24017785905E+02  0.37922906008E+03  0.69558196972E+03  0.79260697111E+03  0.00000000000E+00 0.  1.
          2    1    6    6  502    0 -0.27447246344E+01 -0.49059106835E+01  0.45593096906E+01  0.72380092434E+01  0.00000000000E+00 0. -1.
          1    1    5    5  503    0  0.22731290328E+00  0.12446341688E+02  0.37167776876E+01  0.12991440603E+02  0.00000000000E+00 0. -1.
         -2    1    5    5    0  503 -0.94532570874E+02  0.48752423677E+02  0.41002501418E+03  0.42359617328E+03  0.00000000000E+00 0.  1.
         -1    1    6    6    0  502  0.71810380338E+02 -0.62720392365E+03 -0.15771537083E+03  0.65070395016E+03  0.00000000000E+00 0.  1.
<mgrwt>
<rscale>  0 0.18690328E+04</rscale>
<asrwt>0</asrwt>
<pdfrwt beam="1">  1        4 0.75949733E-01 0.18690328E+04</pdfrwt>
<pdfrwt beam="2">  1       -4 0.27215787E+00 0.18690328E+04</pdfrwt>
<totfact> 0.13507459E-01</totfact>
</mgrwt>
</event>
<event>
12    1  0.1477245E-007  0.2487424E+04  0.7818608E-02  0.8407480E-01
          2   -1    0    0  501    0  0.00000000000E+00  0.00000000000E+00  0.32864500150E+04  0.32864500150E+04  0.00000000000E+00 0. -1.
         -2   -1    0    0    0  501 -0.00000000000E+00 -0.00000000000E+00 -0.47066560658E+03  0.47066560658E+03  0.00000000000E+00 0.  1.
         23    2    1    2    0    0 -0.48833742664E+03  0.53005823989E+03  0.13111848519E+02  0.72652426717E+03  0.90721608670E+02 0.  0.
        254    2    1    2    0    0  0.48833742664E+03 -0.53005823989E+03  0.28026725599E+04  0.30305913545E+04  0.90004183208E+03 0.  0.
        -24    2    4    4    0    0 -0.24629893162E+03 -0.23134217754E+03  0.10293158376E+04  0.10863455951E+04  0.80456768489E+02 0.  0.
         24    2    4    4    0    0  0.73463635826E+03 -0.29871606234E+03  0.17733567223E+04  0.19442457594E+04  0.79847625966E+02 0.  0.
         13    1    3    3    0    0 -0.13836088988E+03  0.97767987820E+02 -0.11252775233E+02  0.16979087208E+03  0.00000000000E+00 0. -1.
        -13    1    3    3    0    0 -0.34997653676E+03  0.43229025207E+03  0.24364623753E+02  0.55673339509E+03  0.00000000000E+00 0.  1.
          2    1    6    6  502    0  0.72219090661E+03 -0.29585513680E+03  0.17622024132E+04  0.19272901475E+04  0.00000000000E+00 0. -1.
          3    1    5    5  503    0 -0.18997992151E+03 -0.14755419477E+03  0.80888729625E+03  0.84389766501E+03  0.00000000000E+00 0. -1.
         -4    1    5    5    0  503 -0.56319010105E+02 -0.83787982770E+02  0.22042854137E+03  0.24244793010E+03  0.00000000000E+00 0.  1.
         -1    1    6    6    0  502  0.12445451648E+02 -0.28609255378E+01  0.11154309171E+02  0.16955611895E+02  0.00000000000E+00 0.  1.
<mgrwt>
<rscale>  0 0.24874236E+04</rscale>
<asrwt>0</asrwt>
<pdfrwt beam="1">  1        2 0.50560768E+00 0.24874236E+04</pdfrwt>
<pdfrwt beam="2">  1       -2 0.72410095E-01 0.24874236E+04</pdfrwt>
<totfact> 0.17536654E+00</totfact>
</mgrwt>
</event>
<event>
12    1  0.1477245E-007  0.2771616E+04  0.7818608E-02  0.8312135E-01
          1   -1    0    0  501    0  0.00000000000E+00  0.00000000000E+00  0.20394433624E+04  0.20394433624E+04  0.00000000000E+00 0. -1.
         -1   -1    0    0    0  501 -0.00000000000E+00 -0.00000000000E+00 -0.94166073253E+03  0.94166073253E+03  0.00000000000E+00 0.  1.
         23    2    1    2    0    0  0.60884125535E+03  0.95032801405E+02  0.16549278633E+04  0.17683195040E+04  0.91916963691E+02 0.  0.
        254    2    1    2    0    0 -0.60884125535E+03 -0.95032801405E+02 -0.55714523338E+03  0.12127845909E+04  0.88358177057E+03 0.  0.
        -24    2    4    4    0    0 -0.32707175003E+02  0.28740739223E+03 -0.39878393635E+03  0.49882489203E+03  0.78261590900E+02 0.  0.
         24    2    4    4    0    0 -0.57613408034E+03 -0.38244019363E+03 -0.15836129703E+03  0.71395969887E+03  0.80431156793E+02 0.  0.
         13    1    3    3    0    0  0.52188014217E+03  0.52892654904E+02  0.14435178393E+04  0.15358711756E+04  0.00000000000E+00 0. -1.
        -13    1    3    3    0    0  0.86961113179E+02  0.42140146502E+02  0.21141002396E+03  0.23244832841E+03  0.00000000000E+00 0.  1.
          2    1    6    6  502    0 -0.50187738869E+03 -0.34982063139E+03 -0.11675806972E+03  0.62280641797E+03  0.00000000000E+00 0. -1.
          3    1    5    5  503    0 -0.15761418417E+02  0.27517647618E+03 -0.38606793646E+03  0.47436164149E+03  0.00000000000E+00 0. -1.
         -4    1    5    5    0  503 -0.16945756586E+02  0.12230916043E+02 -0.12715999891E+02  0.24463250535E+02  0.00000000000E+00 0.  1.
         -1    1    6    6    0  502 -0.74256691653E+02 -0.32619562237E+02 -0.41603227315E+02  0.91153280900E+02  0.00000000000E+00 0.  1.
<mgrwt>
<rscale>  0 0.27716159E+04</rscale>
<asrwt>0</asrwt>
<pdfrwt beam="1">  1        1 0.31376052E+00 0.27716159E+04</pdfrwt>
<pdfrwt beam="2">  1       -1 0.14487088E+00 0.27716159E+04</pdfrwt>
<totfact> 0.93109235E-01</totfact>
</mgrwt>
</event>
<event>
12    1  0.1477245E-007  0.1142958E+04  0.7818608E-02  0.9164304E-01
          1   -1    0    0  501    0  0.00000000000E+00  0.00000000000E+00  0.38014699839E+04  0.38014699839E+04  0.00000000000E+00 0. -1.
         -1   -1    0    0    0  501 -0.00000000000E+00 -0.00000000000E+00 -0.85911109728E+02  0.85911109728E+02  0.00000000000E+00 0.  1.
         23    2    1    2    0    0 -0.14780217883E+03  0.11234599597E+03  0.56310640424E+03  0.59977700252E+03  0.90424130474E+02 0.  0.
        254    2    1    2    0    0  0.14780217883E+03 -0.11234599597E+03  0.31524524699E+04  0.32876040911E+04  0.91428495440E+03 0.  0.
        -24    2    4    4    0    0 -0.12588583533E+03 -0.35666532527E+03  0.25411206788E+04  0.25703670234E+04  0.80218033183E+02 0.  0.
         24    2    4    4    0    0  0.27368801416E+03  0.24431932930E+03  0.61133179117E+03  0.71723706777E+03  0.78136986933E+02 0.  0.
         11    1    3    3    0    0 -0.71681466520E+02  0.62092413971E+02  0.41611481288E+03  0.42678476779E+03  0.00000000000E+00 0. -1.
        -11    1    3    3    0    0 -0.76120712311E+02  0.50253581996E+02  0.14699159136E+03  0.17299223473E+03  0.00000000000E+00 0.  1.
          4    1    6    6  502    0  0.27487073451E+03  0.23747751892E+03  0.57413033424E+03  0.67939320970E+03  0.00000000000E+00 0. -1.
          3    1    5    5  503    0 -0.55321535551E+02 -0.21628892420E+03  0.17115985547E+04  0.17260970376E+04  0.00000000000E+00 0. -1.
         -2    1    5    5    0  503 -0.70564299782E+02 -0.14037640107E+03  0.82952212412E+03  0.84426998572E+03  0.00000000000E+00 0.  1.
         -3    1    6    6    0  502 -0.11827203514E+01  0.68418103887E+01  0.37201456926E+02  0.37843858078E+02  0.00000000000E+00 0.  1.
<mgrwt>
<rscale>  0 0.11429585E+04</rscale>
<asrwt>0</asrwt>
<pdfrwt beam="1">  1        1 0.58484140E+00 0.11429585E+04</pdfrwt>
<pdfrwt beam="2">  1       -1 0.13217097E-01 0.11429585E+04</pdfrwt>
<totfact> 0.58972590E+00</totfact>
</mgrwt>
</event>
<event>
12    1  0.1477245E-007  0.1058660E+04  0.7818608E-02  0.9246449E-01
          2   -1    0    0  501    0  0.00000000000E+00  0.00000000000E+00  0.98350633030E+03  0.98350633030E+03  0.00000000000E+00 0. -1.
         -2   -1    0    0    0  501 -0.00000000000E+00 -0.00000000000E+00 -0.28488904067E+03  0.28488904067E+03  0.00000000000E+00 0.  1.
         23    2    1    2    0    0  0.67960396506E+02 -0.28550590689E+02  0.21446437418E+03  0.24457753623E+03  0.91593950192E+02 0.  0.
        254    2    1    2    0    0 -0.67960396506E+02  0.28550590689E+02  0.48415291545E+03  0.10238178347E+04  0.89909129762E+03 0.  0.
        -24    2    4    4    0    0 -0.28592780096E+03 -0.14334724789E+03 -0.12277301674E+03  0.35173927184E+03  0.79650240908E+02 0.  0.
         24    2    4    4    0    0  0.21796740445E+03  0.17189783858E+03  0.60692593219E+03  0.67207856290E+03  0.79195020270E+02 0.  0.
         11    1    3    3    0    0  0.40040627954E+01 -0.17789785888E+02 -0.22440887765E+01  0.18372396013E+02  0.00000000000E+00 0.  1.
        -11    1    3    3    0    0  0.63956333711E+02 -0.10760804801E+02  0.21670846296E+03  0.22620514022E+03  0.00000000000E+00 0. -1.
          2    1    6    6  502    0  0.21604602883E+03  0.17946299998E+03  0.58993454206E+03  0.65338014880E+03  0.00000000000E+00 0. -1.
          1    1    5    5  503    0 -0.18186820019E+03 -0.49858468763E+02 -0.84943784411E+02  0.20682687364E+03  0.00000000000E+00 0. -1.
         -2    1    5    5    0  503 -0.10405960077E+03 -0.93488779127E+02 -0.37829232324E+02  0.14491239820E+03  0.00000000000E+00 0.  1.
         -1    1    6    6    0  502  0.19213756176E+01 -0.75651613967E+01  0.16991390129E+02  0.18698414097E+02  0.00000000000E+00 0.  1.
<mgrwt>
<rscale>  0 0.10586599E+04</rscale>
<asrwt>0</asrwt>
<pdfrwt beam="1">  1        2 0.15130866E+00 0.10586599E+04</pdfrwt>
<pdfrwt beam="2">  1       -2 0.43829084E-01 0.10586599E+04</pdfrwt>
<totfact> 0.12675451E+02</totfact>
</mgrwt>
</event>
<event>
12    1  0.1477245E-007  0.2474110E+04  0.7818608E-02  0.8412268E-01
          2   -1    0    0  501    0  0.00000000000E+00  0.00000000000E+00  0.17961991827E+04  0.17961991827E+04  0.00000000000E+00 0. -1.
         -2   -1    0    0    0  501 -0.00000000000E+00 -0.00000000000E+00 -0.85196817966E+03  0.85196817966E+03  0.00000000000E+00 0.  1.
         23    2    1    2    0    0 -0.21058509700E+03 -0.10137127452E+04  0.70531621202E+03  0.12561153575E+04  0.91625431270E+02 0.  0.
        254    2    1    2    0    0  0.21058509700E+03  0.10137127452E+04  0.23891479105E+03  0.13920520049E+04  0.89931579213E+03 0.  0.
        -24    2    4    4    0    0  0.21980536831E+03  0.11278517260E+04  0.36138664306E+03  0.12072177214E+04  0.80065006679E+02 0.  0.
         24    2    4    4    0    0 -0.92202713089E+01 -0.11413898086E+03 -0.12247185201E+03  0.18483428341E+03  0.77792271037E+02 0.  0.
         13    1    3    3    0    0 -0.19690265996E+03 -0.99470085106E+03  0.67638981038E+03  0.12188944237E+04  0.00000000000E+00 0.  1.
        -13    1    3    3    0    0 -0.13682437039E+02 -0.19011894128E+02  0.28926401644E+02  0.37220933811E+02  0.00000000000E+00 0. -1.
          2    1    6    6  502    0  0.17154967325E+02 -0.99418543498E+02 -0.65308099361E+02  0.12018106148E+03  0.00000000000E+00 0. -1.
          3    1    5    5  503    0  0.92384159658E+02  0.29128337652E+03  0.10120749417E+03  0.32190650082E+03  0.00000000000E+00 0. -1.
         -4    1    5    5    0  503  0.12742120865E+03  0.83656834953E+03  0.26017914888E+03  0.88531122062E+03  0.00000000000E+00 0.  1.
         -1    1    6    6    0  502 -0.26375238634E+02 -0.14720437360E+02 -0.57163752651E+02  0.64653221932E+02  0.00000000000E+00 0.  1.
<mgrwt>
<rscale>  0 0.24741096E+04</rscale>
<asrwt>0</asrwt>
<pdfrwt beam="1">  1        2 0.27633833E+00 0.24741096E+04</pdfrwt>
<pdfrwt beam="2">  1       -2 0.13107203E+00 0.24741096E+04</pdfrwt>
<totfact> 0.32967138E+00</totfact>
</mgrwt>
</event>
<event>
12    1  0.1477245E-007  0.1275060E+04  0.7818608E-02  0.9049580E-01
         -2   -1    0    0    0  501 -0.00000000000E+00  0.00000000000E+00  0.19228272102E+04  0.19228272102E+04  0.00000000000E+00 0.  1.
          2   -1    0    0  501    0  0.00000000000E+00 -0.00000000000E+00 -0.21137845636E+03  0.21137845636E+03  0.00000000000E+00 0. -1.
         23    2    1    2    0    0  0.21762019902E+03  0.14642804482E+03  0.71051624299E+03  0.76254609512E+03  0.88563493070E+02 0.  0.
        254    2    1    2    0    0 -0.21762019902E+03 -0.14642804482E+03  0.10009325108E+04  0.13716595714E+04  0.90043565307E+03 0.  0.
        -24    2    4    4    0    0  0.25657681208E+03 -0.31198685200E+03  0.58075090673E+03  0.71169856085E+03  0.77947222692E+02 0.  0.
         24    2    4    4    0    0 -0.47419701111E+03  0.16555880718E+03  0.42018160410E+03  0.65996101058E+03  0.81996530917E+02 0.  0.
         11    1    3    3    0    0  0.14037177328E+03  0.42772148781E+02  0.40699997917E+03  0.43264613080E+03  0.00000000000E+00 0. -1.
        -11    1    3    3    0    0  0.77248425742E+02  0.10365589604E+03  0.30351626381E+03  0.32989996433E+03  0.00000000000E+00 0.  1.
          2    1    6    6  502    0 -0.51738658347E+02  0.40192469217E+02  0.79130601012E+02  0.10273254288E+03  0.00000000000E+00 0. -1.
          1    1    5    5  503    0  0.12351058280E+03 -0.20326102569E+03  0.30477492829E+03  0.38659754984E+03  0.00000000000E+00 0. -1.
         -2    1    5    5    0  503  0.13306622928E+03 -0.10872582631E+03  0.27597597845E+03  0.32510101101E+03  0.00000000000E+00 0.  1.
         -1    1    6    6    0  502 -0.42245835276E+03  0.12536633797E+03  0.34105100309E+03  0.55722846771E+03  0.00000000000E+00 0.  1.
<mgrwt>
<rscale>  0 0.12750596E+04</rscale>
<asrwt>0</asrwt>
<pdfrwt beam="1">  1        2 0.32519764E-01 0.12750596E+04</pdfrwt>
<pdfrwt beam="2">  1       -2 0.29581956E+00 0.12750596E+04</pdfrwt>
<totfact> 0.54143356E+00</totfact>
</mgrwt>
</event>
<event>
12    1  0.1477245E-007  0.1362246E+04  0.7818608E-02  0.8981610E-01
          2   -1    0    0  501    0  0.00000000000E+00  0.00000000000E+00  0.20584024598E+03  0.20584024598E+03  0.00000000000E+00 0. -1.
         -2   -1    0    0    0  501 -0.00000000000E+00 -0.00000000000E+00 -0.22538267597E+04  0.22538267597E+04  0.00000000000E+00 0.  1.
         23    2    1    2    0    0  0.32597391750E+03 -0.85420301011E+02 -0.84368130905E+03  0.91307052330E+03  0.91345533894E+02 0.  0.
        254    2    1    2    0    0 -0.32597391750E+03  0.85420301011E+02 -0.12043052047E+04  0.15465964824E+04  0.90997474173E+03 0.  0.
        -24    2    4    4    0    0 -0.59939179319E+03  0.14272909273E+03 -0.10441535093E+04  0.12149113281E+04  0.78172044447E+02 0.  0.
         24    2    4    4    0    0  0.27341787569E+03 -0.57308791717E+02 -0.16015169539E+03  0.33168515429E+03  0.79528885852E+02 0.  0.
         11    1    3    3    0    0  0.24428027765E+03 -0.10314703134E+03 -0.62273930535E+03  0.67684297038E+03  0.00000000000E+00 0.  1.
        -11    1    3    3    0    0  0.81693639848E+02  0.17726730327E+02 -0.22094200370E+03  0.23622755292E+03  0.00000000000E+00 0. -1.
          2    1    6    6  502    0  0.27344134791E+03 -0.66222830571E+02 -0.15300231085E+03  0.32025824136E+03  0.00000000000E+00 0. -1.
          1    1    5    5  503    0 -0.49112221572E+03  0.92696360364E+02 -0.80215179249E+03  0.94511435508E+03  0.00000000000E+00 0. -1.
         -2    1    5    5    0  503 -0.10826957747E+03  0.50032732364E+02 -0.24200171679E+03  0.26979697300E+03  0.00000000000E+00 0.  1.
         -1    1    6    6    0  502 -0.23472224393E-01  0.89140388539E+01 -0.71493845418E+01  0.11426912924E+02  0.00000000000E+00 0.  1.
<mgrwt>
<rscale>  0 0.13622456E+04</rscale>
<asrwt>0</asrwt>
<pdfrwt beam="1">  1        2 0.31667729E-01 0.13622456E+04</pdfrwt>
<pdfrwt beam="2">  1       -2 0.34674259E+00 0.13622456E+04</pdfrwt>
<totfact> 0.26919107E+00</totfact>
</mgrwt>
</event>
<event>
12    1  0.1477245E-007  0.1505521E+04  0.7818608E-02  0.8880790E-01
          2   -1    0    0  501    0  0.00000000000E+00  0.00000000000E+00  0.77545567317E+03  0.77545567317E+03  0.00000000000E+00 0. -1.
         -2   -1    0    0    0  501 -0.00000000000E+00 -0.00000000000E+00 -0.73072910078E+03  0.73072910078E+03  0.00000000000E+00 0.  1.
         23    2    1    2    0    0  0.26457180310E+03  0.19689046832E+03 -0.33236630938E+03  0.47785675744E+03  0.95475763992E+02 0.  0.
        254    2    1    2    0    0 -0.26457180310E+03 -0.19689046832E+03  0.37709288177E+03  0.10283280165E+04  0.89805087414E+03 0.  0.
        -24    2    4    4    0    0 -0.52801001486E+03  0.19530302335E+02  0.41499328134E+03  0.67643039215E+03  0.78502505451E+02 0.  0.
         24    2    4    4    0    0  0.26343821176E+03 -0.21642077066E+03 -0.37900399574E+02  0.35189762437E+03  0.78472010052E+02 0.  0.
         13    1    3    3    0    0  0.81729863125E+02  0.80113103501E+02 -0.58683937911E+02  0.12861447993E+03  0.00000000000E+00 0. -1.
        -13    1    3    3    0    0  0.18284193997E+03  0.11677736482E+03 -0.27368237147E+03  0.34924227751E+03  0.00000000000E+00 0.  1.
          4    1    6    6  502    0  0.31063072051E+02 -0.57318909338E+02  0.10833776204E+02  0.66088898613E+02  0.00000000000E+00 0. -1.
          3    1    5    5  503    0 -0.16406802317E+03  0.36864414369E+02  0.10675654832E+03  0.19918399003E+03  0.00000000000E+00 0. -1.
         -4    1    5    5    0  503 -0.36394199169E+03 -0.17334112034E+02  0.30823673302E+03  0.47724640212E+03  0.00000000000E+00 0.  1.
         -3    1    6    6    0  502  0.23237513970E+03 -0.15910186132E+03 -0.48734175778E+02  0.28580872575E+03  0.00000000000E+00 0.  1.
<mgrwt>
<rscale>  0 0.15055205E+04</rscale>
<asrwt>0</asrwt>
<pdfrwt beam="1">  1        2 0.11930087E+00 0.15055205E+04</pdfrwt>
<pdfrwt beam="2">  1       -2 0.11241986E+00 0.15055205E+04</pdfrwt>
<totfact> 0.21607367E+01</totfact>
</mgrwt>
</event>
<event>
12    1  0.1477245E-007  0.1451120E+04  0.7818608E-02  0.8917624E-01
         -2   -1    0    0    0  501 -0.00000000000E+00  0.00000000000E+00  0.23068348756E+03  0.23068348756E+03  0.00000000000E+00 0.  1.
          2   -1    0    0  501    0  0.00000000000E+00 -0.00000000000E+00 -0.22820758790E+04  0.22820758790E+04  0.00000000000E+00 0. -1.
         23    2    1    2    0    0 -0.30543293850E+03 -0.33093105919E+03 -0.70624591620E+03  0.84287419047E+03  0.94068915912E+02 0.  0.
        254    2    1    2    0    0  0.30543293850E+03  0.33093105919E+03 -0.13451464753E+04  0.16698851761E+04  0.88107480706E+03 0.  0.
        -24    2    4    4    0    0  0.56414486832E+03  0.41043959203E+03 -0.87868535403E+03  0.11247561153E+04  0.79172446722E+02 0.  0.
         24    2    4    4    0    0 -0.25871192981E+03 -0.79508532845E+02 -0.46646112123E+03  0.54512906083E+03  0.79537701252E+02 0.  0.
         11    1    3    3    0    0 -0.27056535995E+03 -0.26971662314E+03 -0.53232538608E+03  0.65522743187E+03  0.00000000000E+00 0.  1.
        -11    1    3    3    0    0 -0.34867578552E+02 -0.61214436047E+02 -0.17392053012E+03  0.18764675860E+03  0.00000000000E+00 0. -1.
          4    1    6    6  502    0 -0.17910545670E+03 -0.91658973942E+02 -0.32018763090E+03  0.37815374003E+03  0.00000000000E+00 0. -1.
          1    1    5    5  503    0  0.39947857933E+03  0.33004734796E+03 -0.62657289142E+03  0.81308546630E+03  0.00000000000E+00 0. -1.
         -2    1    5    5    0  503  0.16466628898E+03  0.80392244071E+02 -0.25211246261E+03  0.31167064898E+03  0.00000000000E+00 0.  1.
         -3    1    6    6    0  502 -0.79606473112E+02  0.12150441097E+02 -0.14627349034E+03  0.16697532080E+03  0.00000000000E+00 0.  1.
<mgrwt>
<rscale>  0 0.14511199E+04</rscale>
<asrwt>0</asrwt>
<pdfrwt beam="1">  1        2 0.35108859E+00 0.14511199E+04</pdfrwt>
<pdfrwt beam="2">  1       -2 0.35489768E-01 0.14511199E+04</pdfrwt>
<totfact> 0.33628151E+01</totfact>
</mgrwt>
</event>
<event>
12    1  0.1477245E-007  0.2568951E+04  0.7818608E-02  0.8378825E-01
         -1   -1    0    0    0  501 -0.00000000000E+00  0.00000000000E+00  0.84107340251E+03  0.84107340251E+03  0.00000000000E+00 0.  1.
          1   -1    0    0  501    0  0.00000000000E+00 -0.00000000000E+00 -0.19616334138E+04  0.19616334138E+04  0.00000000000E+00 0. -1.
         23    2    1    2    0    0  0.70206397630E+03 -0.58132582685E+02 -0.14534271224E+04  0.16176396967E+04  0.89635730304E+02 0.  0.
        254    2    1    2    0    0 -0.70206397630E+03  0.58132582685E+02  0.33286711111E+03  0.11850671196E+04  0.89292235966E+03 0.  0.
        -24    2    4    4    0    0  0.10567337565E+03 -0.67538301549E+02  0.33220145483E+03  0.36358689601E+03  0.78162266204E+02 0.  0.
         24    2    4    4    0    0 -0.80773735195E+03  0.12567088423E+03  0.66565627487E+00  0.82148022362E+03  0.81218925334E+02 0.  0.
         11    1    3    3    0    0  0.21649820573E+03 -0.39831937903E+02 -0.53682445080E+03  0.58020560781E+03  0.00000000000E+00 0. -1.
        -11    1    3    3    0    0  0.48556577057E+03 -0.18300644781E+02 -0.91660267157E+03  0.10374340888E+04  0.00000000000E+00 0.  1.
          2    1    6    6  502    0 -0.75086882473E+02 -0.62512591232E+01  0.15387717586E+02  0.76901885625E+02  0.00000000000E+00 0. -1.
          3    1    5    5  503    0  0.13682130069E+02 -0.28143812016E+02  0.17107343607E+03  0.17391203341E+03  0.00000000000E+00 0. -1.
         -4    1    5    5    0  503  0.91991245578E+02 -0.39394489532E+02  0.16112801877E+03  0.18967486259E+03  0.00000000000E+00 0.  1.
         -1    1    6    6    0  502 -0.73265046947E+03  0.13192214336E+03 -0.14722061311E+02  0.74457833800E+03  0.00000000000E+00 0.  1.
<mgrwt>
<rscale>  0 0.25689513E+04</rscale>
<asrwt>0</asrwt>
<pdfrwt beam="1">  1        1 0.30178975E+00 0.25689513E+04</pdfrwt>
<pdfrwt beam="2">  1       -1 0.12939591E+00 0.25689513E+04</pdfrwt>
<totfact> 0.14336941E+00</totfact>
</mgrwt>
</event>
<event>
12    1  0.1477245E-007  0.1702876E+04  0.7818608E-02  0.8759726E-01
         -1   -1    0    0    0  501 -0.00000000000E+00  0.00000000000E+00  0.61075081912E+03  0.61075081912E+03  0.00000000000E+00 0.  1.
          1   -1    0    0  501    0  0.00000000000E+00 -0.00000000000E+00 -0.11869757995E+04  0.11869757995E+04  0.00000000000E+00 0. -1.
         23    2    1    2    0    0  0.15157818307E+03  0.51136799921E+03 -0.53369690627E+03  0.76016245442E+03  0.92419657811E+02 0.  0.
        254    2    1    2    0    0 -0.15157818307E+03 -0.51136799921E+03 -0.42528074093E+02  0.10375641642E+04  0.88896433084E+03 0.  0.
        -24    2    4    4    0    0 -0.38653009020E+03 -0.26007091241E+03  0.28835382214E+03  0.55348244990E+03  0.78437908539E+02 0.  0.
         24    2    4    4    0    0  0.23495190713E+03 -0.25129708680E+03 -0.33088189623E+03  0.48408171427E+03  0.80620421403E+02 0.  0.
         11    1    3    3    0    0  0.10875438987E+03  0.38750533675E+03 -0.45426254927E+03  0.60691215756E+03  0.00000000000E+00 0. -1.
        -11    1    3    3    0    0  0.42823793204E+02  0.12386266246E+03 -0.79434357000E+02  0.15325029686E+03  0.00000000000E+00 0.  1.
          4    1    6    6  502    0  0.17424106538E+03 -0.17805394069E+03 -0.28477269863E+03  0.37836311203E+03  0.00000000000E+00 0. -1.
          3    1    5    5  503    0 -0.36317335320E+03 -0.24696211475E+03  0.24605429425E+03  0.50341621579E+03  0.00000000000E+00 0. -1.
         -4    1    5    5    0  503 -0.23356737005E+02 -0.13108797658E+02  0.42299527882E+02  0.50066234117E+02  0.00000000000E+00 0.  1.
         -3    1    6    6    0  502  0.60710841745E+02 -0.73243146111E+02 -0.46109197602E+02  0.10571860225E+03  0.00000000000E+00 0.  1.
<mgrwt>
<rscale>  0 0.17028757E+04</rscale>
<asrwt>0</asrwt>
<pdfrwt beam="1">  1        1 0.18261166E+00 0.17028757E+04</pdfrwt>
<pdfrwt beam="2">  1       -1 0.93961664E-01 0.17028757E+04</pdfrwt>
<totfact> 0.11406959E+01</totfact>
</mgrwt>
</event>
<event>
12    1  0.1477245E-007  0.1413631E+04  0.7818608E-02  0.8944010E-01
         -2   -1    0    0    0  501 -0.00000000000E+00  0.00000000000E+00  0.33164674263E+03  0.33164674263E+03  0.00000000000E+00 0.  1.
          2   -1    0    0  501    0  0.00000000000E+00 -0.00000000000E+00 -0.15063866206E+04  0.15063866206E+04  0.00000000000E+00 0. -1.
         23    2    1    2    0    0 -0.61080991352E+02 -0.39154894182E+03 -0.17618283008E+03  0.44322837533E+03  0.91485199525E+02 0.  0.
        254    2    1    2    0    0  0.61080991352E+02  0.39154894182E+03 -0.99855704785E+03  0.13948049879E+04  0.88956355311E+03 0.  0.
        -24    2    4    4    0    0  0.37436050974E+03  0.21791682321E+03 -0.92154130212E+03  0.10212403050E+04  0.77845076624E+02 0.  0.
         24    2    4    4    0    0 -0.31327951839E+03  0.17363211861E+03 -0.77015745734E+02  0.37356468287E+03  0.72986148944E+02 0.  0.
         11    1    3    3    0    0 -0.48421248140E-01 -0.24914219375E+03 -0.13284664533E+03  0.28234742115E+03  0.00000000000E+00 0. -1.
        -11    1    3    3    0    0 -0.61032570103E+02 -0.14240674807E+03 -0.43336184754E+02  0.16088095418E+03  0.00000000000E+00 0.  1.
          4    1    6    6  502    0 -0.24572141987E+03  0.15031224854E+03 -0.33752919492E+02  0.29002077136E+03  0.00000000000E+00 0. -1.
          3    1    5    5  503    0  0.28153817715E+03  0.20057106507E+03 -0.72411423479E+03  0.80239262357E+03  0.00000000000E+00 0. -1.
         -4    1    5    5    0  503  0.92822332590E+02  0.17345758144E+02 -0.19742706733E+03  0.21884768143E+03  0.00000000000E+00 0.  1.
         -3    1    6    6    0  502 -0.67558098521E+02  0.23319870069E+02 -0.43262826242E+02  0.83543911509E+02  0.00000000000E+00 0.  1.
<mgrwt>
<rscale>  0 0.14136311E+04</rscale>
<asrwt>0</asrwt>
<pdfrwt beam="1">  1        2 0.23175178E+00 0.14136311E+04</pdfrwt>
<pdfrwt beam="2">  1       -2 0.51022577E-01 0.14136311E+04</pdfrwt>
<totfact> 0.44431801E+01</totfact>
</mgrwt>
</event>
<event>
12    1  0.1477245E-007  0.1683418E+04  0.7818608E-02  0.8770879E-01
         -2   -1    0    0    0  501 -0.00000000000E+00  0.00000000000E+00  0.89247211053E+03  0.89247211053E+03  0.00000000000E+00 0.  1.
          2   -1    0    0  501    0  0.00000000000E+00 -0.00000000000E+00 -0.79383279471E+03  0.79383279471E+03  0.00000000000E+00 0. -1.
         23    2    1    2    0    0 -0.42576007055E+03  0.18230864108E+03 -0.33659184758E+03  0.57988442424E+03  0.91998887635E+02 0.  0.
        254    2    1    2    0    0  0.42576007055E+03 -0.18230864108E+03  0.43523116339E+03  0.11064204810E+04  0.90566662570E+03 0.  0.
        -24    2    4    4    0    0  0.56790704024E+03 -0.58586189575E+02  0.60842464191E+03  0.83811442591E+03  0.79400869381E+02 0.  0.
         24    2    4    4    0    0 -0.14214696969E+03 -0.12372245151E+03 -0.17319347852E+03  0.26830605510E+03  0.80493181077E+02 0.  0.
         11    1    3    3    0    0 -0.16001175845E+03  0.99004778665E+02 -0.93027593909E+02  0.20990436458E+03  0.00000000000E+00 0.  1.
        -11    1    3    3    0    0 -0.26574831210E+03  0.83303862419E+02 -0.24356425367E+03  0.36998005966E+03  0.00000000000E+00 0. -1.
          4    1    6    6  502    0  0.10093264088E+02 -0.31422990335E+01 -0.11255598249E+02  0.15441389676E+02  0.00000000000E+00 0. -1.
          1    1    5    5  503    0  0.28821566182E+03 -0.49341360993E+02  0.36105732343E+03  0.46461298780E+03  0.00000000000E+00 0. -1.
         -2    1    5    5    0  503  0.27969137842E+03 -0.92448285814E+01  0.24736731848E+03  0.37350143811E+03  0.00000000000E+00 0.  1.
         -3    1    6    6    0  502 -0.15224023378E+03 -0.12058015248E+03 -0.16193788027E+03  0.25286466542E+03  0.00000000000E+00 0.  1.
<mgrwt>
<rscale>  0 0.16834175E+04</rscale>
<asrwt>0</asrwt>
<pdfrwt beam="1">  1        2 0.12212812E+00 0.16834175E+04</pdfrwt>
<pdfrwt beam="2">  1       -2 0.13730340E+00 0.16834175E+04</pdfrwt>
<totfact> 0.12522230E+01</totfact>
</mgrwt>
</event>
<event>
12    1  0.1477245E-007  0.1140887E+04  0.7818608E-02  0.9166232E-01
         -2   -1    0    0    0  501 -0.00000000000E+00  0.00000000000E+00  0.35152077448E+03  0.35152077448E+03  0.00000000000E+00 0. -1.
          2   -1    0    0  501    0  0.00000000000E+00 -0.00000000000E+00 -0.92570869237E+03  0.92570869237E+03  0.00000000000E+00 0.  1.
         23    2    1    2    0    0 -0.12787887799E+03  0.13063432517E+03 -0.19081035657E+03  0.28244139053E+03  0.99730700186E+02 0.  0.
        254    2    1    2    0    0  0.12787887799E+03 -0.13063432517E+03 -0.38337756133E+03  0.99478807632E+03  0.89955912975E+03 0.  0.
        -24    2    4    4    0    0  0.26508182900E+03 -0.25736753890E+03  0.16308819470E+03  0.41180999093E+03  0.80518837743E+02 0.  0.
         24    2    4    4    0    0 -0.13720295101E+03  0.12673321373E+03 -0.54646575603E+03  0.58297808539E+03  0.79703627957E+02 0.  0.
         13    1    3    3    0    0 -0.99495834240E+02  0.14542346667E+03 -0.16329606361E+03  0.24023532229E+03  0.00000000000E+00 0.  1.
        -13    1    3    3    0    0 -0.28383043752E+02 -0.14789141491E+02 -0.27514292965E+02  0.42206068237E+02  0.00000000000E+00 0. -1.
          4    1    6    6  502    0 -0.92621696592E+01  0.44418589185E+02 -0.19117993795E+03  0.19649062961E+03  0.00000000000E+00 0. -1.
          3    1    5    5  503    0  0.27092251919E+03 -0.25038351807E+03  0.16076992802E+03  0.40241506841E+03  0.00000000000E+00 0. -1.
         -4    1    5    5    0  503 -0.58406901867E+01 -0.69840208266E+01  0.23182666792E+01  0.93949225201E+01  0.00000000000E+00 0.  1.
         -3    1    6    6    0  502 -0.12794078135E+03  0.82314624540E+02 -0.35528581808E+03  0.38648745578E+03  0.00000000000E+00 0.  1.
<mgrwt>
<rscale>  0 0.11408871E+04</rscale>
<asrwt>0</asrwt>
<pdfrwt beam="1">  1        2 0.14241672E+00 0.11408871E+04</pdfrwt>
<pdfrwt beam="2">  1       -2 0.54080121E-01 0.11408871E+04</pdfrwt>
<totfact> 0.89859686E+01</totfact>
</mgrwt>
</event>
<event>
12    1  0.1477245E-007  0.1200267E+04  0.7818608E-02  0.9112623E-01
         -2   -1    0    0    0  501 -0.00000000000E+00  0.00000000000E+00  0.18231411914E+04  0.18231411914E+04  0.00000000000E+00 0.  1.
          2   -1    0    0  501    0  0.00000000000E+00 -0.00000000000E+00 -0.19754935275E+03  0.19754935275E+03  0.00000000000E+00 0. -1.
         23    2    1    2    0    0 -0.25920538475E+02 -0.11474520619E+03  0.73581727779E+03  0.75049547432E+03  0.89319953151E+02 0.  0.
        254    2    1    2    0    0  0.25920538475E+02  0.11474520619E+03  0.88977456087E+03  0.12701950698E+04  0.89880944010E+03 0.  0.
        -24    2    4    4    0    0 -0.32561029488E+03 -0.13441838372E+03  0.70889168680E+03  0.79625872102E+03  0.86082292967E+02 0.  0.
         24    2    4    4    0    0  0.35153083336E+03  0.24916358991E+03  0.18088287406E+03  0.47393634882E+03  0.78997640888E+02 0.  0.
         13    1    3    3    0    0  0.98466868500E+01 -0.21582140933E+02  0.38584199043E+03  0.38657054677E+03  0.00000000000E+00 0. -1.
        -13    1    3    3    0    0 -0.35767225325E+02 -0.93163065257E+02  0.34997528736E+03  0.36392492755E+03  0.00000000000E+00 0.  1.
          2    1    6    6  502    0  0.29406385526E+02  0.32654750426E+02  0.44519157835E+02  0.62554165724E+02  0.00000000000E+00 0. -1.
          1    1    5    5  503    0 -0.15831966368E+03 -0.27308188753E+02  0.26412331244E+03  0.30914717734E+03  0.00000000000E+00 0. -1.
         -2    1    5    5    0  503 -0.16729063120E+03 -0.10711019496E+03  0.44476837436E+03  0.48711154368E+03  0.00000000000E+00 0.  1.
         -1    1    6    6    0  502  0.32212444783E+03  0.21650883948E+03  0.13636371623E+03  0.41138218309E+03  0.00000000000E+00 0.  1.
<mgrwt>
<rscale>  0 0.12002672E+04</rscale>
<asrwt>0</asrwt>
<pdfrwt beam="1">  1        2 0.30392209E-01 0.12002672E+04</pdfrwt>
<pdfrwt beam="2">  1       -2 0.28048325E+00 0.12002672E+04</pdfrwt>
<totfact> 0.72864207E+00</totfact>
</mgrwt>
</event>
<event>
12    1  0.1477245E-007  0.1052948E+04  0.7818608E-02  0.9252305E-01
          2   -1    0    0  501    0  0.00000000000E+00  0.00000000000E+00  0.28803753551E+03  0.28803753551E+03  0.00000000000E+00 0. -1.
         -2   -1    0    0    0  501 -0.00000000000E+00 -0.00000000000E+00 -0.96228771743E+03  0.96228771743E+03  0.00000000000E+00 0.  1.
         23    2    1    2    0    0 -0.77675052208E+01  0.10821169305E+03 -0.20508744149E+03  0.24995330369E+03  0.92982206463E+02 0.  0.
        254    2    1    2    0    0  0.77675052208E+01 -0.10821169305E+03 -0.46916274042E+03  0.10003719493E+04  0.87684676837E+03 0.  0.
        -24    2    4    4    0    0  0.18266399615E+03 -0.28844178928E+03 -0.60842723323E+03  0.70228495644E+03  0.80347125776E+02 0.  0.
         24    2    4    4    0    0 -0.17489649093E+03  0.18023009624E+03  0.13926449280E+03  0.29808699281E+03  0.79934887247E+02 0.  0.
         13    1    3    3    0    0 -0.29444687758E+02  0.62446046810E+02 -0.45900301077E+02  0.82905585085E+02  0.00000000000E+00 0. -1.
        -13    1    3    3    0    0  0.21677182537E+02  0.45765646239E+02 -0.15918714041E+03  0.16704771860E+03  0.00000000000E+00 0.  1.
          4    1    6    6  502    0 -0.17076119981E+03  0.17635265912E+03  0.11126119096E+03  0.26951567738E+03  0.00000000000E+00 0. -1.
          3    1    5    5  503    0  0.16838585940E+03 -0.28348862291E+03 -0.54413975071E+03  0.63624497268E+03  0.00000000000E+00 0. -1.
         -4    1    5    5    0  503  0.14278136745E+02 -0.49531663712E+01 -0.64287482520E+02  0.66039983758E+02  0.00000000000E+00 0.  1.
         -3    1    6    6    0  502 -0.41352911128E+01  0.38774371122E+01  0.28003301841E+02  0.28571315425E+02  0.00000000000E+00 0.  1.
<mgrwt>
<rscale>  0 0.10529482E+04</rscale>
<asrwt>0</asrwt>
<pdfrwt beam="1">  1        2 0.44313466E-01 0.10529482E+04</pdfrwt>
<pdfrwt beam="2">  1       -2 0.14804427E+00 0.10529482E+04</pdfrwt>
<totfact> 0.35446609E+01</totfact>
</mgrwt>
</event>
<event>
12    1  0.1477245E-007  0.1413840E+04  0.7818608E-02  0.8943861E-01
         -3   -1    0    0    0  501 -0.00000000000E+00  0.00000000000E+00  0.44175659437E+03  0.44175659437E+03  0.00000000000E+00 0.  1.
          3   -1    0    0  501    0  0.00000000000E+00 -0.00000000000E+00 -0.11312477232E+04  0.11312477232E+04  0.00000000000E+00 0. -1.
         23    2    1    2    0    0 -0.18869465576E+03 -0.21706789283E+03 -0.53116766510E+03  0.61104227871E+03  0.92246597319E+02 0.  0.
        254    2    1    2    0    0  0.18869465576E+03  0.21706789283E+03 -0.15832346375E+03  0.96196203887E+03  0.90420158253E+03 0.  0.
        -24    2    4    4    0    0 -0.23227788067E+03 -0.85060148747E+02 -0.32079878887E+03  0.41301113787E+03  0.80486609509E+02 0.  0.
         24    2    4    4    0    0  0.42097253643E+03  0.30212804158E+03  0.16247532512E+03  0.54895090101E+03  0.80309591642E+02 0.  0.
         13    1    3    3    0    0 -0.13080821232E+03 -0.17400474076E+03 -0.31302465703E+03  0.38127794865E+03  0.00000000000E+00 0. -1.
        -13    1    3    3    0    0 -0.57886443444E+02 -0.43063152072E+02 -0.21814300807E+03  0.22976433007E+03  0.00000000000E+00 0.  1.
          2    1    6    6  502    0  0.28035095532E+02  0.33525200762E+02  0.35583703630E+02  0.56356948388E+02  0.00000000000E+00 0. -1.
          1    1    5    5  503    0 -0.27573008477E+02  0.15915654550E+02 -0.41557171510E+02  0.52350523972E+02  0.00000000000E+00 0. -1.
         -2    1    5    5    0  503 -0.20470487219E+03 -0.10097580330E+03 -0.27924161735E+03  0.36066061389E+03  0.00000000000E+00 0.  1.
         -1    1    6    6    0  502  0.39293744090E+03  0.26860284081E+03  0.12689162149E+03  0.49259395262E+03  0.00000000000E+00 0.  1.
<mgrwt>
<rscale>  0 0.14138404E+04</rscale>
<asrwt>0</asrwt>
<pdfrwt beam="1">  1        3 0.17403811E+00 0.14138404E+04</pdfrwt>
<pdfrwt beam="2">  1       -3 0.67962553E-01 0.14138404E+04</pdfrwt>
<totfact> 0.11550160E+00</totfact>
</mgrwt>
</event>
<event>
12    1  0.1477245E-007  0.1262419E+04  0.7818608E-02  0.9059910E-01
          2   -1    0    0  501    0  0.00000000000E+00  0.00000000000E+00  0.16490748735E+04  0.16490748735E+04  0.00000000000E+00 0.  1.
         -2   -1    0    0    0  501 -0.00000000000E+00 -0.00000000000E+00 -0.24160543235E+03  0.24160543235E+03  0.00000000000E+00 0. -1.
         23    2    1    2    0    0  0.26068043190E+03  0.13685076631E+03  0.30463196392E+03  0.43360720494E+03  0.92369664518E+02 0.  0.
        254    2    1    2    0    0 -0.26068043190E+03 -0.13685076631E+03  0.11028374772E+04  0.14570731009E+04  0.90560979479E+03 0.  0.
        -24    2    4    4    0    0 -0.16864040562E+03 -0.78518277382E+02  0.12448811522E+04  0.12611999152E+04  0.79318576762E+02 0.  0.
         24    2    4    4    0    0 -0.92040026280E+02 -0.58332488929E+02 -0.14204367499E+03  0.19587318573E+03  0.79472344751E+02 0.  0.
         13    1    3    3    0    0  0.14102376001E+03  0.23152439686E+02  0.12796708215E+03  0.19183146370E+03  0.00000000000E+00 0. -1.
        -13    1    3    3    0    0  0.11965667189E+03  0.11369832662E+03  0.17666488177E+03  0.24177574125E+03  0.00000000000E+00 0.  1.
          4    1    6    6  502    0 -0.40646600266E+02 -0.54188644313E+02 -0.12391019942E+03  0.14121718311E+03  0.00000000000E+00 0. -1.
          3    1    5    5  503    0 -0.98193754913E+02 -0.70863219749E+02  0.96141064690E+03  0.96900672928E+03  0.00000000000E+00 0. -1.
         -4    1    5    5    0  503 -0.70446650707E+02 -0.76550576333E+01  0.28347050533E+03  0.29219318592E+03  0.00000000000E+00 0.  1.
         -3    1    6    6    0  502 -0.51393426014E+02 -0.41438446156E+01 -0.18133475569E+02  0.54656002615E+02  0.00000000000E+00 0.  1.
<mgrwt>
<rscale>  0 0.12624190E+04</rscale>
<asrwt>0</asrwt>
<pdfrwt beam="1">  1        2 0.25370382E+00 0.12624190E+04</pdfrwt>
<pdfrwt beam="2">  1       -2 0.37170068E-01 0.12624190E+04</pdfrwt>
<totfact> 0.70174196E+01</totfact>
</mgrwt>
</event>
<event>
12    1  0.1477245E-007  0.1654869E+04  0.7818608E-02  0.8787531E-01
         -2   -1    0    0    0  501 -0.00000000000E+00  0.00000000000E+00  0.85920612752E+03  0.85920612752E+03  0.00000000000E+00 0.  1.
          2   -1    0    0  501    0  0.00000000000E+00 -0.00000000000E+00 -0.79683797403E+03  0.79683797403E+03  0.00000000000E+00 0. -1.
         23    2    1    2    0    0  0.43916952429E+02  0.34686163466E+03 -0.44024395155E+03  0.56899352357E+03  0.87733691872E+02 0.  0.
        254    2    1    2    0    0 -0.43916952429E+02 -0.34686163466E+03  0.50261210504E+03  0.10870505780E+04  0.89823067118E+03 0.  0.
        -24    2    4    4    0    0 -0.24606206414E+03 -0.27116419404E+03 -0.14356266293E+03  0.40118564080E+03  0.79139880337E+02 0.  0.
         24    2    4    4    0    0  0.20214511171E+03 -0.75697440612E+02  0.64617476797E+03  0.68586493718E+03  0.79222046090E+02 0.  0.
         11    1    3    3    0    0  0.29759579721E+02  0.13433046794E+03 -0.24002211855E+03  0.27666030542E+03  0.00000000000E+00 0.  1.
        -11    1    3    3    0    0  0.14157372708E+02  0.21253116671E+03 -0.20022183299E+03  0.29233321815E+03  0.00000000000E+00 0. -1.
          4    1    6    6  502    0  0.83306469521E+02 -0.37202997253E+01  0.16273252899E+03  0.18285427117E+03  0.00000000000E+00 0. -1.
          1    1    5    5  503    0 -0.15542214309E+03 -0.20135063930E+03 -0.65419106932E+02  0.26263621620E+03  0.00000000000E+00 0. -1.
         -2    1    5    5    0  503 -0.90639921045E+02 -0.69813554745E+02 -0.78143555995E+02  0.13854942460E+03  0.00000000000E+00 0.  1.
         -3    1    6    6    0  502  0.11883864219E+03 -0.71977140886E+02  0.48344223897E+03  0.50301066600E+03  0.00000000000E+00 0.  1.
<mgrwt>
<rscale>  0 0.16548693E+04</rscale>
<asrwt>0</asrwt>
<pdfrwt beam="1">  1        2 0.12259046E+00 0.16548693E+04</pdfrwt>
<pdfrwt beam="2">  1       -2 0.13218556E+00 0.16548693E+04</pdfrwt>
<totfact> 0.13762489E+01</totfact>
</mgrwt>
</event>
<event>
12    1  0.1477245E-007  0.2089921E+04  0.7818608E-02  0.8565696E-01
          2   -1    0    0  501    0  0.00000000000E+00  0.00000000000E+00  0.12839632278E+04  0.12839632278E+04  0.00000000000E+00 0.  1.
         -2   -1    0    0    0  501 -0.00000000000E+00 -0.00000000000E+00 -0.85044684124E+03  0.85044684124E+03  0.00000000000E+00 0. -1.
         23    2    1    2    0    0 -0.78775570302E+03  0.31328056906E+03  0.16596771017E+03  0.86912104828E+03  0.95511010632E+02 0.  0.
        254    2    1    2    0    0  0.78775570302E+03 -0.31328056906E+03  0.26754867638E+03  0.12652890207E+04  0.90037228366E+03 0.  0.
        -24    2    4    4    0    0  0.20422002222E+03 -0.16022665070E+03 -0.31985100708E+03  0.41957386236E+03  0.79744355105E+02 0.  0.
         24    2    4    4    0    0  0.58353568080E+03 -0.15305391836E+03  0.58739968346E+03  0.84571515838E+03  0.79097081449E+02 0.  0.
         13    1    3    3    0    0 -0.22989163890E+03  0.67302515614E+02  0.84538977455E+02  0.25402093015E+03  0.00000000000E+00 0. -1.
        -13    1    3    3    0    0 -0.55786406413E+03  0.24597805345E+03  0.81428732714E+02  0.61510011814E+03  0.00000000000E+00 0.  1.
          4    1    6    6  502    0  0.22580734310E+03 -0.80993531483E+02  0.27884573700E+03  0.36783672110E+03  0.00000000000E+00 0. -1.
          3    1    5    5  503    0  0.28199842511E+02 -0.24811485735E+02 -0.10946666088E+02  0.39123783565E+02  0.00000000000E+00 0. -1.
         -4    1    5    5    0  503  0.17602017971E+03 -0.13541516497E+03 -0.30890434100E+03  0.38045007880E+03  0.00000000000E+00 0.  1.
         -3    1    6    6    0  502  0.35772833770E+03 -0.72060386878E+02  0.30855394646E+03  0.47787843729E+03  0.00000000000E+00 0.  1.
<mgrwt>
<rscale>  0 0.20899210E+04</rscale>
<asrwt>0</asrwt>
<pdfrwt beam="1">  1        2 0.19753280E+00 0.20899210E+04</pdfrwt>
<pdfrwt beam="2">  1       -2 0.13083798E+00 0.20899210E+04</pdfrwt>
<totfact> 0.66581107E+00</totfact>
</mgrwt>
</event>
<event>
12    1  0.1477245E-007  0.4590839E+04  0.7818608E-02  0.7894924E-01
          2   -1    0    0  501    0  0.00000000000E+00  0.00000000000E+00  0.23599700090E+04  0.23599700090E+04  0.00000000000E+00 0. -1.
         -2   -1    0    0    0  501 -0.00000000000E+00 -0.00000000000E+00 -0.22326347480E+04  0.22326347480E+04  0.00000000000E+00 0.  1.
         23    2    1    2    0    0  0.83217794819E+03  0.72140957706E+03  0.19755385870E+04  0.22637438158E+04  0.93975738018E+02 0.  0.
        254    2    1    2    0    0 -0.83217794819E+03 -0.72140957706E+03 -0.18482033260E+04  0.23288609412E+04  0.89150761852E+03 0.  0.
        -24    2    4    4    0    0  0.14516811822E+03 -0.83647901949E+02 -0.60623224863E+02  0.19255818386E+03  0.73025507394E+02 0.  0.
         24    2    4    4    0    0 -0.97734606641E+03 -0.63776167511E+03 -0.17875801011E+04  0.21363027573E+04  0.80009782216E+02 0.  0.
         13    1    3    3    0    0  0.17959259395E+03  0.20057481779E+03  0.43806846356E+03  0.51418647989E+03  0.00000000000E+00 0.  1.
        -13    1    3    3    0    0  0.65258535423E+03  0.52083475926E+03  0.15374701235E+04  0.17495573359E+04  0.00000000000E+00 0. -1.
          4    1    6    6  502    0 -0.10026322231E+02  0.16561671336E+01 -0.17412621712E+02  0.20161086825E+02  0.00000000000E+00 0. -1.
          3    1    5    5  503    0  0.99021281742E+01  0.68961982899E+01  0.94655185123E+01  0.15336418550E+02  0.00000000000E+00 0. -1.
         -4    1    5    5    0  503  0.13526599005E+03 -0.90544100239E+02 -0.70088743375E+02  0.17722176531E+03  0.00000000000E+00 0.  1.
         -3    1    6    6    0  502 -0.96731974418E+03 -0.63941784224E+03 -0.17701674794E+04  0.21161416705E+04  0.00000000000E+00 0.  1.
<mgrwt>
<rscale>  0 0.45908392E+04</rscale>
<asrwt>0</asrwt>
<pdfrwt beam="1">  1        2 0.36307231E+00 0.45908392E+04</pdfrwt>
<pdfrwt beam="2">  1       -2 0.34348227E+00 0.45908392E+04</pdfrwt>
<totfact> 0.53901138E-02</totfact>
</mgrwt>
</event>
<event>
12    1  0.1477245E-007  0.1451991E+04  0.7818608E-02  0.8917021E-01
         -2   -1    0    0    0  501 -0.00000000000E+00  0.00000000000E+00  0.13045815395E+04  0.13045815395E+04  0.00000000000E+00 0.  1.
          2   -1    0    0  501    0  0.00000000000E+00 -0.00000000000E+00 -0.40401410886E+03  0.40401410886E+03  0.00000000000E+00 0. -1.
         23    2    1    2    0    0  0.19918395311E+03  0.15747101537E+03  0.67710799373E+03  0.72886178720E+03  0.91065371069E+02 0.  0.
        254    2    1    2    0    0 -0.19918395311E+03 -0.15747101537E+03  0.22345943695E+03  0.97973386121E+03  0.91949603097E+03 0.  0.
        -24    2    4    4    0    0  0.93995251014E+02 -0.30729207708E+03  0.45947696406E+03  0.56635293759E+03  0.79831332011E+02 0.  0.
         24    2    4    4    0    0 -0.29317920412E+03  0.14982106171E+03 -0.23601752711E+03  0.41338092361E+03  0.82335403346E+02 0.  0.
         13    1    3    3    0    0  0.81476798806E+01  0.26812894453E+02  0.15842302194E+03  0.16088247224E+03  0.00000000000E+00 0. -1.
        -13    1    3    3    0    0  0.19103627323E+03  0.13065812091E+03  0.51868497180E+03  0.56797931495E+03  0.00000000000E+00 0.  1.
          4    1    6    6  502    0 -0.18626925157E+03  0.11655345502E+03 -0.11315727000E+03  0.24715482943E+03  0.00000000000E+00 0. -1.
          1    1    5    5  503    0  0.79959086982E+02 -0.28958178174E+03  0.38392073036E+03  0.48748968308E+03  0.00000000000E+00 0. -1.
         -2    1    5    5    0  503  0.14036164032E+02 -0.17710295332E+02  0.75556233695E+02  0.78863254509E+02  0.00000000000E+00 0.  1.
         -3    1    6    6    0  502 -0.10690995255E+03  0.33267606684E+02 -0.12286025711E+03  0.16622609418E+03  0.00000000000E+00 0.  1.
<mgrwt>
<rscale>  0 0.14519908E+04</rscale>
<asrwt>0</asrwt>
<pdfrwt beam="1">  1        2 0.62156017E-01 0.14519908E+04</pdfrwt>
<pdfrwt beam="2">  1       -2 0.20070485E+00 0.14519908E+04</pdfrwt>
<totfact> 0.10022374E+01</totfact>
</mgrwt>
</event>
<event>
12    1  0.1477245E-007  0.3163950E+04  0.7818608E-02  0.8198403E-01
          1   -1    0    0  501    0  0.00000000000E+00  0.00000000000E+00  0.23429042123E+04  0.23429042123E+04  0.00000000000E+00 0. -1.
         -1   -1    0    0    0  501 -0.00000000000E+00 -0.00000000000E+00 -0.10681809050E+04  0.10681809050E+04  0.00000000000E+00 0.  1.
         23    2    1    2    0    0  0.58905239351E+03 -0.52262736695E+03  0.19008993626E+04  0.20595140048E+04  0.89763366113E+02 0.  0.
        254    2    1    2    0    0 -0.58905239351E+03  0.52262736695E+03 -0.62617605534E+03  0.13515711125E+04  0.90251090457E+03 0.  0.
        -24    2    4    4    0    0 -0.70598514114E+03  0.12235654092E+03 -0.19855055642E+03  0.74770971724E+03  0.79128725464E+02 0.  0.
         24    2    4    4    0    0  0.11693274763E+03  0.40027082604E+03 -0.42762549892E+03  0.60386139525E+03  0.88853900914E+02 0.  0.
         11    1    3    3    0    0  0.40566835547E+03 -0.38658382241E+03  0.14389857005E+04  0.15442453538E+04  0.00000000000E+00 0. -1.
        -11    1    3    3    0    0  0.18338403804E+03 -0.13604354455E+03  0.46191366215E+03  0.51526865099E+03  0.00000000000E+00 0.  1.
          4    1    6    6  502    0  0.53037663204E+02  0.11822931565E+03 -0.18780217281E+03  0.22816840472E+03  0.00000000000E+00 0. -1.
          3    1    5    5  503    0 -0.46123289357E+03  0.10784109425E+03 -0.10418650392E+03  0.48499516629E+03  0.00000000000E+00 0. -1.
         -4    1    5    5    0  503 -0.24475224756E+03  0.14515446670E+02 -0.94364052507E+02  0.26271455096E+03  0.00000000000E+00 0.  1.
         -3    1    6    6    0  502  0.63895084423E+02  0.28204151039E+03 -0.23982332611E+03  0.37569299054E+03  0.00000000000E+00 0.  1.
<mgrwt>
<rscale>  0 0.31639504E+04</rscale>
<asrwt>0</asrwt>
<pdfrwt beam="1">  1        1 0.36044680E+00 0.31639504E+04</pdfrwt>
<pdfrwt beam="2">  1       -1 0.16433552E+00 0.31639504E+04</pdfrwt>
<totfact> 0.39556149E-01</totfact>
</mgrwt>
</event>
<event>
12    1  0.1477245E-007  0.2061365E+04  0.7818608E-02  0.8578456E-01
         -2   -1    0    0    0  501 -0.00000000000E+00  0.00000000000E+00  0.18194399066E+04  0.18194399066E+04  0.00000000000E+00 0. -1.
          2   -1    0    0  501    0  0.00000000000E+00 -0.00000000000E+00 -0.58386452675E+03  0.58386452675E+03  0.00000000000E+00 0.  1.
         23    2    1    2    0    0 -0.43375680328E+03  0.18520609057E+03  0.13088210505E+04  0.13948057840E+04  0.10012178858E+03 0.  0.
        254    2    1    2    0    0  0.43375680328E+03 -0.18520609057E+03 -0.73245670643E+02  0.10084986493E+04  0.88840212577E+03 0.  0.
        -24    2    4    4    0    0 -0.21310400260E+03  0.79418312471E+02  0.13290350266E+03  0.27541909851E+03  0.80447215789E+02 0.  0.
         24    2    4    4    0    0  0.64686080587E+03 -0.26462440304E+03 -0.20614917330E+03  0.73307955082E+03  0.80331620934E+02 0.  0.
         11    1    3    3    0    0 -0.41244456075E+03  0.14627565308E+03  0.11981792071E+04  0.12755941732E+04  0.00000000000E+00 0. -1.
        -11    1    3    3    0    0 -0.21312242525E+02  0.38930437489E+02  0.11064184338E+03  0.11921161081E+03  0.00000000000E+00 0.  1.
          2    1    6    6  502    0  0.32538705839E+03 -0.11144588500E+03 -0.65044078044E+02  0.35003950511E+03  0.00000000000E+00 0. -1.
          3    1    5    5  503    0 -0.28397724721E+02 -0.16740504532E+02  0.16721858350E+02  0.36963438801E+02  0.00000000000E+00 0. -1.
         -4    1    5    5    0  503 -0.18470627788E+03  0.96158817004E+02  0.11618164431E+03  0.23845565971E+03  0.00000000000E+00 0.  1.
         -1    1    6    6    0  502  0.32147374749E+03 -0.15317851804E+03 -0.14110509525E+03  0.38304004571E+03  0.00000000000E+00 0.  1.
<mgrwt>
<rscale>  0 0.20613650E+04</rscale>
<asrwt>0</asrwt>
<pdfrwt beam="1">  1        2 0.89825313E-01 0.20613650E+04</pdfrwt>
<pdfrwt beam="2">  1       -2 0.27991383E+00 0.20613650E+04</pdfrwt>
<totfact> 0.19986505E+00</totfact>
</mgrwt>
</event>
<event>
12    1  0.1477245E-007  0.1474384E+04  0.7818608E-02  0.8901668E-01
          2   -1    0    0  501    0  0.00000000000E+00  0.00000000000E+00  0.18370037850E+04  0.18370037850E+04  0.00000000000E+00 0.  1.
         -2   -1    0    0    0  501 -0.00000000000E+00 -0.00000000000E+00 -0.29583629208E+03  0.29583629208E+03  0.00000000000E+00 0. -1.
         23    2    1    2    0    0 -0.90360198495E+02  0.29343863103E+03  0.95681290572E+03  0.10088950164E+04  0.90039002273E+02 0.  0.
        254    2    1    2    0    0  0.90360198495E+02 -0.29343863103E+03  0.58435458717E+03  0.11239450606E+04  0.90967632714E+03 0.  0.
        -24    2    4    4    0    0 -0.21514814839E+03  0.22534783583E+03  0.71890817336E+02  0.32928327547E+03  0.78669009246E+02 0.  0.
         24    2    4    4    0    0  0.30550834689E+03 -0.51878646686E+03  0.51246376983E+03  0.79466178518E+03  0.79959297246E+02 0.  0.
         13    1    3    3    0    0 -0.53850221496E+02  0.23709675727E+03  0.63067134668E+03  0.67591498443E+03  0.00000000000E+00 0. -1.
        -13    1    3    3    0    0 -0.36509976999E+02  0.56341873760E+02  0.32614155904E+03  0.33298003197E+03  0.00000000000E+00 0.  1.
          2    1    6    6  502    0  0.53829500766E+01 -0.40915621213E+02  0.51648931595E+02  0.66111090943E+02  0.00000000000E+00 0. -1.
          3    1    5    5  503    0 -0.13137399283E+03  0.16993438961E+03  0.18651547735E+02  0.21560311453E+03  0.00000000000E+00 0. -1.
         -4    1    5    5    0  503 -0.83774155564E+02  0.55413446223E+02  0.53239269601E+02  0.11368016094E+03  0.00000000000E+00 0.  1.
         -1    1    6    6    0  502  0.30012539681E+03 -0.47787084565E+03  0.46081483824E+03  0.72855069424E+03  0.00000000000E+00 0.  1.
<mgrwt>
<rscale>  0 0.14743845E+04</rscale>
<asrwt>0</asrwt>
<pdfrwt beam="1">  1        2 0.28261596E+00 0.14743845E+04</pdfrwt>
<pdfrwt beam="2">  1       -2 0.45513277E-01 0.14743845E+04</pdfrwt>
<totfact> 0.36474252E+01</totfact>
</mgrwt>
</event>
<event>
12    1  0.1477245E-007  0.2540490E+04  0.7818608E-02  0.8388701E-01
          2   -1    0    0  501    0  0.00000000000E+00  0.00000000000E+00  0.29714864907E+04  0.29714864907E+04  0.00000000000E+00 0. -1.
         -2   -1    0    0    0  501 -0.00000000000E+00 -0.00000000000E+00 -0.54300191848E+03  0.54300191848E+03  0.00000000000E+00 0.  1.
         23    2    1    2    0    0 -0.60247835680E+03 -0.16442981853E+03 -0.20225915348E+03  0.66337108344E+03  0.95577683277E+02 0.  0.
        254    2    1    2    0    0  0.60247835680E+03  0.16442981853E+03  0.26307437257E+04  0.28511173257E+04  0.90445570329E+03 0.  0.
        -24    2    4    4    0    0 -0.63752189037E+01 -0.30310397360E+03  0.56654961594E+03  0.64736343653E+03  0.78665681278E+02 0.  0.
         24    2    4    4    0    0  0.60885357570E+03  0.46753379213E+03  0.20641941098E+04  0.22037538892E+04  0.79645200751E+02 0.  0.
         13    1    3    3    0    0 -0.59787856260E+02 -0.16815692800E+02 -0.52606093599E+02  0.81392606324E+02  0.00000000000E+00 0. -1.
        -13    1    3    3    0    0 -0.54269050054E+03 -0.14761412573E+03 -0.14965305988E+03  0.58197847711E+03  0.00000000000E+00 0.  1.
          4    1    6    6  502    0  0.36188862592E+03  0.28010680019E+03  0.11169250516E+04  0.12070396712E+04  0.00000000000E+00 0. -1.
          3    1    5    5  503    0 -0.72674532121E+01 -0.11103166668E+03  0.29037140323E+03  0.31096044555E+03  0.00000000000E+00 0. -1.
         -4    1    5    5    0  503  0.89223430838E+00 -0.19207230692E+03  0.27617821270E+03  0.33640299098E+03  0.00000000000E+00 0.  1.
         -3    1    6    6    0  502  0.24696494978E+03  0.18742699194E+03  0.94726905818E+03  0.99671421798E+03  0.00000000000E+00 0.  1.
<mgrwt>
<rscale>  0 0.25404904E+04</rscale>
<asrwt>0</asrwt>
<pdfrwt beam="1">  1        2 0.45715176E+00 0.25404904E+04</pdfrwt>
<pdfrwt beam="2">  1       -2 0.83538758E-01 0.25404904E+04</pdfrwt>
<totfact> 0.20213236E+00</totfact>
</mgrwt>
</event>
<event>
12    1  0.1477245E-007  0.3862223E+04  0.7818608E-02  0.8032932E-01
         -2   -1    0    0    0  501 -0.00000000000E+00  0.00000000000E+00  0.22509063811E+04  0.22509063811E+04  0.00000000000E+00 0.  1.
          2   -1    0    0  501    0  0.00000000000E+00 -0.00000000000E+00 -0.16567508026E+04  0.16567508026E+04  0.00000000000E+00 0. -1.
         23    2    1    2    0    0  0.30787560730E+03 -0.19108785683E+03 -0.15281720096E+04  0.15731280818E+04  0.90112774653E+02 0.  0.
        254    2    1    2    0    0 -0.30787560730E+03  0.19108785683E+03  0.21223275881E+04  0.23345291018E+04  0.90246871266E+03 0.  0.
        -24    2    4    4    0    0 -0.55997661175E+03  0.44695265419E+02  0.18222082001E+04  0.19085298696E+04  0.80449153093E+02 0.  0.
         24    2    4    4    0    0  0.25210100445E+03  0.14639259142E+03  0.30011938801E+03  0.42599923220E+03  0.80112367991E+02 0.  0.
         13    1    3    3    0    0  0.21375122877E+03 -0.17524094014E+03 -0.11952796730E+04  0.12268221027E+04  0.00000000000E+00 0. -1.
        -13    1    3    3    0    0  0.94124378532E+02 -0.15846916690E+02 -0.33289233665E+03  0.34630597916E+03  0.00000000000E+00 0.  1.
          4    1    6    6  502    0  0.62994750737E+02  0.64390334070E+02  0.54225763313E+02  0.10514222344E+03  0.00000000000E+00 0. -1.
          1    1    5    5  503    0 -0.41096556714E+03  0.52783431436E+01  0.13991972727E+04  0.14583118892E+04  0.00000000000E+00 0. -1.
         -2    1    5    5    0  503 -0.14901104462E+03  0.39416922276E+02  0.42301092741E+03  0.45021798041E+03  0.00000000000E+00 0.  1.
         -3    1    6    6    0  502  0.18910625371E+03  0.82002257345E+02  0.24589362470E+03  0.32085700876E+03  0.00000000000E+00 0.  1.
<mgrwt>
<rscale>  0 0.38622227E+04</rscale>
<asrwt>0</asrwt>
<pdfrwt beam="1">  1        2 0.25488474E+00 0.38622227E+04</pdfrwt>
<pdfrwt beam="2">  1       -2 0.34629329E+00 0.38622227E+04</pdfrwt>
<totfact> 0.13572986E-01</totfact>
</mgrwt>
</event>
<event>
12    1  0.1477245E-007  0.2215807E+04  0.7818608E-02  0.8511878E-01
          2   -1    0    0  501    0  0.00000000000E+00  0.00000000000E+00  0.11124489126E+04  0.11124489126E+04  0.00000000000E+00 0.  1.
         -2   -1    0    0    0  501 -0.00000000000E+00 -0.00000000000E+00 -0.11033762405E+04  0.11033762405E+04  0.00000000000E+00 0. -1.
         23    2    1    2    0    0 -0.44285213147E+03 -0.66177413846E+03  0.47681557883E+03  0.93386683043E+03  0.10339796940E+03 0.  0.
        254    2    1    2    0    0  0.44285213147E+03  0.66177413846E+03 -0.46774290671E+03  0.12819583227E+04  0.88914042410E+03 0.  0.
        -24    2    4    4    0    0  0.62181116142E+03  0.18521220900E+03 -0.13233870258E+03  0.66748929115E+03  0.84117410639E+02 0.  0.
         24    2    4    4    0    0 -0.17895902995E+03  0.47656192946E+03 -0.33540420413E+03  0.61446903158E+03  0.77062335886E+02 0.  0.
         13    1    3    3    0    0 -0.33809960392E+03 -0.49821815749E+03  0.30691952021E+03  0.67581969971E+03  0.00000000000E+00 0.  1.
        -13    1    3    3    0    0 -0.10475252755E+03 -0.16355598096E+03  0.16989605862E+03  0.25804713072E+03  0.00000000000E+00 0. -1.
          4    1    6    6  502    0 -0.16760558546E+03  0.44820628793E+03 -0.28932700910E+03  0.55918747036E+03  0.00000000000E+00 0. -1.
          3    1    5    5  503    0  0.31549802734E+03  0.52383156452E+02 -0.51088619535E+02  0.32387196140E+03  0.00000000000E+00 0. -1.
         -4    1    5    5    0  503  0.30631313408E+03  0.13282905255E+03 -0.81250083044E+02  0.34361732976E+03  0.00000000000E+00 0.  1.
         -3    1    6    6    0  502 -0.11353444492E+02  0.28355641524E+02 -0.46077195035E+02  0.55281561215E+02  0.00000000000E+00 0.  1.
<mgrwt>
<rscale>  0 0.22158066E+04</rscale>
<asrwt>0</asrwt>
<pdfrwt beam="1">  1        2 0.17114599E+00 0.22158066E+04</pdfrwt>
<pdfrwt beam="2">  1       -2 0.16975019E+00 0.22158066E+04</pdfrwt>
<totfact> 0.41813492E+00</totfact>
</mgrwt>
</event>
<event>
12    1  0.1477245E-007  0.1592569E+04  0.7818608E-02  0.8825126E-01
         -1   -1    0    0    0  501 -0.00000000000E+00  0.00000000000E+00  0.43246959261E+03  0.43246959261E+03  0.00000000000E+00 0.  1.
          1   -1    0    0  501    0  0.00000000000E+00 -0.00000000000E+00 -0.14661592525E+04  0.14661592525E+04  0.00000000000E+00 0. -1.
         23    2    1    2    0    0  0.28052132442E+03 -0.45387874558E+03 -0.22859390422E+03  0.58739816793E+03  0.89907204937E+02 0.  0.
        254    2    1    2    0    0 -0.28052132442E+03  0.45387874558E+03 -0.80509575564E+03  0.13112306772E+04  0.88681936370E+03 0.  0.
        -24    2    4    4    0    0 -0.36519071096E+02 -0.21513948414E+03 -0.46051786954E+03  0.51564293990E+03  0.78691124740E+02 0.  0.
         24    2    4    4    0    0 -0.24400225333E+03  0.66901822972E+03 -0.34457788610E+03  0.79558773726E+03  0.84281888668E+02 0.  0.
         11    1    3    3    0    0  0.25027340944E+03 -0.41526874524E+03 -0.23341394845E+03  0.53811428301E+03  0.00000000000E+00 0. -1.
        -11    1    3    3    0    0  0.30247914986E+02 -0.38610000335E+02  0.48200442273E+01  0.49283884924E+02  0.00000000000E+00 0.  1.
          4    1    6    6  502    0 -0.81520233707E+02  0.13555543961E+03 -0.96032515761E+02  0.18504883084E+03  0.00000000000E+00 0. -1.
          1    1    5    5  503    0  0.13167724051E+02 -0.95551452329E+02 -0.14055847454E+03  0.17047038970E+03  0.00000000000E+00 0. -1.
         -2    1    5    5    0  503 -0.49686795148E+02 -0.11958803182E+03 -0.31995939499E+03  0.34517255020E+03  0.00000000000E+00 0.  1.
         -3    1    6    6    0  502 -0.16248201962E+03  0.53346279012E+03 -0.24854537034E+03  0.61053890642E+03  0.00000000000E+00 0.  1.
<mgrwt>
<rscale>  0 0.15925694E+04</rscale>
<asrwt>0</asrwt>
<pdfrwt beam="1">  1        1 0.22556296E+00 0.15925694E+04</pdfrwt>
<pdfrwt beam="2">  1       -1 0.66533783E-01 0.15925694E+04</pdfrwt>
<totfact> 0.15176104E+01</totfact>
</mgrwt>
</event>
<event>
12    1  0.1477245E-007  0.1261025E+04  0.7818608E-02  0.9061057E-01
          2   -1    0    0  501    0  0.00000000000E+00  0.00000000000E+00  0.99760763832E+03  0.99760763832E+03  0.00000000000E+00 0. -1.
         -2   -1    0    0    0  501 -0.00000000000E+00 -0.00000000000E+00 -0.39849930826E+03  0.39849930826E+03  0.00000000000E+00 0.  1.
         23    2    1    2    0    0 -0.86505752250E+02 -0.12387464395E+03  0.43713595781E+03  0.47115592088E+03  0.89843661911E+02 0.  0.
        254    2    1    2    0    0  0.86505752250E+02  0.12387464395E+03  0.16197237225E+03  0.92495102570E+03  0.89803740345E+03 0.  0.
        -24    2    4    4    0    0 -0.16361122729E+03 -0.13717436746E+02  0.46569494775E+03  0.50027194701E+03  0.80271008713E+02 0.  0.
         24    2    4    4    0    0  0.25011697954E+03  0.13759208070E+03 -0.30372257551E+03  0.42467907869E+03  0.81331622877E+02 0.  0.
         11    1    3    3    0    0 -0.94101297367E+02 -0.11774827648E+03  0.43601467025E+03  0.46133339729E+03  0.00000000000E+00 0. -1.
        -11    1    3    3    0    0  0.75955451163E+01 -0.61263674711E+01  0.11212875622E+01  0.98225235965E+01  0.00000000000E+00 0.  1.
          4    1    6    6  502    0  0.57470753587E+02  0.47268542821E+02 -0.35879931150E+02  0.82610968506E+02  0.00000000000E+00 0. -1.
          1    1    5    5  503    0 -0.89923845068E+02  0.29864716852E+02  0.20404772216E+03  0.22497482558E+03  0.00000000000E+00 0. -1.
         -2    1    5    5    0  503 -0.73687382218E+02 -0.43582153597E+02  0.26164722559E+03  0.27529712144E+03  0.00000000000E+00 0.  1.
         -3    1    6    6    0  502  0.19264622595E+03  0.90323537879E+02 -0.26784264436E+03  0.34206811018E+03  0.00000000000E+00 0.  1.
<mgrwt>
<rscale>  0 0.12610249E+04</rscale>
<asrwt>0</asrwt>
<pdfrwt beam="1">  1        2 0.15347810E+00 0.12610249E+04</pdfrwt>
<pdfrwt beam="2">  1       -2 0.61307586E-01 0.12610249E+04</pdfrwt>
<totfact> 0.61472658E+01</totfact>
</mgrwt>
</event>
<event>
12    1  0.1477245E-007  0.1623919E+04  0.7818608E-02  0.8805987E-01
          1   -1    0    0  501    0  0.00000000000E+00  0.00000000000E+00  0.11408965775E+04  0.11408965775E+04  0.00000000000E+00 0. -1.
         -1   -1    0    0    0  501 -0.00000000000E+00 -0.00000000000E+00 -0.57785956797E+03  0.57785956797E+03  0.00000000000E+00 0.  1.
         23    2    1    2    0    0  0.15804979115E+03 -0.11186885173E+03  0.75838501188E+03  0.78789731663E+03  0.90221831276E+02 0.  0.
        254    2    1    2    0    0 -0.15804979115E+03  0.11186885173E+03 -0.19534800229E+03  0.93085882889E+03  0.88929350658E+03 0.  0.
        -24    2    4    4    0    0 -0.27374566518E+03 -0.32360232798E+03  0.40911305313E+01  0.43160234414E+03  0.81293851175E+02 0.  0.
         24    2    4    4    0    0  0.11569587403E+03  0.43547117971E+03 -0.19943913282E+03  0.49925648475E+03  0.80376527894E+02 0.  0.
         11    1    3    3    0    0  0.56766480165E+02 -0.61867554333E+02  0.18045564356E+03  0.19903333098E+03  0.00000000000E+00 0.  1.
        -11    1    3    3    0    0  0.10128331098E+03 -0.50001297397E+02  0.57792936832E+03  0.58886398564E+03  0.00000000000E+00 0. -1.
          4    1    6    6  502    0  0.10383017454E+03  0.24935153222E+03 -0.13480631319E+03  0.30187685211E+03  0.00000000000E+00 0. -1.
          3    1    5    5  503    0 -0.10270450643E+03 -0.87096548181E+02  0.31954556824E+02  0.13840201605E+03  0.00000000000E+00 0. -1.
         -4    1    5    5    0  503 -0.17104115875E+03 -0.23650577980E+03 -0.27863426292E+02  0.29320032809E+03  0.00000000000E+00 0.  1.
         -3    1    6    6    0  502  0.11865699497E+02  0.18611964749E+03 -0.64632819634E+02  0.19737963264E+03  0.00000000000E+00 0.  1.
<mgrwt>
<rscale>  0 0.16239187E+04</rscale>
<asrwt>0</asrwt>
<pdfrwt beam="1">  1        1 0.17552255E+00 0.16239187E+04</pdfrwt>
<pdfrwt beam="2">  1       -1 0.88901472E-01 0.16239187E+04</pdfrwt>
<totfact> 0.14044788E+01</totfact>
</mgrwt>
</event>
<event>
12    1  0.1477245E-007  0.2769667E+04  0.7818608E-02  0.8312748E-01
          1   -1    0    0  501    0  0.00000000000E+00  0.00000000000E+00  0.10796212162E+04  0.10796212162E+04  0.00000000000E+00 0. -1.
         -1   -1    0    0    0  501 -0.00000000000E+00 -0.00000000000E+00 -0.17763307440E+04  0.17763307440E+04  0.00000000000E+00 0.  1.
         23    2    1    2    0    0  0.12276896338E+04 -0.11309536829E+03 -0.42744295425E+03  0.13077194066E+04  0.86082332684E+02 0.  0.
        254    2    1    2    0    0 -0.12276896338E+04  0.11309536829E+03 -0.26926657353E+03  0.15482325536E+04  0.89694322738E+03 0.  0.
        -24    2    4    4    0    0 -0.19891422380E+02 -0.15307660400E+03 -0.25519091941E+03  0.30885026706E+03  0.80236941242E+02 0.  0.
         24    2    4    4    0    0 -0.12077982114E+04  0.26617197229E+03 -0.14075654121E+02  0.12393822865E+04  0.79033472610E+02 0.  0.
         11    1    3    3    0    0  0.16630474443E+03 -0.14956547976E+02 -0.89898142173E+02  0.18963818791E+03  0.00000000000E+00 0.  1.
        -11    1    3    3    0    0  0.10613848894E+04 -0.98138820318E+02 -0.33754481207E+03  0.11180812187E+04  0.00000000000E+00 0. -1.
          2    1    6    6  502    0 -0.31824500410E+03  0.56415913670E+02  0.28361056850E+02  0.32444874401E+03  0.00000000000E+00 0. -1.
          1    1    5    5  503    0  0.50751534080E+01 -0.12273983354E+03 -0.13559825243E+03  0.18296915035E+03  0.00000000000E+00 0. -1.
         -2    1    5    5    0  503 -0.24966575788E+02 -0.30336770460E+02 -0.11959266699E+03  0.12588111671E+03  0.00000000000E+00 0.  1.
         -1    1    6    6    0  502 -0.88955320734E+03  0.20975605862E+03 -0.42436710971E+02  0.91493354253E+03  0.00000000000E+00 0.  1.
<mgrwt>
<rscale>  0 0.27696674E+04</rscale>
<asrwt>0</asrwt>
<pdfrwt beam="1">  1        1 0.16609558E+00 0.27696674E+04</pdfrwt>
<pdfrwt beam="2">  1       -1 0.27328165E+00 0.27696674E+04</pdfrwt>
<totfact> 0.56095062E-01</totfact>
</mgrwt>
</event>
<event>
12    1  0.1477245E-007  0.3123179E+04  0.7818608E-02  0.8209405E-01
          2   -1    0    0  501    0  0.00000000000E+00  0.00000000000E+00  0.11935469812E+04  0.11935469812E+04  0.00000000000E+00 0. -1.
         -2   -1    0    0    0  501 -0.00000000000E+00 -0.00000000000E+00 -0.20431214362E+04  0.20431214362E+04  0.00000000000E+00 0.  1.
         23    2    1    2    0    0 -0.32844125749E+03 -0.58299812009E+03 -0.16924462358E+04  0.18225912173E+04  0.98508966681E+02 0.  0.
        254    2    1    2    0    0  0.32844125749E+03  0.58299812009E+03  0.84287178084E+03  0.14140772001E+04  0.91729004207E+03 0.  0.
        -24    2    4    4    0    0  0.86889396830E+02  0.44406992701E+03 -0.61956701862E+02  0.46376233513E+03  0.80554349490E+02 0.  0.
         24    2    4    4    0    0  0.24155186066E+03  0.13892819308E+03  0.90482848270E+03  0.95031486498E+03  0.82069575793E+02 0.  0.
         11    1    3    3    0    0 -0.15302538209E+03 -0.24887977835E+03 -0.61251133846E+03  0.67862217130E+03  0.00000000000E+00 0. -1.
        -11    1    3    3    0    0 -0.17541587540E+03 -0.33411834174E+03 -0.10799348973E+04  0.11439690460E+04  0.00000000000E+00 0.  1.
          2    1    6    6  502    0 -0.49355435846E+01  0.72186929642E+01  0.55595353492E+02  0.56278881017E+02  0.00000000000E+00 0. -1.
          3    1    5    5  503    0  0.98689753463E+02  0.36827317778E+03 -0.66037197195E+02  0.38694406873E+03  0.00000000000E+00 0. -1.
         -4    1    5    5    0  503 -0.11800356633E+02  0.75796749230E+02  0.40804953329E+01  0.76818266400E+02  0.00000000000E+00 0.  1.
         -1    1    6    6    0  502  0.24648740425E+03  0.13170950011E+03  0.84923312921E+03  0.89403598396E+03  0.00000000000E+00 0.  1.
<mgrwt>
<rscale>  0 0.31231788E+04</rscale>
<asrwt>0</asrwt>
<pdfrwt beam="1">  1        2 0.18362262E+00 0.31231788E+04</pdfrwt>
<pdfrwt beam="2">  1       -2 0.31432637E+00 0.31231788E+04</pdfrwt>
<totfact> 0.42023473E-01</totfact>
</mgrwt>
</event>
<event>
12    1  0.1477245E-007  0.1553035E+04  0.7818608E-02  0.8849932E-01
         -1   -1    0    0    0  501 -0.00000000000E+00  0.00000000000E+00  0.38326536741E+03  0.38326536741E+03  0.00000000000E+00 0.  1.
          1   -1    0    0  501    0  0.00000000000E+00 -0.00000000000E+00 -0.15732678344E+04  0.15732678344E+04  0.00000000000E+00 0. -1.
         23    2    1    2    0    0 -0.45445697432E+03  0.23785185870E+03 -0.43385030798E+03  0.67799800922E+03  0.91381412602E+02 0.  0.
        254    2    1    2    0    0  0.45445697432E+03 -0.23785185870E+03 -0.75615215901E+03  0.12785351926E+04  0.89430503907E+03 0.  0.
        -24    2    4    4    0    0  0.61998619987E+03 -0.56473063482E+02 -0.79860741738E+03  0.10159901905E+04  0.83007019095E+02 0.  0.
         24    2    4    4    0    0 -0.16552922554E+03 -0.18137879521E+03  0.42455258373E+02  0.26254500206E+03  0.82639199427E+02 0.  0.
         13    1    3    3    0    0 -0.41762609189E+03  0.19602928383E+03 -0.35840883992E+03  0.58420538279E+03  0.00000000000E+00 0.  1.
        -13    1    3    3    0    0 -0.36830882434E+02  0.41822574862E+02 -0.75441468056E+02  0.93792626423E+02  0.00000000000E+00 0. -1.
          2    1    6    6  502    0 -0.11744730101E+03 -0.14373252026E+03  0.66139408073E+02  0.19704651023E+03  0.00000000000E+00 0. -1.
          1    1    5    5  503    0  0.35285878262E+03  0.64568458475E+01 -0.47300924928E+03  0.59015994546E+03  0.00000000000E+00 0. -1.
         -4    1    5    5    0  503  0.26712741725E+03 -0.62929909329E+02 -0.32559816811E+03  0.42583024506E+03  0.00000000000E+00 0.  1.
         -1    1    6    6    0  502 -0.48081924534E+02 -0.37646274950E+02 -0.23684149700E+02  0.65498491826E+02  0.00000000000E+00 0.  1.
<mgrwt>
<rscale>  0 0.15530345E+04</rscale>
<asrwt>0</asrwt>
<pdfrwt beam="1">  1        1 0.24204120E+00 0.15530345E+04</pdfrwt>
<pdfrwt beam="2">  1       -1 0.58963904E-01 0.15530345E+04</pdfrwt>
<totfact> 0.16346486E+01</totfact>
</mgrwt>
</event>
<event>
12    1  0.1477245E-007  0.3359488E+04  0.7818608E-02  0.8147922E-01
          2   -1    0    0  501    0  0.00000000000E+00  0.00000000000E+00  0.23067392160E+04  0.23067392160E+04  0.00000000000E+00 0. -1.
         -2   -1    0    0    0  501 -0.00000000000E+00 -0.00000000000E+00 -0.12231722822E+04  0.12231722822E+04  0.00000000000E+00 0.  1.
         23    2    1    2    0    0  0.38421450185E+03  0.12420149529E+04 -0.40072247333E+03  0.13634099880E+04  0.89924236132E+02 0.  0.
        254    2    1    2    0    0 -0.38421450185E+03 -0.12420149529E+04  0.14842894071E+04  0.21665015102E+04  0.89464619983E+03 0.  0.
        -24    2    4    4    0    0  0.28441473076E+03 -0.46749596784E+03  0.53155493082E+03  0.76629652797E+03  0.72218455262E+02 0.  0.
         24    2    4    4    0    0 -0.66862923261E+03 -0.77451898503E+03  0.95273447628E+03  0.14002049822E+04  0.76982471799E+02 0.  0.
         13    1    3    3    0    0  0.94121480051E+02  0.40940850029E+03 -0.99846155993E+02  0.43179095403E+03  0.00000000000E+00 0.  1.
        -13    1    3    3    0    0  0.29009302180E+03  0.83260645258E+03 -0.30087631734E+03  0.93161903400E+03  0.00000000000E+00 0. -1.
          2    1    6    6  502    0 -0.53243028938E+03 -0.65995133471E+03  0.77773918431E+03  0.11506068034E+04  0.00000000000E+00 0. -1.
          1    1    5    5  503    0  0.24895919149E+03 -0.41535638391E+03  0.43479567596E+03  0.65080633411E+03  0.00000000000E+00 0. -1.
         -2    1    5    5    0  503  0.35455539266E+02 -0.52139583935E+02  0.96759254861E+02  0.11549019386E+03  0.00000000000E+00 0.  1.
         -1    1    6    6    0  502 -0.13619894323E+03 -0.11456765032E+03  0.17499529196E+03  0.24959817877E+03  0.00000000000E+00 0.  1.
<mgrwt>
<rscale>  0 0.33594877E+04</rscale>
<asrwt>0</asrwt>
<pdfrwt beam="1">  1        2 0.35488295E+00 0.33594877E+04</pdfrwt>
<pdfrwt beam="2">  1       -2 0.18818035E+00 0.33594877E+04</pdfrwt>
<totfact> 0.59549955E-01</totfact>
</mgrwt>
</event>
<event>
12    1  0.1477245E-007  0.1547320E+04  0.7818608E-02  0.8853581E-01
          3   -1    0    0  501    0  0.00000000000E+00  0.00000000000E+00  0.19004076050E+03  0.19004076050E+03  0.00000000000E+00 0. -1.
         -3   -1    0    0    0  501 -0.00000000000E+00 -0.00000000000E+00 -0.31495884226E+04  0.31495884226E+04  0.00000000000E+00 0.  1.
         23    2    1    2    0    0  0.34444182660E+03 -0.37609406698E+03 -0.96339067014E+03  0.10938858689E+04  0.91530277901E+02 0.  0.
        254    2    1    2    0    0 -0.34444182660E+03  0.37609406698E+03 -0.19961569920E+04  0.22457433142E+04  0.89366289927E+03 0.  0.
        -24    2    4    4    0    0  0.16490581712E+03  0.12175970362E+03 -0.64223379524E+02  0.23005930858E+03  0.82360725114E+02 0.  0.
         24    2    4    4    0    0 -0.50934764373E+03  0.25433436337E+03 -0.19319336125E+04  0.20156840056E+04  0.80582485859E+02 0.  0.
         13    1    3    3    0    0  0.13021209547E+03 -0.19620890238E+03 -0.38307792074E+03  0.44966856299E+03  0.00000000000E+00 0.  1.
        -13    1    3    3    0    0  0.21422973113E+03 -0.17988516460E+03 -0.58031274940E+03  0.64421730593E+03  0.00000000000E+00 0. -1.
          2    1    6    6  502    0 -0.25224790032E+03  0.16177739151E+03 -0.92483003477E+03  0.97216846319E+03  0.00000000000E+00 0. -1.
          1    1    5    5  503    0  0.16989617537E+03  0.12809078834E+03 -0.60695991209E+02  0.22125994624E+03  0.00000000000E+00 0. -1.
         -2    1    5    5    0  503 -0.49903582426E+01 -0.63310847281E+01 -0.35273883157E+01  0.87993623379E+01  0.00000000000E+00 0.  1.
         -1    1    6    6    0  502 -0.25709974341E+03  0.92556971856E+02 -0.10071035777E+04  0.10435155424E+04  0.00000000000E+00 0.  1.
<mgrwt>
<rscale>  0 0.15473205E+04</rscale>
<asrwt>0</asrwt>
<pdfrwt beam="1">  1        3 0.29237040E-01 0.15473205E+04</pdfrwt>
<pdfrwt beam="2">  1       -3 0.48455206E+00 0.15473205E+04</pdfrwt>
<totfact> 0.10676150E-01</totfact>
</mgrwt>
</event>
<event>
12    1  0.1477245E-007  0.1761391E+04  0.7818608E-02  0.8727105E-01
          1   -1    0    0  501    0  0.00000000000E+00  0.00000000000E+00  0.21917219475E+04  0.21917219475E+04  0.00000000000E+00 0. -1.
         -1   -1    0    0    0  501 -0.00000000000E+00 -0.00000000000E+00 -0.35388810904E+03  0.35388810904E+03  0.00000000000E+00 0.  1.
         23    2    1    2    0    0 -0.46002393579E+03 -0.39990005628E+03  0.38240137782E+03  0.72539191930E+03  0.91763534806E+02 0.  0.
        254    2    1    2    0    0  0.46002393579E+03  0.39990005628E+03  0.14554324606E+04  0.18202181372E+04  0.90739646416E+03 0.  0.
        -24    2    4    4    0    0  0.39807522939E+03  0.65821758547E+03  0.12696262959E+04  0.14865949219E+04  0.79367830818E+02 0.  0.
         24    2    4    4    0    0  0.61948706398E+02 -0.25831752919E+03  0.18580616476E+03  0.33362321534E+03  0.78834832641E+02 0.  0.
         11    1    3    3    0    0 -0.36302582515E+03 -0.26320947971E+03  0.28982394794E+03  0.53391469425E+03  0.00000000000E+00 0.  1.
        -11    1    3    3    0    0 -0.96998110631E+02 -0.13669057657E+03  0.92577429877E+02  0.19147722505E+03  0.00000000000E+00 0. -1.
          4    1    6    6  502    0 -0.66747530885E+01 -0.12196590030E+03  0.61453525483E+02  0.13673612894E+03  0.00000000000E+00 0. -1.
          1    1    5    5  503    0  0.29660032749E+03  0.42265595632E+03  0.87270695834E+03  0.10140154076E+04  0.00000000000E+00 0. -1.
         -2    1    5    5    0  503  0.10147490189E+03  0.23556162915E+03  0.39691933754E+03  0.47257951432E+03  0.00000000000E+00 0.  1.
         -3    1    6    6    0  502  0.68623459486E+02 -0.13635162890E+03  0.12435263927E+03  0.19688708640E+03  0.00000000000E+00 0.  1.
<mgrwt>
<rscale>  0 0.17613907E+04</rscale>
<asrwt>0</asrwt>
<pdfrwt beam="1">  1        1 0.33718798E+00 0.17613907E+04</pdfrwt>
<pdfrwt beam="2">  1       -1 0.54444326E-01 0.17613907E+04</pdfrwt>
<totfact> 0.71233324E+00</totfact>
</mgrwt>
</event>
<event>
12    1  0.1477245E-007  0.1471327E+04  0.7818608E-02  0.8903747E-01
         -1   -1    0    0    0  501 -0.00000000000E+00  0.00000000000E+00  0.72788359309E+03  0.72788359309E+03  0.00000000000E+00 0.  1.
          1   -1    0    0  501    0  0.00000000000E+00 -0.00000000000E+00 -0.74352665644E+03  0.74352665644E+03  0.00000000000E+00 0. -1.
         23    2    1    2    0    0 -0.29043401529E+03 -0.10213156944E+03 -0.33859247236E+03  0.46648268470E+03  0.90434827773E+02 0.  0.
        254    2    1    2    0    0  0.29043401529E+03  0.10213156944E+03  0.32294940901E+03  0.10049275648E+04  0.90044450970E+03 0.  0.
        -24    2    4    4    0    0 -0.23004280252E+03 -0.13073007388E+03  0.32596363484E+03  0.42805113253E+03  0.83459197300E+02 0.  0.
         24    2    4    4    0    0  0.52047681781E+03  0.23286164332E+03 -0.30142258320E+01  0.57687643230E+03  0.87502398696E+02 0.  0.
         11    1    3    3    0    0 -0.24894891604E+03 -0.69024508514E+02 -0.31761009910E+03  0.40940947794E+03  0.00000000000E+00 0. -1.
        -11    1    3    3    0    0 -0.41485099249E+02 -0.33107060930E+02 -0.20982373262E+02  0.57073206768E+02  0.00000000000E+00 0.  1.
          2    1    6    6  502    0  0.21499783292E+03  0.85524152593E+02  0.40634666800E+02  0.23492472194E+03  0.00000000000E+00 0. -1.
          3    1    5    5  503    0 -0.10822312011E+02 -0.24388177540E+02  0.87852134733E+01  0.28090667788E+02  0.00000000000E+00 0. -1.
         -4    1    5    5    0  503 -0.21922049050E+03 -0.10634189634E+03  0.31717842136E+03  0.39996046474E+03  0.00000000000E+00 0.  1.
         -3    1    6    6    0  502  0.30547898489E+03  0.14733749073E+03 -0.43648892632E+02  0.34195171035E+03  0.00000000000E+00 0.  1.
<mgrwt>
<rscale>  0 0.14713271E+04</rscale>
<asrwt>0</asrwt>
<pdfrwt beam="1">  1        1 0.11438872E+00 0.14713271E+04</pdfrwt>
<pdfrwt beam="2">  1       -1 0.11198209E+00 0.14713271E+04</pdfrwt>
<totfact> 0.17614225E+01</totfact>
</mgrwt>
</event>
<event>
12    1  0.1477245E-007  0.2330334E+04  0.7818608E-02  0.8466056E-01
          3   -1    0    0  501    0  0.00000000000E+00  0.00000000000E+00  0.15737833095E+04  0.15737833095E+04  0.00000000000E+00 0. -1.
         -3   -1    0    0    0  501 -0.00000000000E+00 -0.00000000000E+00 -0.86264373997E+03  0.86264373997E+03  0.00000000000E+00 0.  1.
         23    2    1    2    0    0  0.97566291636E+03 -0.16272916277E+03  0.29107761598E+03  0.10354023310E+04  0.94514028780E+02 0.  0.
        254    2    1    2    0    0 -0.97566291636E+03  0.16272916277E+03  0.42006195351E+03  0.14010247185E+04  0.89889894329E+03 0.  0.
        -24    2    4    4    0    0 -0.10529056201E+04  0.89907745489E+02  0.56798809462E+03  0.12023714207E+04  0.79955675411E+02 0.  0.
         24    2    4    4    0    0  0.77242703751E+02  0.72821417278E+02 -0.14792614111E+03  0.19865329783E+03  0.79445550011E+02 0.  0.
         13    1    3    3    0    0  0.50658841247E+03 -0.13137173642E+03  0.16314290965E+03  0.54818424069E+03  0.00000000000E+00 0. -1.
        -13    1    3    3    0    0  0.46907450389E+03 -0.31357426351E+02  0.12793470634E+03  0.48721809026E+03  0.00000000000E+00 0.  1.
          4    1    6    6  502    0 -0.20706575078E+01  0.33200395325E+02 -0.81016219100E+02  0.87579573129E+02  0.00000000000E+00 0. -1.
          1    1    5    5  503    0 -0.54285913647E+03  0.89485133671E+01  0.30746094751E+03  0.62394579267E+03  0.00000000000E+00 0. -1.
         -2    1    5    5    0  503 -0.51004648364E+03  0.80959232122E+02  0.26052714710E+03  0.57842562799E+03  0.00000000000E+00 0.  1.
         -3    1    6    6    0  502  0.79313361259E+02  0.39621021953E+02 -0.66909922010E+02  0.11107372470E+03  0.00000000000E+00 0.  1.
<mgrwt>
<rscale>  0 0.23303342E+04</rscale>
<asrwt>0</asrwt>
<pdfrwt beam="1">  1        3 0.24212051E+00 0.23303342E+04</pdfrwt>
<pdfrwt beam="2">  1       -3 0.13271442E+00 0.23303342E+04</pdfrwt>
<totfact> 0.85286495E-02</totfact>
</mgrwt>
</event>
<event>
12    1  0.1477245E-007  0.2441997E+04  0.7818608E-02  0.8423946E-01
         -1   -1    0    0    0  501 -0.00000000000E+00  0.00000000000E+00  0.11370883652E+04  0.11370883652E+04  0.00000000000E+00 0.  1.
          1   -1    0    0  501    0  0.00000000000E+00 -0.00000000000E+00 -0.13111002290E+04  0.13111002290E+04  0.00000000000E+00 0. -1.
         23    2    1    2    0    0 -0.13842832586E+03  0.19143590434E+03 -0.11077382934E+04  0.11363686938E+04  0.91867158340E+02 0.  0.
        254    2    1    2    0    0  0.13842832586E+03 -0.19143590434E+03  0.93372642956E+03  0.13118199004E+04  0.89062691347E+03 0.  0.
        -24    2    4    4    0    0 -0.14139951423E+03 -0.47998517829E+03  0.44325780818E+03  0.67246986147E+03  0.73202705325E+02 0.  0.
         24    2    4    4    0    0  0.27982784009E+03  0.28854927395E+03  0.49046862138E+03  0.63935003894E+03  0.81515030229E+02 0.  0.
         13    1    3    3    0    0  0.70185452595E+01 -0.48477126649E+01 -0.54890027104E+02  0.55548855714E+02  0.00000000000E+00 0.  1.
        -13    1    3    3    0    0 -0.14544687112E+03  0.19628361701E+03 -0.10528482663E+04  0.10808198381E+04  0.00000000000E+00 0. -1.
          2    1    6    6  502    0 -0.57387755849E+01  0.45458405397E+01  0.10322075890E+02  0.12654780208E+02  0.00000000000E+00 0. -1.
          3    1    5    5  503    0 -0.77676242315E+02 -0.19270259317E+03  0.14414836320E+03  0.25287672619E+03  0.00000000000E+00 0. -1.
         -4    1    5    5    0  503 -0.63723271920E+02 -0.28728258513E+03  0.29910944499E+03  0.41959313529E+03  0.00000000000E+00 0.  1.
         -1    1    6    6    0  502  0.28556661568E+03  0.28400343341E+03  0.48014654549E+03  0.62669525874E+03  0.00000000000E+00 0.  1.
<mgrwt>
<rscale>  0 0.24419966E+04</rscale>
<asrwt>0</asrwt>
<pdfrwt beam="1">  1        1 0.20170773E+00 0.24419966E+04</pdfrwt>
<pdfrwt beam="2">  1       -1 0.17493667E+00 0.24419966E+04</pdfrwt>
<totfact> 0.17957704E+00</totfact>
</mgrwt>
</event>
<event>
12    1  0.1477245E-007  0.1497215E+04  0.7818608E-02  0.8886307E-01
         -2   -1    0    0    0  501 -0.00000000000E+00  0.00000000000E+00  0.48497041330E+03  0.48497041330E+03  0.00000000000E+00 0.  1.
          2   -1    0    0  501    0  0.00000000000E+00 -0.00000000000E+00 -0.11555611049E+04  0.11555611049E+04  0.00000000000E+00 0. -1.
         23    2    1    2    0    0 -0.34627378551E+03 -0.18947668073E+03 -0.50143676091E+03  0.64465055355E+03  0.91260966101E+02 0.  0.
        254    2    1    2    0    0  0.34627378551E+03  0.18947668073E+03 -0.16915393069E+03  0.99588096465E+03  0.89853152221E+03 0.  0.
        -24    2    4    4    0    0  0.39864155497E+02  0.47501432501E+03 -0.27566234093E+03  0.55673599132E+03  0.82082141544E+02 0.  0.
         24    2    4    4    0    0  0.30640963001E+03 -0.28553764428E+03  0.10650841024E+03  0.43914497333E+03  0.78010630590E+02 0.  0.
         11    1    3    3    0    0 -0.83464374156E+01 -0.16538806578E+02 -0.40653381960E+01  0.18966341640E+02  0.00000000000E+00 0.  1.
        -11    1    3    3    0    0 -0.33792734809E+03 -0.17293787416E+03 -0.49737142271E+03  0.62568421191E+03  0.00000000000E+00 0. -1.
          4    1    6    6  502    0  0.24104519799E+02 -0.33870695013E+01 -0.47442885316E+01  0.24799362658E+02  0.00000000000E+00 0. -1.
          1    1    5    5  503    0  0.15290104139E+02  0.12349272443E+03 -0.32526830960E+02  0.12861662025E+03  0.00000000000E+00 0. -1.
         -2    1    5    5    0  503  0.24574051358E+02  0.35152160058E+03 -0.24313550997E+03  0.42811937107E+03  0.00000000000E+00 0.  1.
         -3    1    6    6    0  502  0.28230511021E+03 -0.28215057478E+03  0.11125269878E+03  0.41434561067E+03  0.00000000000E+00 0.  1.
<mgrwt>
<rscale>  0 0.14972147E+04</rscale>
<asrwt>0</asrwt>
<pdfrwt beam="1">  1        2 0.17777863E+00 0.14972147E+04</pdfrwt>
<pdfrwt beam="2">  1       -2 0.74610833E-01 0.14972147E+04</pdfrwt>
<totfact> 0.31452230E+01</totfact>
</mgrwt>
</event>
<event>
12    1  0.1477245E-007  0.1344673E+04  0.7818608E-02  0.8994870E-01
         -1   -1    0    0    0  501 -0.00000000000E+00  0.00000000000E+00  0.15652909483E+03  0.15652909483E+03  0.00000000000E+00 0.  1.
          1   -1    0    0  501    0  0.00000000000E+00 -0.00000000000E+00 -0.28878750073E+04  0.28878750073E+04  0.00000000000E+00 0. -1.
         23    2    1    2    0    0  0.34167057512E+03 -0.86284746271E+02 -0.81340494034E+03  0.89122679636E+03  0.92053062052E+02 0.  0.
        254    2    1    2    0    0 -0.34167057512E+03  0.86284746271E+02 -0.19179409721E+04  0.21531773057E+04  0.91295733645E+03 0.  0.
        -24    2    4    4    0    0 -0.61621031803E+03 -0.30077267282E+02 -0.93621411006E+03  0.11241169487E+04  0.80760487878E+02 0.  0.
         24    2    4    4    0    0  0.27453974290E+03  0.11636201355E+03 -0.98172686204E+03  0.10290603571E+04  0.79154268273E+02 0.  0.
         11    1    3    3    0    0  0.28921825973E+03 -0.84432026357E+02 -0.75394144779E+03  0.81191358871E+03  0.00000000000E+00 0.  1.
        -11    1    3    3    0    0  0.52452315393E+02 -0.18527199137E+01 -0.59463492550E+02  0.79313207648E+02  0.00000000000E+00 0. -1.
          2    1    6    6  502    0  0.17264025592E+03  0.11222793422E+03 -0.62536209377E+03  0.65839009372E+03  0.00000000000E+00 0. -1.
          3    1    5    5  503    0 -0.43132876850E+03 -0.34432307173E+02 -0.71553877141E+03  0.83619723971E+03  0.00000000000E+00 0. -1.
         -4    1    5    5    0  503 -0.18488154953E+03  0.43550398902E+01 -0.22067533865E+03  0.28791970898E+03  0.00000000000E+00 0.  1.
         -1    1    6    6    0  502  0.10189948699E+03  0.41340793333E+01 -0.35636476827E+03  0.37067026334E+03  0.00000000000E+00 0.  1.
<mgrwt>
<rscale>  0 0.13446731E+04</rscale>
<asrwt>0</asrwt>
<pdfrwt beam="1">  1        1 0.44428846E+00 0.13446731E+04</pdfrwt>
<pdfrwt beam="2">  1       -1 0.24081399E-01 0.13446731E+04</pdfrwt>
<totfact> 0.10624886E+01</totfact>
</mgrwt>
</event>
<event>
12    1  0.1477245E-007  0.1626853E+04  0.7818608E-02  0.8804219E-01
          2   -1    0    0  501    0  0.00000000000E+00  0.00000000000E+00  0.86117233456E+03  0.86117233456E+03  0.00000000000E+00 0. -1.
         -2   -1    0    0    0  501 -0.00000000000E+00 -0.00000000000E+00 -0.76832825143E+03  0.76832825143E+03  0.00000000000E+00 0.  1.
         23    2    1    2    0    0 -0.49584273089E+03  0.26314107519E+03  0.11235160922E+03  0.58169254205E+03  0.10315081263E+03 0.  0.
        254    2    1    2    0    0  0.49584273089E+03 -0.26314107519E+03 -0.19507526089E+02  0.10478080439E+04  0.88454390176E+03 0.  0.
        -24    2    4    4    0    0  0.22623120684E+03  0.31343403287E+03  0.64996052081E+02  0.40072921644E+03  0.83294454892E+02 0.  0.
         24    2    4    4    0    0  0.26961152405E+03 -0.57657510806E+03 -0.84503578170E+02  0.64707882750E+03  0.80255374524E+02 0.  0.
         13    1    3    3    0    0 -0.40196497922E+03  0.16386667497E+03  0.87713413870E+02  0.44285638153E+03  0.00000000000E+00 0. -1.
        -13    1    3    3    0    0 -0.93877751675E+02  0.99274400221E+02  0.24638195345E+02  0.13883616052E+03  0.00000000000E+00 0.  1.
          4    1    6    6  502    0  0.17377702646E+03 -0.35630505734E+03 -0.13755406142E+02  0.39666227449E+03  0.00000000000E+00 0. -1.
          1    1    5    5  503    0  0.17506945968E+03  0.23579834938E+03  0.12487433195E+02  0.29394916784E+03  0.00000000000E+00 0. -1.
         -2    1    5    5    0  503  0.51161747160E+02  0.77635683482E+02  0.52508618886E+02  0.10678004860E+03  0.00000000000E+00 0.  1.
         -3    1    6    6    0  502  0.95834497600E+02 -0.22027005072E+03 -0.70748172028E+02  0.25041655301E+03  0.00000000000E+00 0.  1.
<mgrwt>
<rscale>  0 0.16268534E+04</rscale>
<asrwt>0</asrwt>
<pdfrwt beam="1">  1        2 0.13248805E+00 0.16268534E+04</pdfrwt>
<pdfrwt beam="2">  1       -2 0.11820435E+00 0.16268534E+04</pdfrwt>
<totfact> 0.16445474E+01</totfact>
</mgrwt>
</event>
<event>
12    1  0.1477245E-007  0.2016573E+04  0.7818608E-02  0.8598911E-01
          2   -1    0    0  501    0  0.00000000000E+00  0.00000000000E+00  0.21636011929E+04  0.21636011929E+04  0.00000000000E+00 0. -1.
         -2   -1    0    0    0  501 -0.00000000000E+00 -0.00000000000E+00 -0.46988403390E+03  0.46988403390E+03  0.00000000000E+00 0.  1.
         23    2    1    2    0    0  0.44870719816E+03 -0.14137584960E+03  0.15598398469E+04  0.16316633239E+04  0.88879548855E+02 0.  0.
        254    2    1    2    0    0 -0.44870719816E+03  0.14137584960E+03  0.13387731214E+03  0.10018219029E+04  0.87429898197E+03 0.  0.
        -24    2    4    4    0    0  0.80265690201E+02 -0.13604106954E+03  0.32431669544E+03  0.36994379950E+03  0.82020376895E+02 0.  0.
         24    2    4    4    0    0 -0.52897288836E+03  0.27741691914E+03 -0.19043938330E+03  0.63187810338E+03  0.78932345599E+02 0.  0.
         11    1    3    3    0    0  0.13395836259E+03 -0.17123754879E+02  0.56237754644E+03  0.57836543000E+03  0.00000000000E+00 0. -1.
        -11    1    3    3    0    0  0.31474883557E+03 -0.12425209472E+03  0.99746230045E+03  0.10532978939E+04  0.00000000000E+00 0.  1.
          4    1    6    6  502    0 -0.44397117051E+03  0.19800922582E+03 -0.15046910259E+03  0.50888014756E+03  0.00000000000E+00 0. -1.
          1    1    5    5  503    0  0.61282130633E+02 -0.91803308350E+02  0.29146054053E+03  0.31166102363E+03  0.00000000000E+00 0. -1.
         -2    1    5    5    0  503  0.18983559568E+02 -0.44237761188E+02  0.32856154903E+02  0.58282775876E+02  0.00000000000E+00 0.  1.
         -3    1    6    6    0  502 -0.85001717853E+02  0.79407693315E+02 -0.39970280716E+02  0.12299795582E+03  0.00000000000E+00 0.  1.
<mgrwt>
<rscale>  0 0.20165730E+04</rscale>
<asrwt>0</asrwt>
<pdfrwt beam="1">  1        2 0.33286172E+00 0.20165730E+04</pdfrwt>
<pdfrwt beam="2">  1       -2 0.72289852E-01 0.20165730E+04</pdfrwt>
<totfact> 0.86991396E+00</totfact>
</mgrwt>
</event>
<event>
12    1  0.1477245E-007  0.2727181E+04  0.7818608E-02  0.8326239E-01
          1   -1    0    0  501    0  0.00000000000E+00  0.00000000000E+00  0.20784326440E+04  0.20784326440E+04  0.00000000000E+00 0. -1.
         -1   -1    0    0    0  501 -0.00000000000E+00 -0.00000000000E+00 -0.89460636306E+03  0.89460636306E+03  0.00000000000E+00 0.  1.
         23    2    1    2    0    0 -0.10767629375E+04  0.25652595999E+03  0.10666342612E+04  0.15400221323E+04  0.93464051494E+02 0.  0.
        254    2    1    2    0    0  0.10767629375E+04 -0.25652595999E+03  0.11719201971E+03  0.14330168748E+04  0.90254052655E+03 0.  0.
        -24    2    4    4    0    0  0.36354992156E+02 -0.36465263121E+03 -0.17328956624E+02  0.37525986325E+03  0.78907828037E+02 0.  0.
         24    2    4    4    0    0  0.10404079454E+04  0.10812667122E+03  0.13452097633E+03  0.10577570115E+04  0.81326087411E+02 0.  0.
         13    1    3    3    0    0 -0.35686681031E+03  0.85623391213E+02  0.29389443713E+03  0.47016935842E+03  0.00000000000E+00 0. -1.
        -13    1    3    3    0    0 -0.71989612722E+03  0.17090256878E+03  0.77273982407E+03  0.10698527738E+04  0.00000000000E+00 0.  1.
          2    1    6    6  502    0  0.38858737336E+03  0.77508269903E+02  0.64764064047E+02  0.40149976666E+03  0.00000000000E+00 0. -1.
          1    1    5    5  503    0  0.58222066754E+02 -0.19696276976E+03 -0.12953332051E+01  0.20539186843E+03  0.00000000000E+00 0. -1.
         -2    1    5    5    0  503 -0.21867074598E+02 -0.16768986145E+03 -0.16033623419E+02  0.16986799482E+03  0.00000000000E+00 0.  1.
         -1    1    6    6    0  502  0.65182057201E+03  0.30618401313E+02  0.69756912287E+02  0.65625724485E+03  0.00000000000E+00 0.  1.
<mgrwt>
<rscale>  0 0.27271810E+04</rscale>
<asrwt>0</asrwt>
<pdfrwt beam="1">  1        1 0.31975887E+00 0.27271810E+04</pdfrwt>
<pdfrwt beam="2">  1       -1 0.13763175E+00 0.27271810E+04</pdfrwt>
<totfact> 0.10061561E+00</totfact>
</mgrwt>
</event>
<event>
12    1  0.1477245E-007  0.1068093E+04  0.7818608E-02  0.9236861E-01
          1   -1    0    0  501    0  0.00000000000E+00  0.00000000000E+00  0.13079059417E+04  0.13079059417E+04  0.00000000000E+00 0. -1.
         -1   -1    0    0    0  501 -0.00000000000E+00 -0.00000000000E+00 -0.21806262418E+03  0.21806262418E+03  0.00000000000E+00 0.  1.
         23    2    1    2    0    0  0.10843269225E+03  0.41092057055E+02  0.69729612198E+02  0.16322826370E+03  0.91296447639E+02 0.  0.
        254    2    1    2    0    0 -0.10843269225E+03 -0.41092057055E+02  0.10201137053E+04  0.13627403022E+04  0.89609316118E+03 0.  0.
        -24    2    4    4    0    0  0.27649001856E+02  0.41039353046E+03  0.55583672187E+03  0.69606602115E+03  0.79788014601E+02 0.  0.
         24    2    4    4    0    0 -0.13608169411E+03 -0.45148558752E+03  0.46427698344E+03  0.66667428103E+03  0.80895095149E+02 0.  0.
         11    1    3    3    0    0  0.78765474814E+02  0.46160125013E+02  0.45182791155E+01  0.91406630012E+02  0.00000000000E+00 0.  1.
        -11    1    3    3    0    0  0.29667217437E+02 -0.50680679579E+01  0.65211333083E+02  0.71821633688E+02  0.00000000000E+00 0. -1.
          2    1    6    6  502    0 -0.13611361993E+03 -0.36395585467E+03  0.35194930802E+03  0.52427006122E+03  0.00000000000E+00 0. -1.
          1    1    5    5  503    0 -0.30655976824E+01  0.35594919960E+03  0.45997657475E+03  0.58162503377E+03  0.00000000000E+00 0. -1.
         -2    1    5    5    0  503  0.30714599539E+02  0.54444330863E+02  0.95860147122E+02  0.11444098739E+03  0.00000000000E+00 0.  1.
         -1    1    6    6    0  502  0.31925822850E-01 -0.87529732847E+02  0.11232767543E+03  0.14240421980E+03  0.00000000000E+00 0.  1.
<mgrwt>
<rscale>  0 0.10680925E+04</rscale>
<asrwt>0</asrwt>
<pdfrwt beam="1">  1        1 0.20121629E+00 0.10680925E+04</pdfrwt>
<pdfrwt beam="2">  1       -1 0.33548097E-01 0.10680925E+04</pdfrwt>
<totfact> 0.74575731E+01</totfact>
</mgrwt>
</event>
<event>
12    1  0.1477245E-007  0.1479490E+04  0.7818608E-02  0.8898208E-01
          1   -1    0    0  501    0  0.00000000000E+00  0.00000000000E+00  0.68677674838E+03  0.68677674838E+03  0.00000000000E+00 0. -1.
         -1   -1    0    0    0  501 -0.00000000000E+00 -0.00000000000E+00 -0.79679829403E+03  0.79679829403E+03  0.00000000000E+00 0.  1.
         23    2    1    2    0    0 -0.32199494463E+03 -0.19135592839E+03  0.20919584910E+03  0.43896600641E+03  0.92900031220E+02 0.  0.
        254    2    1    2    0    0  0.32199494463E+03  0.19135592839E+03 -0.31921739476E+03  0.10446090360E+04  0.92141763456E+03 0.  0.
        -24    2    4    4    0    0 -0.15212363901E+03  0.23154445755E+03  0.18809524857E+03  0.34438197527E+03  0.80403264767E+02 0.  0.
         24    2    4    4    0    0  0.47411858364E+03 -0.40188529158E+02 -0.50731264333E+03  0.70022706074E+03  0.80921377145E+02 0.  0.
         11    1    3    3    0    0 -0.24682238493E+03 -0.14752408420E+03  0.11221747988E+03  0.30867038717E+03  0.00000000000E+00 0. -1.
        -11    1    3    3    0    0 -0.75172559699E+02 -0.43831844196E+02  0.96978369218E+02  0.13029561924E+03  0.00000000000E+00 0.  1.
          4    1    6    6  502    0  0.23503925597E+03 -0.48445323350E+02 -0.21227140806E+03  0.32038968754E+03  0.00000000000E+00 0. -1.
          1    1    5    5  503    0 -0.10630884343E+03  0.13520217960E+03  0.71261836879E+02  0.18617048358E+03  0.00000000000E+00 0. -1.
         -2    1    5    5    0  503 -0.45814795576E+02  0.96342277952E+02  0.11683341169E+03  0.15821149169E+03  0.00000000000E+00 0.  1.
         -3    1    6    6    0  502  0.23907932767E+03  0.82567941915E+01 -0.29504123527E+03  0.37983737319E+03  0.00000000000E+00 0.  1.
<mgrwt>
<rscale>  0 0.14794898E+04</rscale>
<asrwt>0</asrwt>
<pdfrwt beam="1">  1        1 0.10565796E+00 0.14794898E+04</pdfrwt>
<pdfrwt beam="2">  1       -1 0.12258435E+00 0.14794898E+04</pdfrwt>
<totfact> 0.15967192E+01</totfact>
</mgrwt>
</event>
<event>
12    1  0.1477245E-007  0.1282958E+04  0.7818608E-02  0.9043190E-01
         -1   -1    0    0    0  501 -0.00000000000E+00  0.00000000000E+00  0.46645464974E+03  0.46645464974E+03  0.00000000000E+00 0.  1.
          1   -1    0    0  501    0  0.00000000000E+00 -0.00000000000E+00 -0.88217577944E+03  0.88217577944E+03  0.00000000000E+00 0. -1.
         23    2    1    2    0    0  0.74488130812E+02 -0.26690115337E+02  0.21322659153E+03  0.25114737360E+03  0.10652971435E+03 0.  0.
        254    2    1    2    0    0 -0.74488130812E+02  0.26690115337E+02 -0.62894772122E+03  0.10974830556E+04  0.89589786101E+03 0.  0.
        -24    2    4    4    0    0  0.30076022892E+03  0.17188509667E+03 -0.58547597099E+03  0.68488927189E+03  0.79309522654E+02 0.  0.
         24    2    4    4    0    0 -0.37524835973E+03 -0.14519498133E+03 -0.43471750233E+02  0.41259378369E+03  0.80317639338E+02 0.  0.
         11    1    3    3    0    0 -0.98238753243E+00 -0.27143520180E+02  0.15073228925E+03  0.15315991250E+03  0.00000000000E+00 0. -1.
        -11    1    3    3    0    0  0.75470518345E+02  0.45340484288E+00  0.62494302274E+02  0.97987461095E+02  0.00000000000E+00 0.  1.
          2    1    6    6  502    0 -0.34484015814E+03 -0.12519901504E+03 -0.61493412989E+02  0.37198248329E+03  0.00000000000E+00 0. -1.
          3    1    5    5  503    0  0.94970694407E+02  0.34610286020E+02 -0.11328754853E+03  0.15182678732E+03  0.00000000000E+00 0. -1.
         -2    1    5    5    0  503  0.20578953451E+03  0.13727481065E+03 -0.47218842246E+03  0.53306248457E+03  0.00000000000E+00 0.  1.
         -1    1    6    6    0  502 -0.30408201589E+02 -0.19995966290E+02  0.18021662757E+02  0.40611300401E+02  0.00000000000E+00 0.  1.
<mgrwt>
<rscale>  0 0.12829575E+04</rscale>
<asrwt>0</asrwt>
<pdfrwt beam="1">  1        1 0.13571935E+00 0.12829575E+04</pdfrwt>
<pdfrwt beam="2">  1       -1 0.71762254E-01 0.12829575E+04</pdfrwt>
<totfact> 0.36305634E+01</totfact>
</mgrwt>
</event>
<event>
12    1  0.1477245E-007  0.1781863E+04  0.7818608E-02  0.8716005E-01
          2   -1    0    0  501    0  0.00000000000E+00  0.00000000000E+00  0.23233977905E+04  0.23233977905E+04  0.00000000000E+00 0. -1.
         -2   -1    0    0    0  501 -0.00000000000E+00 -0.00000000000E+00 -0.34163704956E+03  0.34163704956E+03  0.00000000000E+00 0.  1.
         23    2    1    2    0    0 -0.53971295512E+03 -0.23285944211E+02  0.13102429330E+04  0.14199383644E+04  0.87499178142E+02 0.  0.
        254    2    1    2    0    0  0.53971295512E+03  0.23285944211E+02  0.67151780796E+03  0.12450964756E+04  0.89860823396E+03 0.  0.
        -24    2    4    4    0    0  0.64602849925E+03 -0.28676296378E+03  0.46242234342E+03  0.84817924757E+03  0.77380831433E+02 0.  0.
         24    2    4    4    0    0 -0.10631554412E+03  0.31004890799E+03  0.20909546453E+03  0.39691722808E+03  0.79931548139E+02 0.  0.
         11    1    3    3    0    0 -0.53991494024E+03 -0.18659180512E+02  0.12799069817E+04  0.13892509455E+04  0.00000000000E+00 0. -1.
        -11    1    3    3    0    0  0.20198512186E+00 -0.46267636988E+01  0.30335951317E+02  0.30687418963E+02  0.00000000000E+00 0.  1.
          2    1    6    6  502    0 -0.47776456987E+02  0.18242376859E+03  0.16263393489E+03  0.24901971402E+03  0.00000000000E+00 0. -1.
          1    1    5    5  503    0  0.24240443344E+03 -0.14351578315E+03  0.20609459822E+03  0.34904394105E+03  0.00000000000E+00 0. -1.
         -2    1    5    5    0  503  0.40362406581E+03 -0.14324718063E+03  0.25632774520E+03  0.49913530652E+03  0.00000000000E+00 0.  1.
         -1    1    6    6    0  502 -0.58539087137E+02  0.12762513940E+03  0.46461529641E+02  0.14789751406E+03  0.00000000000E+00 0.  1.
<mgrwt>
<rscale>  0 0.17818628E+04</rscale>
<asrwt>0</asrwt>
<pdfrwt beam="1">  1        2 0.35744580E+00 0.17818628E+04</pdfrwt>
<pdfrwt beam="2">  1       -2 0.52559548E-01 0.17818628E+04</pdfrwt>
<totfact> 0.14207617E+01</totfact>
</mgrwt>
</event>
<event>
12    1  0.1477245E-007  0.1992097E+04  0.7818608E-02  0.8610325E-01
         -1   -1    0    0    0  501 -0.00000000000E+00  0.00000000000E+00  0.67587849589E+03  0.67587849589E+03  0.00000000000E+00 0.  1.
          1   -1    0    0  501    0  0.00000000000E+00 -0.00000000000E+00 -0.14678855200E+04  0.14678855200E+04  0.00000000000E+00 0. -1.
         23    2    1    2    0    0  0.39756711650E+03 -0.23145625823E+03 -0.96648920705E+03  0.10747671883E+04  0.96909803731E+02 0.  0.
        254    2    1    2    0    0 -0.39756711650E+03  0.23145625823E+03  0.17448218298E+03  0.10689968276E+04  0.94904087034E+03 0.  0.
        -24    2    4    4    0    0 -0.50285601190E+03  0.52239147645E+03  0.16324663042E+03  0.74784073027E+03  0.82820722891E+02 0.  0.
         24    2    4    4    0    0  0.10528889539E+03 -0.29093521821E+03  0.11235552562E+02  0.32115609730E+03  0.85357767676E+02 0.  0.
         11    1    3    3    0    0  0.20746830171E+03 -0.13358347455E+03 -0.40884679067E+03  0.47753883520E+03  0.00000000000E+00 0. -1.
        -11    1    3    3    0    0  0.19009881480E+03 -0.97872783685E+02 -0.55764241638E+03  0.59722835308E+03  0.00000000000E+00 0.  1.
          2    1    6    6  502    0  0.31186996976E+02 -0.11246453761E+03 -0.36166909794E+02  0.12218406755E+03  0.00000000000E+00 0. -1.
          1    1    5    5  503    0 -0.54278686807E+02  0.89384885508E+02  0.54792561231E+01  0.10471798244E+03  0.00000000000E+00 0. -1.
         -2    1    5    5    0  503 -0.44857732509E+03  0.43300659094E+03  0.15776737430E+03  0.64312274783E+03  0.00000000000E+00 0.  1.
         -1    1    6    6    0  502  0.74101898418E+02 -0.17847068060E+03  0.47402462356E+02  0.19897202975E+03  0.00000000000E+00 0.  1.
<mgrwt>
<rscale>  0 0.19920966E+04</rscale>
<asrwt>0</asrwt>
<pdfrwt beam="1">  1        1 0.22582854E+00 0.19920966E+04</pdfrwt>
<pdfrwt beam="2">  1       -1 0.10398131E+00 0.19920966E+04</pdfrwt>
<totfact> 0.55675196E+00</totfact>
</mgrwt>
</event>
<event>
12    1  0.1477245E-007  0.1172852E+04  0.7818608E-02  0.9136957E-01
          2   -1    0    0  501    0  0.00000000000E+00  0.00000000000E+00  0.10001551879E+04  0.10001551879E+04  0.00000000000E+00 0.  1.
         -2   -1    0    0    0  501 -0.00000000000E+00 -0.00000000000E+00 -0.34384208161E+03  0.34384208161E+03  0.00000000000E+00 0. -1.
         23    2    1    2    0    0 -0.20644468593E+02 -0.10177848191E+02 -0.12114781650E+03  0.15339254081E+03  0.91228808251E+02 0.  0.
        254    2    1    2    0    0  0.20644468593E+02  0.10177848191E+02  0.77746092277E+03  0.11906047287E+04  0.90142351358E+03 0.  0.
        -24    2    4    4    0    0  0.13232132235E+03 -0.31403285848E+03  0.14235889050E+02  0.35012535180E+03  0.79117209801E+02 0.  0.
         24    2    4    4    0    0 -0.11167685376E+03  0.32421070667E+03  0.76322503372E+03  0.84047937687E+03  0.79428136488E+02 0.  0.
         11    1    3    3    0    0 -0.40694837262E+02 -0.28896595191E+02 -0.11488251427E+03  0.12525603809E+03  0.00000000000E+00 0. -1.
        -11    1    3    3    0    0  0.20050368669E+02  0.18718747000E+02 -0.62653022318E+01  0.28136502716E+02  0.00000000000E+00 0.  1.
          4    1    6    6  502    0  0.42145922963E+01  0.21087969446E+02  0.97825826448E+02  0.10016165715E+03  0.00000000000E+00 0. -1.
          3    1    5    5  503    0  0.17035749525E+02 -0.11596069107E+03  0.28099527375E+02  0.12052668614E+03  0.00000000000E+00 0. -1.
         -4    1    5    5    0  503  0.11528557283E+03 -0.19807216741E+03 -0.13863638325E+02  0.22959866566E+03  0.00000000000E+00 0.  1.
         -3    1    6    6    0  502 -0.11589144606E+03  0.30312273722E+03  0.66539920727E+03  0.74031771971E+03  0.00000000000E+00 0.  1.
<mgrwt>
<rscale>  0 0.11728520E+04</rscale>
<asrwt>0</asrwt>
<pdfrwt beam="1">  1        2 0.15387003E+00 0.11728520E+04</pdfrwt>
<pdfrwt beam="2">  1       -2 0.52898782E-01 0.11728520E+04</pdfrwt>
<totfact> 0.83892609E+01</totfact>
</mgrwt>
</event>
<event>
12    1  0.1477245E-007  0.1271957E+04  0.7818608E-02  0.9052104E-01
         -1   -1    0    0    0  501 -0.00000000000E+00  0.00000000000E+00  0.33395698729E+03  0.33395698729E+03  0.00000000000E+00 0.  1.
          1   -1    0    0  501    0  0.00000000000E+00 -0.00000000000E+00 -0.12111397550E+04  0.12111397550E+04  0.00000000000E+00 0. -1.
         23    2    1    2    0    0  0.18141738533E+03  0.37029388812E+00 -0.55370339859E+03  0.58983587786E+03  0.91686991360E+02 0.  0.
        254    2    1    2    0    0 -0.18141738533E+03 -0.37029388812E+00 -0.32347936909E+03  0.95526086441E+03  0.88032494684E+03 0.  0.
        -24    2    4    4    0    0 -0.22100630040E+03 -0.37374629853E+03 -0.36026342795E+03  0.56986283293E+03  0.80148801307E+02 0.  0.
         24    2    4    4    0    0  0.39588915072E+02  0.37337600465E+03  0.36784058856E+02  0.38539803148E+03  0.78750572307E+02 0.  0.
         11    1    3    3    0    0  0.18836122209E+02 -0.32344243594E+02 -0.10276513570E+03  0.10936920366E+03  0.00000000000E+00 0.  1.
        -11    1    3    3    0    0  0.16258126312E+03  0.32714537482E+02 -0.45093826289E+03  0.48046667420E+03  0.00000000000E+00 0. -1.
          4    1    6    6  502    0  0.17826432390E+02  0.31645659314E+03  0.55219832213E+02  0.32173247723E+03  0.00000000000E+00 0. -1.
          3    1    5    5  503    0 -0.19906387549E+03 -0.30359317526E+03 -0.26464796984E+03  0.44925915743E+03  0.00000000000E+00 0. -1.
         -4    1    5    5    0  503 -0.21942424915E+02 -0.70153123272E+02 -0.95615458104E+02  0.12060367550E+03  0.00000000000E+00 0.  1.
         -3    1    6    6    0  502  0.21762482682E+02  0.56919411507E+02 -0.18435773356E+02  0.63665554251E+02  0.00000000000E+00 0.  1.
<mgrwt>
<rscale>  0 0.12719569E+04</rscale>
<asrwt>0</asrwt>
<pdfrwt beam="1">  1        1 0.18632919E+00 0.12719569E+04</pdfrwt>
<pdfrwt beam="2">  1       -1 0.51377999E-01 0.12719569E+04</pdfrwt>
<totfact> 0.39336673E+01</totfact>
</mgrwt>
</event>
<event>
12    1  0.1477245E-007  0.1520042E+04  0.7818608E-02  0.8871234E-01
         -2   -1    0    0    0  501 -0.00000000000E+00  0.00000000000E+00  0.14510059444E+03  0.14510059444E+03  0.00000000000E+00 0.  1.
          2   -1    0    0  501    0  0.00000000000E+00 -0.00000000000E+00 -0.39809044173E+04  0.39809044173E+04  0.00000000000E+00 0. -1.
         23    2    1    2    0    0  0.27212154268E+03  0.84683718063E+02 -0.18628658035E+03  0.35252534848E+03  0.91378144031E+02 0.  0.
        254    2    1    2    0    0 -0.27212154268E+03 -0.84683718063E+02 -0.36495172425E+04  0.37734796633E+04  0.91594279277E+03 0.  0.
        -24    2    4    4    0    0  0.20244586862E+03 -0.32913678894E+03 -0.11367634010E+04  0.12033284979E+04  0.80331116891E+02 0.  0.
         24    2    4    4    0    0 -0.47456741130E+03  0.24445307087E+03 -0.25127538415E+04  0.25701511654E+04  0.82301964286E+02 0.  0.
         11    1    3    3    0    0  0.11121435886E+03  0.56678800446E+02 -0.12884188193E+03  0.17939161233E+03  0.00000000000E+00 0. -1.
        -11    1    3    3    0    0  0.16090718382E+03  0.28004917617E+02 -0.57444698423E+02  0.17313373615E+03  0.00000000000E+00 0.  1.
          4    1    6    6  502    0 -0.38892365520E+03  0.21777842746E+03 -0.22043971745E+04  0.22490122178E+04  0.00000000000E+00 0. -1.
          1    1    5    5  503    0  0.94587719908E+02 -0.22759877249E+03 -0.69891862891E+03  0.74110410054E+03  0.00000000000E+00 0. -1.
         -2    1    5    5    0  503  0.10785814871E+03 -0.10153801645E+03 -0.43784477212E+03  0.46222439734E+03  0.00000000000E+00 0.  1.
         -3    1    6    6    0  502 -0.85643756102E+02  0.26674643419E+02 -0.30835666700E+03  0.32113894756E+03  0.00000000000E+00 0.  1.
<mgrwt>
<rscale>  0 0.15200416E+04</rscale>
<asrwt>0</asrwt>
<pdfrwt beam="1">  1        2 0.61244690E+00 0.15200416E+04</pdfrwt>
<pdfrwt beam="2">  1       -2 0.22323166E-01 0.15200416E+04</pdfrwt>
<totfact> 0.61534707E+00</totfact>
</mgrwt>
</event>
<event>
12    1  0.1477245E-007  0.1706782E+04  0.7818608E-02  0.8757506E-01
         -2   -1    0    0    0  501 -0.00000000000E+00  0.00000000000E+00  0.55294198141E+03  0.55294198141E+03  0.00000000000E+00 0. -1.
          2   -1    0    0  501    0  0.00000000000E+00 -0.00000000000E+00 -0.13170927904E+04  0.13170927904E+04  0.00000000000E+00 0.  1.
         23    2    1    2    0    0  0.40701319498E+02 -0.61334116265E+03 -0.22281214892E+03  0.65998202975E+03  0.89928008317E+02 0.  0.
        254    2    1    2    0    0 -0.40701319498E+02  0.61334116265E+03 -0.54133866006E+03  0.12100527421E+04  0.89069417562E+03 0.  0.
        -24    2    4    4    0    0  0.25523139248E+02  0.75273143061E+03 -0.13687924632E+03  0.76989239028E+03  0.82111675638E+02 0.  0.
         24    2    4    4    0    0 -0.66224458746E+02 -0.13939026796E+03 -0.40445941375E+03  0.44016035178E+03  0.79614019945E+02 0.  0.
         11    1    3    3    0    0  0.65222759212E+02 -0.53406008566E+03 -0.18701908157E+03  0.56960540753E+03  0.00000000000E+00 0. -1.
        -11    1    3    3    0    0 -0.24521439714E+02 -0.79281076994E+02 -0.35793067346E+02  0.90376622226E+02  0.00000000000E+00 0.  1.
          4    1    6    6  502    0 -0.33877357087E+02 -0.44715670199E+02 -0.63055411654E+02  0.84398764347E+02  0.00000000000E+00 0. -1.
          3    1    5    5  503    0  0.17769317237E+02  0.52898709514E+02 -0.24933345786E+02  0.61120322605E+02  0.00000000000E+00 0. -1.
         -2    1    5    5    0  503  0.77538220112E+01  0.69983272110E+03 -0.11194590053E+03  0.70877206768E+03  0.00000000000E+00 0.  1.
         -3    1    6    6    0  502 -0.32347101659E+02 -0.94674597760E+02 -0.34140400209E+03  0.35576158743E+03  0.00000000000E+00 0.  1.
<mgrwt>
<rscale>  0 0.17067816E+04</rscale>
<asrwt>0</asrwt>
<pdfrwt beam="1">  1        2 0.20262966E+00 0.17067816E+04</pdfrwt>
<pdfrwt beam="2">  1       -2 0.85067997E-01 0.17067816E+04</pdfrwt>
<totfact> 0.18482126E+01</totfact>
</mgrwt>
</event>
<event>
12    1  0.1477245E-007  0.1673421E+04  0.7818608E-02  0.8776670E-01
         -2   -1    0    0    0  501 -0.00000000000E+00  0.00000000000E+00  0.14103111633E+03  0.14103111633E+03  0.00000000000E+00 0. -1.
          2   -1    0    0  501    0  0.00000000000E+00 -0.00000000000E+00 -0.49640440830E+04  0.49640440830E+04  0.00000000000E+00 0.  1.
         23    2    1    2    0    0  0.16990009884E+03 -0.31540732349E+03 -0.28251007683E+03  0.46522403288E+03  0.90959518273E+02 0.  0.
        254    2    1    2    0    0 -0.16990009884E+03  0.31540732349E+03 -0.45405028898E+04  0.46398511664E+04  0.88527087987E+03 0.  0.
        -24    2    4    4    0    0 -0.41230933832E+02  0.52589645613E+03 -0.15792242492E+04  0.16669578085E+04  0.80820996789E+02 0.  0.
         24    2    4    4    0    0 -0.12866916501E+03 -0.21048913264E+03 -0.29612786407E+04  0.29728933580E+04  0.89790318437E+02 0.  0.
         13    1    3    3    0    0  0.65796775009E+00 -0.36718046229E+02 -0.50008542525E+01  0.37062870689E+02  0.00000000000E+00 0.  1.
        -13    1    3    3    0    0  0.16924213109E+03 -0.27868927726E+03 -0.27750922257E+03  0.42816116219E+03  0.00000000000E+00 0. -1.
          2    1    6    6  502    0 -0.66038101466E+02 -0.32162374611E+02 -0.86083407847E+03  0.86396224446E+03  0.00000000000E+00 0. -1.
          3    1    5    5  503    0 -0.60016062744E+01  0.67143799691E+02 -0.12983853273E+03  0.14629543293E+03  0.00000000000E+00 0. -1.
         -4    1    5    5    0  503 -0.35229327558E+02  0.45875265643E+03 -0.14493857164E+04  0.15206623755E+04  0.00000000000E+00 0.  1.
         -1    1    6    6    0  502 -0.62631063542E+02 -0.17832675803E+03 -0.21004445622E+04  0.21089311135E+04  0.00000000000E+00 0.  1.
<mgrwt>
<rscale>  0 0.16734213E+04</rscale>
<asrwt>0</asrwt>
<pdfrwt beam="1">  1        2 0.76369890E+00 0.16734213E+04</pdfrwt>
<pdfrwt beam="2">  1       -2 0.21697100E-01 0.16734213E+04</pdfrwt>
<totfact> 0.69904666E-01</totfact>
</mgrwt>
</event>
<event>
12    1  0.1477245E-007  0.2554000E+04  0.7818608E-02  0.8383996E-01
         -2   -1    0    0    0  501 -0.00000000000E+00  0.00000000000E+00  0.17117134911E+04  0.17117134911E+04  0.00000000000E+00 0.  1.
          2   -1    0    0  501    0  0.00000000000E+00 -0.00000000000E+00 -0.95268788352E+03  0.95268788352E+03  0.00000000000E+00 0. -1.
         23    2    1    2    0    0 -0.39576739086E+03  0.25142811391E+03 -0.71996348427E+03  0.86402205944E+03  0.91316900872E+02 0.  0.
        254    2    1    2    0    0  0.39576739086E+03 -0.25142811391E+03  0.14789890919E+04  0.18003793152E+04  0.91329569177E+03 0.  0.
        -24    2    4    4    0    0  0.14536655937E+02 -0.88115675152E+02 -0.10492996340E+03  0.16109857708E+03  0.83467165672E+02 0.  0.
         24    2    4    4    0    0  0.38123073492E+03 -0.16331243876E+03  0.15839190553E+04  0.16392807381E+04  0.80211837079E+02 0.  0.
         13    1    3    3    0    0 -0.39930382597E+03  0.24512217161E+03 -0.69617472959E+03  0.83915891139E+03  0.00000000000E+00 0. -1.
        -13    1    3    3    0    0  0.35364351126E+01  0.63059422978E+01 -0.23788754677E+02  0.24863148044E+02  0.00000000000E+00 0.  1.
          4    1    6    6  502    0  0.32705790289E+02 -0.14946683123E+02  0.70033594827E+02  0.78725957976E+02  0.00000000000E+00 0. -1.
          3    1    5    5  503    0  0.21252640671E+02 -0.11286398215E+02  0.70999936068E+01  0.25089189492E+02  0.00000000000E+00 0. -1.
         -2    1    5    5    0  503 -0.67159847335E+01 -0.76829276937E+02 -0.11202995701E+03  0.13600938759E+03  0.00000000000E+00 0.  1.
         -3    1    6    6    0  502  0.34852494463E+03 -0.14836575564E+03  0.15138854605E+04  0.15605547802E+04  0.00000000000E+00 0.  1.
<mgrwt>
<rscale>  0 0.25539998E+04</rscale>
<asrwt>0</asrwt>
<pdfrwt beam="1">  1        2 0.14656737E+00 0.25539998E+04</pdfrwt>
<pdfrwt beam="2">  1       -2 0.26334054E+00 0.25539998E+04</pdfrwt>
<totfact> 0.12778753E+00</totfact>
</mgrwt>
</event>
<event>
12    1  0.1477245E-007  0.1273351E+04  0.7818608E-02  0.9050969E-01
          2   -1    0    0  501    0  0.00000000000E+00  0.00000000000E+00  0.36158430380E+04  0.36158430380E+04  0.00000000000E+00 0. -1.
         -2   -1    0    0    0  501 -0.00000000000E+00 -0.00000000000E+00 -0.11210537477E+03  0.11210537477E+03  0.00000000000E+00 0.  1.
         23    2    1    2    0    0  0.25268034532E+03  0.18042020292E+03  0.89120607799E+03  0.94822220671E+03  0.92077539739E+02 0.  0.
        254    2    1    2    0    0 -0.25268034532E+03 -0.18042020292E+03  0.26125315853E+04  0.27797262061E+04  0.89730579527E+03 0.  0.
        -24    2    4    4    0    0 -0.16937580775E+03  0.76708678516E+02  0.24416682857E+04  0.24500241285E+04  0.79384049461E+02 0.  0.
         24    2    4    4    0    0 -0.83304537566E+02 -0.25712888143E+03  0.17086329957E+03  0.32970207757E+03  0.80338565871E+02 0.  0.
         11    1    3    3    0    0  0.35464190014E+01  0.23551026626E+02  0.12807633721E+03  0.13027193134E+03  0.00000000000E+00 0.  1.
        -11    1    3    3    0    0  0.24913392632E+03  0.15686917629E+03  0.76312974079E+03  0.81795027537E+03  0.00000000000E+00 0. -1.
          4    1    6    6  502    0  0.15757764455E+02 -0.24704374075E+02  0.16667893229E+02  0.33711005677E+02  0.00000000000E+00 0. -1.
          3    1    5    5  503    0 -0.29957712711E+02  0.46952177210E+02  0.92325697569E+03  0.92493535701E+03  0.00000000000E+00 0. -1.
         -4    1    5    5    0  503 -0.13941809504E+03  0.29756501306E+02  0.15184113100E+04  0.15250887715E+04  0.00000000000E+00 0.  1.
         -3    1    6    6    0  502 -0.99062302021E+02 -0.23242450736E+03  0.15419540634E+03  0.29599107189E+03  0.00000000000E+00 0.  1.
<mgrwt>
<rscale>  0 0.12733506E+04</rscale>
<asrwt>0</asrwt>
<pdfrwt beam="1">  1        2 0.55628346E+00 0.12733506E+04</pdfrwt>
<pdfrwt beam="2">  1       -2 0.17246983E-01 0.12733506E+04</pdfrwt>
<totfact> 0.18725092E+01</totfact>
</mgrwt>
</event>
<event>
12    1  0.1477245E-007  0.2468007E+04  0.7818608E-02  0.8414472E-01
          2   -1    0    0  501    0  0.00000000000E+00  0.00000000000E+00  0.80996449190E+03  0.80996449190E+03  0.00000000000E+00 0. -1.
         -2   -1    0    0    0  501 -0.00000000000E+00 -0.00000000000E+00 -0.18800394332E+04  0.18800394332E+04  0.00000000000E+00 0.  1.
         23    2    1    2    0    0 -0.61165961042E+02  0.88713902101E+03 -0.11063845590E+04  0.14223899045E+04  0.91374670902E+02 0.  0.
        254    2    1    2    0    0  0.61165961042E+02 -0.88713902101E+03  0.36309617737E+02  0.12676140206E+04  0.90264610982E+03 0.  0.
        -24    2    4    4    0    0  0.26526435853E+03  0.59561460377E+02 -0.68897185554E+02  0.29021563088E+03  0.74602565387E+02 0.  0.
         24    2    4    4    0    0 -0.20409839748E+03 -0.94670048139E+03  0.10520680329E+03  0.97739838975E+03  0.79631548551E+02 0.  0.
         13    1    3    3    0    0 -0.21319706040E+02  0.19462204172E+03 -0.18757946383E+03  0.27114262712E+03  0.00000000000E+00 0. -1.
        -13    1    3    3    0    0 -0.39846255002E+02  0.69251697929E+03 -0.91880509521E+03  0.11512472774E+04  0.00000000000E+00 0.  1.
          4    1    6    6  502    0 -0.18944991316E+03 -0.73882182183E+03  0.96706138795E+02  0.76883095105E+03  0.00000000000E+00 0. -1.
          1    1    5    5  503    0  0.81471306091E+02  0.67253634626E+01 -0.54889260762E+02  0.98466416492E+02  0.00000000000E+00 0. -1.
         -2    1    5    5    0  503  0.18379305244E+03  0.52836096914E+02 -0.14007924792E+02  0.19174921439E+03  0.00000000000E+00 0.  1.
         -3    1    6    6    0  502 -0.14648484322E+02 -0.20787865955E+03  0.85006644954E+01  0.20856743871E+03  0.00000000000E+00 0.  1.
<mgrwt>
<rscale>  0 0.24680074E+04</rscale>
<asrwt>0</asrwt>
<pdfrwt beam="1">  1        2 0.12460992E+00 0.24680074E+04</pdfrwt>
<pdfrwt beam="2">  1       -2 0.28923684E+00 0.24680074E+04</pdfrwt>
<totfact> 0.11206645E+00</totfact>
</mgrwt>
</event>
<event>
12    1  0.1477245E-007  0.1974574E+04  0.7818608E-02  0.8618601E-01
          1   -1    0    0  501    0  0.00000000000E+00  0.00000000000E+00  0.14620247212E+04  0.14620247212E+04  0.00000000000E+00 0. -1.
         -1   -1    0    0    0  501 -0.00000000000E+00 -0.00000000000E+00 -0.66670249304E+03  0.66670249304E+03  0.00000000000E+00 0.  1.
         23    2    1    2    0    0  0.71185555015E+03  0.12693654351E+03  0.61550521970E+03  0.95382855195E+03  0.89950101031E+02 0.  0.
        254    2    1    2    0    0 -0.71185555015E+03 -0.12693654351E+03  0.17981700842E+03  0.11748986623E+04  0.90840602138E+03 0.  0.
        -24    2    4    4    0    0 -0.73231956612E+03  0.24812001179E+03  0.13589718334E+03  0.78895745259E+03  0.78296426350E+02 0.  0.
         24    2    4    4    0    0  0.20464015968E+02 -0.37505655529E+03  0.43919825081E+02  0.38594120967E+03  0.77042005847E+02 0.  0.
         13    1    3    3    0    0  0.50555704532E+03  0.49858902060E+02  0.41433867507E+03  0.65555348664E+03  0.00000000000E+00 0. -1.
        -13    1    3    3    0    0  0.20629850483E+03  0.77077641445E+02  0.20116654462E+03  0.29827506530E+03  0.00000000000E+00 0.  1.
          4    1    6    6  502    0 -0.19335698672E+02 -0.13334730379E+03 -0.10002361277E+02  0.13511261933E+03  0.00000000000E+00 0. -1.
          1    1    5    5  503    0 -0.19864032405E+02  0.22919185051E+01  0.16416786752E+02  0.25871674880E+02  0.00000000000E+00 0. -1.
         -2    1    5    5    0  503 -0.71245553372E+03  0.24582809328E+03  0.11948039659E+03  0.76308577771E+03  0.00000000000E+00 0.  1.
         -3    1    6    6    0  502  0.39799714640E+02 -0.24170925150E+03  0.53922186358E+02  0.25082859033E+03  0.00000000000E+00 0.  1.
<mgrwt>
<rscale>  0 0.19745739E+04</rscale>
<asrwt>0</asrwt>
<pdfrwt beam="1">  1        1 0.22492688E+00 0.19745739E+04</pdfrwt>
<pdfrwt beam="2">  1       -1 0.10256961E+00 0.19745739E+04</pdfrwt>
<totfact> 0.58099723E+00</totfact>
</mgrwt>
</event>
<event>
12    1  0.1477245E-007  0.1142643E+04  0.7818608E-02  0.9164597E-01
          2   -1    0    0  501    0  0.00000000000E+00  0.00000000000E+00  0.16453693013E+04  0.16453693013E+04  0.00000000000E+00 0. -1.
         -2   -1    0    0    0  501 -0.00000000000E+00 -0.00000000000E+00 -0.19838008070E+03  0.19838008070E+03  0.00000000000E+00 0.  1.
         23    2    1    2    0    0  0.63844224403E+02  0.12965833354E+03  0.49624357905E+03  0.52441237343E+03  0.88675132998E+02 0.  0.
        254    2    1    2    0    0 -0.63844224403E+02 -0.12965833354E+03  0.95074564150E+03  0.13193370085E+04  0.90324166134E+03 0.  0.
        -24    2    4    4    0    0  0.36692919501E+03  0.65252149676E+02  0.64978009297E+03  0.75320992380E+03  0.78842519640E+02 0.  0.
         24    2    4    4    0    0 -0.43077341941E+03 -0.19491048322E+03  0.30096554853E+03  0.56612708472E+03  0.79773299475E+02 0.  0.
         11    1    3    3    0    0  0.42544457463E+02  0.11825487129E+03  0.47770314596E+03  0.49395803577E+03  0.00000000000E+00 0. -1.
        -11    1    3    3    0    0  0.21299766940E+02  0.11403462253E+02  0.18540433092E+02  0.30454337660E+02  0.00000000000E+00 0.  1.
          2    1    6    6  502    0 -0.36447604891E+03 -0.13140119553E+03  0.23598996957E+03  0.45365221277E+03  0.00000000000E+00 0. -1.
          3    1    5    5  503    0  0.25802164827E+03  0.46437176487E+02  0.52292145625E+03  0.58496019672E+03  0.00000000000E+00 0. -1.
         -2    1    5    5    0  503  0.10890754674E+03  0.18814973190E+02  0.12685863672E+03  0.16824972708E+03  0.00000000000E+00 0.  1.
         -1    1    6    6    0  502 -0.66297370507E+02 -0.63509287690E+02  0.64975578951E+02  0.11247487195E+03  0.00000000000E+00 0.  1.
<mgrwt>
<rscale>  0 0.11426434E+04</rscale>
<asrwt>0</asrwt>
<pdfrwt beam="1">  1        2 0.25313373E+00 0.11426434E+04</pdfrwt>
<pdfrwt beam="2">  1       -2 0.30520013E-01 0.11426434E+04</pdfrwt>
<totfact> 0.10341309E+02</totfact>
</mgrwt>
</event>
<event>
12    1  0.1477245E-007  0.2704685E+04  0.7818608E-02  0.8333486E-01
          2   -1    0    0  501    0  0.00000000000E+00  0.00000000000E+00  0.13503024569E+04  0.13503024569E+04  0.00000000000E+00 0. -1.
         -2   -1    0    0    0  501 -0.00000000000E+00 -0.00000000000E+00 -0.13543859385E+04  0.13543859385E+04  0.00000000000E+00 0.  1.
         23    2    1    2    0    0  0.61249971854E+02  0.18625880331E+03 -0.11867483325E+04  0.12062464090E+04  0.90636050662E+02 0.  0.
        254    2    1    2    0    0 -0.61249971854E+02 -0.18625880331E+03  0.11826648509E+04  0.14984419864E+04  0.89899295673E+03 0.  0.
        -24    2    4    4    0    0  0.23653259438E+03  0.14352848089E+03  0.68237897305E+02  0.29605142985E+03  0.80261730988E+02 0.  0.
         24    2    4    4    0    0 -0.29778256623E+03 -0.32978728420E+03  0.11144269536E+04  0.12023905566E+04  0.79759049977E+02 0.  0.
         13    1    3    3    0    0  0.52963683980E+02  0.18258002433E+03 -0.11792668147E+04  0.11944918741E+04  0.00000000000E+00 0.  1.
        -13    1    3    3    0    0  0.82862878739E+01  0.36787789765E+01 -0.74815177941E+01  0.11754534869E+02  0.00000000000E+00 0. -1.
          2    1    6    6  502    0 -0.20719119099E+03 -0.24938251514E+03  0.89239898672E+03  0.94947131604E+03  0.00000000000E+00 0. -1.
          1    1    5    5  503    0  0.78087580741E+02  0.85412614450E+01  0.59342697473E+01  0.78777147515E+02  0.00000000000E+00 0. -1.
         -2    1    5    5    0  503  0.15844501363E+03  0.13498721945E+03  0.62303627557E+02  0.21727428234E+03  0.00000000000E+00 0.  1.
         -1    1    6    6    0  502 -0.90591375235E+02 -0.80404769059E+02  0.22202796688E+03  0.25291924053E+03  0.00000000000E+00 0.  1.
<mgrwt>
<rscale>  0 0.27046853E+04</rscale>
<asrwt>0</asrwt>
<pdfrwt beam="1">  1        2 0.20773884E+00 0.27046853E+04</pdfrwt>
<pdfrwt beam="2">  1       -2 0.20836707E+00 0.27046853E+04</pdfrwt>
<totfact> 0.15902243E+00</totfact>
</mgrwt>
</event>
<event>
12    1  0.1477245E-007  0.2522496E+04  0.7818608E-02  0.8395015E-01
          1   -1    0    0  501    0  0.00000000000E+00  0.00000000000E+00  0.22100803739E+04  0.22100803739E+04  0.00000000000E+00 0. -1.
         -1   -1    0    0    0  501 -0.00000000000E+00 -0.00000000000E+00 -0.71976847675E+03  0.71976847675E+03  0.00000000000E+00 0.  1.
         23    2    1    2    0    0 -0.58744781910E+03 -0.15481391500E+03 -0.35411539734E+03  0.70817277446E+03  0.83956389892E+02 0.  0.
        254    2    1    2    0    0  0.58744781910E+03  0.15481391500E+03  0.18444272945E+04  0.22216760762E+04  0.10792915521E+04 0.  0.
        -24    2    4    4    0    0 -0.15744801328E+03 -0.15369358739E+03  0.10884723318E+04  0.11133526875E+04  0.79816001102E+02 0.  0.
         24    2    4    4    0    0  0.74489583238E+03  0.30850750239E+03  0.75595496271E+03  0.11083233887E+04  0.82862223603E+02 0.  0.
         13    1    3    3    0    0 -0.40982011997E+03 -0.81070515240E+02 -0.27534665031E+03  0.50034062099E+03  0.00000000000E+00 0.  1.
        -13    1    3    3    0    0 -0.17762769913E+03 -0.73743399761E+02 -0.78768747032E+02  0.20783215347E+03  0.00000000000E+00 0. -1.
          4    1    6    6  502    0  0.16281379878E+03  0.40397659507E+02  0.18856908471E+03  0.25238582305E+03  0.00000000000E+00 0. -1.
          1    1    5    5  503    0 -0.82369736853E+02 -0.33583485798E+02  0.33063036545E+03  0.34238729916E+03  0.00000000000E+00 0. -1.
         -2    1    5    5    0  503 -0.75078276424E+02 -0.12011010160E+03  0.75784196634E+03  0.77096538836E+03  0.00000000000E+00 0.  1.
         -3    1    6    6    0  502  0.58208203360E+03  0.26810984289E+03  0.56738587800E+03  0.85593756562E+03  0.00000000000E+00 0.  1.
<mgrwt>
<rscale>  0 0.25224957E+04</rscale>
<asrwt>0</asrwt>
<pdfrwt beam="1">  1        1 0.34001236E+00 0.25224957E+04</pdfrwt>
<pdfrwt beam="2">  1       -1 0.11073361E+00 0.25224957E+04</pdfrwt>
<totfact> 0.14279513E+00</totfact>
</mgrwt>
</event>
<event>
12    1  0.1477245E-007  0.1522729E+04  0.7818608E-02  0.8869477E-01
         -1   -1    0    0    0  501 -0.00000000000E+00  0.00000000000E+00  0.13492510570E+04  0.13492510570E+04  0.00000000000E+00 0.  1.
          1   -1    0    0  501    0  0.00000000000E+00 -0.00000000000E+00 -0.42962800762E+03  0.42962800762E+03  0.00000000000E+00 0. -1.
         23    2    1    2    0    0 -0.45753029824E+03  0.16790877945E+03  0.23937990552E+03  0.55051954884E+03  0.90783822761E+02 0.  0.
        254    2    1    2    0    0  0.45753029824E+03 -0.16790877945E+03  0.68024314384E+03  0.12283595158E+04  0.89922690862E+03 0.  0.
        -24    2    4    4    0    0  0.68943327565E+03 -0.63286661125E+01  0.32238306565E+03  0.76522078487E+03  0.79206786323E+02 0.  0.
         24    2    4    4    0    0 -0.23190297741E+03 -0.16158011334E+03  0.35786007818E+03  0.46313873088E+03  0.80910595878E+02 0.  0.
         13    1    3    3    0    0 -0.36284510407E+03  0.13134812731E+03  0.14594774296E+03  0.41256471464E+03  0.00000000000E+00 0. -1.
        -13    1    3    3    0    0 -0.94685194169E+02  0.36560652136E+02  0.93432162556E+02  0.13795483420E+03  0.00000000000E+00 0.  1.
          2    1    6    6  502    0 -0.21641690570E+03 -0.11854646067E+03  0.28358710535E+03  0.37591380227E+03  0.00000000000E+00 0. -1.
          3    1    5    5  503    0  0.50046072697E+03  0.27711613754E+02  0.24891453472E+03  0.55963141296E+03  0.00000000000E+00 0. -1.
         -4    1    5    5    0  503  0.18897254868E+03 -0.34040279866E+02  0.73468530935E+02  0.20558937192E+03  0.00000000000E+00 0.  1.
         -1    1    6    6    0  502 -0.15486071709E+02 -0.43033652666E+02  0.74272972827E+02  0.87224928612E+02  0.00000000000E+00 0.  1.
<mgrwt>
<rscale>  0 0.15227292E+04</rscale>
<asrwt>0</asrwt>
<pdfrwt beam="1">  1        1 0.66096617E-01 0.15227292E+04</pdfrwt>
<pdfrwt beam="2">  1       -1 0.20757708E+00 0.15227292E+04</pdfrwt>
<totfact> 0.70278010E+00</totfact>
</mgrwt>
</event>
<event>
12    1  0.1477245E-007  0.2651667E+04  0.7818608E-02  0.8350860E-01
          2   -1    0    0  501    0  0.00000000000E+00  0.00000000000E+00  0.99697017960E+03  0.99697017960E+03  0.00000000000E+00 0. -1.
         -2   -1    0    0    0  501 -0.00000000000E+00 -0.00000000000E+00 -0.17631763977E+04  0.17631763977E+04  0.00000000000E+00 0.  1.
         23    2    1    2    0    0  0.87812730951E+02  0.27879785821E+03 -0.15218938615E+04  0.15524186384E+04  0.91669960917E+02 0.  0.
        254    2    1    2    0    0 -0.87812730951E+02 -0.27879785821E+03  0.75568764338E+03  0.12077279389E+04  0.89560238869E+03 0.  0.
        -24    2    4    4    0    0 -0.32892908414E+03  0.76281998835E+02  0.68207503691E+03  0.76519853364E+03  0.79304187640E+02 0.  0.
         24    2    4    4    0    0  0.24111635319E+03 -0.35507985705E+03  0.73612606468E+02  0.44252940527E+03  0.78706149999E+02 0.  0.
         11    1    3    3    0    0  0.62122197903E+02  0.22472101900E+03 -0.13593543909E+04  0.13792037789E+04  0.00000000000E+00 0.  1.
        -11    1    3    3    0    0  0.25690533049E+02  0.54076839211E+02 -0.16253947057E+03  0.17321485941E+03  0.00000000000E+00 0. -1.
          4    1    6    6  502    0  0.31617564483E+02 -0.44389829849E+02 -0.16843302155E+02  0.57042301894E+02  0.00000000000E+00 0. -1.
          3    1    5    5  503    0 -0.58345675822E+02 -0.16668112700E+02  0.11387638617E+03  0.12903439540E+03  0.00000000000E+00 0. -1.
         -4    1    5    5    0  503 -0.27058340832E+03  0.92950111535E+02  0.56819865074E+03  0.63616413825E+03  0.00000000000E+00 0.  1.
         -1    1    6    6    0  502  0.20949878870E+03 -0.31069002720E+03  0.90455908623E+02  0.38548710338E+03  0.00000000000E+00 0.  1.
<mgrwt>
<rscale>  0 0.26516669E+04</rscale>
<asrwt>0</asrwt>
<pdfrwt beam="1">  1        2 0.15338003E+00 0.26516669E+04</pdfrwt>
<pdfrwt beam="2">  1       -2 0.27125790E+00 0.26516669E+04</pdfrwt>
<totfact> 0.10611394E+00</totfact>
</mgrwt>
</event>
<event>
12    1  0.1477245E-007  0.1398181E+04  0.7818608E-02  0.8955136E-01
          1   -1    0    0  501    0  0.00000000000E+00  0.00000000000E+00  0.26950806222E+04  0.26950806222E+04  0.00000000000E+00 0. -1.
         -1   -1    0    0    0  501 -0.00000000000E+00 -0.00000000000E+00 -0.18134062712E+03  0.18134062712E+03  0.00000000000E+00 0.  1.
         23    2    1    2    0    0  0.61889833326E+02  0.98144557585E+02  0.15488524171E+04  0.15557093354E+04  0.88459147397E+02 0.  0.
        254    2    1    2    0    0 -0.61889833326E+02 -0.98144557585E+02  0.96488757801E+03  0.13207119139E+04  0.89432053297E+03 0.  0.
        -24    2    4    4    0    0  0.39964454081E+03  0.99567833714E+01  0.55099132306E+03  0.68536806323E+03  0.79517592226E+02 0.  0.
         24    2    4    4    0    0 -0.46153437414E+03 -0.10810134096E+03  0.41389625495E+03  0.63534385068E+03  0.87474683808E+02 0.  0.
         13    1    3    3    0    0  0.32160725029E+02 -0.13290155232E+01  0.17470335802E+03  0.17764386232E+03  0.00000000000E+00 0.  1.
        -13    1    3    3    0    0  0.29729108297E+02  0.99473573109E+02  0.13741490591E+04  0.13780654731E+04  0.00000000000E+00 0. -1.
          4    1    6    6  502    0 -0.90573637476E+02  0.91057300213E+01  0.10203232846E+03  0.13673731815E+03  0.00000000000E+00 0. -1.
          1    1    5    5  503    0  0.92237083046E+01 -0.79942883002E+01  0.41375721109E+02  0.43138564390E+02  0.00000000000E+00 0. -1.
         -2    1    5    5    0  503  0.39042083251E+03  0.17951071672E+02  0.50961560195E+03  0.64222949884E+03  0.00000000000E+00 0.  1.
         -3    1    6    6    0  502 -0.37096073666E+03 -0.11720707098E+03  0.31186392649E+03  0.49860653252E+03  0.00000000000E+00 0.  1.
<mgrwt>
<rscale>  0 0.13981811E+04</rscale>
<asrwt>0</asrwt>
<pdfrwt beam="1">  1        1 0.41462776E+00 0.13981811E+04</pdfrwt>
<pdfrwt beam="2">  1       -1 0.27898560E-01 0.13981811E+04</pdfrwt>
<totfact> 0.11234270E+01</totfact>
</mgrwt>
</event>
<event>
12    1  0.1477245E-007  0.1620187E+04  0.7818608E-02  0.8808242E-01
         -2   -1    0    0    0  501 -0.00000000000E+00  0.00000000000E+00  0.20915785127E+03  0.20915785127E+03  0.00000000000E+00 0.  1.
          2   -1    0    0  501    0  0.00000000000E+00 -0.00000000000E+00 -0.31375885490E+04  0.31375885490E+04  0.00000000000E+00 0. -1.
         23    2    1    2    0    0 -0.12308026380E+03 -0.53128892171E+03 -0.85029569184E+03  0.10142299093E+04  0.90790284151E+02 0.  0.
        254    2    1    2    0    0  0.12308026380E+03  0.53128892171E+03 -0.20781350059E+04  0.23325164910E+04  0.90805914361E+03 0.  0.
        -24    2    4    4    0    0  0.21406488027E+03  0.49953819901E+03 -0.21274577056E+04  0.21972897700E+04  0.81509870037E+02 0.  0.
         24    2    4    4    0    0 -0.90984616475E+02  0.31750722702E+02  0.49322699750E+02  0.13522672095E+03  0.81038438546E+02 0.  0.
         13    1    3    3    0    0 -0.50450432365E+02 -0.36628479568E+03 -0.52186360116E+03  0.63957127506E+03  0.00000000000E+00 0. -1.
        -13    1    3    3    0    0 -0.72629831433E+02 -0.16500412603E+03 -0.32843209069E+03  0.37465863424E+03  0.00000000000E+00 0.  1.
          2    1    6    6  502    0 -0.94797806917E+02  0.10913292025E+02  0.17526346784E+02  0.97020085398E+02  0.00000000000E+00 0. -1.
          1    1    5    5  503    0  0.10444459105E+03  0.19557505375E+03 -0.72807691690E+03  0.76108755815E+03  0.00000000000E+00 0. -1.
         -2    1    5    5    0  503  0.10962028923E+03  0.30396314525E+03 -0.13993807887E+04  0.14362022119E+04  0.00000000000E+00 0.  1.
         -1    1    6    6    0  502  0.38131904415E+01  0.20837430678E+02  0.31796352965E+02  0.38206635556E+02  0.00000000000E+00 0.  1.
<mgrwt>
<rscale>  0 0.16201868E+04</rscale>
<asrwt>0</asrwt>
<pdfrwt beam="1">  1        2 0.48270591E+00 0.16201868E+04</pdfrwt>
<pdfrwt beam="2">  1       -2 0.32178133E-01 0.16201868E+04</pdfrwt>
<totfact> 0.12339049E+01</totfact>
</mgrwt>
</event>
<event>
12    1  0.1477245E-007  0.1700219E+04  0.7818608E-02  0.8761240E-01
          2   -1    0    0  501    0  0.00000000000E+00  0.00000000000E+00  0.26566814415E+04  0.26566814415E+04  0.00000000000E+00 0. -1.
         -2   -1    0    0    0  501 -0.00000000000E+00 -0.00000000000E+00 -0.27202584234E+03  0.27202584234E+03  0.00000000000E+00 0.  1.
         23    2    1    2    0    0  0.43919221216E+02  0.44047490480E+03  0.15052929689E+04  0.15717563612E+04  0.92542407029E+02 0.  0.
        254    2    1    2    0    0 -0.43919221216E+02 -0.44047490480E+03  0.87936263026E+03  0.13569509226E+04  0.93385766106E+03 0.  0.
        -24    2    4    4    0    0 -0.26968753078E+03  0.19724440469E+03  0.21549094786E+03  0.40566762207E+03  0.80580094024E+02 0.  0.
         24    2    4    4    0    0  0.22576830956E+03 -0.63771930948E+03  0.66387168241E+03  0.95128330054E+03  0.80975674725E+02 0.  0.
         13    1    3    3    0    0  0.20135512766E+02  0.11224870051E+03  0.26394184969E+03  0.28752479834E+03  0.00000000000E+00 0.  1.
        -13    1    3    3    0    0  0.23783708449E+02  0.32822620429E+03  0.12413511192E+04  0.12842315629E+04  0.00000000000E+00 0. -1.
          4    1    6    6  502    0  0.12024203562E+03 -0.45044009192E+03  0.44484014711E+03  0.64438899744E+03  0.00000000000E+00 0. -1.
          3    1    5    5  503    0 -0.23281768093E+03  0.17906268281E+03  0.15382824385E+03  0.33155790676E+03  0.00000000000E+00 0. -1.
         -2    1    5    5    0  503 -0.36869849849E+02  0.18181721875E+02  0.61662704010E+02  0.74109715315E+02  0.00000000000E+00 0.  1.
         -3    1    6    6    0  502  0.10552627394E+03 -0.18727921757E+03  0.21903153529E+03  0.30689430310E+03  0.00000000000E+00 0.  1.
<mgrwt>
<rscale>  0 0.17002188E+04</rscale>
<asrwt>0</asrwt>
<pdfrwt beam="1">  1        2 0.40872020E+00 0.17002188E+04</pdfrwt>
<pdfrwt beam="2">  1       -2 0.41850131E-01 0.17002188E+04</pdfrwt>
<totfact> 0.14542073E+01</totfact>
</mgrwt>
</event>
<event>
12    1  0.1477245E-007  0.1108767E+04  0.7818608E-02  0.9196689E-01
          1   -1    0    0  501    0  0.00000000000E+00  0.00000000000E+00  0.13255699661E+04  0.13255699661E+04  0.00000000000E+00 0. -1.
         -1   -1    0    0    0  501 -0.00000000000E+00 -0.00000000000E+00 -0.23185578566E+03  0.23185578566E+03  0.00000000000E+00 0.  1.
         23    2    1    2    0    0 -0.11864209784E+03  0.57435555924E+02  0.50693315247E+02  0.16812966247E+03  0.91230371740E+02 0.  0.
        254    2    1    2    0    0  0.11864209784E+03 -0.57435555924E+02  0.10430208652E+04  0.13892960893E+04  0.90822701349E+03 0.  0.
        -24    2    4    4    0    0  0.16972757471E+03 -0.16868550355E+03  0.11688084152E+04  0.11961731786E+04  0.86341838732E+02 0.  0.
         24    2    4    4    0    0 -0.51085476867E+02  0.11124994762E+03 -0.12578755000E+03  0.19312291066E+03  0.80546099189E+02 0.  0.
         11    1    3    3    0    0 -0.78653993946E+02  0.47711964999E+02 -0.12374688101E+02  0.92822493359E+02  0.00000000000E+00 0.  1.
        -11    1    3    3    0    0 -0.39988103896E+02  0.97235909251E+01  0.63068003348E+02  0.75307169114E+02  0.00000000000E+00 0. -1.
          2    1    6    6  502    0 -0.17114192182E+02  0.32793609865E+02 -0.95512704281E+02  0.10242554906E+03  0.00000000000E+00 0. -1.
          1    1    5    5  503    0  0.11804524328E+03 -0.15284675487E+03  0.77637112336E+03  0.80003058137E+03  0.00000000000E+00 0. -1.
         -2    1    5    5    0  503  0.51682331425E+02 -0.15838748673E+02  0.39243729183E+03  0.39614259726E+03  0.00000000000E+00 0.  1.
         -1    1    6    6    0  502 -0.33971284685E+02  0.78456337759E+02 -0.30274845722E+02  0.90697361599E+02  0.00000000000E+00 0.  1.
<mgrwt>
<rscale>  0 0.11087670E+04</rscale>
<asrwt>0</asrwt>
<pdfrwt beam="1">  1        1 0.20393384E+00 0.11087670E+04</pdfrwt>
<pdfrwt beam="2">  1       -1 0.35670122E-01 0.11087670E+04</pdfrwt>
<totfact> 0.64740236E+01</totfact>
</mgrwt>
</event>
<event>
12    1  0.1477245E-007  0.2193712E+04  0.7818608E-02  0.8521050E-01
         -2   -1    0    0    0  501 -0.00000000000E+00  0.00000000000E+00  0.40665364497E+03  0.40665364497E+03  0.00000000000E+00 0. -1.
          2   -1    0    0  501    0  0.00000000000E+00 -0.00000000000E+00 -0.29585194607E+04  0.29585194607E+04  0.00000000000E+00 0.  1.
         23    2    1    2    0    0  0.85127027934E+03 -0.32016967193E+03 -0.10398811212E+04  0.13845038820E+04  0.91260865866E+02 0.  0.
        254    2    1    2    0    0 -0.85127027934E+03  0.32016967193E+03 -0.15119846945E+04  0.19806692236E+04  0.89987951967E+03 0.  0.
        -24    2    4    4    0    0 -0.34785379423E+03 -0.30728415548E+03 -0.56992959410E+03  0.73944991760E+03  0.80874124654E+02 0.  0.
         24    2    4    4    0    0 -0.50341648511E+03  0.62745382741E+03 -0.94205510035E+03  0.12412193060E+04  0.77660096529E+02 0.  0.
         13    1    3    3    0    0  0.60180168845E+02 -0.12404849550E+02 -0.10575466196E+03  0.12230936817E+03  0.00000000000E+00 0. -1.
        -13    1    3    3    0    0  0.79109011050E+03 -0.30776482238E+03 -0.93412645928E+03  0.12621945138E+04  0.00000000000E+00 0.  1.
          4    1    6    6  502    0 -0.14375954179E+03  0.14800490398E+03 -0.20006995890E+03  0.28740258508E+03  0.00000000000E+00 0. -1.
          3    1    5    5  503    0 -0.62308680071E+02 -0.81583878024E+02 -0.17085287921E+03  0.19932136639E+03  0.00000000000E+00 0. -1.
         -4    1    5    5    0  503 -0.28554511416E+03 -0.22570027745E+03 -0.39907671489E+03  0.54012855121E+03  0.00000000000E+00 0.  1.
         -3    1    6    6    0  502 -0.35965694332E+03  0.47944892343E+03 -0.74198514145E+03  0.95381672096E+03  0.00000000000E+00 0.  1.
<mgrwt>
<rscale>  0 0.21937117E+04</rscale>
<asrwt>0</asrwt>
<pdfrwt beam="1">  1        2 0.45515683E+00 0.21937117E+04</pdfrwt>
<pdfrwt beam="2">  1       -2 0.62562100E-01 0.21937117E+04</pdfrwt>
<totfact> 0.40097337E+00</totfact>
</mgrwt>
</event>
<event>
12    1  0.1477245E-007  0.1474941E+04  0.7818608E-02  0.8901290E-01
          1   -1    0    0  501    0  0.00000000000E+00  0.00000000000E+00  0.17998599389E+04  0.17998599389E+04  0.00000000000E+00 0. -1.
         -1   -1    0    0    0  501 -0.00000000000E+00 -0.00000000000E+00 -0.30216953770E+03  0.30216953770E+03  0.00000000000E+00 0.  1.
         23    2    1    2    0    0 -0.29033477341E+03  0.35687974495E+03  0.53459998755E+03  0.71125245663E+03  0.91790399050E+02 0.  0.
        254    2    1    2    0    0  0.29033477341E+03 -0.35687974495E+03  0.96309041368E+03  0.13907770200E+04  0.89166145000E+03 0.  0.
        -24    2    4    4    0    0  0.30491532022E+03  0.35744233050E+02  0.93641393844E+03  0.98860879692E+03  0.78900485006E+02 0.  0.
         24    2    4    4    0    0 -0.14580546803E+02 -0.39262397800E+03  0.26676475234E+02  0.40216822308E+03  0.81617797528E+02 0.  0.
         13    1    3    3    0    0 -0.88417517932E+02  0.60760904045E+02  0.16156449607E+03  0.19393976211E+03  0.00000000000E+00 0. -1.
        -13    1    3    3    0    0 -0.20191725548E+03  0.29611884091E+03  0.37303549148E+03  0.51731269451E+03  0.00000000000E+00 0.  1.
          2    1    6    6  502    0 -0.23234710938E+02 -0.28365656797E+03  0.53555181626E+02  0.28960155011E+03  0.00000000000E+00 0. -1.
          1    1    5    5  503    0  0.24797068508E+03  0.47442129913E+02  0.67153730190E+03  0.71742774145E+03  0.00000000000E+00 0. -1.
         -2    1    5    5    0  503  0.56944635135E+02 -0.11697896863E+02  0.26487663654E+03  0.27118105547E+03  0.00000000000E+00 0.  1.
         -1    1    6    6    0  502  0.86541641356E+01 -0.10896741003E+03 -0.26878706392E+02  0.11256667297E+03  0.00000000000E+00 0.  1.
<mgrwt>
<rscale>  0 0.14749411E+04</rscale>
<asrwt>0</asrwt>
<pdfrwt beam="1">  1        1 0.27690152E+00 0.14749411E+04</pdfrwt>
<pdfrwt beam="2">  1       -1 0.46487622E-01 0.14749411E+04</pdfrwt>
<totfact> 0.18203451E+01</totfact>
</mgrwt>
</event>
<event>
12    1  0.1477245E-007  0.2186920E+04  0.7818608E-02  0.8523892E-01
          1   -1    0    0  501    0  0.00000000000E+00  0.00000000000E+00  0.22455460852E+04  0.22455460852E+04  0.00000000000E+00 0. -1.
         -1   -1    0    0    0  501 -0.00000000000E+00 -0.00000000000E+00 -0.53245621835E+03  0.53245621835E+03  0.00000000000E+00 0.  1.
         23    2    1    2    0    0  0.22058705305E+03  0.40725567410E+03 -0.27539406564E+03  0.54697742725E+03  0.93949893425E+02 0.  0.
        254    2    1    2    0    0 -0.22058705305E+03 -0.40725567410E+03  0.19884839325E+04  0.22310248763E+04  0.89938190823E+03 0.  0.
        -24    2    4    4    0    0 -0.32621857380E+03 -0.49660930605E+03  0.65643451679E+03  0.88910667500E+03  0.81024958743E+02 0.  0.
         24    2    4    4    0    0  0.10563152075E+03  0.89353631957E+02  0.13320494157E+04  0.13419182013E+04  0.85127688868E+02 0.  0.
         13    1    3    3    0    0 -0.20489368334E+00 -0.33655463867E+01 -0.99137339455E+01  0.10471437563E+02  0.00000000000E+00 0. -1.
        -13    1    3    3    0    0  0.22079194673E+03  0.41062122048E+03 -0.26548033170E+03  0.53650598969E+03  0.00000000000E+00 0.  1.
          4    1    6    6  502    0  0.97026377756E+02  0.10339576411E+03  0.12628904034E+04  0.12708253118E+04  0.00000000000E+00 0. -1.
          3    1    5    5  503    0 -0.10652525662E+03 -0.21708084906E+03  0.30466801181E+03  0.38896570896E+03  0.00000000000E+00 0. -1.
         -4    1    5    5    0  503 -0.21969331718E+03 -0.27952845699E+03  0.35176650498E+03  0.50014096603E+03  0.00000000000E+00 0.  1.
         -1    1    6    6    0  502  0.86051429980E+01 -0.14042132152E+02  0.69159012260E+02  0.71092889505E+02  0.00000000000E+00 0.  1.
<mgrwt>
<rscale>  0 0.21869202E+04</rscale>
<asrwt>0</asrwt>
<pdfrwt beam="1">  1        1 0.34546862E+00 0.21869202E+04</pdfrwt>
<pdfrwt beam="2">  1       -1 0.81916342E-01 0.21869202E+04</pdfrwt>
<totfact> 0.27444422E+00</totfact>
</mgrwt>
</event>
<event>
12    1  0.1477245E-007  0.1594016E+04  0.7818608E-02  0.8824232E-01
         -2   -1    0    0    0  501 -0.00000000000E+00  0.00000000000E+00  0.37347915312E+03  0.37347915312E+03  0.00000000000E+00 0. -1.
          2   -1    0    0  501    0  0.00000000000E+00 -0.00000000000E+00 -0.17008232507E+04  0.17008232507E+04  0.00000000000E+00 0.  1.
         23    2    1    2    0    0  0.97661587102E+02 -0.22395899598E+03 -0.10464777799E+04  0.10785916359E+04  0.92459481452E+02 0.  0.
        254    2    1    2    0    0 -0.97661587102E+02  0.22395899598E+03 -0.28086631761E+03  0.99571076786E+03  0.92350345283E+03 0.  0.
        -24    2    4    4    0    0 -0.80435379164E+02  0.52804958928E+03  0.46314657526E+02  0.54194410771E+03  0.79070534493E+02 0.  0.
         24    2    4    4    0    0 -0.17226207939E+02 -0.30409059330E+03 -0.32718097514E+03  0.45376666014E+03  0.78031789635E+02 0.  0.
         11    1    3    3    0    0 -0.13397830444E+02 -0.47483147556E+01 -0.86511067223E+02  0.87671050556E+02  0.00000000000E+00 0. -1.
        -11    1    3    3    0    0  0.11105941755E+03 -0.21921068122E+03 -0.95996671270E+03  0.99092058536E+03  0.00000000000E+00 0.  1.
          2    1    6    6  502    0  0.51816479463E+01 -0.23685506122E+03 -0.28752250165E+03  0.37255383297E+03  0.00000000000E+00 0. -1.
          1    1    5    5  503    0 -0.92682144231E+02  0.50442008291E+03  0.39011568719E+02  0.51434570319E+03  0.00000000000E+00 0. -1.
         -2    1    5    5    0  503  0.12246765067E+02  0.23629506374E+02  0.73030888066E+01  0.27598404523E+02  0.00000000000E+00 0.  1.
         -1    1    6    6    0  502 -0.22407855885E+02 -0.67235532075E+02 -0.39658473485E+02  0.81212827176E+02  0.00000000000E+00 0.  1.
<mgrwt>
<rscale>  0 0.15940163E+04</rscale>
<asrwt>0</asrwt>
<pdfrwt beam="1">  1        2 0.26166512E+00 0.15940163E+04</pdfrwt>
<pdfrwt beam="2">  1       -2 0.57458330E-01 0.15940163E+04</pdfrwt>
<totfact> 0.26663928E+01</totfact>
</mgrwt>
</event>
<event>
12    1  0.1477245E-007  0.2391530E+04  0.7818608E-02  0.8442681E-01
         -2   -1    0    0    0  501 -0.00000000000E+00  0.00000000000E+00  0.48289770443E+03  0.48289770443E+03  0.00000000000E+00 0.  1.
          2   -1    0    0  501    0  0.00000000000E+00 -0.00000000000E+00 -0.29609867074E+04  0.29609867074E+04  0.00000000000E+00 0. -1.
         23    2    1    2    0    0  0.94230519965E+03 -0.37270276357E+03 -0.11651692797E+04  0.15466259684E+04  0.87097627230E+02 0.  0.
        254    2    1    2    0    0 -0.94230519965E+03  0.37270276357E+03 -0.13129197233E+04  0.18972584434E+04  0.92140379962E+03 0.  0.
        -24    2    4    4    0    0 -0.95920681239E+03  0.59272816951E+03 -0.10260263264E+04  0.15265826263E+04  0.79499059911E+02 0.  0.
         24    2    4    4    0    0  0.16901612741E+02 -0.22002540593E+03 -0.28689339685E+03  0.37067581709E+03  0.79974348683E+02 0.  0.
         13    1    3    3    0    0  0.46161558317E+03 -0.17126313220E+03 -0.63036134882E+03  0.79985963592E+03  0.00000000000E+00 0. -1.
        -13    1    3    3    0    0  0.48068961648E+03 -0.20143963137E+03 -0.53480793085E+03  0.74676633251E+03  0.00000000000E+00 0.  1.
          2    1    6    6  502    0  0.62948299769E+01  0.51449381427E+01 -0.43278334987E+01  0.92100714288E+01  0.00000000000E+00 0. -1.
          1    1    5    5  503    0 -0.49586853314E+03  0.35291592416E+03 -0.55571400190E+03  0.82416824957E+03  0.00000000000E+00 0. -1.
         -2    1    5    5    0  503 -0.46333827925E+03  0.23981224535E+03 -0.47031232454E+03  0.70241437674E+03  0.00000000000E+00 0.  1.
         -1    1    6    6    0  502  0.10606782764E+02 -0.22517034408E+03 -0.28256556336E+03  0.36146574566E+03  0.00000000000E+00 0.  1.
<mgrwt>
<rscale>  0 0.23915298E+04</rscale>
<asrwt>0</asrwt>
<pdfrwt beam="1">  1        2 0.45553643E+00 0.23915298E+04</pdfrwt>
<pdfrwt beam="2">  1       -2 0.74291953E-01 0.23915298E+04</pdfrwt>
<totfact> 0.27037142E+00</totfact>
</mgrwt>
</event>
<event>
12    1  0.1477245E-007  0.1918885E+04  0.7818608E-02  0.8645513E-01
         -2   -1    0    0    0  501 -0.00000000000E+00  0.00000000000E+00  0.18584847970E+04  0.18584847970E+04  0.00000000000E+00 0. -1.
          2   -1    0    0  501    0  0.00000000000E+00 -0.00000000000E+00 -0.49531221897E+03  0.49531221897E+03  0.00000000000E+00 0.  1.
         23    2    1    2    0    0  0.54761470838E+03 -0.45625827247E+03  0.26037204603E+03  0.76443959496E+03  0.92308244242E+02 0.  0.
        254    2    1    2    0    0 -0.54761470838E+03  0.45625827247E+03  0.11028005320E+04  0.15893574210E+04  0.89545213066E+03 0.  0.
        -24    2    4    4    0    0 -0.81499379236E+02 -0.23884394622E+03  0.10597325123E+03  0.28534762260E+03  0.80649589495E+02 0.  0.
         24    2    4    4    0    0 -0.46611532915E+03  0.69510221868E+03  0.99682728076E+03  0.13040097984E+04  0.79663870056E+02 0.  0.
         13    1    3    3    0    0  0.14338917523E+03 -0.17350546277E+03  0.70712932961E+02  0.23593414350E+03  0.00000000000E+00 0. -1.
        -13    1    3    3    0    0  0.40422553316E+03 -0.28275280970E+03  0.18965911306E+03  0.52850545146E+03  0.00000000000E+00 0.  1.
          4    1    6    6  502    0 -0.45145446921E+03  0.67099267191E+03  0.98194722542E+03  0.12721095303E+04  0.00000000000E+00 0. -1.
          1    1    5    5  503    0 -0.64413508198E+02 -0.16437073608E+03  0.32818679048E+02  0.17956587820E+03  0.00000000000E+00 0. -1.
         -2    1    5    5    0  503 -0.17085871038E+02 -0.74473210136E+02  0.73154572187E+02  0.10578174440E+03  0.00000000000E+00 0.  1.
         -3    1    6    6    0  502 -0.14660859940E+02  0.24109546771E+02  0.14880055349E+02  0.31900268132E+02  0.00000000000E+00 0.  1.
<mgrwt>
<rscale>  0 0.19188853E+04</rscale>
<asrwt>0</asrwt>
<pdfrwt beam="1">  1        2 0.76201881E-01 0.19188853E+04</pdfrwt>
<pdfrwt beam="2">  1       -2 0.28592073E+00 0.19188853E+04</pdfrwt>
<totfact> 0.22579433E+00</totfact>
</mgrwt>
</event>
<event>
12    1  0.1477245E-007  0.1483575E+04  0.7818608E-02  0.8895449E-01
          2   -1    0    0  501    0  0.00000000000E+00  0.00000000000E+00  0.22360649616E+04  0.22360649616E+04  0.00000000000E+00 0. -1.
         -2   -1    0    0    0  501 -0.00000000000E+00 -0.00000000000E+00 -0.24607904584E+03  0.24607904584E+03  0.00000000000E+00 0.  1.
         23    2    1    2    0    0 -0.11656582615E+03  0.20698316274E+03 -0.27384516242E+02  0.25572207466E+03  0.90632479019E+02 0.  0.
        254    2    1    2    0    0  0.11656582615E+03 -0.20698316274E+03  0.20173704320E+04  0.22264219328E+04  0.91145024076E+03 0.  0.
        -24    2    4    4    0    0 -0.20564936364E+03 -0.29118925812E+03  0.17623172979E+04  0.17997791093E+04  0.79747970291E+02 0.  0.
         24    2    4    4    0    0  0.32221518979E+03  0.84206095378E+02  0.25505313404E+03  0.42664282349E+03  0.77837668391E+02 0.  0.
         11    1    3    3    0    0 -0.97545702014E+02  0.21024752517E+03 -0.36061992441E+02  0.23456268484E+03  0.00000000000E+00 0.  1.
        -11    1    3    3    0    0 -0.19020124133E+02 -0.32643624290E+01  0.86774761995E+01  0.21159389814E+02  0.00000000000E+00 0. -1.
          4    1    6    6  502    0  0.11711302535E+03  0.16492701033E+02  0.48635782973E+02  0.12787849421E+03  0.00000000000E+00 0. -1.
          3    1    5    5  503    0 -0.16564327146E+02  0.17195841656E+01  0.82554125841E+02  0.84217086134E+02  0.00000000000E+00 0. -1.
         -4    1    5    5    0  503 -0.18908503650E+03 -0.29290884229E+03  0.16797631721E+04  0.17155620232E+04  0.00000000000E+00 0.  1.
         -3    1    6    6    0  502  0.20510216443E+03  0.67713394346E+02  0.20641735107E+03  0.29876432928E+03  0.00000000000E+00 0.  1.
<mgrwt>
<rscale>  0 0.14835750E+04</rscale>
<asrwt>0</asrwt>
<pdfrwt beam="1">  1        2 0.34400998E+00 0.14835750E+04</pdfrwt>
<pdfrwt beam="2">  1       -2 0.37858316E-01 0.14835750E+04</pdfrwt>
<totfact> 0.31429441E+01</totfact>
</mgrwt>
</event>
<event>
12    1  0.1477245E-007  0.1815924E+04  0.7818608E-02  0.8697877E-01
          2   -1    0    0  501    0  0.00000000000E+00  0.00000000000E+00  0.11225161717E+04  0.11225161717E+04  0.00000000000E+00 0. -1.
         -2   -1    0    0    0  501 -0.00000000000E+00 -0.00000000000E+00 -0.73441711280E+03  0.73441711280E+03  0.00000000000E+00 0.  1.
         23    2    1    2    0    0  0.60962442229E+03 -0.29210272588E+03  0.42665850043E+02  0.68320963158E+03  0.89381693942E+02 0.  0.
        254    2    1    2    0    0 -0.60962442229E+03  0.29210272588E+03  0.34543320881E+03  0.11737236529E+04  0.89517438126E+03 0.  0.
        -24    2    4    4    0    0 -0.54755885601E+03  0.45252505120E+03  0.54473133426E+03  0.89867065516E+03  0.79228133641E+02 0.  0.
         24    2    4    4    0    0 -0.62065566282E+02 -0.16042232532E+03 -0.19929812545E+03  0.27505299772E+03  0.79667758655E+02 0.  0.
         11    1    3    3    0    0  0.33344569211E+03 -0.15909527830E+03  0.67867387945E+02  0.37563721795E+03  0.00000000000E+00 0. -1.
        -11    1    3    3    0    0  0.27617873018E+03 -0.13300744758E+03 -0.25201537902E+02  0.30757241364E+03  0.00000000000E+00 0.  1.
          4    1    6    6  502    0  0.86468034151E+01 -0.21617595823E+02 -0.15749251591E+01  0.23335981824E+02  0.00000000000E+00 0. -1.
          1    1    5    5  503    0 -0.58686499529E+02  0.21624689311E+02  0.57973876183E+02  0.85280142674E+02  0.00000000000E+00 0. -1.
         -2    1    5    5    0  503 -0.48887235648E+03  0.43090036189E+03  0.48675745808E+03  0.81339051248E+03  0.00000000000E+00 0.  1.
         -3    1    6    6    0  502 -0.70712369697E+02 -0.13880472949E+03 -0.19772320029E+03  0.25171701590E+03  0.00000000000E+00 0.  1.
<mgrwt>
<rscale>  0 0.18159241E+04</rscale>
<asrwt>0</asrwt>
<pdfrwt beam="1">  1        2 0.17269480E+00 0.18159241E+04</pdfrwt>
<pdfrwt beam="2">  1       -2 0.11298725E+00 0.18159241E+04</pdfrwt>
<totfact> 0.12250211E+01</totfact>
</mgrwt>
</event>
<event>
12    1  0.1477245E-007  0.1832322E+04  0.7818608E-02  0.8689297E-01
          1   -1    0    0  501    0  0.00000000000E+00  0.00000000000E+00  0.15318479562E+04  0.15318479562E+04  0.00000000000E+00 0. -1.
         -1   -1    0    0    0  501 -0.00000000000E+00 -0.00000000000E+00 -0.54793372471E+03  0.54793372471E+03  0.00000000000E+00 0.  1.
         23    2    1    2    0    0  0.45954060833E+03 -0.49309764308E+03  0.53969430040E+03  0.87010163026E+03  0.10716367291E+03 0.  0.
        254    2    1    2    0    0 -0.45954060833E+03  0.49309764308E+03  0.44421993112E+03  0.12096800507E+04  0.90092819996E+03 0.  0.
        -24    2    4    4    0    0  0.73262984236E+02 -0.10791178662E+03 -0.14465880621E+03  0.21056960240E+03  0.80006054083E+02 0.  0.
         24    2    4    4    0    0 -0.53280359257E+03  0.60100942969E+03  0.58887873734E+03  0.99911044827E+03  0.79696409760E+02 0.  0.
         11    1    3    3    0    0  0.31835099346E+03 -0.29150727391E+03  0.29348149926E+03  0.52197244773E+03  0.00000000000E+00 0.  1.
        -11    1    3    3    0    0  0.14118961487E+03 -0.20159036916E+03  0.24621280114E+03  0.34812918253E+03  0.00000000000E+00 0. -1.
          4    1    6    6  502    0 -0.24958661663E+03  0.31874390687E+03  0.33497389914E+03  0.52545092109E+03  0.00000000000E+00 0. -1.
          1    1    5    5  503    0  0.67365270043E+02 -0.11127006553E+03 -0.15234227122E+03  0.20031793403E+03  0.00000000000E+00 0. -1.
         -2    1    5    5    0  503  0.58977141927E+01  0.33582789130E+01  0.76834650079E+01  0.10251668376E+02  0.00000000000E+00 0.  1.
         -3    1    6    6    0  502 -0.28321697593E+03  0.28226552283E+03  0.25390483819E+03  0.47365952718E+03  0.00000000000E+00 0.  1.
<mgrwt>
<rscale>  0 0.18323222E+04</rscale>
<asrwt>0</asrwt>
<pdfrwt beam="1">  1        1 0.23566891E+00 0.18323222E+04</pdfrwt>
<pdfrwt beam="2">  1       -1 0.84297497E-01 0.18323222E+04</pdfrwt>
<totfact> 0.81553905E+00</totfact>
</mgrwt>
</event>
<event>
12    1  0.1477245E-007  0.1729249E+04  0.7818608E-02  0.8744856E-01
          2   -1    0    0  501    0  0.00000000000E+00  0.00000000000E+00  0.11940030935E+04  0.11940030935E+04  0.00000000000E+00 0. -1.
         -2   -1    0    0    0  501 -0.00000000000E+00 -0.00000000000E+00 -0.62610841278E+03  0.62610841278E+03  0.00000000000E+00 0.  1.
         23    2    1    2    0    0  0.18642697049E+02  0.11697467448E+03  0.85308622144E+03  0.86651657712E+03  0.95206368471E+02 0.  0.
        254    2    1    2    0    0 -0.18642697049E+02 -0.11697467448E+03 -0.28519154070E+03  0.95359492917E+03  0.90220754233E+03 0.  0.
        -24    2    4    4    0    0 -0.73323386123E+02 -0.24889104981E+03  0.26522415094E+03  0.37959127511E+03  0.80141202045E+02 0.  0.
         24    2    4    4    0    0  0.54680689075E+02  0.13191637533E+03 -0.55041569164E+03  0.57400365406E+03  0.78299766535E+02 0.  0.
         11    1    3    3    0    0 -0.22560387389E+02 -0.27911420349E+01  0.19784230685E+03  0.19914401807E+03  0.00000000000E+00 0.  1.
        -11    1    3    3    0    0  0.41203084437E+02  0.11976581651E+03  0.65524391458E+03  0.66737255905E+03  0.00000000000E+00 0. -1.
          4    1    6    6  502    0 -0.77238876279E+01 -0.57709943955E+01 -0.61496105035E+02  0.62247359389E+02  0.00000000000E+00 0. -1.
          1    1    5    5  503    0  0.14116842925E+02 -0.22255880424E+02  0.12915315138E+02  0.29349869382E+02  0.00000000000E+00 0. -1.
         -2    1    5    5    0  503 -0.87440229048E+02 -0.22663516939E+03  0.25230883580E+03  0.35024140572E+03  0.00000000000E+00 0.  1.
         -3    1    6    6    0  502  0.62404576703E+02  0.13768736973E+03 -0.48891958660E+03  0.51175629468E+03  0.00000000000E+00 0.  1.
<mgrwt>
<rscale>  0 0.17292488E+04</rscale>
<asrwt>0</asrwt>
<pdfrwt beam="1">  1        2 0.18369278E+00 0.17292488E+04</pdfrwt>
<pdfrwt beam="2">  1       -2 0.96324372E-01 0.17292488E+04</pdfrwt>
<totfact> 0.16361903E+01</totfact>
</mgrwt>
</event>
<event>
12    1  0.1477245E-007  0.1772303E+04  0.7818608E-02  0.8721169E-01
         -1   -1    0    0    0  501 -0.00000000000E+00  0.00000000000E+00  0.27858421604E+03  0.27858421604E+03  0.00000000000E+00 0.  1.
          1   -1    0    0  501    0  0.00000000000E+00 -0.00000000000E+00 -0.28187672706E+04  0.28187672706E+04  0.00000000000E+00 0. -1.
         23    2    1    2    0    0  0.32134451049E+02 -0.10717541851E+03  0.17756245457E+03  0.22740040796E+03  0.87540430601E+02 0.  0.
        254    2    1    2    0    0 -0.32134451049E+02  0.10717541851E+03 -0.27177455091E+04  0.28699510786E+04  0.91540119529E+03 0.  0.
        -24    2    4    4    0    0  0.24939070690E+03  0.41889167956E+03 -0.14049539505E+04  0.14893155225E+04  0.80617361066E+02 0.  0.
         24    2    4    4    0    0 -0.28152515795E+03 -0.31171626105E+03 -0.13127915586E+04  0.13806355561E+04  0.79431859876E+02 0.  0.
         13    1    3    3    0    0  0.18834332942E+02  0.65289162051E+01  0.54030189192E+01  0.20653122225E+02  0.00000000000E+00 0. -1.
        -13    1    3    3    0    0  0.13300118107E+02 -0.11370433472E+03  0.17215943565E+03  0.20674728573E+03  0.00000000000E+00 0.  1.
          2    1    6    6  502    0 -0.71878268089E+01 -0.33215333373E+02 -0.15310707969E+03  0.15683335447E+03  0.00000000000E+00 0. -1.
          1    1    5    5  503    0  0.87611799115E+02  0.16649763050E+03 -0.66026606038E+03  0.68654829312E+03  0.00000000000E+00 0. -1.
         -2    1    5    5    0  503  0.16177890779E+03  0.25239404906E+03 -0.74468789008E+03  0.80276722942E+03  0.00000000000E+00 0.  1.
         -1    1    6    6    0  502 -0.27433733114E+03 -0.27850092768E+03 -0.11596844789E+04  0.12238022016E+04  0.00000000000E+00 0.  1.
<mgrwt>
<rscale>  0 0.17723025E+04</rscale>
<asrwt>0</asrwt>
<pdfrwt beam="1">  1        1 0.43365651E+00 0.17723025E+04</pdfrwt>
<pdfrwt beam="2">  1       -1 0.42859110E-01 0.17723025E+04</pdfrwt>
<totfact> 0.41088227E+00</totfact>
</mgrwt>
</event>
<event>
12    1  0.1477245E-007  0.1766719E+04  0.7818608E-02  0.8724201E-01
         -1   -1    0    0    0  501 -0.00000000000E+00  0.00000000000E+00  0.50583688461E+03  0.50583688461E+03  0.00000000000E+00 0.  1.
          1   -1    0    0  501    0  0.00000000000E+00 -0.00000000000E+00 -0.15426395132E+04  0.15426395132E+04  0.00000000000E+00 0. -1.
         23    2    1    2    0    0 -0.14152372826E+03  0.56289154256E+03 -0.89300921536E+02  0.59425334677E+03  0.91030386152E+02 0.  0.
        254    2    1    2    0    0  0.14152372826E+03 -0.56289154256E+03 -0.94750170706E+03  0.14542230511E+04  0.93815208948E+03 0.  0.
        -24    2    4    4    0    0 -0.36440644486E+03 -0.43905980458E+03 -0.49311976567E+03  0.75826930951E+03  0.78991603304E+02 0.  0.
         24    2    4    4    0    0  0.50593017311E+03 -0.12383173798E+03 -0.45438194140E+03  0.69595374156E+03  0.81172792985E+02 0.  0.
         13    1    3    3    0    0 -0.67284308767E+02  0.36858245182E+03 -0.93647453793E+02  0.38619949197E+03  0.00000000000E+00 0.  1.
        -13    1    3    3    0    0 -0.74239419492E+02  0.19430909075E+03  0.43465322561E+01  0.20805385480E+03  0.00000000000E+00 0. -1.
          2    1    6    6  502    0  0.21612257918E+03 -0.61246397108E+02 -0.14458567591E+03  0.26714248646E+03  0.00000000000E+00 0. -1.
          1    1    5    5  503    0 -0.99694043745E+02 -0.95931593045E+02 -0.81503802825E+02  0.16057597198E+03  0.00000000000E+00 0. -1.
         -2    1    5    5    0  503 -0.26471240111E+03 -0.34312821154E+03 -0.41161596284E+03  0.59769333752E+03  0.00000000000E+00 0.  1.
         -1    1    6    6    0  502  0.28980759393E+03 -0.62585340875E+02 -0.30979626548E+03  0.42881125510E+03  0.00000000000E+00 0.  1.
<mgrwt>
<rscale>  0 0.17667190E+04</rscale>
<asrwt>0</asrwt>
<pdfrwt beam="1">  1        1 0.23732915E+00 0.17667190E+04</pdfrwt>
<pdfrwt beam="2">  1       -1 0.77821061E-01 0.17667190E+04</pdfrwt>
<totfact> 0.95662167E+00</totfact>
</mgrwt>
</event>
<event>
12    1  0.1477245E-007  0.2153728E+04  0.7818608E-02  0.8537938E-01
         -2   -1    0    0    0  501 -0.00000000000E+00  0.00000000000E+00  0.52310142876E+03  0.52310142876E+03  0.00000000000E+00 0.  1.
          2   -1    0    0  501    0  0.00000000000E+00 -0.00000000000E+00 -0.22168476946E+04  0.22168476946E+04  0.00000000000E+00 0. -1.
         23    2    1    2    0    0  0.15092029723E+03  0.82544399383E+03 -0.10682328890E+04  0.13613951101E+04  0.90224263830E+02 0.  0.
        254    2    1    2    0    0 -0.15092029723E+03 -0.82544399383E+03 -0.62551337686E+03  0.13785540132E+04  0.89722319387E+03 0.  0.
        -24    2    4    4    0    0  0.24240089461E+03 -0.42882782318E+03  0.46380382876E+02  0.50122800570E+03  0.80167812412E+02 0.  0.
         24    2    4    4    0    0 -0.39332119184E+03 -0.39661617065E+03 -0.67189375973E+03  0.87732600749E+03  0.79080669511E+02 0.  0.
         13    1    3    3    0    0  0.38593592024E+02  0.30292239345E+03 -0.45461163469E+03  0.54765242645E+03  0.00000000000E+00 0. -1.
        -13    1    3    3    0    0  0.11232670521E+03  0.52252160038E+03 -0.61362125427E+03  0.81374268369E+03  0.00000000000E+00 0.  1.
          2    1    6    6  502    0 -0.23140719067E+03 -0.28595739563E+03 -0.44841992874E+03  0.58000116595E+03  0.00000000000E+00 0. -1.
          1    1    5    5  503    0  0.42483508853E+02 -0.37164047476E+02  0.22752594423E+02  0.60857994563E+02  0.00000000000E+00 0. -1.
         -2    1    5    5    0  503  0.19991738576E+03 -0.39166377570E+03  0.23627788453E+02  0.44037001114E+03  0.00000000000E+00 0.  1.
         -1    1    6    6    0  502 -0.16191400116E+03 -0.11065877502E+03 -0.22347383099E+03  0.29732484154E+03  0.00000000000E+00 0.  1.
<mgrwt>
<rscale>  0 0.21537281E+04</rscale>
<asrwt>0</asrwt>
<pdfrwt beam="1">  1        2 0.34105349E+00 0.21537281E+04</pdfrwt>
<pdfrwt beam="2">  1       -2 0.80477142E-01 0.21537281E+04</pdfrwt>
<totfact> 0.63217884E+00</totfact>
</mgrwt>
</event>
<event>
12    1  0.1477245E-007  0.2188651E+04  0.7818608E-02  0.8523167E-01
          1   -1    0    0  501    0  0.00000000000E+00  0.00000000000E+00  0.13318526293E+04  0.13318526293E+04  0.00000000000E+00 0. -1.
         -1   -1    0    0    0  501 -0.00000000000E+00 -0.00000000000E+00 -0.89915957872E+03  0.89915957872E+03  0.00000000000E+00 0.  1.
         23    2    1    2    0    0 -0.10794395749E+03 -0.51323435391E+03 -0.58532001721E+03  0.79075966162E+03  0.87406635356E+02 0.  0.
        254    2    1    2    0    0  0.10794395749E+03  0.51323435391E+03  0.10180130678E+04  0.14402525464E+04  0.87345027977E+03 0.  0.
        -24    2    4    4    0    0  0.39179840813E+03  0.46829864937E+03  0.34968417336E+03  0.70797698670E+03  0.78375857196E+02 0.  0.
         24    2    4    4    0    0 -0.28385445064E+03  0.44935704543E+02  0.66832889448E+03  0.73227555973E+03  0.83495014811E+02 0.  0.
         13    1    3    3    0    0 -0.23167649670E+02 -0.52669544986E+02 -0.10620788162E+03  0.12079294300E+03  0.00000000000E+00 0. -1.
        -13    1    3    3    0    0 -0.84776307816E+02 -0.46056480893E+03 -0.47911213559E+03  0.66996671862E+03  0.00000000000E+00 0.  1.
          4    1    6    6  502    0 -0.17028783667E+02 -0.17427787063E+02  0.71793203621E+02  0.75815376549E+02  0.00000000000E+00 0. -1.
          1    1    5    5  503    0  0.10900257531E+03  0.88586701833E+02  0.10251007970E+03  0.17388927973E+03  0.00000000000E+00 0. -1.
         -2    1    5    5    0  503  0.28279583281E+03  0.37971194753E+03  0.24717409366E+03  0.53408770697E+03  0.00000000000E+00 0.  1.
         -3    1    6    6    0  502 -0.26682566697E+03  0.62363491606E+02  0.59653569085E+03  0.65646018318E+03  0.00000000000E+00 0.  1.
<mgrwt>
<rscale>  0 0.21886508E+04</rscale>
<asrwt>0</asrwt>
<pdfrwt beam="1">  1        1 0.20490040E+00 0.21886508E+04</pdfrwt>
<pdfrwt beam="2">  1       -1 0.13833224E+00 0.21886508E+04</pdfrwt>
<totfact> 0.33885221E+00</totfact>
</mgrwt>
</event>
<event>
12    1  0.1477245E-007  0.1826523E+04  0.7818608E-02  0.8692321E-01
         -2   -1    0    0    0  501 -0.00000000000E+00  0.00000000000E+00  0.35577579652E+03  0.35577579652E+03  0.00000000000E+00 0.  1.
          2   -1    0    0  501    0  0.00000000000E+00 -0.00000000000E+00 -0.23443042819E+04  0.23443042819E+04  0.00000000000E+00 0. -1.
         23    2    1    2    0    0 -0.29129780683E+03 -0.32579744048E+03  0.47607363135E+02  0.44927440238E+03  0.92642555658E+02 0.  0.
        254    2    1    2    0    0  0.29129780683E+03  0.32579744048E+03 -0.20361358485E+04  0.22508056760E+04  0.85397811049E+03 0.  0.
        -24    2    4    4    0    0 -0.19368116456E+03 -0.14176808793E+02 -0.12266181821E+04  0.12447959294E+04  0.84919760480E+02 0.  0.
         24    2    4    4    0    0  0.48497897139E+03  0.33997424927E+03 -0.80951766640E+03  0.10060097466E+04  0.77134073402E+02 0.  0.
         11    1    3    3    0    0 -0.47719438099E+02 -0.96553469682E+02 -0.15719329379E+02  0.10884307326E+03  0.00000000000E+00 0. -1.
        -11    1    3    3    0    0 -0.24357836873E+03 -0.22924397080E+03  0.63326692514E+02  0.34043132912E+03  0.00000000000E+00 0.  1.
          2    1    6    6  502    0  0.39897684548E+03  0.25277147155E+03 -0.60367060021E+03  0.76648165902E+03  0.00000000000E+00 0. -1.
          3    1    5    5  503    0 -0.13924289165E+03  0.12280834614E+02 -0.10187397039E+04  0.10282849732E+04  0.00000000000E+00 0. -1.
         -4    1    5    5    0  503 -0.54438272907E+02 -0.26457643407E+02 -0.20787847817E+03  0.21651095616E+03  0.00000000000E+00 0.  1.
         -1    1    6    6    0  502  0.86002125913E+02  0.87202777728E+02 -0.20584706618E+03  0.23952808763E+03  0.00000000000E+00 0.  1.
<mgrwt>
<rscale>  0 0.18265232E+04</rscale>
<asrwt>0</asrwt>
<pdfrwt beam="1">  1        2 0.36066219E+00 0.18265232E+04</pdfrwt>
<pdfrwt beam="2">  1       -2 0.54734739E-01 0.18265232E+04</pdfrwt>
<totfact> 0.12663586E+01</totfact>
</mgrwt>
</event>
<event>
12    1  0.1477245E-007  0.2119304E+04  0.7818608E-02  0.8552787E-01
         -2   -1    0    0    0  501 -0.00000000000E+00  0.00000000000E+00  0.29202016531E+03  0.29202016531E+03  0.00000000000E+00 0.  1.
          2   -1    0    0  501    0  0.00000000000E+00 -0.00000000000E+00 -0.38451523372E+04  0.38451523372E+04  0.00000000000E+00 0. -1.
         23    2    1    2    0    0 -0.24645606803E+03 -0.78075280742E+03 -0.20192952419E+04  0.21824517253E+04  0.12339659518E+03 0.  0.
        254    2    1    2    0    0  0.24645606803E+03  0.78075280742E+03 -0.15338369300E+04  0.19547207772E+04  0.89328721538E+03 0.  0.
        -24    2    4    4    0    0  0.13735368072E+02 -0.12096239220E+03  0.13487142523E+02  0.14702022545E+03  0.81317175400E+02 0.  0.
         24    2    4    4    0    0  0.23272069996E+03  0.90171519962E+03 -0.15473240725E+04  0.18077005517E+04  0.79500150285E+02 0.  0.
         13    1    3    3    0    0 -0.10876802979E+03 -0.47143813395E+03 -0.10610985850E+04  0.11661966411E+04  0.00000000000E+00 0.  1.
        -13    1    3    3    0    0 -0.13768803825E+03 -0.30931467346E+03 -0.95819665686E+03  0.10162550843E+04  0.00000000000E+00 0. -1.
          2    1    6    6  502    0  0.23182340408E+03  0.84134310112E+03 -0.14190020504E+04  0.16658832863E+04  0.00000000000E+00 0. -1.
          3    1    5    5  503    0 -0.33249786421E+02 -0.63660062043E+02  0.12571232787E+02  0.72912191643E+02  0.00000000000E+00 0. -1.
         -4    1    5    5    0  503  0.46985154493E+02 -0.57302330161E+02  0.91590973658E+00  0.74108033810E+02  0.00000000000E+00 0.  1.
         -1    1    6    6    0  502  0.89729588142E+00  0.60372098497E+02 -0.12832202207E+03  0.14181726540E+03  0.00000000000E+00 0.  1.
<mgrwt>
<rscale>  0 0.21193037E+04</rscale>
<asrwt>0</asrwt>
<pdfrwt beam="1">  1        2 0.59156191E+00 0.21193037E+04</pdfrwt>
<pdfrwt beam="2">  1       -2 0.44926178E-01 0.21193037E+04</pdfrwt>
<totfact> 0.19744673E+00</totfact>
</mgrwt>
</event>
<event>
12    1  0.1477245E-007  0.1378945E+04  0.7818608E-02  0.8969202E-01
         -1   -1    0    0    0  501 -0.00000000000E+00  0.00000000000E+00  0.22309880736E+03  0.22309880736E+03  0.00000000000E+00 0.  1.
          1   -1    0    0  501    0  0.00000000000E+00 -0.00000000000E+00 -0.21307691372E+04  0.21307691372E+04  0.00000000000E+00 0. -1.
         23    2    1    2    0    0 -0.35840463223E+02  0.37851762846E+03 -0.41839960298E+03  0.57312651807E+03  0.94104431789E+02 0.  0.
        254    2    1    2    0    0  0.35840463223E+02 -0.37851762846E+03 -0.14892707269E+04  0.17807414265E+04  0.89919552729E+03 0.  0.
        -24    2    4    4    0    0 -0.19384325600E+03 -0.48618599430E+03 -0.41180154484E+03  0.67094888052E+03  0.81485329903E+02 0.  0.
         24    2    4    4    0    0  0.22968371922E+03  0.10766836583E+03 -0.10774691820E+04  0.11097925460E+04  0.79703005146E+02 0.  0.
         11    1    3    3    0    0 -0.15861393332E+02  0.52791630747E+01 -0.98859813810E+01  0.19421276711E+02  0.00000000000E+00 0. -1.
        -11    1    3    3    0    0 -0.19979069890E+02  0.37323846539E+03 -0.40851362160E+03  0.55370524136E+03  0.00000000000E+00 0.  1.
          2    1    6    6  502    0  0.21180204963E+03  0.74327908191E+02 -0.84698389462E+03  0.87622283918E+03  0.00000000000E+00 0. -1.
          3    1    5    5  503    0 -0.17569170324E+03 -0.43941100546E+03 -0.39943930345E+03  0.61927486906E+03  0.00000000000E+00 0. -1.
         -4    1    5    5    0  503 -0.18151552754E+02 -0.46774988838E+02 -0.12362241392E+02  0.51674011460E+02  0.00000000000E+00 0.  1.
         -1    1    6    6    0  502  0.17881669587E+02  0.33340457641E+02 -0.23048528743E+03  0.23356970682E+03  0.00000000000E+00 0.  1.
<mgrwt>
<rscale>  0 0.13789446E+04</rscale>
<asrwt>0</asrwt>
<pdfrwt beam="1">  1        1 0.32781063E+00 0.13789446E+04</pdfrwt>
<pdfrwt beam="2">  1       -1 0.34322895E-01 0.13789446E+04</pdfrwt>
<totfact> 0.19090364E+01</totfact>
</mgrwt>
</event>
<event>
12    1  0.1849117E-007  0.1686886E+04  0.7818608E-02  0.8768879E-01
         -1   -1    0    0    0  501 -0.00000000000E+00  0.00000000000E+00  0.61458054679E+03  0.61458054679E+03  0.00000000000E+00 0.  1.
          1   -1    0    0  501    0  0.00000000000E+00 -0.00000000000E+00 -0.11575314468E+04  0.11575314468E+04  0.00000000000E+00 0. -1.
         23    2    1    2    0    0  0.11769639484E+02 -0.59259029159E+03 -0.29414463958E+03  0.66697825232E+03  0.83887674744E+02 0.  0.
        254    2    1    2    0    0 -0.11769639484E+02  0.59259029159E+03 -0.24880626047E+03  0.11051337413E+04  0.89895175223E+03 0.  0.
        -24    2    4    4    0    0  0.39270212090E+02 -0.20033757675E+03 -0.21310581036E+03  0.30579904668E+03  0.80135362526E+02 0.  0.
         24    2    4    4    0    0 -0.51039851574E+02  0.79292786834E+03 -0.35700450115E+02  0.79933469463E+03  0.79509502940E+02 0.  0.
         11    1    3    3    0    0  0.11407846891E+02 -0.44262633556E+03 -0.25896223124E+03  0.51294214987E+03  0.00000000000E+00 0. -1.
        -11    1    3    3    0    0  0.36179259339E+00 -0.14996395603E+03 -0.35182408338E+02  0.15403610245E+03  0.00000000000E+00 0.  1.
          4    1    6    6  502    0 -0.35710128440E+02  0.74779715696E+03 -0.47754588233E+02  0.75017084849E+03  0.00000000000E+00 0. -1.
          3    1    5    5  503    0  0.23631333744E+02 -0.18508204358E+03 -0.15121745376E+03  0.24016769373E+03  0.00000000000E+00 0. -1.
         -2    1    5    5    0  503  0.15638878345E+02 -0.15255533173E+02 -0.61888356591E+02  0.65631352949E+02  0.00000000000E+00 0.  1.
         -3    1    6    6    0  502 -0.15329723134E+02  0.45130711383E+02  0.12054138118E+02  0.49163846137E+02  0.00000000000E+00 0.  1.
<mgrwt>
<rscale>  0 0.16868863E+04</rscale>
<asrwt>0</asrwt>
<pdfrwt beam="1">  1        1 0.17808176E+00 0.16868863E+04</pdfrwt>
<pdfrwt beam="2">  1       -1 0.94550854E-01 0.16868863E+04</pdfrwt>
<totfact> 0.11841115E+01</totfact>
</mgrwt>
</event>
<event>
12    1  0.1477245E-007  0.1764250E+04  0.7818608E-02  0.8725545E-01
          1   -1    0    0  501    0  0.00000000000E+00  0.00000000000E+00  0.14083578174E+04  0.14083578174E+04  0.00000000000E+00 0. -1.
         -1   -1    0    0    0  501 -0.00000000000E+00 -0.00000000000E+00 -0.55251897754E+03  0.55251897754E+03  0.00000000000E+00 0.  1.
         23    2    1    2    0    0 -0.45419737542E+03  0.39857980089E+03  0.58516170761E+02  0.61389561040E+03  0.91008596915E+02 0.  0.
        254    2    1    2    0    0  0.45419737542E+03 -0.39857980089E+03  0.79732266911E+03  0.13469811845E+04  0.90192780161E+03 0.  0.
        -24    2    4    4    0    0  0.12994326772E+03 -0.63891589074E+03  0.60344757916E+03  0.89202802675E+03  0.80413005535E+02 0.  0.
         24    2    4    4    0    0  0.32425410770E+03  0.24033608985E+03  0.19387508995E+03  0.45495315779E+03  0.80577061476E+02 0.  0.
         11    1    3    3    0    0 -0.40965192876E+03  0.33806424531E+03  0.25289686794E+02  0.53173461891E+03  0.00000000000E+00 0.  1.
        -11    1    3    3    0    0 -0.44545446666E+02  0.60515555583E+02  0.33226483968E+02  0.82160991493E+02  0.00000000000E+00 0. -1.
          4    1    6    6  502    0  0.32909375498E+03  0.23653458086E+03  0.18944853412E+03  0.44737238916E+03  0.00000000000E+00 0. -1.
          3    1    5    5  503    0  0.76980014598E+02 -0.42250686352E+03  0.44640137668E+03  0.61944504314E+03  0.00000000000E+00 0. -1.
         -2    1    5    5    0  503  0.52963253126E+02 -0.21640902721E+03  0.15704620247E+03  0.27258298361E+03  0.00000000000E+00 0.  1.
         -3    1    6    6    0  502 -0.48396472798E+01  0.38015089833E+01  0.44265558339E+01  0.75807686215E+01  0.00000000000E+00 0.  1.
<mgrwt>
<rscale>  0 0.17642499E+04</rscale>
<asrwt>0</asrwt>
<pdfrwt beam="1">  1        1 0.21667043E+00 0.17642499E+04</pdfrwt>
<pdfrwt beam="2">  1       -1 0.85002920E-01 0.17642499E+04</pdfrwt>
<totfact> 0.98210153E+00</totfact>
</mgrwt>
</event>
<event>
12    1  0.1477245E-007  0.1701808E+04  0.7818608E-02  0.8760334E-01
         -1   -1    0    0    0  501 -0.00000000000E+00  0.00000000000E+00  0.78078453500E+03  0.78078453500E+03  0.00000000000E+00 0.  1.
          1   -1    0    0  501    0  0.00000000000E+00 -0.00000000000E+00 -0.92732110484E+03  0.92732110484E+03  0.00000000000E+00 0. -1.
         23    2    1    2    0    0 -0.58300002375E+03 -0.15502475697E+02 -0.21998772918E+03  0.63016154582E+03  0.92626229511E+02 0.  0.
        254    2    1    2    0    0  0.58300002375E+03  0.15502475697E+02  0.73451159343E+02  0.10779440940E+04  0.90357016473E+03 0.  0.
        -24    2    4    4    0    0  0.35235633272E+03 -0.36985337165E+03 -0.19002669406E+03  0.55099260963E+03  0.80846828492E+02 0.  0.
         24    2    4    4    0    0  0.23064369102E+03  0.38535584735E+03  0.26347785340E+03  0.52695148439E+03  0.81003989894E+02 0.  0.
         13    1    3    3    0    0 -0.20689311692E+03  0.30800156331E+02 -0.10565837904E+03  0.23434398759E+03  0.00000000000E+00 0.  1.
        -13    1    3    3    0    0 -0.37610690682E+03 -0.46302632028E+02 -0.11432935014E+03  0.39581755822E+03  0.00000000000E+00 0. -1.
          4    1    6    6  502    0  0.17292542256E+03  0.34503676476E+03  0.22321840730E+03  0.44584753914E+03  0.00000000000E+00 0. -1.
          3    1    5    5  503    0  0.21156541303E+03 -0.22345573074E+03 -0.15615844291E+03  0.34507658118E+03  0.00000000000E+00 0. -1.
         -4    1    5    5    0  503  0.14079091970E+03 -0.14639764091E+03 -0.33868251143E+02  0.20591602844E+03  0.00000000000E+00 0.  1.
         -3    1    6    6    0  502  0.57718268458E+02  0.40319082590E+02  0.40259446099E+02  0.81103945249E+02  0.00000000000E+00 0.  1.
<mgrwt>
<rscale>  0 0.17018084E+04</rscale>
<asrwt>0</asrwt>
<pdfrwt beam="1">  1        1 0.14266479E+00 0.17018084E+04</pdfrwt>
<pdfrwt beam="2">  1       -1 0.12012070E+00 0.17018084E+04</pdfrwt>
<totfact> 0.10159460E+01</totfact>
</mgrwt>
</event>
<event>
12    1  0.1477245E-007  0.1005343E+04  0.7818608E-02  0.9302704E-01
          3   -1    0    0  501    0  0.00000000000E+00  0.00000000000E+00  0.23877097333E+03  0.23877097333E+03  0.00000000000E+00 0. -1.
         -3   -1    0    0    0  501 -0.00000000000E+00 -0.00000000000E+00 -0.10582463092E+04  0.10582463092E+04  0.00000000000E+00 0.  1.
         23    2    1    2    0    0 -0.26057572970E+02  0.15665185191E+01 -0.99636156822E+02  0.13771895696E+03  0.91420436830E+02 0.  0.
        254    2    1    2    0    0  0.26057572970E+02 -0.15665185191E+01 -0.71983917907E+03  0.11592983256E+04  0.90836265496E+03 0.  0.
        -24    2    4    4    0    0  0.39975062228E+03  0.50276122329E+02 -0.90378846184E+02  0.42095610198E+03  0.81899056572E+02 0.  0.
         24    2    4    4    0    0 -0.37369304931E+03 -0.51842640848E+02 -0.62946033289E+03  0.73834222363E+03  0.81208213857E+02 0.  0.
         11    1    3    3    0    0  0.11794383756E+02 -0.31087543756E-01  0.13782430599E+02  0.18140117084E+02  0.00000000000E+00 0. -1.
        -11    1    3    3    0    0 -0.37851956727E+02  0.15976060629E+01 -0.11341858742E+03  0.11957883987E+03  0.00000000000E+00 0.  1.
          2    1    6    6  502    0 -0.32310857315E+03 -0.16043102223E+02 -0.51489008437E+03  0.60808579177E+03  0.00000000000E+00 0. -1.
          1    1    5    5  503    0  0.37903007006E+03  0.33864690932E+02 -0.98904286050E+02  0.39318274263E+03  0.00000000000E+00 0. -1.
         -2    1    5    5    0  503  0.20720552220E+02  0.16411431397E+02  0.85254398658E+01  0.27773359352E+02  0.00000000000E+00 0.  1.
         -1    1    6    6    0  502 -0.50584476162E+02 -0.35799538626E+02 -0.11457024852E+03  0.13025643186E+03  0.00000000000E+00 0.  1.
<mgrwt>
<rscale>  0 0.10053427E+04</rscale>
<asrwt>0</asrwt>
<pdfrwt beam="1">  1        3 0.36733996E-01 0.10053427E+04</pdfrwt>
<pdfrwt beam="2">  1       -3 0.16280712E+00 0.10053427E+04</pdfrwt>
<totfact> 0.49964229E+00</totfact>
</mgrwt>
</event>
<event>
12    1  0.1477245E-007  0.1475572E+04  0.7818608E-02  0.8900862E-01
          1   -1    0    0  501    0  0.00000000000E+00  0.00000000000E+00  0.11218800418E+04  0.11218800418E+04  0.00000000000E+00 0. -1.
         -1   -1    0    0    0  501 -0.00000000000E+00 -0.00000000000E+00 -0.48519277916E+03  0.48519277916E+03  0.00000000000E+00 0.  1.
         23    2    1    2    0    0 -0.12464271357E+03  0.39599324411E+03  0.39552313054E+03  0.57944856607E+03  0.83520287962E+02 0.  0.
        254    2    1    2    0    0  0.12464271357E+03 -0.39599324411E+03  0.24116413212E+03  0.10276242549E+04  0.90857306544E+03 0.  0.
        -24    2    4    4    0    0 -0.18158348271E+02 -0.29853086554E+03 -0.31386257104E+03  0.44083459276E+03  0.79843731010E+02 0.  0.
         24    2    4    4    0    0  0.14280106184E+03 -0.97462378572E+02  0.55502670316E+03  0.58678966216E+03  0.79852413189E+02 0.  0.
         11    1    3    3    0    0  0.32915326176E+01  0.16502868090E+02  0.35524551025E+00  0.16831667818E+02  0.00000000000E+00 0.  1.
        -11    1    3    3    0    0 -0.12793424619E+03  0.37949037602E+03  0.39516788503E+03  0.56261689825E+03  0.00000000000E+00 0. -1.
          4    1    6    6  502    0  0.71009584349E+02 -0.29402724299E+02  0.13570988624E+03  0.15596170841E+03  0.00000000000E+00 0. -1.
          3    1    5    5  503    0 -0.49313973778E+02 -0.19810156110E+03 -0.19854056018E+03  0.28477087379E+03  0.00000000000E+00 0. -1.
         -4    1    5    5    0  503  0.31155625507E+02 -0.10042930443E+03 -0.11532201086E+03  0.15606371897E+03  0.00000000000E+00 0.  1.
         -3    1    6    6    0  502  0.71791477494E+02 -0.68059654273E+02  0.41931681692E+03  0.43082795375E+03  0.00000000000E+00 0.  1.
<mgrwt>
<rscale>  0 0.14755719E+04</rscale>
<asrwt>0</asrwt>
<pdfrwt beam="1">  1        1 0.17259693E+00 0.14755719E+04</pdfrwt>
<pdfrwt beam="2">  1       -1 0.74645043E-01 0.14755719E+04</pdfrwt>
<totfact> 0.21368890E+01</totfact>
</mgrwt>
</event>
<event>
12    1  0.1477245E-007  0.2363743E+04  0.7818608E-02  0.8453204E-01
          2   -1    0    0  501    0  0.00000000000E+00  0.00000000000E+00  0.13129266614E+04  0.13129266614E+04  0.00000000000E+00 0. -1.
         -2   -1    0    0    0  501 -0.00000000000E+00 -0.00000000000E+00 -0.10638978326E+04  0.10638978326E+04  0.00000000000E+00 0.  1.
         23    2    1    2    0    0 -0.19935653159E+03 -0.85682409821E+03 -0.37034561805E+03  0.95855545819E+03  0.88216368383E+02 0.  0.
        254    2    1    2    0    0  0.19935653159E+03  0.85682409821E+03  0.61937444689E+03  0.14182690358E+04  0.92410594114E+03 0.  0.
        -24    2    4    4    0    0  0.30596704667E+03  0.99352595709E+03  0.64445321486E+03  0.12257257922E+04  0.79838027047E+02 0.  0.
         24    2    4    4    0    0 -0.10661051509E+03 -0.13670185887E+03 -0.25078767971E+02  0.19254324355E+03  0.79942203414E+02 0.  0.
         13    1    3    3    0    0 -0.13465311276E+03 -0.72039383652E+03 -0.29831533908E+03  0.79125898542E+03  0.00000000000E+00 0.  1.
        -13    1    3    3    0    0 -0.64703418827E+02 -0.13643026169E+03 -0.72030278974E+02  0.16729647277E+03  0.00000000000E+00 0. -1.
          4    1    6    6  502    0  0.12979479306E+02 -0.10201339405E+02  0.90726647207E+00  0.16533521741E+02  0.00000000000E+00 0. -1.
          3    1    5    5  503    0  0.82004921741E+01  0.94900236832E+02  0.46270815382E+02  0.10589755134E+03  0.00000000000E+00 0. -1.
         -4    1    5    5    0  503  0.29776655450E+03  0.89862572025E+03  0.59818239948E+03  0.11198282409E+04  0.00000000000E+00 0.  1.
         -3    1    6    6    0  502 -0.11958999439E+03 -0.12650051947E+03 -0.25986034443E+02  0.17600972181E+03  0.00000000000E+00 0.  1.
<mgrwt>
<rscale>  0 0.23637427E+04</rscale>
<asrwt>0</asrwt>
<pdfrwt beam="1">  1        2 0.20198872E+00 0.23637427E+04</pdfrwt>
<pdfrwt beam="2">  1       -2 0.16367659E+00 0.23637427E+04</pdfrwt>
<totfact> 0.34688770E+00</totfact>
</mgrwt>
</event>
<event>
12    1  0.1477245E-007  0.1185037E+04  0.7818608E-02  0.9126055E-01
         -1   -1    0    0    0  501 -0.00000000000E+00  0.00000000000E+00  0.33805184130E+03  0.33805184130E+03  0.00000000000E+00 0.  1.
          1   -1    0    0  501    0  0.00000000000E+00 -0.00000000000E+00 -0.10385336741E+04  0.10385336741E+04  0.00000000000E+00 0. -1.
         23    2    1    2    0    0 -0.11989437811E+03 -0.22665881367E+03 -0.15863642253E+03  0.31495474040E+03  0.91006012082E+02 0.  0.
        254    2    1    2    0    0  0.11989437811E+03  0.22665881367E+03 -0.54184541023E+03  0.10616307750E+04  0.87619322871E+03 0.  0.
        -24    2    4    4    0    0 -0.61782649482E+02  0.77328639492E+02 -0.73578981277E+03  0.74673914341E+03  0.80223970615E+02 0.  0.
         24    2    4    4    0    0  0.18167702759E+03  0.14933017417E+03  0.19394440254E+03  0.31489163155E+03  0.78970026419E+02 0.  0.
         11    1    3    3    0    0 -0.72834305662E+02 -0.12601414580E+03 -0.36926096730E+02  0.15015970712E+03  0.00000000000E+00 0. -1.
        -11    1    3    3    0    0 -0.47060072447E+02 -0.10064466787E+03 -0.12171032580E+03  0.16479503328E+03  0.00000000000E+00 0.  1.
          4    1    6    6  502    0  0.27270472590E+02  0.48584453152E+02  0.82206132571E+02  0.99307482073E+02  0.00000000000E+00 0. -1.
          3    1    5    5  503    0 -0.12731452701E+02  0.34476786460E+01 -0.12966637351E+02  0.18496217454E+02  0.00000000000E+00 0. -1.
         -4    1    5    5    0  503 -0.49051196781E+02  0.73880960846E+02 -0.72282317542E+03  0.72824292596E+03  0.00000000000E+00 0.  1.
         -3    1    6    6    0  502  0.15440655500E+03  0.10074572102E+03  0.11173826997E+03  0.21558414948E+03  0.00000000000E+00 0.  1.
<mgrwt>
<rscale>  0 0.11850371E+04</rscale>
<asrwt>0</asrwt>
<pdfrwt beam="1">  1        1 0.15977441E+00 0.11850371E+04</pdfrwt>
<pdfrwt beam="2">  1       -1 0.52007976E-01 0.11850371E+04</pdfrwt>
<totfact> 0.52075420E+01</totfact>
</mgrwt>
</event>
<event>
12    1  0.1477245E-007  0.1509002E+04  0.7818608E-02  0.8878488E-01
          1   -1    0    0  501    0  0.00000000000E+00  0.00000000000E+00  0.33149900263E+03  0.33149900263E+03  0.00000000000E+00 0. -1.
         -1   -1    0    0    0  501 -0.00000000000E+00 -0.00000000000E+00 -0.17172664322E+04  0.17172664322E+04  0.00000000000E+00 0.  1.
         23    2    1    2    0    0 -0.29833320914E+03  0.25401594309E+03 -0.83324381749E+03  0.92528299057E+03  0.91249932795E+02 0.  0.
        254    2    1    2    0    0  0.29833320914E+03 -0.25401594309E+03 -0.55252361204E+03  0.11234824442E+04  0.89632787394E+03 0.  0.
        -24    2    4    4    0    0 -0.22730277611E+03  0.45007164122E+02 -0.43931029788E+03  0.50311026804E+03  0.80213509704E+02 0.  0.
         24    2    4    4    0    0  0.52563598525E+03 -0.29902310721E+03 -0.11321331416E+03  0.62037217619E+03  0.79601349554E+02 0.  0.
         13    1    3    3    0    0 -0.16638903368E+03  0.86245948961E+02 -0.35049479233E+03  0.39745474420E+03  0.00000000000E+00 0.  1.
        -13    1    3    3    0    0 -0.13194417546E+03  0.16776999413E+03 -0.48274902517E+03  0.52782824637E+03  0.00000000000E+00 0. -1.
          2    1    6    6  502    0  0.10057094985E+03 -0.80725888568E+02 -0.50218573747E+02  0.13839468989E+03  0.00000000000E+00 0. -1.
          1    1    5    5  503    0 -0.16063476677E+03  0.45935861560E+02 -0.23605196562E+03  0.28919571599E+03  0.00000000000E+00 0. -1.
         -2    1    5    5    0  503 -0.66668009336E+02 -0.92869743804E+00 -0.20325833226E+03  0.21391455206E+03  0.00000000000E+00 0.  1.
         -1    1    6    6    0  502  0.42506503539E+03 -0.21829721865E+03 -0.62994740416E+02  0.48197748630E+03  0.00000000000E+00 0.  1.
<mgrwt>
<rscale>  0 0.15090025E+04</rscale>
<asrwt>0</asrwt>
<pdfrwt beam="1">  1        1 0.50999846E-01 0.15090025E+04</pdfrwt>
<pdfrwt beam="2">  1       -1 0.26419484E+00 0.15090025E+04</pdfrwt>
<totfact> 0.41947180E+00</totfact>
</mgrwt>
</event>
<event>
12    1  0.1477245E-007  0.3022461E+04  0.7818608E-02  0.8237346E-01
          2   -1    0    0  501    0  0.00000000000E+00  0.00000000000E+00  0.90442064768E+03  0.90442064768E+03  0.00000000000E+00 0. -1.
         -2   -1    0    0    0  501 -0.00000000000E+00 -0.00000000000E+00 -0.25251716919E+04  0.25251716919E+04  0.00000000000E+00 0.  1.
         23    2    1    2    0    0  0.13739359615E+03  0.91854954567E+03 -0.18884638226E+04  0.21065512417E+04  0.93017506250E+02 0.  0.
        254    2    1    2    0    0 -0.13739359615E+03 -0.91854954567E+03  0.26771277839E+03  0.13230410979E+04  0.90341427199E+03 0.  0.
        -24    2    4    4    0    0  0.27238348776E+03 -0.96626766410E+02  0.26633413103E+03  0.40111547441E+03  0.80188889979E+02 0.  0.
         24    2    4    4    0    0 -0.40977708390E+03 -0.82192277926E+03  0.13786473657E+01  0.92192562346E+03  0.80440294379E+02 0.  0.
         11    1    3    3    0    0 -0.61504264682E+01  0.62198088374E+02 -0.91619112934E+02  0.11090758224E+03  0.00000000000E+00 0. -1.
        -11    1    3    3    0    0  0.14354402261E+03  0.85635145730E+03 -0.17968447097E+04  0.19956436594E+04  0.00000000000E+00 0.  1.
          4    1    6    6  502    0 -0.37457106519E+03 -0.74550543112E+03 -0.21984833842E+02  0.83460479487E+03  0.00000000000E+00 0. -1.
          1    1    5    5  503    0  0.26236129257E+03 -0.81991783136E+02  0.22187533224E+03  0.35324886892E+03  0.00000000000E+00 0. -1.
         -2    1    5    5    0  503  0.10022195191E+02 -0.14634983274E+02  0.44458798784E+02  0.47866605491E+02  0.00000000000E+00 0.  1.
         -3    1    6    6    0  502 -0.35206018714E+02 -0.76417348142E+02  0.23363481208E+02  0.87320828586E+02  0.00000000000E+00 0.  1.
<mgrwt>
<rscale>  0 0.30224609E+04</rscale>
<asrwt>0</asrwt>
<pdfrwt beam="1">  1        2 0.13914164E+00 0.30224609E+04</pdfrwt>
<pdfrwt beam="2">  1       -2 0.38848795E+00 0.30224609E+04</pdfrwt>
<totfact> 0.21937855E-01</totfact>
</mgrwt>
</event>
<event>
12    1  0.1477245E-007  0.1101299E+04  0.7818608E-02  0.9203927E-01
          1   -1    0    0  501    0  0.00000000000E+00  0.00000000000E+00  0.51417270468E+03  0.51417270468E+03  0.00000000000E+00 0. -1.
         -1   -1    0    0    0  501 -0.00000000000E+00 -0.00000000000E+00 -0.58971418148E+03  0.58971418148E+03  0.00000000000E+00 0.  1.
         23    2    1    2    0    0 -0.22449567322E+02 -0.15650959754E+03 -0.16248744037E+02  0.18285323090E+03  0.90399364884E+02 0.  0.
        254    2    1    2    0    0  0.22449567322E+02  0.15650959754E+03 -0.59292732766E+02  0.92103365526E+03  0.90542151994E+03 0.  0.
        -24    2    4    4    0    0  0.28301884677E+01 -0.37106068756E+03  0.25189760049E+02  0.38068372436E+03  0.81188239067E+02 0.  0.
         24    2    4    4    0    0  0.19619378855E+02  0.52757028510E+03 -0.84482492816E+02  0.54034993090E+03  0.78265129437E+02 0.  0.
         11    1    3    3    0    0 -0.51861856435E+02 -0.88323342008E+02  0.12581432335E+02  0.10319378536E+03  0.00000000000E+00 0. -1.
        -11    1    3    3    0    0  0.29412289113E+02 -0.68186255534E+02 -0.28830176372E+02  0.79659445543E+02  0.00000000000E+00 0.  1.
          2    1    6    6  502    0  0.41118205813E+02  0.15198361257E+03 -0.21367656108E+02  0.15889084954E+03  0.00000000000E+00 0. -1.
          1    1    5    5  503    0 -0.20048457442E+02 -0.83415462289E+02  0.33272075941E+02  0.92016906230E+02  0.00000000000E+00 0. -1.
         -2    1    5    5    0  503  0.22878645909E+02 -0.28764522527E+03 -0.80823158916E+01  0.28866681813E+03  0.00000000000E+00 0.  1.
         -1    1    6    6    0  502 -0.21498826958E+02  0.37558667253E+03 -0.63114836708E+02  0.38145908137E+03  0.00000000000E+00 0.  1.
<mgrwt>
<rscale>  0 0.11012991E+04</rscale>
<asrwt>0</asrwt>
<pdfrwt beam="1">  1        1 0.79103493E-01 0.11012991E+04</pdfrwt>
<pdfrwt beam="2">  1       -1 0.90725259E-01 0.11012991E+04</pdfrwt>
<totfact> 0.50443112E+01</totfact>
</mgrwt>
</event>
<event>
12    1  0.1477245E-007  0.2217731E+04  0.7818608E-02  0.8511084E-01
         -2   -1    0    0    0  501 -0.00000000000E+00  0.00000000000E+00  0.60666639245E+03  0.60666639245E+03  0.00000000000E+00 0. -1.
          2   -1    0    0  501    0  0.00000000000E+00 -0.00000000000E+00 -0.20267863211E+04  0.20267863211E+04  0.00000000000E+00 0.  1.
         23    2    1    2    0    0 -0.28330618440E+03 -0.82883181074E+03 -0.94173970039E+03  0.12892769764E+04  0.90204733454E+02 0.  0.
        254    2    1    2    0    0  0.28330618440E+03  0.82883181074E+03 -0.47838022824E+03  0.13441757371E+04  0.90040890985E+03 0.  0.
        -24    2    4    4    0    0  0.53715126359E+03  0.77029757852E+03 -0.21893594012E+03  0.96766839902E+03  0.80989784103E+02 0.  0.
         24    2    4    4    0    0 -0.25384507918E+03  0.58534232214E+02 -0.25944428812E+03  0.37650733813E+03  0.81134804228E+02 0.  0.
         11    1    3    3    0    0 -0.25714132748E+03 -0.73835124200E+03 -0.87741659030E+03  0.11752208694E+04  0.00000000000E+00 0.  1.
        -11    1    3    3    0    0 -0.26164856920E+02 -0.90480568739E+02 -0.64323110093E+02  0.11405610702E+03  0.00000000000E+00 0. -1.
          4    1    6    6  502    0 -0.25148475474E+03  0.60246197999E+02 -0.22749237371E+03  0.34442265654E+03  0.00000000000E+00 0. -1.
          1    1    5    5  503    0  0.25705875174E+03  0.31626603853E+03 -0.12228563423E+03  0.42550814952E+03  0.00000000000E+00 0. -1.
         -4    1    5    5    0  503  0.28009251185E+03  0.45403153999E+03 -0.96650305895E+02  0.54216024949E+03  0.00000000000E+00 0.  1.
         -3    1    6    6    0  502 -0.23603244466E+01 -0.17119657847E+01 -0.31951914406E+02  0.32084681587E+02  0.00000000000E+00 0.  1.
<mgrwt>
<rscale>  0 0.22177314E+04</rscale>
<asrwt>0</asrwt>
<pdfrwt beam="1">  1        2 0.31181328E+00 0.22177314E+04</pdfrwt>
<pdfrwt beam="2">  1       -2 0.93333291E-01 0.22177314E+04</pdfrwt>
<totfact> 0.57225959E+00</totfact>
</mgrwt>
</event>
<event>
12    1  0.1477245E-007  0.1441588E+04  0.7818608E-02  0.8924253E-01
          2   -1    0    0  501    0  0.00000000000E+00  0.00000000000E+00  0.23161199631E+04  0.23161199631E+04  0.00000000000E+00 0.  1.
         -2   -1    0    0    0  501 -0.00000000000E+00 -0.00000000000E+00 -0.22431653615E+03  0.22431653615E+03  0.00000000000E+00 0. -1.
         23    2    1    2    0    0 -0.18485243785E+03 -0.28137166087E+03  0.11079705009E+04  0.11625301775E+04  0.10265158186E+03 0.  0.
        254    2    1    2    0    0  0.18485243785E+03  0.28137166087E+03  0.98383292606E+03  0.13779063218E+04  0.90407863044E+03 0.  0.
        -24    2    4    4    0    0 -0.27039952573E+03  0.39068662458E+03  0.41264203643E+03  0.63430207574E+03  0.79458988936E+02 0.  0.
         24    2    4    4    0    0  0.45525196358E+03 -0.10931496371E+03  0.57119088963E+03  0.74360424609E+03  0.86510870841E+02 0.  0.
         11    1    3    3    0    0 -0.16566638023E+03 -0.17392566695E+03  0.69304616218E+03  0.73349060667E+03  0.00000000000E+00 0.  1.
        -11    1    3    3    0    0 -0.19186057614E+02 -0.10744599392E+03  0.41492433875E+03  0.42903957079E+03  0.00000000000E+00 0. -1.
          4    1    6    6  502    0  0.43728127435E+03 -0.12204849225E+03  0.54146741441E+03  0.70661001142E+03  0.00000000000E+00 0. -1.
          3    1    5    5  503    0 -0.13532687572E+03  0.19283871066E+03  0.25691391962E+03  0.34857552082E+03  0.00000000000E+00 0. -1.
         -4    1    5    5    0  503 -0.13507265001E+03  0.19784791392E+03  0.15572811682E+03  0.28572655493E+03  0.00000000000E+00 0.  1.
         -3    1    6    6    0  502  0.17970689221E+02  0.12733528537E+02  0.29723475213E+02  0.36994234670E+02  0.00000000000E+00 0.  1.
<mgrwt>
<rscale>  0 0.14415880E+04</rscale>
<asrwt>0</asrwt>
<pdfrwt beam="1">  1        2 0.35632613E+00 0.14415880E+04</pdfrwt>
<pdfrwt beam="2">  1       -2 0.34510238E-01 0.14415880E+04</pdfrwt>
<totfact> 0.33968542E+01</totfact>
</mgrwt>
</event>
<event>
12    1  0.1477245E-007  0.1748136E+04  0.7818608E-02  0.8734377E-01
         -2   -1    0    0    0  501 -0.00000000000E+00  0.00000000000E+00  0.87428985905E+03  0.87428985905E+03  0.00000000000E+00 0.  1.
          2   -1    0    0  501    0  0.00000000000E+00 -0.00000000000E+00 -0.87384648420E+03  0.87384648420E+03  0.00000000000E+00 0. -1.
         23    2    1    2    0    0  0.25138620917E+03  0.38756237835E+03 -0.43600696999E+03  0.64149551268E+03  0.89525368672E+02 0.  0.
        254    2    1    2    0    0 -0.25138620917E+03 -0.38756237835E+03  0.43645034484E+03  0.11066408306E+04  0.90596103729E+03 0.  0.
        -24    2    4    4    0    0  0.57450411016E+02 -0.54201845968E+03  0.79125489094E+01  0.55070951195E+03  0.78318565902E+02 0.  0.
         24    2    4    4    0    0 -0.30883662019E+03  0.15445608133E+03  0.42853779593E+03  0.55593131861E+03  0.78601841234E+02 0.  0.
         11    1    3    3    0    0  0.20414513362E+01 -0.16739822085E+01 -0.18248942120E+02  0.18438916142E+02  0.00000000000E+00 0.  1.
        -11    1    3    3    0    0  0.24934475783E+03  0.38923636056E+03 -0.41775802787E+03  0.62305659654E+03  0.00000000000E+00 0. -1.
          4    1    6    6  502    0 -0.13614516103E+02  0.44184220766E+01  0.54552942376E+02  0.56399477163E+02  0.00000000000E+00 0. -1.
          1    1    5    5  503    0  0.30225388631E+02 -0.12672451775E+03 -0.27051279428E+02  0.13305806716E+03  0.00000000000E+00 0. -1.
         -2    1    5    5    0  503  0.27225022385E+02 -0.41529394193E+03  0.34963828338E+02  0.41765144480E+03  0.00000000000E+00 0.  1.
         -3    1    6    6    0  502 -0.29522210408E+03  0.15003765925E+03  0.37398485355E+03  0.49953184145E+03  0.00000000000E+00 0.  1.
<mgrwt>
<rscale>  0 0.17481363E+04</rscale>
<asrwt>0</asrwt>
<pdfrwt beam="1">  1        2 0.13443792E+00 0.17481363E+04</pdfrwt>
<pdfrwt beam="2">  1       -2 0.13450613E+00 0.17481363E+04</pdfrwt>
<totfact> 0.11531959E+01</totfact>
</mgrwt>
</event>
<event>
12    1  0.1477245E-007  0.1399031E+04  0.7818608E-02  0.8954520E-01
         -2   -1    0    0    0  501 -0.00000000000E+00  0.00000000000E+00  0.17595346349E+03  0.17595346349E+03  0.00000000000E+00 0.  1.
          2   -1    0    0  501    0  0.00000000000E+00 -0.00000000000E+00 -0.27809737648E+04  0.27809737648E+04  0.00000000000E+00 0. -1.
         23    2    1    2    0    0  0.23351553570E+03 -0.36494772596E+03 -0.82275138765E+03  0.93413686399E+03  0.89305580415E+02 0.  0.
        254    2    1    2    0    0 -0.23351553570E+03  0.36494772596E+03 -0.17822689137E+04  0.20227903643E+04  0.85292557072E+03 0.  0.
        -24    2    4    4    0    0  0.84544166519E+02 -0.16016676227E+03 -0.10266508203E+04  0.10456079321E+04  0.80516662825E+02 0.  0.
         24    2    4    4    0    0 -0.31805970222E+03  0.52511448823E+03 -0.75561809336E+03  0.97718243221E+03  0.83783070374E+02 0.  0.
         11    1    3    3    0    0  0.31272518839E+02 -0.64273196900E+02 -0.21485509932E+03  0.22643261245E+03  0.00000000000E+00 0. -1.
        -11    1    3    3    0    0  0.20224301686E+03 -0.30067452906E+03 -0.60789628833E+03  0.70770425155E+03  0.00000000000E+00 0.  1.
          4    1    6    6  502    0 -0.20069359490E+03  0.29709224158E+03 -0.49842628665E+03  0.61397921973E+03  0.00000000000E+00 0. -1.
          3    1    5    5  503    0  0.28160160969E+02 -0.27837509967E+01 -0.96930806608E+02  0.10097685480E+03  0.00000000000E+00 0. -1.
         -4    1    5    5    0  503  0.56384005550E+02 -0.15738301127E+03 -0.92972001372E+03  0.94463107731E+03  0.00000000000E+00 0.  1.
         -1    1    6    6    0  502 -0.11736610732E+03  0.22802224665E+03 -0.25719180671E+03  0.36320321248E+03  0.00000000000E+00 0.  1.
<mgrwt>
<rscale>  0 0.13990310E+04</rscale>
<asrwt>0</asrwt>
<pdfrwt beam="1">  1        2 0.42784208E+00 0.13990310E+04</pdfrwt>
<pdfrwt beam="2">  1       -2 0.27069766E-01 0.13990310E+04</pdfrwt>
<totfact> 0.28859853E+01</totfact>
</mgrwt>
</event>
<event>
12    1  0.1477245E-007  0.2284112E+04  0.7818608E-02  0.8484212E-01
          2   -1    0    0  501    0  0.00000000000E+00  0.00000000000E+00  0.25379231650E+04  0.25379231650E+04  0.00000000000E+00 0. -1.
         -2   -1    0    0    0  501 -0.00000000000E+00 -0.00000000000E+00 -0.51392090058E+03  0.51392090058E+03  0.00000000000E+00 0.  1.
         23    2    1    2    0    0 -0.26250215762E+03  0.93010370027E+03  0.78027978525E+03  0.12454369443E+04  0.90974518344E+02 0.  0.
        254    2    1    2    0    0  0.26250215762E+03 -0.93010370027E+03  0.12437224792E+04  0.18064071213E+04  0.88445509022E+03 0.  0.
        -24    2    4    4    0    0 -0.22149390777E+03 -0.61847319934E+03  0.37362129127E+03  0.76007824111E+03  0.80977860184E+02 0.  0.
         24    2    4    4    0    0  0.48399606539E+03 -0.31163050094E+03  0.87010118793E+03  0.10463288802E+04  0.79763950917E+02 0.  0.
         11    1    3    3    0    0 -0.69408154186E+02  0.17094433179E+03  0.18790068513E+03  0.26333652218E+03  0.00000000000E+00 0. -1.
        -11    1    3    3    0    0 -0.19309400343E+03  0.75915936848E+03  0.59237910012E+03  0.98210042215E+03  0.00000000000E+00 0.  1.
          4    1    6    6  502    0  0.33191516918E+03 -0.19635981989E+03  0.51739268932E+03  0.64530617025E+03  0.00000000000E+00 0. -1.
          1    1    5    5  503    0 -0.69549506748E+02 -0.18530109277E+03  0.15624687637E+03  0.25216406414E+03  0.00000000000E+00 0. -1.
         -2    1    5    5    0  503 -0.15194440102E+03 -0.43317210656E+03  0.21737441490E+03  0.50791417696E+03  0.00000000000E+00 0.  1.
         -3    1    6    6    0  502  0.15208089621E+03 -0.11527068104E+03  0.35270849861E+03  0.40102270995E+03  0.00000000000E+00 0.  1.
<mgrwt>
<rscale>  0 0.22841119E+04</rscale>
<asrwt>0</asrwt>
<pdfrwt beam="1">  1        2 0.39044971E+00 0.22841119E+04</pdfrwt>
<pdfrwt beam="2">  1       -2 0.79064756E-01 0.22841119E+04</pdfrwt>
<totfact> 0.42632997E+00</totfact>
</mgrwt>
</event>
<event>
12    1  0.1477245E-007  0.1615431E+04  0.7818608E-02  0.8811124E-01
          2   -1    0    0  501    0  0.00000000000E+00  0.00000000000E+00  0.17608662122E+04  0.17608662122E+04  0.00000000000E+00 0. -1.
         -2   -1    0    0    0  501 -0.00000000000E+00 -0.00000000000E+00 -0.37050192431E+03  0.37050192431E+03  0.00000000000E+00 0.  1.
         23    2    1    2    0    0 -0.36611952068E+03  0.23933429357E+02 -0.62510027267E+02  0.38331636763E+03  0.91693084333E+02 0.  0.
        254    2    1    2    0    0  0.36611952068E+03 -0.23933429357E+02  0.14528743152E+04  0.17480517689E+04  0.90012493500E+03 0.  0.
        -24    2    4    4    0    0  0.27556925511E+02 -0.21480120487E+03  0.13040460532E+04  0.13243385694E+04  0.80234628908E+02 0.  0.
         24    2    4    4    0    0  0.33856259517E+03  0.19086777551E+03  0.14882826196E+03  0.42371319952E+03  0.79548006319E+02 0.  0.
         11    1    3    3    0    0 -0.48366064928E+02  0.28805052626E+02  0.10455406985E+02  0.57256640040E+02  0.00000000000E+00 0. -1.
        -11    1    3    3    0    0 -0.31775345576E+03 -0.48716232689E+01 -0.72965434252E+02  0.32605972759E+03  0.00000000000E+00 0.  1.
          4    1    6    6  502    0  0.14759285225E+03  0.12344058898E+03  0.92579630650E+02  0.21352334078E+03  0.00000000000E+00 0. -1.
          1    1    5    5  503    0 -0.48080370296E+01 -0.86221747781E+02  0.73468854510E+03  0.73974628442E+03  0.00000000000E+00 0. -1.
         -2    1    5    5    0  503  0.32364962540E+02 -0.12857945709E+03  0.56935750814E+03  0.58459228499E+03  0.00000000000E+00 0.  1.
         -3    1    6    6    0  502  0.19096974292E+03  0.67427186530E+02  0.56248631306E+02  0.21018985874E+03  0.00000000000E+00 0.  1.
<mgrwt>
<rscale>  0 0.16154310E+04</rscale>
<asrwt>0</asrwt>
<pdfrwt beam="1">  1        2 0.27090249E+00 0.16154310E+04</pdfrwt>
<pdfrwt beam="2">  1       -2 0.57000297E-01 0.16154310E+04</pdfrwt>
<totfact> 0.25068422E+01</totfact>
</mgrwt>
</event>
<event>
12    1  0.1477245E-007  0.2039733E+04  0.7818608E-02  0.8588266E-01
         -1   -1    0    0    0  501 -0.00000000000E+00  0.00000000000E+00  0.12724973866E+04  0.12724973866E+04  0.00000000000E+00 0.  1.
          1   -1    0    0  501    0  0.00000000000E+00 -0.00000000000E+00 -0.81739098628E+03  0.81739098628E+03  0.00000000000E+00 0. -1.
         23    2    1    2    0    0 -0.72665510616E+03 -0.18995716457E+03 -0.14458289185E+03  0.77047223298E+03  0.92800223558E+02 0.  0.
        254    2    1    2    0    0  0.72665510616E+03  0.18995716457E+03  0.59968929212E+03  0.13194161399E+04  0.90394708659E+03 0.  0.
        -24    2    4    4    0    0  0.87673041755E+03  0.34101799662E+03  0.44056656738E+03  0.10419291246E+04  0.81042589688E+02 0.  0.
         24    2    4    4    0    0 -0.15007531139E+03 -0.15106083204E+03  0.15912272474E+03  0.27748701525E+03  0.79605452299E+02 0.  0.
         11    1    3    3    0    0 -0.11319914508E+03 -0.49107140606E+02 -0.53528371870E+02  0.13450220927E+03  0.00000000000E+00 0.  1.
        -11    1    3    3    0    0 -0.61345596108E+03 -0.14085002397E+03 -0.91054519982E+02  0.63597002370E+03  0.00000000000E+00 0. -1.
          4    1    6    6  502    0 -0.10139783701E+03 -0.14610614155E+03  0.11657338263E+03  0.21264496111E+03  0.00000000000E+00 0. -1.
          1    1    5    5  503    0  0.39999214347E+03  0.19356906865E+03  0.22914371645E+03  0.49996954104E+03  0.00000000000E+00 0. -1.
         -2    1    5    5    0  503  0.47673827408E+03  0.14744892796E+03  0.21142285093E+03  0.54195958358E+03  0.00000000000E+00 0.  1.
         -3    1    6    6    0  502 -0.48677474384E+02 -0.49546904887E+01  0.42549342113E+02  0.64842054135E+02  0.00000000000E+00 0.  1.
<mgrwt>
<rscale>  0 0.20397332E+04</rscale>
<asrwt>0</asrwt>
<pdfrwt beam="1">  1        1 0.12575246E+00 0.20397332E+04</pdfrwt>
<pdfrwt beam="2">  1       -1 0.19576883E+00 0.20397332E+04</pdfrwt>
<totfact> 0.31784683E+00</totfact>
</mgrwt>
</event>
<event>
12    1  0.1477245E-007  0.2579232E+04  0.7818608E-02  0.8375290E-01
         -2   -1    0    0    0  501 -0.00000000000E+00  0.00000000000E+00  0.16187667043E+04  0.16187667043E+04  0.00000000000E+00 0.  1.
          2   -1    0    0  501    0  0.00000000000E+00 -0.00000000000E+00 -0.10273932586E+04  0.10273932586E+04  0.00000000000E+00 0. -1.
         23    2    1    2    0    0  0.11830966955E+03 -0.50774415365E+03  0.12844212561E+04  0.13891940367E+04  0.91218446508E+02 0.  0.
        254    2    1    2    0    0 -0.11830966955E+03  0.50774415365E+03 -0.69304781038E+03  0.12569659262E+04  0.90986085121E+03 0.  0.
        -24    2    4    4    0    0  0.20206374264E+03  0.27152474627E+03  0.10339606044E+03  0.36306947972E+03  0.81075630528E+02 0.  0.
         24    2    4    4    0    0 -0.32037341220E+03  0.23621940738E+03 -0.79644387082E+03  0.89389644644E+03  0.79305018234E+02 0.  0.
         11    1    3    3    0    0  0.11234337716E+03 -0.47729989395E+03  0.12506314744E+04  0.13433224884E+04  0.00000000000E+00 0.  1.
        -11    1    3    3    0    0  0.59662923914E+01 -0.30444259693E+02  0.33789781735E+02  0.45871548294E+02  0.00000000000E+00 0. -1.
          4    1    6    6  502    0 -0.24926163077E+03  0.18084593881E+03 -0.68134867113E+03  0.74771159267E+03  0.00000000000E+00 0. -1.
          1    1    5    5  503    0  0.71912798784E+02  0.16446858385E+03  0.54598862169E+02  0.18762303018E+03  0.00000000000E+00 0. -1.
         -2    1    5    5    0  503  0.13015094386E+03  0.10705616241E+03  0.48797198269E+02  0.17544644954E+03  0.00000000000E+00 0.  1.
         -3    1    6    6    0  502 -0.71111781431E+02  0.55373468571E+02 -0.11509519969E+03  0.14618485377E+03  0.00000000000E+00 0.  1.
<mgrwt>
<rscale>  0 0.25792324E+04</rscale>
<asrwt>0</asrwt>
<pdfrwt beam="1">  1        2 0.15806050E+00 0.25792324E+04</pdfrwt>
<pdfrwt beam="2">  1       -2 0.24904103E+00 0.25792324E+04</pdfrwt>
<totfact> 0.13962599E+00</totfact>
</mgrwt>
</event>
<event>
12    1  0.1477245E-007  0.2995545E+04  0.7818608E-02  0.8245004E-01
          1   -1    0    0  501    0  0.00000000000E+00  0.00000000000E+00  0.13179304154E+04  0.13179304154E+04  0.00000000000E+00 0. -1.
         -1   -1    0    0    0  501 -0.00000000000E+00 -0.00000000000E+00 -0.17021554693E+04  0.17021554693E+04  0.00000000000E+00 0.  1.
         23    2    1    2    0    0  0.87864712381E+03  0.81849076229E+03 -0.82658610648E+03  0.14609162282E+04  0.95308646993E+02 0.  0.
        254    2    1    2    0    0 -0.87864712381E+03 -0.81849076229E+03  0.44236105261E+03  0.15591696566E+04  0.89071814903E+03 0.  0.
        -24    2    4    4    0    0 -0.44348730774E+03 -0.85318665993E+02 -0.18791027730E+03  0.49552229743E+03  0.79194747571E+02 0.  0.
         24    2    4    4    0    0 -0.43515981607E+03 -0.73317209629E+03  0.63027132992E+03  0.10636473591E+04  0.84843190683E+02 0.  0.
         13    1    3    3    0    0  0.38626724373E+03  0.32409730745E+03 -0.29961438962E+03  0.58652385351E+03  0.00000000000E+00 0. -1.
        -13    1    3    3    0    0  0.49237988008E+03  0.49439345484E+03 -0.52697171686E+03  0.87439237466E+03  0.00000000000E+00 0.  1.
          2    1    6    6  502    0 -0.21010558857E+03 -0.30940910892E+03  0.32031728009E+03  0.49242412101E+03  0.00000000000E+00 0. -1.
          1    1    5    5  503    0 -0.21549707950E+02  0.91308144052E+01  0.15494279332E+01  0.23455541165E+02  0.00000000000E+00 0. -1.
         -4    1    5    5    0  503 -0.42193759979E+03 -0.94449480398E+02 -0.18945970524E+03  0.47206675627E+03  0.00000000000E+00 0.  1.
         -3    1    6    6    0  502 -0.22505422750E+03 -0.42376298738E+03  0.30995404983E+03  0.57122323814E+03  0.00000000000E+00 0.  1.
<mgrwt>
<rscale>  0 0.29955450E+04</rscale>
<asrwt>0</asrwt>
<pdfrwt beam="1">  1        1 0.20275853E+00 0.29955450E+04</pdfrwt>
<pdfrwt beam="2">  1       -1 0.26187007E+00 0.29955450E+04</pdfrwt>
<totfact> 0.43625752E-01</totfact>
</mgrwt>
</event>
<event>
12    1  0.1477245E-007  0.2461000E+04  0.7818608E-02  0.8417013E-01
         -2   -1    0    0    0  501 -0.00000000000E+00  0.00000000000E+00  0.46649624034E+03  0.46649624034E+03  0.00000000000E+00 0.  1.
          2   -1    0    0  501    0  0.00000000000E+00 -0.00000000000E+00 -0.32457507800E+04  0.32457507800E+04  0.00000000000E+00 0. -1.
         23    2    1    2    0    0 -0.24146761715E+03  0.92579888622E+03 -0.50264991272E+03  0.10847491485E+04  0.92809441648E+02 0.  0.
        254    2    1    2    0    0  0.24146761715E+03 -0.92579888622E+03 -0.22766046270E+04  0.26274978719E+04  0.89744428881E+03 0.  0.
        -24    2    4    4    0    0 -0.19090684025E+03 -0.13062203761E+03 -0.11710453559E+04  0.11964010290E+04  0.80750592909E+02 0.  0.
         24    2    4    4    0    0  0.43237445740E+03 -0.79517684862E+03 -0.11055592711E+04  0.14310968430E+04  0.80764967606E+02 0.  0.
         11    1    3    3    0    0  0.14282893337E+01  0.63099472087E+02 -0.16910719956E+02  0.65341838339E+02  0.00000000000E+00 0. -1.
        -11    1    3    3    0    0 -0.24289590648E+03  0.86269941414E+03 -0.48573919276E+03  0.10194073101E+04  0.00000000000E+00 0.  1.
          4    1    6    6  502    0  0.49044457842E+02 -0.15472449194E+03 -0.19941450562E+03  0.25712092933E+03  0.00000000000E+00 0. -1.
          1    1    5    5  503    0 -0.78271874157E+02 -0.40922399512E+02 -0.64446982613E+03  0.65049403214E+03  0.00000000000E+00 0. -1.
         -2    1    5    5    0  503 -0.11263496609E+03 -0.89699638095E+02 -0.52657552974E+03  0.54590699682E+03  0.00000000000E+00 0.  1.
         -3    1    6    6    0  502  0.38332999956E+03 -0.64045235668E+03 -0.90614476549E+03  0.11739759136E+04  0.00000000000E+00 0.  1.
<mgrwt>
<rscale>  0 0.24610002E+04</rscale>
<asrwt>0</asrwt>
<pdfrwt beam="1">  1        2 0.49934627E+00 0.24610002E+04</pdfrwt>
<pdfrwt beam="2">  1       -2 0.71768652E-01 0.24610002E+04</pdfrwt>
<totfact> 0.19070898E+00</totfact>
</mgrwt>
</event>
<event>
12    1  0.1477245E-007  0.1563054E+04  0.7818608E-02  0.8843573E-01
         -1   -1    0    0    0  501 -0.00000000000E+00  0.00000000000E+00  0.35137808354E+03  0.35137808354E+03  0.00000000000E+00 0.  1.
          1   -1    0    0  501    0  0.00000000000E+00 -0.00000000000E+00 -0.17382531640E+04  0.17382531640E+04  0.00000000000E+00 0. -1.
         23    2    1    2    0    0  0.49948926442E+03 -0.10668998091E+03 -0.65715332675E+03  0.83721264017E+03  0.90566178674E+02 0.  0.
        254    2    1    2    0    0 -0.49948926442E+03  0.10668998091E+03 -0.72972175376E+03  0.12524186074E+04  0.88044662132E+03 0.  0.
        -24    2    4    4    0    0  0.22972921366E+03 -0.85851092358E+02 -0.19566947687E+03  0.32442826619E+03  0.82590762516E+02 0.  0.
         24    2    4    4    0    0 -0.72921847807E+03  0.19254107327E+03 -0.53405227688E+03  0.92799034123E+03  0.84395410497E+02 0.  0.
         13    1    3    3    0    0  0.20708523457E+03 -0.23807560714E+02 -0.33302872901E+03  0.39288577051E+03  0.00000000000E+00 0.  1.
        -13    1    3    3    0    0  0.29240402984E+03 -0.82882420194E+02 -0.32412459774E+03  0.44432686966E+03  0.00000000000E+00 0. -1.
          2    1    6    6  502    0 -0.53421534172E+03  0.15432428857E+03 -0.43479330172E+03  0.70586629938E+03  0.00000000000E+00 0. -1.
          1    1    5    5  503    0  0.19729137399E+03 -0.40468196872E+02 -0.13766976908E+03  0.24395599301E+03  0.00000000000E+00 0. -1.
         -2    1    5    5    0  503  0.32437839667E+02 -0.45382895486E+02 -0.57999707798E+02  0.80472273173E+02  0.00000000000E+00 0.  1.
         -1    1    6    6    0  502 -0.19500313635E+03  0.38216784694E+02 -0.99258975168E+02  0.22212404185E+03  0.00000000000E+00 0.  1.
<mgrwt>
<rscale>  0 0.15630535E+04</rscale>
<asrwt>0</asrwt>
<pdfrwt beam="1">  1        1 0.26742356E+00 0.15630535E+04</pdfrwt>
<pdfrwt beam="2">  1       -1 0.54058167E-01 0.15630535E+04</pdfrwt>
<totfact> 0.14924406E+01</totfact>
</mgrwt>
</event>
<event>
12    1  0.1477245E-007  0.1540828E+04  0.7818608E-02  0.8857748E-01
          1   -1    0    0  501    0  0.00000000000E+00  0.00000000000E+00  0.88884049985E+03  0.88884049985E+03  0.00000000000E+00 0. -1.
         -1   -1    0    0    0  501 -0.00000000000E+00 -0.00000000000E+00 -0.66776607495E+03  0.66776607495E+03  0.00000000000E+00 0.  1.
         23    2    1    2    0    0  0.11348900810E+03 -0.89177472818E+02 -0.41355590711E+03  0.44741316848E+03  0.91201307065E+02 0.  0.
        254    2    1    2    0    0 -0.11348900810E+03  0.89177472818E+02  0.63463033201E+03  0.11091934063E+04  0.89817703027E+03 0.  0.
        -24    2    4    4    0    0  0.32104730478E+03  0.10259866831E+03  0.12647661676E+02  0.34609328211E+03  0.77606300832E+02 0.  0.
         24    2    4    4    0    0 -0.43453631287E+03 -0.13421195497E+02  0.62198267033E+03  0.76310012422E+03  0.80358084162E+02 0.  0.
         11    1    3    3    0    0 -0.90685986156E+01 -0.35977552666E+02 -0.86769600225E+02  0.94369419305E+02  0.00000000000E+00 0. -1.
        -11    1    3    3    0    0  0.12255760671E+03 -0.53199920152E+02 -0.32678630688E+03  0.35304374918E+03  0.00000000000E+00 0.  1.
          2    1    6    6  502    0 -0.10788251437E+02 -0.12138396009E+02  0.40176971501E+02  0.43334928935E+02  0.00000000000E+00 0. -1.
          1    1    5    5  503    0  0.13712021124E+03  0.19391730419E+02 -0.25047136938E+02  0.14073148407E+03  0.00000000000E+00 0. -1.
         -2    1    5    5    0  503  0.18392709353E+03  0.83206937896E+02  0.37694798614E+02  0.20536179804E+03  0.00000000000E+00 0.  1.
         -3    1    6    6    0  502 -0.42374806144E+03 -0.12827994875E+01  0.58180569883E+03  0.71976519528E+03  0.00000000000E+00 0.  1.
<mgrwt>
<rscale>  0 0.15408277E+04</rscale>
<asrwt>0</asrwt>
<pdfrwt beam="1">  1        1 0.13674469E+00 0.15408277E+04</pdfrwt>
<pdfrwt beam="2">  1       -1 0.10273324E+00 0.15408277E+04</pdfrwt>
<totfact> 0.16055241E+01</totfact>
</mgrwt>
</event>
<event>
12    1  0.1477245E-007  0.2399306E+04  0.7818608E-02  0.8439764E-01
         -2   -1    0    0    0  501 -0.00000000000E+00  0.00000000000E+00  0.92453104849E+03  0.92453104849E+03  0.00000000000E+00 0. -1.
          2   -1    0    0  501    0  0.00000000000E+00 -0.00000000000E+00 -0.15566451866E+04  0.15566451866E+04  0.00000000000E+00 0.  1.
         23    2    1    2    0    0  0.70761426888E+03 -0.82317766784E+02 -0.10295252783E+04  0.12553544696E+04  0.92186644712E+02 0.  0.
        254    2    1    2    0    0 -0.70761426888E+03  0.82317766784E+02  0.39741114016E+03  0.12258217655E+04  0.91499137603E+03 0.  0.
        -24    2    4    4    0    0 -0.77881448364E+03  0.32872114116E+03  0.43469699864E+03  0.95394472885E+03  0.80246348859E+02 0.  0.
         24    2    4    4    0    0  0.71200214756E+02 -0.24640337437E+03 -0.37285858479E+02  0.27187703665E+03  0.82114519626E+02 0.  0.
         13    1    3    3    0    0  0.21911515399E+02  0.13348305937E+02 -0.30193115810E+02  0.39622165777E+02  0.00000000000E+00 0. -1.
        -13    1    3    3    0    0  0.68570275348E+03 -0.95666072722E+02 -0.99933216247E+03  0.12157323038E+04  0.00000000000E+00 0.  1.
          4    1    6    6  502    0  0.57964171745E+02 -0.19273009489E+03 -0.63027710541E+02  0.21089624696E+03  0.00000000000E+00 0. -1.
          1    1    5    5  503    0 -0.76159607113E+03  0.31409607672E+03  0.43443230158E+03  0.93135189140E+03  0.00000000000E+00 0. -1.
         -2    1    5    5    0  503 -0.17218412509E+02  0.14625064442E+02  0.26469705927E+00  0.22592837444E+02  0.00000000000E+00 0.  1.
         -1    1    6    6    0  502  0.13236043011E+02 -0.53673279478E+02  0.25741852062E+02  0.60980789698E+02  0.00000000000E+00 0.  1.
<mgrwt>
<rscale>  0 0.23993056E+04</rscale>
<asrwt>0</asrwt>
<pdfrwt beam="1">  1        2 0.23948387E+00 0.23993056E+04</pdfrwt>
<pdfrwt beam="2">  1       -2 0.14223555E+00 0.23993056E+04</pdfrwt>
<totfact> 0.36558764E+00</totfact>
</mgrwt>
</event>
<event>
12    1  0.1477245E-007  0.1889290E+04  0.7818608E-02  0.8660206E-01
         -1   -1    0    0    0  501 -0.00000000000E+00  0.00000000000E+00  0.20360351764E+04  0.20360351764E+04  0.00000000000E+00 0.  1.
          1   -1    0    0  501    0  0.00000000000E+00 -0.00000000000E+00 -0.43828010238E+03  0.43828010238E+03  0.00000000000E+00 0. -1.
         23    2    1    2    0    0  0.58597819546E+03  0.43617256596E+03  0.64241324638E+03  0.97821282290E+03  0.10290089848E+03 0.  0.
        254    2    1    2    0    0 -0.58597819546E+03 -0.43617256596E+03  0.95534182765E+03  0.14961024559E+04  0.88995932378E+03 0.  0.
        -24    2    4    4    0    0 -0.78502947842E+03 -0.46369042544E+03  0.87166379844E+03  0.12638383992E+04  0.78801200202E+02 0.  0.
         24    2    4    4    0    0  0.19905128295E+03  0.27517859477E+02  0.83678029209E+02  0.23226405668E+03  0.81030448716E+02 0.  0.
         11    1    3    3    0    0  0.50640285618E+03  0.41594173635E+03  0.57904280373E+03  0.87449525404E+03  0.00000000000E+00 0. -1.
        -11    1    3    3    0    0  0.79575339281E+02  0.20230829607E+02  0.63370442655E+02  0.10371756886E+03  0.00000000000E+00 0.  1.
          4    1    6    6  502    0  0.17712525620E+03  0.43856182219E+02  0.91071656674E+02  0.20393814688E+03  0.00000000000E+00 0. -1.
          1    1    5    5  503    0 -0.75883232687E+03 -0.46282149515E+03  0.84967440314E+03  0.12296246696E+04  0.00000000000E+00 0. -1.
         -4    1    5    5    0  503 -0.26197151549E+02 -0.86893028381E+00  0.21989395297E+02  0.34213729622E+02  0.00000000000E+00 0.  1.
         -3    1    6    6    0  502  0.21926026752E+02 -0.16338322742E+02 -0.73936274647E+01  0.28325909804E+02  0.00000000000E+00 0.  1.
<mgrwt>
<rscale>  0 0.18892895E+04</rscale>
<asrwt>0</asrwt>
<pdfrwt beam="1">  1        1 0.67427709E-01 0.18892895E+04</pdfrwt>
<pdfrwt beam="2">  1       -1 0.31323618E+00 0.18892895E+04</pdfrwt>
<totfact> 0.13479083E+00</totfact>
</mgrwt>
</event>
<event>
12    1  0.1477245E-007  0.1524300E+04  0.7818608E-02  0.8868453E-01
         -2   -1    0    0    0  501 -0.00000000000E+00  0.00000000000E+00  0.24024569918E+03  0.24024569918E+03  0.00000000000E+00 0.  1.
          2   -1    0    0  501    0  0.00000000000E+00 -0.00000000000E+00 -0.24178270347E+04  0.24178270347E+04  0.00000000000E+00 0. -1.
         23    2    1    2    0    0  0.23030990389E+03  0.31774216384E+03 -0.17353293701E+03  0.43839490870E+03  0.89853665670E+02 0.  0.
        254    2    1    2    0    0 -0.23030990389E+03 -0.31774216384E+03 -0.20040483985E+04  0.22196778252E+04  0.86991777170E+03 0.  0.
        -24    2    4    4    0    0  0.11999826134E+03 -0.16512809769E+03 -0.17276583668E+04  0.17414677777E+04  0.78991878732E+02 0.  0.
         24    2    4    4    0    0 -0.35030816523E+03 -0.15261406614E+03 -0.27639003172E+03  0.47821004752E+03  0.79287679411E+02 0.  0.
         13    1    3    3    0    0  0.15134284591E+03  0.23731450159E+03 -0.81916698811E+02  0.29314360852E+03  0.00000000000E+00 0. -1.
        -13    1    3    3    0    0  0.78967057980E+02  0.80427662244E+02 -0.91616238200E+02  0.14525130017E+03  0.00000000000E+00 0.  1.
          4    1    6    6  502    0 -0.57345572577E+02 -0.43334945751E+02 -0.86177457759E+02  0.11221847639E+03  0.00000000000E+00 0. -1.
          1    1    5    5  503    0  0.10331794189E+03 -0.76561556416E+02 -0.98291046264E+03  0.99128666217E+03  0.00000000000E+00 0. -1.
         -2    1    5    5    0  503  0.16680319447E+02 -0.88566541277E+02 -0.74474790415E+03  0.75018111548E+03  0.00000000000E+00 0.  1.
         -3    1    6    6    0  502 -0.29296259265E+03 -0.10927912039E+03 -0.19021257396E+03  0.36599157113E+03  0.00000000000E+00 0.  1.
<mgrwt>
<rscale>  0 0.15242999E+04</rscale>
<asrwt>0</asrwt>
<pdfrwt beam="1">  1        2 0.37197339E+00 0.15242999E+04</pdfrwt>
<pdfrwt beam="2">  1       -2 0.36960877E-01 0.15242999E+04</pdfrwt>
<totfact> 0.25885061E+01</totfact>
</mgrwt>
</event>
<event>
12    1  0.1477245E-007  0.3864034E+04  0.7818608E-02  0.8032551E-01
          1   -1    0    0  501    0  0.00000000000E+00  0.00000000000E+00  0.19230869769E+04  0.19230869769E+04  0.00000000000E+00 0.  1.
         -1   -1    0    0    0  501 -0.00000000000E+00 -0.00000000000E+00 -0.19409889489E+04  0.19409889489E+04  0.00000000000E+00 0. -1.
         23    2    1    2    0    0 -0.12069653412E+04 -0.44293928219E+03 -0.13065021718E+04  0.18355294025E+04  0.96227438217E+02 0.  0.
        254    2    1    2    0    0  0.12069653412E+04  0.44293928219E+03  0.12886001998E+04  0.20285465233E+04  0.89529323667E+03 0.  0.
        -24    2    4    4    0    0  0.16037822159E+02 -0.18427220663E+03  0.27535344375E+03  0.34184692026E+03  0.82621668002E+02 0.  0.
         24    2    4    4    0    0  0.11909275190E+04  0.62721148883E+03  0.10132467561E+04  0.16866996030E+04  0.81141573241E+02 0.  0.
         13    1    3    3    0    0 -0.11620234927E+04 -0.43978107948E+03 -0.12413627696E+04  0.17563278513E+04  0.00000000000E+00 0. -1.
        -13    1    3    3    0    0 -0.44941848488E+02 -0.31582027142E+01 -0.65139402238E+02  0.79201551209E+02  0.00000000000E+00 0.  1.
          4    1    6    6  502    0  0.12066500432E+03  0.71060237080E+02  0.76816488345E+02  0.15971967144E+03  0.00000000000E+00 0. -1.
          3    1    5    5  503    0  0.38136752124E+02 -0.36665908381E+02  0.62571158828E+02  0.81938700362E+02  0.00000000000E+00 0. -1.
         -4    1    5    5    0  503 -0.22098929965E+02 -0.14760629825E+03  0.21278228493E+03  0.25990821989E+03  0.00000000000E+00 0.  1.
         -3    1    6    6    0  502  0.10702625147E+04  0.55615125175E+03  0.93643026771E+03  0.15269799316E+04  0.00000000000E+00 0.  1.
<mgrwt>
<rscale>  0 0.38640345E+04</rscale>
<asrwt>0</asrwt>
<pdfrwt beam="1">  1        1 0.29585954E+00 0.38640345E+04</pdfrwt>
<pdfrwt beam="2">  1       -1 0.29861368E+00 0.38640345E+04</pdfrwt>
<totfact> 0.89671225E-02</totfact>
</mgrwt>
</event>
<event>
12    1  0.1477245E-007  0.2296689E+04  0.7818608E-02  0.8479228E-01
         -2   -1    0    0    0  501 -0.00000000000E+00  0.00000000000E+00  0.16835454725E+04  0.16835454725E+04  0.00000000000E+00 0.  1.
          2   -1    0    0  501    0  0.00000000000E+00 -0.00000000000E+00 -0.78328421172E+03  0.78328421172E+03  0.00000000000E+00 0. -1.
         23    2    1    2    0    0 -0.19253896906E+03  0.90736150534E+03  0.79327530556E+02  0.93608404170E+03  0.97899540495E+02 0.  0.
        254    2    1    2    0    0  0.19253896906E+03 -0.90736150534E+03  0.82093373024E+03  0.15307456425E+04  0.89937415835E+03 0.  0.
        -24    2    4    4    0    0 -0.30354266899E+03 -0.46172373553E+03  0.60787917464E+03  0.82522032407E+03  0.78387068068E+02 0.  0.
         24    2    4    4    0    0  0.49608163805E+03 -0.44563776981E+03  0.21305455559E+03  0.70552531846E+03  0.87656818534E+02 0.  0.
         13    1    3    3    0    0 -0.86802667664E+02  0.32550507460E+03  0.72828994072E+02  0.34466261631E+03  0.00000000000E+00 0. -1.
        -13    1    3    3    0    0 -0.10573630140E+03  0.58185643074E+03  0.64985364841E+01  0.59142142539E+03  0.00000000000E+00 0.  1.
          2    1    6    6  502    0  0.13936634948E+03 -0.99956510239E+02  0.20285291658E+02  0.17270140811E+03  0.00000000000E+00 0. -1.
          1    1    5    5  503    0 -0.49819465072E+02 -0.12809734174E+03  0.17710420116E+03  0.22418029826E+03  0.00000000000E+00 0. -1.
         -2    1    5    5    0  503 -0.25372320392E+03 -0.33362639379E+03  0.43077497348E+03  0.60104002580E+03  0.00000000000E+00 0.  1.
         -1    1    6    6    0  502  0.35671528858E+03 -0.34568125957E+03  0.19276926394E+03  0.53282391035E+03  0.00000000000E+00 0.  1.
<mgrwt>
<rscale>  0 0.22966886E+04</rscale>
<asrwt>0</asrwt>
<pdfrwt beam="1">  1        2 0.12050526E+00 0.22966886E+04</pdfrwt>
<pdfrwt beam="2">  1       -2 0.25900700E+00 0.22966886E+04</pdfrwt>
<totfact> 0.18174653E+00</totfact>
</mgrwt>
</event>
<event>
12    1  0.1477245E-007  0.1378848E+04  0.7818608E-02  0.8969273E-01
          2   -1    0    0  501    0  0.00000000000E+00  0.00000000000E+00  0.27818222774E+04  0.27818222774E+04  0.00000000000E+00 0. -1.
         -2   -1    0    0    0  501 -0.00000000000E+00 -0.00000000000E+00 -0.17086130125E+03  0.17086130125E+03  0.00000000000E+00 0.  1.
         23    2    1    2    0    0 -0.44868432125E+02  0.83998345434E+01 -0.70967591170E+02  0.12431422226E+03  0.91290160687E+02 0.  0.
        254    2    1    2    0    0  0.44868432125E+02 -0.83998345434E+01  0.26819285673E+04  0.28283693563E+04  0.89713357003E+03 0.  0.
        -24    2    4    4    0    0  0.59340795904E+02 -0.30655096771E+03  0.34235384120E+03  0.46860298820E+03  0.69912674836E+02 0.  0.
         24    2    4    4    0    0 -0.14472363779E+02  0.29815113316E+03  0.23395747261E+04  0.23597663681E+04  0.76051731068E+02 0.  0.
         11    1    3    3    0    0  0.14476272793E+02 -0.22110101061E+02 -0.46032606879E+02  0.53079373951E+02  0.00000000000E+00 0. -1.
        -11    1    3    3    0    0 -0.59344704917E+02  0.30509935604E+02 -0.24934984291E+02  0.71234848311E+02  0.00000000000E+00 0.  1.
          2    1    6    6  502    0  0.62290366835E+01  0.73299914771E+02  0.84959784681E+03  0.85277674670E+03  0.00000000000E+00 0. -1.
          1    1    5    5  503    0 -0.10920751290E+02 -0.42328224895E+02  0.27658162837E+02  0.51729250942E+02  0.00000000000E+00 0. -1.
         -2    1    5    5    0  503  0.70261547194E+02 -0.26422274281E+03  0.31469567836E+03  0.41687373725E+03  0.00000000000E+00 0.  1.
         -1    1    6    6    0  502 -0.20701400463E+02  0.22485121839E+03  0.14899768793E+04  0.15069896214E+04  0.00000000000E+00 0.  1.
<mgrwt>
<rscale>  0 0.13788485E+04</rscale>
<asrwt>0</asrwt>
<pdfrwt beam="1">  1        2 0.42797262E+00 0.13788485E+04</pdfrwt>
<pdfrwt beam="2">  1       -2 0.26286356E-01 0.13788485E+04</pdfrwt>
<totfact> 0.30474373E+01</totfact>
</mgrwt>
</event>
<event>
12    1  0.1477245E-007  0.2149063E+04  0.7818608E-02  0.8539933E-01
         -1   -1    0    0    0  501 -0.00000000000E+00  0.00000000000E+00  0.14156092752E+04  0.14156092752E+04  0.00000000000E+00 0.  1.
          1   -1    0    0  501    0  0.00000000000E+00 -0.00000000000E+00 -0.81563319649E+03  0.81563319649E+03  0.00000000000E+00 0. -1.
         23    2    1    2    0    0  0.40083479934E+03  0.12413097655E+03  0.10527386687E+04  0.11385997872E+04  0.10988054911E+03 0.  0.
        254    2    1    2    0    0 -0.40083479934E+03 -0.12413097655E+03 -0.45276259005E+03  0.10926426845E+04  0.90155257045E+03 0.  0.
        -24    2    4    4    0    0 -0.66892976699E+03 -0.20229898835E+03 -0.33774970326E+03  0.78013025251E+03  0.78335400470E+02 0.  0.
         24    2    4    4    0    0  0.26809496766E+03  0.78168011797E+02 -0.11501288678E+03  0.31251243196E+03  0.80317533916E+02 0.  0.
         13    1    3    3    0    0  0.26260210069E+03  0.30622871852E+02  0.70338038252E+03  0.75142636771E+03  0.00000000000E+00 0.  1.
        -13    1    3    3    0    0  0.13823269865E+03  0.93508104700E+02  0.34935828620E+03  0.38717341949E+03  0.00000000000E+00 0. -1.
          4    1    6    6  502    0  0.31666489596E+02 -0.13362518244E+02 -0.28439731966E+02  0.44611005497E+02  0.00000000000E+00 0. -1.
          3    1    5    5  503    0 -0.19636971040E+03 -0.23487547782E+02 -0.86712946448E+02  0.21594412042E+03  0.00000000000E+00 0. -1.
         -4    1    5    5    0  503 -0.47256005660E+03 -0.17881144057E+03 -0.25103675682E+03  0.56418613209E+03  0.00000000000E+00 0.  1.
         -3    1    6    6    0  502  0.23642847806E+03  0.91530530041E+02 -0.86573154818E+02  0.26790142647E+03  0.00000000000E+00 0.  1.
<mgrwt>
<rscale>  0 0.21490630E+04</rscale>
<asrwt>0</asrwt>
<pdfrwt beam="1">  1        1 0.12548203E+00 0.21490630E+04</pdfrwt>
<pdfrwt beam="2">  1       -1 0.21778604E+00 0.21490630E+04</pdfrwt>
<totfact> 0.22345988E+00</totfact>
</mgrwt>
</event>
<event>
12    1  0.1477245E-007  0.2881428E+04  0.7818608E-02  0.8278425E-01
         -2   -1    0    0    0  501 -0.00000000000E+00  0.00000000000E+00  0.65076809895E+03  0.65076809895E+03  0.00000000000E+00 0.  1.
          2   -1    0    0  501    0  0.00000000000E+00 -0.00000000000E+00 -0.31895488299E+04  0.31895488299E+04  0.00000000000E+00 0. -1.
         23    2    1    2    0    0  0.81583866953E+03  0.84285812461E+03 -0.18872274171E+04  0.22239612610E+04  0.91508544088E+02 0.  0.
        254    2    1    2    0    0 -0.81583866953E+03 -0.84285812461E+03 -0.65155331386E+03  0.16163556679E+04  0.90115557553E+03 0.  0.
        -24    2    4    4    0    0 -0.16154866433E+03 -0.62720248881E+03  0.17673708963E+02  0.65267173903E+03  0.78658159329E+02 0.  0.
         24    2    4    4    0    0 -0.65429000520E+03 -0.21565563581E+03 -0.66922702282E+03  0.96368392883E+03  0.78861539785E+02 0.  0.
         13    1    3    3    0    0  0.21414851690E+03  0.24354394987E+03 -0.45209239314E+03  0.55638186054E+03  0.00000000000E+00 0.  1.
        -13    1    3    3    0    0  0.60169015262E+03  0.59931417475E+03 -0.14351350239E+04  0.16675794004E+04  0.00000000000E+00 0. -1.
          4    1    6    6  502    0 -0.53251489246E+03 -0.15909391255E+03 -0.57470495311E+03  0.79948031048E+03  0.00000000000E+00 0. -1.
          1    1    5    5  503    0 -0.15582785188E+03 -0.60638094908E+03  0.31763271623E+02  0.62688841132E+03  0.00000000000E+00 0. -1.
         -2    1    5    5    0  503 -0.57208124494E+01 -0.20821539728E+02 -0.14089562660E+02  0.25783327707E+02  0.00000000000E+00 0.  1.
         -3    1    6    6    0  502 -0.12177511273E+03 -0.56561723254E+02 -0.94522069706E+02  0.16420361835E+03  0.00000000000E+00 0.  1.
<mgrwt>
<rscale>  0 0.28814279E+04</rscale>
<asrwt>0</asrwt>
<pdfrwt beam="1">  1        2 0.49069982E+00 0.28814279E+04</pdfrwt>
<pdfrwt beam="2">  1       -2 0.10011817E+00 0.28814279E+04</pdfrwt>
<totfact> 0.93739812E-01</totfact>
</mgrwt>
</event>
<event>
12    1  0.1477245E-007  0.1818834E+04  0.7818608E-02  0.8696347E-01
         -2   -1    0    0    0  501 -0.00000000000E+00  0.00000000000E+00  0.19399472363E+04  0.19399472363E+04  0.00000000000E+00 0.  1.
          2   -1    0    0  501    0  0.00000000000E+00 -0.00000000000E+00 -0.42632045151E+03  0.42632045151E+03  0.00000000000E+00 0. -1.
         23    2    1    2    0    0 -0.18332198399E+03  0.36361813820E+03 -0.14247059518E+03  0.44064201080E+03  0.89679490148E+02 0.  0.
        254    2    1    2    0    0  0.18332198399E+03 -0.36361813820E+03  0.16560973800E+04  0.19256256770E+04  0.89417594231E+03 0.  0.
        -24    2    4    4    0    0 -0.12082790409E+03 -0.41701413769E+03  0.15126946264E+04  0.15757964451E+04  0.79932659092E+02 0.  0.
         24    2    4    4    0    0  0.30414988808E+03  0.53395999487E+02  0.14340275357E+03  0.34982923199E+03  0.80360777994E+02 0.  0.
         11    1    3    3    0    0 -0.10680378152E+02 -0.35199928612E+01 -0.46327743060E+01  0.12162377440E+02  0.00000000000E+00 0.  1.
        -11    1    3    3    0    0 -0.17264160583E+03  0.36713813106E+03 -0.13783782087E+03  0.42847963336E+03  0.00000000000E+00 0. -1.
          4    1    6    6  502    0  0.25302553411E+03  0.24198285795E+02  0.14152664890E+03  0.29092485335E+03  0.00000000000E+00 0. -1.
          3    1    5    5  503    0 -0.11707083759E+03 -0.37081552681E+03  0.12514573675E+04  0.13104790264E+04  0.00000000000E+00 0. -1.
         -4    1    5    5    0  503 -0.37570665013E+01 -0.46198610882E+02  0.26123725894E+03  0.26531741868E+03  0.00000000000E+00 0.  1.
         -3    1    6    6    0  502  0.51124353968E+02  0.29197713692E+02  0.18761046671E+01  0.58904378633E+02  0.00000000000E+00 0.  1.
<mgrwt>
<rscale>  0 0.18188339E+04</rscale>
<asrwt>0</asrwt>
<pdfrwt beam="1">  1        2 0.65587763E-01 0.18188339E+04</pdfrwt>
<pdfrwt beam="2">  1       -2 0.29845342E+00 0.18188339E+04</pdfrwt>
<totfact> 0.22687841E+00</totfact>
</mgrwt>
</event>
<event>
12    1  0.1477245E-007  0.2635983E+04  0.7818608E-02  0.8356080E-01
         -2   -1    0    0    0  501 -0.00000000000E+00  0.00000000000E+00  0.10644705309E+04  0.10644705309E+04  0.00000000000E+00 0.  1.
          2   -1    0    0  501    0  0.00000000000E+00 -0.00000000000E+00 -0.16318927986E+04  0.16318927986E+04  0.00000000000E+00 0. -1.
         23    2    1    2    0    0 -0.95330148518E+03 -0.47712337499E+03 -0.73328373602E+03  0.12971612658E+04  0.92151371438E+02 0.  0.
        254    2    1    2    0    0  0.95330148518E+03  0.47712337499E+03  0.16586146826E+03  0.13992020637E+04  0.89096910824E+03 0.  0.
        -24    2    4    4    0    0 -0.12660380475E+03  0.83833007117E+02  0.17803130346E+03  0.24708032668E+03  0.79353930980E+02 0.  0.
         24    2    4    4    0    0  0.10799052899E+04  0.39329036787E+03 -0.12169835199E+02  0.11521217370E+04  0.79772447462E+02 0.  0.
         13    1    3    3    0    0 -0.94971278586E+03 -0.46738745456E+03 -0.73142763039E+03  0.12866202963E+04  0.00000000000E+00 0. -1.
        -13    1    3    3    0    0 -0.35886993188E+01 -0.97359204228E+01 -0.18561056308E+01  0.10540969471E+02  0.00000000000E+00 0.  1.
          2    1    6    6  502    0  0.84294690012E+03  0.27122544541E+03 -0.93986879028E+01  0.88555691743E+03  0.00000000000E+00 0. -1.
          1    1    5    5  503    0 -0.20763211195E+02  0.59045761700E+02  0.67443837966E+02  0.92011869851E+02  0.00000000000E+00 0. -1.
         -2    1    5    5    0  503 -0.10584059356E+03  0.24787245417E+02  0.11058746549E+03  0.15506845683E+03  0.00000000000E+00 0.  1.
         -1    1    6    6    0  502  0.23695838981E+03  0.12206492246E+03 -0.27711472965E+01  0.26656481961E+03  0.00000000000E+00 0.  1.
<mgrwt>
<rscale>  0 0.26359832E+04</rscale>
<asrwt>0</asrwt>
<pdfrwt beam="1">  1        2 0.25106043E+00 0.26359832E+04</pdfrwt>
<pdfrwt beam="2">  1       -2 0.16376470E+00 0.26359832E+04</pdfrwt>
<totfact> 0.22314596E+00</totfact>
</mgrwt>
</event>
<event>
12    1  0.1477245E-007  0.1597903E+04  0.7818608E-02  0.8821837E-01
         -2   -1    0    0    0  501 -0.00000000000E+00  0.00000000000E+00  0.56485963061E+03  0.56485963061E+03  0.00000000000E+00 0. -1.
          2   -1    0    0  501    0  0.00000000000E+00 -0.00000000000E+00 -0.11300575537E+04  0.11300575537E+04  0.00000000000E+00 0.  1.
         23    2    1    2    0    0 -0.39104032442E+03 -0.35508292554E+03 -0.76229249698E+02  0.54133481933E+03  0.90752789334E+02 0.  0.
        254    2    1    2    0    0  0.39104032442E+03  0.35508292554E+03 -0.48896867341E+03  0.11535823650E+04  0.90147961148E+03 0.  0.
        -24    2    4    4    0    0  0.17655132008E+03 -0.24344163495E+03 -0.39985203853E+03  0.50629420692E+03  0.77575595368E+02 0.  0.
         24    2    4    4    0    0  0.21448900434E+03  0.59852456049E+03 -0.89116634884E+02  0.64728815808E+03  0.82480315714E+02 0.  0.
         13    1    3    3    0    0 -0.24879672345E+03 -0.22056760838E+03 -0.35629057215E+01  0.33250950928E+03  0.00000000000E+00 0.  1.
        -13    1    3    3    0    0 -0.14224360097E+03 -0.13451531716E+03 -0.72666343977E+02  0.20882531004E+03  0.00000000000E+00 0. -1.
          4    1    6    6  502    0  0.14029116103E+03  0.40447184696E+03 -0.20899346341E+02  0.42862089021E+03  0.00000000000E+00 0. -1.
          1    1    5    5  503    0  0.13794086962E+03 -0.20760236398E+03 -0.36884400680E+03  0.44516550449E+03  0.00000000000E+00 0. -1.
         -2    1    5    5    0  503  0.38610450458E+02 -0.35839270974E+02 -0.31008031729E+02  0.61128702426E+02  0.00000000000E+00 0.  1.
         -1    1    6    6    0  502  0.74197843306E+02  0.19405271353E+03 -0.68217288543E+02  0.21866726787E+03  0.00000000000E+00 0.  1.
<mgrwt>
<rscale>  0 0.15979035E+04</rscale>
<asrwt>0</asrwt>
<pdfrwt beam="1">  1        2 0.17385501E+00 0.15979035E+04</pdfrwt>
<pdfrwt beam="2">  1       -2 0.86901483E-01 0.15979035E+04</pdfrwt>
<totfact> 0.22942266E+01</totfact>
</mgrwt>
</event>
<event>
12    1  0.1477245E-007  0.1286041E+04  0.7818608E-02  0.9040709E-01
         -2   -1    0    0    0  501 -0.00000000000E+00  0.00000000000E+00  0.25798060879E+03  0.25798060879E+03  0.00000000000E+00 0.  1.
          2   -1    0    0  501    0  0.00000000000E+00 -0.00000000000E+00 -0.16027369880E+04  0.16027369880E+04  0.00000000000E+00 0. -1.
         23    2    1    2    0    0  0.11855087192E+03 -0.12909912100E+03 -0.72312329049E+03  0.74957423165E+03  0.90737771815E+02 0.  0.
        254    2    1    2    0    0 -0.11855087192E+03  0.12909912100E+03 -0.62163308874E+03  0.11111433652E+04  0.90415208270E+03 0.  0.
        -24    2    4    4    0    0  0.69436044180E+02  0.48309228729E+03 -0.45053410217E+03  0.66883489073E+03  0.78483192929E+02 0.  0.
         24    2    4    4    0    0 -0.18798691610E+03 -0.35399316628E+03 -0.17109898657E+03  0.44230847443E+03  0.75575663735E+02 0.  0.
         11    1    3    3    0    0  0.12389530728E+03 -0.11988970180E+03 -0.55610244240E+03  0.58221431983E+03  0.00000000000E+00 0. -1.
        -11    1    3    3    0    0 -0.53444353601E+01 -0.92094192030E+01 -0.16702084808E+03  0.16735991183E+03  0.00000000000E+00 0.  1.
          2    1    6    6  502    0 -0.82376042880E+02 -0.94669244297E+02 -0.31256812284E+02  0.12932542894E+03  0.00000000000E+00 0. -1.
          3    1    5    5  503    0  0.30977507125E+02  0.50125223568E+02 -0.42483064942E+02  0.72642651330E+02  0.00000000000E+00 0. -1.
         -4    1    5    5    0  503  0.38458537055E+02  0.43296706372E+03 -0.40805103723E+03  0.59619223940E+03  0.00000000000E+00 0.  1.
         -1    1    6    6    0  502 -0.10561087322E+03 -0.25932392198E+03 -0.13984217428E+03  0.31298304549E+03  0.00000000000E+00 0.  1.
<mgrwt>
<rscale>  0 0.12860405E+04</rscale>
<asrwt>0</asrwt>
<pdfrwt beam="1">  1        2 0.24657491E+00 0.12860405E+04</pdfrwt>
<pdfrwt beam="2">  1       -2 0.39689325E-01 0.12860405E+04</pdfrwt>
<totfact> 0.65452792E+01</totfact>
</mgrwt>
</event>
<event>
12    1  0.1477245E-007  0.1672406E+04  0.7818608E-02  0.8777261E-01
         -1   -1    0    0    0  501 -0.00000000000E+00  0.00000000000E+00  0.55405557379E+03  0.55405557379E+03  0.00000000000E+00 0.  1.
          1   -1    0    0  501    0  0.00000000000E+00 -0.00000000000E+00 -0.12620305940E+04  0.12620305940E+04  0.00000000000E+00 0. -1.
         23    2    1    2    0    0 -0.97201934195E+02 -0.57051713173E+03 -0.37516826551E+03  0.69580316751E+03  0.91939147584E+02 0.  0.
        254    2    1    2    0    0  0.97201934195E+02  0.57051713173E+03 -0.33280675467E+03  0.11202830002E+04  0.89963084155E+03 0.  0.
        -24    2    4    4    0    0  0.47078936621E+03  0.47957051160E+03 -0.21600832351E+03  0.71056980217E+03  0.81359357198E+02 0.  0.
         24    2    4    4    0    0 -0.37358743202E+03  0.90946620137E+02 -0.11679843116E+03  0.40971319807E+03  0.79901026754E+02 0.  0.
         11    1    3    3    0    0  0.46089419271E+01  0.16079545826E+01 -0.32418242267E+01  0.58598027223E+01  0.00000000000E+00 0.  1.
        -11    1    3    3    0    0 -0.10181087612E+03 -0.57212508632E+03 -0.37192644129E+03  0.68994336479E+03  0.00000000000E+00 0. -1.
          2    1    6    6  502    0 -0.29108245083E+03  0.10380599237E+03 -0.96900549919E+02  0.32387404003E+03  0.00000000000E+00 0. -1.
          3    1    5    5  503    0  0.16760171840E+03  0.12136570678E+03 -0.51074427687E+02  0.21313978501E+03  0.00000000000E+00 0. -1.
         -4    1    5    5    0  503  0.30318764782E+03  0.35820480481E+03 -0.16493389582E+03  0.49743001716E+03  0.00000000000E+00 0.  1.
         -1    1    6    6    0  502 -0.82504981187E+02 -0.12859372230E+02 -0.19897881244E+02  0.85839158039E+02  0.00000000000E+00 0.  1.
<mgrwt>
<rscale>  0 0.16724056E+04</rscale>
<asrwt>0</asrwt>
<pdfrwt beam="1">  1        1 0.19415855E+00 0.16724056E+04</pdfrwt>
<pdfrwt beam="2">  1       -1 0.85239319E-01 0.16724056E+04</pdfrwt>
<totfact> 0.12502308E+01</totfact>
</mgrwt>
</event>
<event>
12    1  0.1477245E-007  0.1640079E+04  0.7818608E-02  0.8796297E-01
          2   -1    0    0  501    0  0.00000000000E+00  0.00000000000E+00  0.95506073094E+03  0.95506073094E+03  0.00000000000E+00 0. -1.
         -2   -1    0    0    0  501 -0.00000000000E+00 -0.00000000000E+00 -0.70410720770E+03  0.70410720770E+03  0.00000000000E+00 0.  1.
         23    2    1    2    0    0 -0.83941661624E+02 -0.55756920154E+03  0.65739979282E+02  0.57490452036E+03  0.90905696160E+02 0.  0.
        254    2    1    2    0    0  0.83941661624E+02  0.55756920154E+03  0.18521354396E+03  0.10842634183E+04  0.90741031859E+03 0.  0.
        -24    2    4    4    0    0 -0.33313818499E+03  0.65776207987E+02 -0.11733048496E+03  0.36815999823E+03  0.80422520206E+02 0.  0.
         24    2    4    4    0    0  0.41707984661E+03  0.49179299355E+03  0.30254402893E+03  0.71610342005E+03  0.73859811884E+02 0.  0.
         13    1    3    3    0    0  0.37273698800E+00 -0.32006805175E+01 -0.86662348362E+01  0.92459134148E+01  0.00000000000E+00 0. -1.
        -13    1    3    3    0    0 -0.84314398612E+02 -0.55436852102E+03  0.74406214118E+02  0.56565860695E+03  0.00000000000E+00 0.  1.
          2    1    6    6  502    0  0.19617474109E+03  0.27864322814E+03  0.18182711722E+03  0.38624820800E+03  0.00000000000E+00 0. -1.
          3    1    5    5  503    0 -0.99746676205E+02 -0.84306667352E+01 -0.59746496187E+02  0.11657666731E+03  0.00000000000E+00 0. -1.
         -4    1    5    5    0  503 -0.23339150879E+03  0.74206874723E+02 -0.57583988777E+02  0.25158333091E+03  0.00000000000E+00 0.  1.
         -1    1    6    6    0  502  0.22090510553E+03  0.21314976541E+03  0.12071691170E+03  0.32985521205E+03  0.00000000000E+00 0.  1.
<mgrwt>
<rscale>  0 0.16400794E+04</rscale>
<asrwt>0</asrwt>
<pdfrwt beam="1">  1        2 0.14693242E+00 0.16400794E+04</pdfrwt>
<pdfrwt beam="2">  1       -2 0.10832419E+00 0.16400794E+04</pdfrwt>
<totfact> 0.17565598E+01</totfact>
</mgrwt>
</event>
<event>
12    1  0.1477245E-007  0.1331239E+04  0.7818608E-02  0.9005153E-01
         -2   -1    0    0    0  501 -0.00000000000E+00  0.00000000000E+00  0.46172238673E+03  0.46172238673E+03  0.00000000000E+00 0.  1.
          2   -1    0    0  501    0  0.00000000000E+00 -0.00000000000E+00 -0.95955790582E+03  0.95955790582E+03  0.00000000000E+00 0. -1.
         23    2    1    2    0    0  0.66829765248E+02 -0.88739411166E+02  0.21877009279E+03  0.26228461562E+03  0.92692855571E+02 0.  0.
        254    2    1    2    0    0 -0.66829765248E+02  0.88739411166E+02 -0.71660561188E+03  0.11589956769E+04  0.90410534539E+03 0.  0.
        -24    2    4    4    0    0  0.77595187481E+02 -0.38045635120E+03 -0.20817012575E+03  0.44768442970E+03  0.79488987022E+02 0.  0.
         24    2    4    4    0    0 -0.14442495273E+03  0.46919576236E+03 -0.50843548613E+03  0.71131124723E+03  0.80335648959E+02 0.  0.
         13    1    3    3    0    0  0.18891615189E+02  0.71597808294E+01  0.18151147145E+01  0.20284235933E+02  0.00000000000E+00 0. -1.
        -13    1    3    3    0    0  0.47938150060E+02 -0.95899191995E+02  0.21695497808E+03  0.24200037969E+03  0.00000000000E+00 0.  1.
          4    1    6    6  502    0  0.46569336014E+01  0.37605153824E+02 -0.62362474807E+02  0.72972000718E+02  0.00000000000E+00 0. -1.
          3    1    5    5  503    0  0.75234731070E+01 -0.20570841342E+03 -0.13232034247E+03  0.24470640986E+03  0.00000000000E+00 0. -1.
         -4    1    5    5    0  503  0.70071714374E+02 -0.17474793778E+03 -0.75849783284E+02  0.20297801984E+03  0.00000000000E+00 0.  1.
         -3    1    6    6    0  502 -0.14908188633E+03  0.43159060854E+03 -0.44607301132E+03  0.63833924651E+03  0.00000000000E+00 0.  1.
<mgrwt>
<rscale>  0 0.13312391E+04</rscale>
<asrwt>0</asrwt>
<pdfrwt beam="1">  1        2 0.14762429E+00 0.13312391E+04</pdfrwt>
<pdfrwt beam="2">  1       -2 0.71034214E-01 0.13312391E+04</pdfrwt>
<totfact> 0.47127992E+01</totfact>
</mgrwt>
</event>
<event>
12    1  0.1477245E-007  0.1821916E+04  0.7818608E-02  0.8694731E-01
         -2   -1    0    0    0  501 -0.00000000000E+00  0.00000000000E+00  0.23648788504E+04  0.23648788504E+04  0.00000000000E+00 0.  1.
          2   -1    0    0  501    0  0.00000000000E+00 -0.00000000000E+00 -0.35090377280E+03  0.35090377280E+03  0.00000000000E+00 0. -1.
         23    2    1    2    0    0 -0.61040419754E+03 -0.30221027711E+02  0.28259312092E+03  0.67962520838E+03  0.92330693618E+02 0.  0.
        254    2    1    2    0    0  0.61040419754E+03  0.30221027711E+02  0.17313819567E+04  0.20361574149E+04  0.88019710473E+03 0.  0.
        -24    2    4    4    0    0 -0.35583371629E+02  0.27720736208E+03  0.19654537214E+03  0.35082462643E+03  0.79609906865E+02 0.  0.
         24    2    4    4    0    0  0.64598756917E+03 -0.24698633437E+03  0.15348365846E+04  0.16853327884E+04  0.79505204401E+02 0.  0.
         13    1    3    3    0    0 -0.50002032478E+03 -0.55916986702E+02  0.24922249734E+03  0.56147919621E+03  0.00000000000E+00 0. -1.
        -13    1    3    3    0    0 -0.11038387276E+03  0.25695958991E+02  0.33370623584E+02  0.11814601217E+03  0.00000000000E+00 0.  1.
          4    1    6    6  502    0  0.13968393480E+03 -0.37971087733E+02  0.25526438606E+03  0.29345069762E+03  0.00000000000E+00 0. -1.
          3    1    5    5  503    0 -0.53659741865E+02  0.19910209168E+03  0.16712328473E+03  0.26542645518E+03  0.00000000000E+00 0. -1.
         -4    1    5    5    0  503  0.18076370237E+02  0.78105270405E+02  0.29422087402E+02  0.85398171251E+02  0.00000000000E+00 0.  1.
         -3    1    6    6    0  502  0.50630363437E+03 -0.20901524664E+03  0.12795721985E+04  0.13918820908E+04  0.00000000000E+00 0.  1.
<mgrwt>
<rscale>  0 0.18219165E+04</rscale>
<asrwt>0</asrwt>
<pdfrwt beam="1">  1        2 0.53985197E-01 0.18219165E+04</pdfrwt>
<pdfrwt beam="2">  1       -2 0.36382751E+00 0.18219165E+04</pdfrwt>
<totfact> 0.11083893E+00</totfact>
</mgrwt>
</event>
<event>
12    1  0.1477245E-007  0.2000507E+04  0.7818608E-02  0.8606383E-01
          2   -1    0    0  501    0  0.00000000000E+00  0.00000000000E+00  0.28775227907E+04  0.28775227907E+04  0.00000000000E+00 0.  1.
         -2   -1    0    0    0  501 -0.00000000000E+00 -0.00000000000E+00 -0.34769752576E+03  0.34769752576E+03  0.00000000000E+00 0. -1.
         23    2    1    2    0    0 -0.19215223241E+03  0.34118754392E+03 -0.10375285601E+03  0.41553849222E+03  0.92607574443E+02 0.  0.
        254    2    1    2    0    0  0.19215223241E+03 -0.34118754392E+03  0.26335781210E+04  0.28096818243E+04  0.89735545560E+03 0.  0.
        -24    2    4    4    0    0  0.50085388123E+03 -0.10180390325E+03  0.19555627829E+04  0.20228765006E+04  0.81147358172E+02 0.  0.
         24    2    4    4    0    0 -0.30870164882E+03 -0.23938364067E+03  0.67801533807E+03  0.78680532365E+03  0.82198438334E+02 0.  0.
         11    1    3    3    0    0 -0.34157205180E+02  0.36621095920E+02 -0.45220062727E+02  0.67473501503E+02  0.00000000000E+00 0.  1.
        -11    1    3    3    0    0 -0.15799502723E+03  0.30456644800E+03 -0.58532793285E+02  0.34806499072E+03  0.00000000000E+00 0. -1.
          4    1    6    6  502    0 -0.28700178619E+03 -0.20156128387E+03  0.63580602645E+03  0.72611726305E+03  0.00000000000E+00 0. -1.
          1    1    5    5  503    0  0.30828658883E+03 -0.44730105870E+02  0.10459555820E+04  0.10913590073E+04  0.00000000000E+00 0. -1.
         -2    1    5    5    0  503  0.19256729240E+03 -0.57073797379E+02  0.90960720092E+03  0.93151749335E+03  0.00000000000E+00 0.  1.
         -3    1    6    6    0  502 -0.21699862622E+02 -0.37822356799E+02  0.42209311622E+02  0.60688060599E+02  0.00000000000E+00 0.  1.
<mgrwt>
<rscale>  0 0.20005075E+04</rscale>
<asrwt>0</asrwt>
<pdfrwt beam="1">  1        2 0.44269580E+00 0.20005075E+04</pdfrwt>
<pdfrwt beam="2">  1       -2 0.53491929E-01 0.20005075E+04</pdfrwt>
<totfact> 0.63578967E+00</totfact>
</mgrwt>
</event>
<event>
12    1  0.1477245E-007  0.1899934E+04  0.7818608E-02  0.8654889E-01
         -2   -1    0    0    0  501 -0.00000000000E+00  0.00000000000E+00  0.60005328811E+03  0.60005328811E+03  0.00000000000E+00 0. -1.
          2   -1    0    0  501    0  0.00000000000E+00 -0.00000000000E+00 -0.15039290332E+04  0.15039290332E+04  0.00000000000E+00 0.  1.
         23    2    1    2    0    0 -0.16130089140E+03 -0.40807333034E+03  0.29882989417E+03  0.53929199989E+03  0.94840576735E+02 0.  0.
        254    2    1    2    0    0  0.16130089140E+03  0.40807333034E+03 -0.12027056393E+04  0.15646903215E+04  0.89956274198E+03 0.  0.
        -24    2    4    4    0    0  0.24743015358E+03 -0.19273964240E+03 -0.70455349531E+03  0.77541393256E+03  0.80628086936E+02 0.  0.
         24    2    4    4    0    0 -0.86129262173E+02  0.60081297274E+03 -0.49815214399E+03  0.78927638889E+03  0.80044871785E+02 0.  0.
         11    1    3    3    0    0 -0.30483766398E+02 -0.14524308297E+02  0.29059385878E+02  0.44549561759E+02  0.00000000000E+00 0.  1.
        -11    1    3    3    0    0 -0.13081712501E+03 -0.39354902204E+03  0.26977050829E+03  0.49474243813E+03  0.00000000000E+00 0. -1.
          4    1    6    6  502    0 -0.69914554671E+02  0.31086953378E+03 -0.30063030842E+03  0.43807133475E+03  0.00000000000E+00 0. -1.
          3    1    5    5  503    0  0.13838129764E+03 -0.57785866187E+02 -0.30820015284E+03  0.34274760988E+03  0.00000000000E+00 0. -1.
         -4    1    5    5    0  503  0.10904885594E+03 -0.13495377621E+03 -0.39635334246E+03  0.43266632268E+03  0.00000000000E+00 0.  1.
         -1    1    6    6    0  502 -0.16214707502E+02  0.28994343895E+03 -0.19752183556E+03  0.35120505414E+03  0.00000000000E+00 0.  1.
<mgrwt>
<rscale>  0 0.18999343E+04</rscale>
<asrwt>0</asrwt>
<pdfrwt beam="1">  1        2 0.23137370E+00 0.18999343E+04</pdfrwt>
<pdfrwt beam="2">  1       -2 0.92315891E-01 0.18999343E+04</pdfrwt>
<totfact> 0.11786272E+01</totfact>
</mgrwt>
</event>
<event>
12    1  0.1477245E-007  0.2418213E+04  0.7818608E-02  0.8432716E-01
          2   -1    0    0  501    0  0.00000000000E+00  0.00000000000E+00  0.37717514442E+04  0.37717514442E+04  0.00000000000E+00 0. -1.
         -2   -1    0    0    0  501 -0.00000000000E+00 -0.00000000000E+00 -0.38760210146E+03  0.38760210146E+03  0.00000000000E+00 0.  1.
         23    2    1    2    0    0  0.86975497957E+03 -0.44127188228E+03  0.81239944498E+03  0.12726324475E+04  0.91683639583E+02 0.  0.
        254    2    1    2    0    0 -0.86975497957E+03  0.44127188228E+03  0.25717498978E+04  0.28867210981E+04  0.87639406840E+03 0.  0.
        -24    2    4    4    0    0 -0.84604464160E+03  0.18108384369E+01  0.14835123881E+04  0.17097154882E+04  0.80766518003E+02 0.  0.
         24    2    4    4    0    0 -0.23710337963E+02  0.43946104384E+03  0.10882375097E+04  0.11770056099E+04  0.85983364795E+02 0.  0.
         13    1    3    3    0    0  0.59409142942E+02 -0.69807521443E+01  0.58510348645E+02  0.83675791387E+02  0.00000000000E+00 0. -1.
        -13    1    3    3    0    0  0.81034583663E+03 -0.43429113013E+03  0.75388909634E+03  0.11889566562E+04  0.00000000000E+00 0.  1.
          2    1    6    6  502    0  0.16915966483E+02  0.27677593051E+03  0.74672438325E+03  0.79654778273E+03  0.00000000000E+00 0. -1.
          3    1    5    5  503    0 -0.79274339906E+03 -0.74920883337E+01  0.14196961637E+04  0.16260490231E+04  0.00000000000E+00 0. -1.
         -4    1    5    5    0  503 -0.53301242545E+02  0.93029267706E+01  0.63816224356E+02  0.83666465172E+02  0.00000000000E+00 0.  1.
         -1    1    6    6    0  502 -0.40626304446E+02  0.16268511333E+03  0.34151312646E+03  0.38045782718E+03  0.00000000000E+00 0.  1.
<mgrwt>
<rscale>  0 0.24182132E+04</rscale>
<asrwt>0</asrwt>
<pdfrwt beam="1">  1        2 0.58026943E+00 0.24182132E+04</pdfrwt>
<pdfrwt beam="2">  1       -2 0.59631095E-01 0.24182132E+04</pdfrwt>
<totfact> 0.12193146E+00</totfact>
</mgrwt>
</event>
<event>
12    1  0.1477245E-007  0.1836543E+04  0.7818608E-02  0.8687104E-01
         -2   -1    0    0    0  501 -0.00000000000E+00  0.00000000000E+00  0.51912777715E+03  0.51912777715E+03  0.00000000000E+00 0.  1.
          2   -1    0    0  501    0  0.00000000000E+00 -0.00000000000E+00 -0.16243055465E+04  0.16243055465E+04  0.00000000000E+00 0. -1.
         23    2    1    2    0    0  0.18194774001E+03 -0.63006100221E+03 -0.72728713131E+03  0.98352389883E+03  0.91054058641E+02 0.  0.
        254    2    1    2    0    0 -0.18194774001E+03  0.63006100221E+03 -0.37789063807E+03  0.11599094249E+04  0.87892359903E+03 0.  0.
        -24    2    4    4    0    0  0.13418423323E+03  0.45451119709E+03 -0.56827198530E+03  0.74395429093E+03  0.77130415443E+02 0.  0.
         24    2    4    4    0    0 -0.31613197324E+03  0.17554980512E+03  0.19038134723E+03  0.41595513393E+03  0.77565826797E+02 0.  0.
         13    1    3    3    0    0  0.17415190901E+03 -0.54277373603E+03 -0.66573228445E+03  0.87643122405E+03  0.00000000000E+00 0. -1.
        -13    1    3    3    0    0  0.77958309949E+01 -0.87287266185E+02 -0.61554846861E+02  0.10709267478E+03  0.00000000000E+00 0.  1.
          4    1    6    6  502    0 -0.15962339849E+02 -0.63926482023E+01  0.18042447007E+02  0.24923726416E+02  0.00000000000E+00 0. -1.
          1    1    5    5  503    0  0.35840453684E+02  0.71819637963E+02 -0.13905243624E+03  0.16055584244E+03  0.00000000000E+00 0. -1.
         -2    1    5    5    0  503  0.98343779549E+02  0.38269155913E+03 -0.42921954905E+03  0.58339844848E+03  0.00000000000E+00 0.  1.
         -3    1    6    6    0  502 -0.30016963339E+03  0.18194245333E+03  0.17233890022E+03  0.39103140751E+03  0.00000000000E+00 0.  1.
<mgrwt>
<rscale>  0 0.18365425E+04</rscale>
<asrwt>0</asrwt>
<pdfrwt beam="1">  1        2 0.24989316E+00 0.18365425E+04</pdfrwt>
<pdfrwt beam="2">  1       -2 0.79865813E-01 0.18365425E+04</pdfrwt>
<totfact> 0.14115824E+01</totfact>
</mgrwt>
</event>
<event>
12    1  0.1477245E-007  0.2142564E+04  0.7818608E-02  0.8542722E-01
         -2   -1    0    0    0  501 -0.00000000000E+00  0.00000000000E+00  0.50228859259E+03  0.50228859259E+03  0.00000000000E+00 0. -1.
          2   -1    0    0  501    0  0.00000000000E+00 -0.00000000000E+00 -0.22848323021E+04  0.22848323021E+04  0.00000000000E+00 0.  1.
         23    2    1    2    0    0  0.22816055332E+03  0.44806264365E+03  0.20050484251E+03  0.54898159329E+03  0.91439746145E+02 0.  0.
        254    2    1    2    0    0 -0.22816055332E+03 -0.44806264365E+03 -0.19830485521E+04  0.22381393014E+04  0.90772716280E+03 0.  0.
        -24    2    4    4    0    0  0.14205035332E+03 -0.57797748268E+03 -0.14666260876E+04  0.15848086072E+04  0.79937270633E+02 0.  0.
         24    2    4    4    0    0 -0.37021090664E+03  0.12991483903E+03 -0.51642246447E+03  0.65333069426E+03  0.78834341843E+02 0.  0.
         11    1    3    3    0    0  0.50850616398E+02  0.19682876195E+03  0.71193748799E+02  0.21539706727E+03  0.00000000000E+00 0. -1.
        -11    1    3    3    0    0  0.17730993692E+03  0.25123388170E+03  0.12931109371E+03  0.33358452602E+03  0.00000000000E+00 0.  1.
          2    1    6    6  502    0 -0.22620194652E+03  0.59030856300E+02 -0.35972862974E+03  0.42901823931E+03  0.00000000000E+00 0. -1.
          1    1    5    5  503    0  0.14633786043E+03 -0.53074318523E+03 -0.13052928526E+04  0.14166483435E+04  0.00000000000E+00 0. -1.
         -2    1    5    5    0  503 -0.42875071151E+01 -0.47234297448E+02 -0.16133323497E+03  0.16816026368E+03  0.00000000000E+00 0.  1.
         -1    1    6    6    0  502 -0.14400896012E+03  0.70883982728E+02 -0.15669383473E+03  0.22431245495E+03  0.00000000000E+00 0.  1.
<mgrwt>
<rscale>  0 0.21425641E+04</rscale>
<asrwt>0</asrwt>
<pdfrwt beam="1">  1        2 0.35151267E+00 0.21425641E+04</pdfrwt>
<pdfrwt beam="2">  1       -2 0.77275167E-01 0.21425641E+04</pdfrwt>
<totfact> 0.63444590E+00</totfact>
</mgrwt>
</event>
<event>
12    1  0.1477245E-007  0.3100315E+04  0.7818608E-02  0.8215651E-01
          2   -1    0    0  501    0  0.00000000000E+00  0.00000000000E+00  0.26349524413E+04  0.26349524413E+04  0.00000000000E+00 0. -1.
         -2   -1    0    0    0  501 -0.00000000000E+00 -0.00000000000E+00 -0.91196643328E+03  0.91196643328E+03  0.00000000000E+00 0.  1.
         23    2    1    2    0    0  0.35636532120E+03 -0.12655620544E+04  0.14057846075E+04  0.19270244120E+04  0.92461698743E+02 0.  0.
        254    2    1    2    0    0 -0.35636532120E+03  0.12655620544E+04  0.31720140048E+03  0.16198944626E+04  0.89151432178E+03 0.  0.
        -24    2    4    4    0    0 -0.24850105100E+03  0.12936445489E+03  0.37322313675E+03  0.47437185758E+03  0.85118828237E+02 0.  0.
         24    2    4    4    0    0 -0.10786427020E+03  0.11361975995E+04 -0.56021736270E+02  0.11455226051E+04  0.80646871320E+02 0.  0.
         13    1    3    3    0    0  0.24574211293E+03 -0.98225662800E+03  0.11171666357E+04  0.15077395535E+04  0.00000000000E+00 0. -1.
        -13    1    3    3    0    0  0.11062320827E+03 -0.28330542640E+03  0.28861797183E+03  0.41928485842E+03  0.00000000000E+00 0.  1.
          2    1    6    6  502    0 -0.97488981506E+01  0.10558421035E+03 -0.28870408247E+02  0.10989343458E+03  0.00000000000E+00 0. -1.
          1    1    5    5  503    0 -0.27333341407E+02  0.17975393232E+02  0.89836384098E+01  0.33925389805E+02  0.00000000000E+00 0. -1.
         -2    1    5    5    0  503 -0.22116770959E+03  0.11138906166E+03  0.36423949834E+03  0.44044646778E+03  0.00000000000E+00 0.  1.
         -1    1    6    6    0  502 -0.98115372047E+02  0.10306133892E+04 -0.27151328022E+02  0.10356291705E+04  0.00000000000E+00 0.  1.
<mgrwt>
<rscale>  0 0.31003149E+04</rscale>
<asrwt>0</asrwt>
<pdfrwt beam="1">  1        2 0.40537730E+00 0.31003149E+04</pdfrwt>
<pdfrwt beam="2">  1       -2 0.14030253E+00 0.31003149E+04</pdfrwt>
<totfact> 0.87975382E-01</totfact>
</mgrwt>
</event>
<event>
12    1  0.1477245E-007  0.1759390E+04  0.7818608E-02  0.8728199E-01
          2   -1    0    0  501    0  0.00000000000E+00  0.00000000000E+00  0.72195187559E+03  0.72195187559E+03  0.00000000000E+00 0. -1.
         -2   -1    0    0    0  501 -0.00000000000E+00 -0.00000000000E+00 -0.10719043298E+04  0.10719043298E+04  0.00000000000E+00 0.  1.
         23    2    1    2    0    0  0.44726733362E+03  0.35561330066E+02 -0.59671811831E+03  0.75196393667E+03  0.89802969925E+02 0.  0.
        254    2    1    2    0    0 -0.44726733362E+03 -0.35561330066E+02  0.24676566415E+03  0.10418922687E+04  0.90737728129E+03 0.  0.
        -24    2    4    4    0    0  0.11511144864E+03 -0.63929935903E+02 -0.24522165195E+03  0.28990347629E+03  0.81072095475E+02 0.  0.
         24    2    4    4    0    0 -0.56237878226E+03  0.28368605838E+02  0.49198731610E+03  0.75198879239E+03  0.79755577486E+02 0.  0.
         11    1    3    3    0    0  0.23192608873E+03  0.63158690487E+02 -0.30555819794E+03  0.38877312555E+03  0.00000000000E+00 0. -1.
        -11    1    3    3    0    0  0.21534124489E+03 -0.27597360421E+02 -0.29115992037E+03  0.36319081112E+03  0.00000000000E+00 0.  1.
          2    1    6    6  502    0 -0.38207268038E+02 -0.12026249909E+02  0.56846254729E+02  0.69540798777E+02  0.00000000000E+00 0. -1.
          3    1    5    5  503    0  0.11795352171E+01 -0.92851395059E+01  0.42321059656E+01  0.10272090336E+02  0.00000000000E+00 0. -1.
         -4    1    5    5    0  503  0.11393191342E+03 -0.54644796397E+02 -0.24945375792E+03  0.27963138595E+03  0.00000000000E+00 0.  1.
         -1    1    6    6    0  502 -0.52417151422E+03  0.40394855747E+02  0.43514106137E+03  0.68244799361E+03  0.00000000000E+00 0.  1.
<mgrwt>
<rscale>  0 0.17593901E+04</rscale>
<asrwt>0</asrwt>
<pdfrwt beam="1">  1        2 0.11106952E+00 0.17593901E+04</pdfrwt>
<pdfrwt beam="2">  1       -2 0.16490836E+00 0.17593901E+04</pdfrwt>
<totfact> 0.86452267E+00</totfact>
</mgrwt>
</event>
<event>
12    1  0.1477245E-007  0.2558824E+04  0.7818608E-02  0.8382324E-01
         -2   -1    0    0    0  501 -0.00000000000E+00  0.00000000000E+00  0.73791467925E+03  0.73791467925E+03  0.00000000000E+00 0.  1.
          2   -1    0    0  501    0  0.00000000000E+00 -0.00000000000E+00 -0.22182722801E+04  0.22182722801E+04  0.00000000000E+00 0. -1.
         23    2    1    2    0    0  0.99513219128E+03 -0.31462209535E+03 -0.11132481693E+04  0.15287266565E+04  0.91698216357E+02 0.  0.
        254    2    1    2    0    0 -0.99513219128E+03  0.31462209535E+03 -0.36710943149E+03  0.14274603028E+04  0.90199691812E+03 0.  0.
        -24    2    4    4    0    0  0.90254251517E+02  0.18489358864E+03 -0.23770674417E+03  0.32393290245E+03  0.78080471465E+02 0.  0.
         24    2    4    4    0    0 -0.10853864428E+04  0.12972850671E+03 -0.12940268732E+03  0.11035274003E+04  0.78322743328E+02 0.  0.
         11    1    3    3    0    0  0.32775438477E+03 -0.14278984241E+03 -0.41309552931E+03  0.54631473728E+03  0.00000000000E+00 0. -1.
        -11    1    3    3    0    0  0.66737780652E+03 -0.17183225295E+03 -0.70015264001E+03  0.98241191925E+03  0.00000000000E+00 0.  1.
          2    1    6    6  502    0 -0.82184554537E+02  0.28793999354E+02 -0.75016497237E+00  0.87085923953E+02  0.00000000000E+00 0. -1.
          3    1    5    5  503    0 -0.73856700109E+01  0.37504198797E+02 -0.72506783063E+02  0.81965521038E+02  0.00000000000E+00 0. -1.
         -4    1    5    5    0  503  0.97639921528E+02  0.14738938984E+03 -0.16519996111E+03  0.24196738141E+03  0.00000000000E+00 0.  1.
         -1    1    6    6    0  502 -0.10032018883E+04  0.10093450736E+03 -0.12865252235E+03  0.10164414764E+04  0.00000000000E+00 0.  1.
<mgrwt>
<rscale>  0 0.25588245E+04</rscale>
<asrwt>0</asrwt>
<pdfrwt beam="1">  1        2 0.34127266E+00 0.25588245E+04</pdfrwt>
<pdfrwt beam="2">  1       -2 0.11352534E+00 0.25588245E+04</pdfrwt>
<totfact> 0.27233485E+00</totfact>
</mgrwt>
</event>
<event>
12    1  0.1477245E-007  0.1860630E+04  0.7818608E-02  0.8674705E-01
          1   -1    0    0  501    0  0.00000000000E+00  0.00000000000E+00  0.92291686168E+03  0.92291686168E+03  0.00000000000E+00 0. -1.
         -1   -1    0    0    0  501 -0.00000000000E+00 -0.00000000000E+00 -0.93777244908E+03  0.93777244908E+03  0.00000000000E+00 0.  1.
         23    2    1    2    0    0  0.44818500014E+02 -0.35641241695E+03 -0.61708554354E+03  0.71869519920E+03  0.81790662071E+02 0.  0.
        254    2    1    2    0    0 -0.44818500014E+02  0.35641241695E+03  0.60222995615E+03  0.11419941116E+04  0.90134961134E+03 0.  0.
        -24    2    4    4    0    0  0.88681734827E+02  0.40189384149E+03 -0.91992570826E+02  0.42919732615E+03  0.79778454311E+02 0.  0.
         24    2    4    4    0    0 -0.13350023484E+03 -0.45481424540E+02  0.69422252698E+03  0.71279678542E+03  0.79015616534E+02 0.  0.
         11    1    3    3    0    0  0.41489131360E+02 -0.23328700307E+03 -0.32956602684E+03  0.40590385545E+03  0.00000000000E+00 0. -1.
        -11    1    3    3    0    0  0.33293686544E+01 -0.12312541388E+03 -0.28751951670E+03  0.31279134375E+03  0.00000000000E+00 0.  1.
          4    1    6    6  502    0 -0.91203837443E+02 -0.27585867611E+02  0.60490337444E+03  0.61236199463E+03  0.00000000000E+00 0. -1.
          3    1    5    5  503    0  0.19481563579E+00  0.16761018323E+03 -0.52675545323E+02  0.17569269920E+03  0.00000000000E+00 0. -1.
         -4    1    5    5    0  503  0.88486919191E+02  0.23428365825E+03 -0.39317025503E+02  0.25350462695E+03  0.00000000000E+00 0.  1.
         -3    1    6    6    0  502 -0.42296397398E+02 -0.17895556929E+02  0.89319152536E+02  0.10043479079E+03  0.00000000000E+00 0.  1.
<mgrwt>
<rscale>  0 0.18606300E+04</rscale>
<asrwt>0</asrwt>
<pdfrwt beam="1">  1        1 0.14198721E+00 0.18606300E+04</pdfrwt>
<pdfrwt beam="2">  1       -1 0.14427268E+00 0.18606300E+04</pdfrwt>
<totfact> 0.63362509E+00</totfact>
</mgrwt>
</event>
<event>
12    1  0.1477245E-007  0.2348399E+04  0.7818608E-02  0.8459079E-01
         -1   -1    0    0    0  501 -0.00000000000E+00  0.00000000000E+00  0.75801872038E+03  0.75801872038E+03  0.00000000000E+00 0.  1.
          1   -1    0    0  501    0  0.00000000000E+00 -0.00000000000E+00 -0.18188790111E+04  0.18188790111E+04  0.00000000000E+00 0. -1.
         23    2    1    2    0    0  0.10750124643E+03  0.92823310199E+03 -0.77921671462E+02  0.94309583518E+03  0.10091956121E+03 0.  0.
        254    2    1    2    0    0 -0.10750124643E+03 -0.92823310199E+03 -0.98293861923E+03  0.16338018963E+04  0.91102530012E+03 0.  0.
        -24    2    4    4    0    0 -0.34444082991E+03 -0.10408860274E+03 -0.56966487130E+03  0.67853587209E+03  0.80118297473E+02 0.  0.
         24    2    4    4    0    0  0.23693958349E+03 -0.82414449925E+03 -0.41327374793E+03  0.95526602418E+03  0.79896585379E+02 0.  0.
         11    1    3    3    0    0  0.86931980062E+02  0.68015387957E+03 -0.12877431062E+02  0.68580776992E+03  0.00000000000E+00 0.  1.
        -11    1    3    3    0    0  0.20569266365E+02  0.24807922242E+03 -0.65044240400E+02  0.25728806526E+03  0.00000000000E+00 0. -1.
          4    1    6    6  502    0  0.49446803544E+02 -0.17738771973E+03 -0.12618899159E+03  0.22323765608E+03  0.00000000000E+00 0. -1.
          1    1    5    5  503    0 -0.14713928842E+03 -0.11596830498E+02 -0.18762155378E+03  0.23871804314E+03  0.00000000000E+00 0. -1.
         -2    1    5    5    0  503 -0.19730154149E+03 -0.92491772243E+02 -0.38204331752E+03  0.43981782895E+03  0.00000000000E+00 0.  1.
         -3    1    6    6    0  502  0.18749277994E+03 -0.64675677951E+03 -0.28708475635E+03  0.73202836810E+03  0.00000000000E+00 0.  1.
<mgrwt>
<rscale>  0 0.23483989E+04</rscale>
<asrwt>0</asrwt>
<pdfrwt beam="1">  1        1 0.27982754E+00 0.23483989E+04</pdfrwt>
<pdfrwt beam="2">  1       -1 0.11661827E+00 0.23483989E+04</pdfrwt>
<totfact> 0.23626621E+00</totfact>
</mgrwt>
</event>
<event>
12    1  0.1929686E-007  0.1916389E+04  0.7818608E-02  0.8646741E-01
         -1   -1    0    0    0  501 -0.00000000000E+00  0.00000000000E+00  0.40516222633E+03  0.40516222633E+03  0.00000000000E+00 0.  1.
          1   -1    0    0  501    0  0.00000000000E+00 -0.00000000000E+00 -0.22660965698E+04  0.22660965698E+04  0.00000000000E+00 0. -1.
         23    2    1    2    0    0  0.17177665741E+03  0.90694766779E+02 -0.17034976179E+04  0.17170038413E+04  0.92007044150E+02 0.  0.
        254    2    1    2    0    0 -0.17177665741E+03 -0.90694766779E+02 -0.15743672556E+03  0.95425495479E+03  0.92091445609E+03 0.  0.
        -24    2    4    4    0    0 -0.10741015765E+03  0.31880160995E+03  0.19961435237E+03  0.40017660047E+03  0.84403870888E+02 0.  0.
         24    2    4    4    0    0 -0.64366499762E+02 -0.40949637673E+03 -0.35705107793E+03  0.55407835432E+03  0.87675661551E+02 0.  0.
         11    1    3    3    0    0 -0.12604219948E+01 -0.49219612285E+01 -0.25794273055E+03  0.25799276465E+03  0.00000000000E+00 0.  1.
        -11    1    3    3    0    0  0.17303707941E+03  0.95616728007E+02 -0.14455548873E+04  0.14590110766E+04  0.00000000000E+00 0. -1.
          4    1    6    6  502    0 -0.35559386778E+02 -0.38222716796E+03 -0.31920576826E+03  0.49925384366E+03  0.00000000000E+00 0. -1.
          1    1    5    5  503    0 -0.62258661396E+02  0.27572117553E+03  0.14728494496E+03  0.31873368596E+03  0.00000000000E+00 0. -1.
         -2    1    5    5    0  503 -0.45151496255E+02  0.43080434414E+02  0.52329407417E+02  0.81442914511E+02  0.00000000000E+00 0.  1.
         -3    1    6    6    0  502 -0.28807112983E+02 -0.27269208763E+02 -0.37845309664E+02  0.54824510655E+02  0.00000000000E+00 0.  1.
<mgrwt>
<rscale>  0 0.19163890E+04</rscale>
<asrwt>0</asrwt>
<pdfrwt beam="1">  1        1 0.34863024E+00 0.19163890E+04</pdfrwt>
<pdfrwt beam="2">  1       -1 0.62332651E-01 0.19163890E+04</pdfrwt>
<totfact> 0.47900837E+00</totfact>
</mgrwt>
</event>
<event>
12    1  0.1477245E-007  0.1669749E+04  0.7818608E-02  0.8778808E-01
         -1   -1    0    0    0  501 -0.00000000000E+00  0.00000000000E+00  0.80471312937E+03  0.80471312937E+03  0.00000000000E+00 0.  1.
          1   -1    0    0  501    0  0.00000000000E+00 -0.00000000000E+00 -0.86616585041E+03  0.86616585041E+03  0.00000000000E+00 0. -1.
         23    2    1    2    0    0  0.14335833669E+03  0.28237187381E+03  0.48097657928E+03  0.58276695617E+03  0.89405634997E+02 0.  0.
        254    2    1    2    0    0 -0.14335833669E+03 -0.28237187381E+03 -0.54242930032E+03  0.10881120236E+04  0.88852278657E+03 0.  0.
        -24    2    4    4    0    0  0.86207379779E+01  0.16024837944E+03  0.16035330228E+03  0.24005508238E+03  0.78481850048E+02 0.  0.
         24    2    4    4    0    0 -0.15197907467E+03 -0.44262025325E+03 -0.70278260260E+03  0.84805694123E+03  0.79289730270E+02 0.  0.
         11    1    3    3    0    0  0.95115132882E+02  0.24893250472E+03  0.35599426410E+03  0.44468662728E+03  0.00000000000E+00 0.  1.
        -11    1    3    3    0    0  0.48243203810E+02  0.33439369097E+02  0.12498231519E+03  0.13808032890E+03  0.00000000000E+00 0. -1.
          2    1    6    6  502    0 -0.67768668706E+02 -0.96914285718E+02 -0.19391796353E+03  0.22713244553E+03  0.00000000000E+00 0. -1.
          1    1    5    5  503    0 -0.23285886802E+02  0.48195931089E+02  0.18823342651E+02  0.56739743798E+02  0.00000000000E+00 0. -1.
         -2    1    5    5    0  503  0.31906624780E+02  0.11205244835E+03  0.14152995963E+03  0.18331533858E+03  0.00000000000E+00 0.  1.
         -1    1    6    6    0  502 -0.84210405964E+02 -0.34570596754E+03 -0.50886463907E+03  0.62092449570E+03  0.00000000000E+00 0.  1.
<mgrwt>
<rscale>  0 0.16697485E+04</rscale>
<asrwt>0</asrwt>
<pdfrwt beam="1">  1        1 0.13325628E+00 0.16697485E+04</pdfrwt>
<pdfrwt beam="2">  1       -1 0.12380202E+00 0.16697485E+04</pdfrwt>
<totfact> 0.10616831E+01</totfact>
</mgrwt>
</event>
<event>
12    1  0.1477245E-007  0.1371559E+04  0.7818608E-02  0.8974667E-01
          2   -1    0    0  501    0  0.00000000000E+00  0.00000000000E+00  0.30015884885E+04  0.30015884885E+04  0.00000000000E+00 0. -1.
         -2   -1    0    0    0  501 -0.00000000000E+00 -0.00000000000E+00 -0.15668149445E+03  0.15668149445E+03  0.00000000000E+00 0.  1.
         23    2    1    2    0    0  0.57835692985E+02 -0.48847029913E+02  0.17030524545E+04  0.17072846986E+04  0.93286547037E+02 0.  0.
        254    2    1    2    0    0 -0.57835692985E+02  0.48847029913E+02  0.11418545396E+04  0.14509852843E+04  0.89207371108E+03 0.  0.
        -24    2    4    4    0    0  0.12265618869E+03  0.26653208831E+03  0.11150857653E+04  0.11558193097E+04  0.80113158494E+02 0.  0.
         24    2    4    4    0    0 -0.18049188167E+03 -0.21768505839E+03  0.26768774334E+02  0.29516597458E+03  0.80263822925E+02 0.  0.
         13    1    3    3    0    0  0.52161403784E+02 -0.38843539275E+01  0.13884432466E+04  0.13894281375E+04  0.00000000000E+00 0. -1.
        -13    1    3    3    0    0  0.56742892013E+01 -0.44962675985E+02  0.31460920786E+03  0.31785656114E+03  0.00000000000E+00 0.  1.
          4    1    6    6  502    0 -0.84810590379E+02 -0.90618137729E+02 -0.27454733234E+02  0.12711508763E+03  0.00000000000E+00 0. -1.
          3    1    5    5  503    0  0.12630170947E+03  0.26873779546E+03  0.10670675772E+04  0.11076124497E+04  0.00000000000E+00 0. -1.
         -4    1    5    5    0  503 -0.36455207813E+01 -0.22057071531E+01  0.48018188084E+02  0.48206860017E+02  0.00000000000E+00 0.  1.
         -1    1    6    6    0  502 -0.95681291292E+02 -0.12706692067E+03  0.54223507568E+02  0.16805088695E+03  0.00000000000E+00 0.  1.
<mgrwt>
<rscale>  0 0.13715588E+04</rscale>
<asrwt>0</asrwt>
<pdfrwt beam="1">  1        2 0.46178280E+00 0.13715588E+04</pdfrwt>
<pdfrwt beam="2">  1       -2 0.24104847E-01 0.13715588E+04</pdfrwt>
<totfact> 0.26219653E+01</totfact>
</mgrwt>
</event>
<event>
12    1  0.1477245E-007  0.3192325E+04  0.7818608E-02  0.8190847E-01
         -2   -1    0    0    0  501 -0.00000000000E+00  0.00000000000E+00  0.12997549052E+04  0.12997549052E+04  0.00000000000E+00 0.  1.
          2   -1    0    0  501    0  0.00000000000E+00 -0.00000000000E+00 -0.19601658163E+04  0.19601658163E+04  0.00000000000E+00 0. -1.
         23    2    1    2    0    0 -0.69729565970E+03 -0.72067177269E+03  0.78823103357E+03  0.12776330807E+04  0.73817921855E+02 0.  0.
        254    2    1    2    0    0  0.69729565970E+03  0.72067177269E+03 -0.14486419447E+04  0.19822876408E+04  0.90846671149E+03 0.  0.
        -24    2    4    4    0    0  0.66309582834E+03  0.44331281035E+02 -0.66735356084E+03  0.94520840518E+03  0.79980085139E+02 0.  0.
         24    2    4    4    0    0  0.34199831358E+02  0.67634049166E+03 -0.78128838386E+03  0.10370792356E+04  0.80719966873E+02 0.  0.
         11    1    3    3    0    0 -0.56433495845E+03 -0.56991017960E+03  0.59342390314E+03  0.99770911941E+03  0.00000000000E+00 0.  1.
        -11    1    3    3    0    0 -0.13296070125E+03 -0.15076159309E+03  0.19480713043E+03  0.27992396127E+03  0.00000000000E+00 0. -1.
          2    1    6    6  502    0  0.56546577911E+02  0.37350544616E+03 -0.41182990612E+03  0.55884497435E+03  0.00000000000E+00 0. -1.
          1    1    5    5  503    0  0.19858824216E+02 -0.12399751846E+02 -0.19041153963E+02  0.30177678661E+02  0.00000000000E+00 0. -1.
         -2    1    5    5    0  503  0.64323700413E+03  0.56731032881E+02 -0.64831240688E+03  0.91503072652E+03  0.00000000000E+00 0.  1.
         -1    1    6    6    0  502 -0.22346746553E+02  0.30283504549E+03 -0.36945847775E+03  0.47823426126E+03  0.00000000000E+00 0.  1.
<mgrwt>
<rscale>  0 0.31923253E+04</rscale>
<asrwt>0</asrwt>
<pdfrwt beam="1">  1        2 0.30156397E+00 0.31923253E+04</pdfrwt>
<pdfrwt beam="2">  1       -2 0.19996229E+00 0.31923253E+04</pdfrwt>
<totfact> 0.78843747E-01</totfact>
</mgrwt>
</event>
<event>
12    1  0.1477245E-007  0.1991721E+04  0.7818608E-02  0.8610501E-01
         -2   -1    0    0    0  501 -0.00000000000E+00  0.00000000000E+00  0.10304846268E+04  0.10304846268E+04  0.00000000000E+00 0. -1.
          2   -1    0    0  501    0  0.00000000000E+00 -0.00000000000E+00 -0.96239928451E+03  0.96239928451E+03  0.00000000000E+00 0.  1.
         23    2    1    2    0    0  0.18115914966E+03 -0.10026566344E+03  0.79121287951E+03  0.82293469716E+03  0.91278991607E+02 0.  0.
        254    2    1    2    0    0 -0.18115914966E+03  0.10026566344E+03 -0.72312753719E+03  0.11699492142E+04  0.89610037829E+03 0.  0.
        -24    2    4    4    0    0  0.30410762175E+03 -0.58519114018E+01 -0.55771881771E+03  0.64040717207E+03  0.80965276095E+02 0.  0.
         24    2    4    4    0    0 -0.48526677141E+03  0.10611757484E+03 -0.16540871947E+03  0.52954204211E+03  0.79435198513E+02 0.  0.
         11    1    3    3    0    0  0.25910170871E+02 -0.50845855491E+02  0.13052976698E+03  0.14245932066E+03  0.00000000000E+00 0.  1.
        -11    1    3    3    0    0  0.15524897879E+03 -0.49419807947E+02  0.66068311254E+03  0.68047537650E+03  0.00000000000E+00 0. -1.
          4    1    6    6  502    0 -0.30379010212E+03  0.33617228775E+02 -0.12364198483E+03  0.32970575462E+03  0.00000000000E+00 0. -1.
          1    1    5    5  503    0  0.20022627697E+03  0.75636111757E+01 -0.43591570156E+03  0.47976063727E+03  0.00000000000E+00 0. -1.
         -2    1    5    5    0  503  0.10388134478E+03 -0.13415522578E+02 -0.12180311615E+03  0.16064653480E+03  0.00000000000E+00 0.  1.
         -3    1    6    6    0  502 -0.18147666929E+03  0.72500346064E+02 -0.41766734639E+02  0.19983628749E+03  0.00000000000E+00 0.  1.
<mgrwt>
<rscale>  0 0.19917205E+04</rscale>
<asrwt>0</asrwt>
<pdfrwt beam="1">  1        2 0.14806143E+00 0.19917205E+04</pdfrwt>
<pdfrwt beam="2">  1       -2 0.15853610E+00 0.19917205E+04</pdfrwt>
<totfact> 0.63965347E+00</totfact>
</mgrwt>
</event>
<event>
12    1  0.1477245E-007  0.2296502E+04  0.7818608E-02  0.8479302E-01
          1   -1    0    0  501    0  0.00000000000E+00  0.00000000000E+00  0.20419016084E+04  0.20419016084E+04  0.00000000000E+00 0. -1.
         -1   -1    0    0    0  501 -0.00000000000E+00 -0.00000000000E+00 -0.64571189420E+03  0.64571189420E+03  0.00000000000E+00 0.  1.
         23    2    1    2    0    0  0.33529673752E+03 -0.40096108478E+03  0.16337286513E+04  0.17173190178E+04  0.83196210391E+02 0.  0.
        254    2    1    2    0    0 -0.33529673752E+03  0.40096108478E+03 -0.23753893705E+03  0.97029448475E+03  0.78221029578E+03 0.  0.
        -24    2    4    4    0    0  0.46840028736E+02 -0.19910963560E+03 -0.11924341056E+02  0.21970466660E+03  0.79305203702E+02 0.  0.
         24    2    4    4    0    0 -0.38213676626E+03  0.60007072039E+03 -0.22561459599E+03  0.75058981815E+03  0.79810723588E+02 0.  0.
         11    1    3    3    0    0  0.11563364060E+03 -0.83734333822E+02  0.40475349866E+03  0.42919456215E+03  0.00000000000E+00 0.  1.
        -11    1    3    3    0    0  0.21966309692E+03 -0.31722675096E+03  0.12289751526E+04  0.12881244557E+04  0.00000000000E+00 0. -1.
          4    1    6    6  502    0 -0.76276730919E+02  0.71663931176E+02 -0.44690193236E+02  0.11380277713E+03  0.00000000000E+00 0. -1.
          3    1    5    5  503    0  0.23497824899E+02 -0.91995066474E+01 -0.12948423224E+02  0.28362657872E+02  0.00000000000E+00 0. -1.
         -4    1    5    5    0  503  0.23342203837E+02 -0.18991012896E+03  0.10240821681E+01  0.19134200873E+03  0.00000000000E+00 0.  1.
         -3    1    6    6    0  502 -0.30586003534E+03  0.52840678921E+03 -0.18092440275E+03  0.63678704102E+03  0.00000000000E+00 0.  1.
<mgrwt>
<rscale>  0 0.22965018E+04</rscale>
<asrwt>0</asrwt>
<pdfrwt beam="1">  1        1 0.31413871E+00 0.22965018E+04</pdfrwt>
<pdfrwt beam="2">  1       -1 0.99340292E-01 0.22965018E+04</pdfrwt>
<totfact> 0.24414416E+00</totfact>
</mgrwt>
</event>
<event>
12    1  0.1477245E-007  0.2226433E+04  0.7818608E-02  0.8507506E-01
          1   -1    0    0  501    0  0.00000000000E+00  0.00000000000E+00  0.84156384006E+03  0.84156384006E+03  0.00000000000E+00 0. -1.
         -1   -1    0    0    0  501 -0.00000000000E+00 -0.00000000000E+00 -0.14725566495E+04  0.14725566495E+04  0.00000000000E+00 0.  1.
         23    2    1    2    0    0 -0.14541474453E+03  0.52281472988E+03  0.51522431449E+03  0.75437110928E+03  0.95598046927E+02 0.  0.
        254    2    1    2    0    0  0.14541474453E+03 -0.52281472988E+03 -0.11462171239E+04  0.15597493803E+04  0.90803289831E+03 0.  0.
        -24    2    4    4    0    0 -0.42734657256E+02  0.18749403681E+03 -0.16240956147E+02  0.20951870040E+03  0.81572375183E+02 0.  0.
         24    2    4    4    0    0  0.18814940179E+03 -0.71030876668E+03 -0.11299761678E+04  0.13502306799E+04  0.79611605512E+02 0.  0.
         11    1    3    3    0    0 -0.14367985177E+03  0.52315351716E+03  0.51862608440E+03  0.75053748590E+03  0.00000000000E+00 0. -1.
        -11    1    3    3    0    0 -0.17348927597E+01 -0.33878727802E+00 -0.34017699132E+01  0.38336233840E+01  0.00000000000E+00 0.  1.
          4    1    6    6  502    0  0.12649511877E+03 -0.56358450495E+03 -0.92816846692E+03  0.10932178247E+04  0.00000000000E+00 0. -1.
          1    1    5    5  503    0  0.15768778240E+02  0.11325085578E+03 -0.73999962500E+01  0.11458259312E+03  0.00000000000E+00 0. -1.
         -2    1    5    5    0  503 -0.58503435496E+02  0.74243181029E+02 -0.88409598966E+01  0.94936107282E+02  0.00000000000E+00 0.  1.
         -3    1    6    6    0  502  0.61654283019E+02 -0.14672426173E+03 -0.20180770086E+03  0.25701285517E+03  0.00000000000E+00 0.  1.
<mgrwt>
<rscale>  0 0.22264325E+04</rscale>
<asrwt>0</asrwt>
<pdfrwt beam="1">  1        1 0.12947136E+00 0.22264325E+04</pdfrwt>
<pdfrwt beam="2">  1       -1 0.22654718E+00 0.22264325E+04</pdfrwt>
<totfact> 0.18428143E+00</totfact>
</mgrwt>
</event>
<event>
12    1  0.1477245E-007  0.1454068E+04  0.7818608E-02  0.8915585E-01
          2   -1    0    0  501    0  0.00000000000E+00  0.00000000000E+00  0.25490342107E+04  0.25490342107E+04  0.00000000000E+00 0. -1.
         -2   -1    0    0    0  501 -0.00000000000E+00 -0.00000000000E+00 -0.20736423327E+03  0.20736423327E+03  0.00000000000E+00 0.  1.
         23    2    1    2    0    0  0.33292143857E+03 -0.31788070035E+03  0.72936201724E+03  0.86748051690E+03  0.93105698469E+02 0.  0.
        254    2    1    2    0    0 -0.33292143857E+03  0.31788070035E+03  0.16123079602E+04  0.18889179271E+04  0.86982133383E+03 0.  0.
        -24    2    4    4    0    0  0.54392150015E+02  0.24722130015E+03  0.14176624124E+04  0.14422882597E+04  0.79698378112E+02 0.  0.
         24    2    4    4    0    0 -0.38731358859E+03  0.70659400197E+02  0.19464554780E+03  0.44662966732E+03  0.81157893720E+02 0.  0.
         13    1    3    3    0    0  0.31032651131E+03 -0.25417331375E+03  0.60424526143E+03  0.72527164084E+03  0.00000000000E+00 0. -1.
        -13    1    3    3    0    0  0.22594927264E+02 -0.63707386604E+02  0.12511675581E+03  0.14220887606E+03  0.00000000000E+00 0.  1.
          4    1    6    6  502    0 -0.24903931151E+03  0.62975802692E+02  0.16407911665E+03  0.30480893511E+03  0.00000000000E+00 0. -1.
          3    1    5    5  503    0 -0.88113546221E+01  0.54763759858E+02  0.18655784792E+03  0.19462923722E+03  0.00000000000E+00 0. -1.
         -4    1    5    5    0  503  0.63203504637E+02  0.19245754029E+03  0.12311045645E+04  0.12476590225E+04  0.00000000000E+00 0.  1.
         -3    1    6    6    0  502 -0.13827427708E+03  0.76835975045E+01  0.30566431150E+02  0.14182073221E+03  0.00000000000E+00 0.  1.
<mgrwt>
<rscale>  0 0.14540681E+04</rscale>
<asrwt>0</asrwt>
<pdfrwt beam="1">  1        2 0.39215909E+00 0.14540681E+04</pdfrwt>
<pdfrwt beam="2">  1       -2 0.31902191E-01 0.14540681E+04</pdfrwt>
<totfact> 0.28977658E+01</totfact>
</mgrwt>
</event>
<event>
12    1  0.1477245E-007  0.1407796E+04  0.7818608E-02  0.8948195E-01
         -2   -1    0    0    0  501 -0.00000000000E+00  0.00000000000E+00  0.32012563510E+03  0.32012563510E+03  0.00000000000E+00 0.  1.
          2   -1    0    0  501    0  0.00000000000E+00 -0.00000000000E+00 -0.15477433425E+04  0.15477433425E+04  0.00000000000E+00 0. -1.
         23    2    1    2    0    0 -0.18396739277E+03 -0.32482663575E+03 -0.52923770736E+03  0.65393960366E+03  0.90488173006E+02 0.  0.
        254    2    1    2    0    0  0.18396739277E+03  0.32482663575E+03 -0.69838000001E+03  0.12139293739E+04  0.92007258166E+03 0.  0.
        -24    2    4    4    0    0  0.26560581541E+03  0.43397707931E+03 -0.17594312964E+02  0.51504763919E+03  0.77986897853E+02 0.  0.
         24    2    4    4    0    0 -0.81638422637E+02 -0.10915044356E+03 -0.68078568705E+03  0.69888173472E+03  0.79924189412E+02 0.  0.
         11    1    3    3    0    0 -0.85989812391E+02 -0.10302581179E+03 -0.25292122145E+03  0.28631749857E+03  0.00000000000E+00 0. -1.
        -11    1    3    3    0    0 -0.97977580382E+02 -0.22180082395E+03 -0.27631648591E+03  0.36762210509E+03  0.00000000000E+00 0.  1.
          4    1    6    6  502    0 -0.20394299228E+02 -0.87720169730E+02 -0.46117065367E+03  0.46988203564E+03  0.00000000000E+00 0. -1.
          3    1    5    5  503    0  0.55685740959E+02  0.13795108288E+03  0.20415510845E+02  0.15016056771E+03  0.00000000000E+00 0. -1.
         -4    1    5    5    0  503  0.20992007445E+03  0.29602599643E+03 -0.38009823809E+02  0.36488707147E+03  0.00000000000E+00 0.  1.
         -3    1    6    6    0  502 -0.61244123409E+02 -0.21430273832E+02 -0.21961503338E+03  0.22899969908E+03  0.00000000000E+00 0.  1.
<mgrwt>
<rscale>  0 0.14077959E+04</rscale>
<asrwt>0</asrwt>
<pdfrwt beam="1">  1        2 0.23811436E+00 0.14077959E+04</pdfrwt>
<pdfrwt beam="2">  1       -2 0.49250098E-01 0.14077959E+04</pdfrwt>
<totfact> 0.45284978E+01</totfact>
</mgrwt>
</event>
<event>
12    1  0.1477245E-007  0.1769815E+04  0.7818608E-02  0.8722518E-01
          1   -1    0    0  501    0  0.00000000000E+00  0.00000000000E+00  0.17280911004E+04  0.17280911004E+04  0.00000000000E+00 0. -1.
         -1   -1    0    0    0  501 -0.00000000000E+00 -0.00000000000E+00 -0.45313649214E+03  0.45313649214E+03  0.00000000000E+00 0.  1.
         23    2    1    2    0    0  0.11573559803E+02  0.53542310747E+03  0.94917532764E+03  0.10938564426E+04  0.93681711435E+02 0.  0.
        254    2    1    2    0    0 -0.11573559803E+02 -0.53542310747E+03  0.32577928060E+03  0.10873711499E+04  0.88849987437E+03 0.  0.
        -24    2    4    4    0    0  0.21536849205E+03 -0.63510469560E+03  0.43626434126E+03  0.80390340745E+03  0.78692765311E+02 0.  0.
         24    2    4    4    0    0 -0.22694205185E+03  0.99681588125E+02 -0.11048506066E+03  0.28346774249E+03  0.81901761255E+02 0.  0.
         11    1    3    3    0    0  0.18622123721E+01  0.17981225630E+03  0.23423678382E+03  0.29530117888E+03  0.00000000000E+00 0.  1.
        -11    1    3    3    0    0  0.97113474306E+01  0.35561085117E+03  0.71493854382E+03  0.79855526370E+03  0.00000000000E+00 0. -1.
          4    1    6    6  502    0 -0.17204729917E+03  0.78720836169E+02 -0.11984801428E+03  0.22396604592E+03  0.00000000000E+00 0. -1.
          3    1    5    5  503    0  0.19827052792E+03 -0.61692754787E+03  0.40604154125E+03  0.76470944468E+03  0.00000000000E+00 0. -1.
         -4    1    5    5    0  503  0.17097964126E+02 -0.18177147727E+02  0.30222800013E+02  0.39193962767E+02  0.00000000000E+00 0.  1.
         -3    1    6    6    0  502 -0.54894752680E+02  0.20960751956E+02  0.93629536231E+01  0.59501696572E+02  0.00000000000E+00 0.  1.
<mgrwt>
<rscale>  0 0.17698148E+04</rscale>
<asrwt>0</asrwt>
<pdfrwt beam="1">  1        1 0.26586017E+00 0.17698148E+04</pdfrwt>
<pdfrwt beam="2">  1       -1 0.69713307E-01 0.17698148E+04</pdfrwt>
<totfact> 0.89760294E+00</totfact>
</mgrwt>
</event>
<event>
12    1  0.1477245E-007  0.2080329E+04  0.7818608E-02  0.8569959E-01
          2   -1    0    0  501    0  0.00000000000E+00  0.00000000000E+00  0.13975447757E+04  0.13975447757E+04  0.00000000000E+00 0. -1.
         -2   -1    0    0    0  501 -0.00000000000E+00 -0.00000000000E+00 -0.77417337019E+03  0.77417337019E+03  0.00000000000E+00 0.  1.
         23    2    1    2    0    0  0.63962795913E+03  0.37664202343E+03  0.67228141805E+03  0.10055051878E+04  0.89973539504E+02 0.  0.
        254    2    1    2    0    0 -0.63962795913E+03 -0.37664202343E+03 -0.48910012491E+02  0.11662129581E+04  0.89815217774E+03 0.  0.
        -24    2    4    4    0    0 -0.27012094886E+03 -0.29471008521E+03 -0.45133823572E+03  0.60824075589E+03  0.80195091913E+02 0.  0.
         24    2    4    4    0    0 -0.36950701027E+03 -0.81931938225E+02  0.40242822323E+03  0.55797220220E+03  0.78334095027E+02 0.  0.
         11    1    3    3    0    0  0.60251418898E+03  0.37653682447E+03  0.64250731697E+03  0.95792430832E+03  0.00000000000E+00 0. -1.
        -11    1    3    3    0    0  0.37113770151E+02  0.10519896442E+00  0.29774101077E+02  0.47580879527E+02  0.00000000000E+00 0.  1.
          4    1    6    6  502    0 -0.14771847935E+03 -0.24699404173E+02  0.10659682385E+03  0.18383060833E+03  0.00000000000E+00 0. -1.
          1    1    5    5  503    0 -0.92743844712E+02 -0.13892852858E+03 -0.23291065724E+03  0.28661809266E+03  0.00000000000E+00 0. -1.
         -2    1    5    5    0  503 -0.17737710415E+03 -0.15578155662E+03 -0.21842757848E+03  0.32162266323E+03  0.00000000000E+00 0.  1.
         -3    1    6    6    0  502 -0.22178853092E+03 -0.57232534052E+02  0.29583139938E+03  0.37414159387E+03  0.00000000000E+00 0.  1.
<mgrwt>
<rscale>  0 0.20803288E+04</rscale>
<asrwt>0</asrwt>
<pdfrwt beam="1">  1        2 0.21500689E+00 0.20803288E+04</pdfrwt>
<pdfrwt beam="2">  1       -2 0.11910360E+00 0.20803288E+04</pdfrwt>
<totfact> 0.72506493E+00</totfact>
</mgrwt>
</event>
<event>
12    1  0.1477245E-007  0.3007186E+04  0.7818608E-02  0.8241682E-01
          1   -1    0    0  501    0  0.00000000000E+00  0.00000000000E+00  0.92503813533E+03  0.92503813533E+03  0.00000000000E+00 0. -1.
         -1   -1    0    0    0  501 -0.00000000000E+00 -0.00000000000E+00 -0.24439984884E+04  0.24439984884E+04  0.00000000000E+00 0.  1.
         23    2    1    2    0    0 -0.56140276729E+03  0.55541066654E+03  0.55838872089E+03  0.97157856804E+03  0.92265240688E+02 0.  0.
        254    2    1    2    0    0  0.56140276729E+03 -0.55541066654E+03 -0.20773490740E+04  0.23974580557E+04  0.89931745119E+03 0.  0.
        -24    2    4    4    0    0 -0.18592656259E+03 -0.36689144460E+03 -0.65013330732E+03  0.77353444145E+03  0.80648595914E+02 0.  0.
         24    2    4    4    0    0  0.74732932989E+03 -0.18851922194E+03 -0.14272157666E+04  0.16239236142E+04  0.78373694271E+02 0.  0.
         11    1    3    3    0    0 -0.23527298276E+03  0.22258238613E+03  0.28437986992E+03  0.43100835891E+03  0.00000000000E+00 0.  1.
        -11    1    3    3    0    0 -0.32612978453E+03  0.33282828040E+03  0.27400885097E+03  0.54057020914E+03  0.00000000000E+00 0. -1.
          2    1    6    6  502    0  0.64297198067E+02 -0.31034666033E+02 -0.98517044398E+02  0.12166712051E+03  0.00000000000E+00 0. -1.
          1    1    5    5  503    0  0.75218126834E+01 -0.20761523787E+02 -0.43887487420E+02  0.49129727132E+02  0.00000000000E+00 0. -1.
         -2    1    5    5    0  503 -0.19344837528E+03 -0.34612992081E+03 -0.60624581990E+03  0.72440471432E+03  0.00000000000E+00 0.  1.
         -1    1    6    6    0  502  0.68303213182E+03 -0.15748455590E+03 -0.13286987222E+04  0.15022564937E+04  0.00000000000E+00 0.  1.
<mgrwt>
<rscale>  0 0.30071859E+04</rscale>
<asrwt>0</asrwt>
<pdfrwt beam="1">  1        1 0.14231356E+00 0.30071859E+04</pdfrwt>
<pdfrwt beam="2">  1       -1 0.37599977E+00 0.30071859E+04</pdfrwt>
<totfact> 0.15366697E-01</totfact>
</mgrwt>
</event>
<event>
12    1  0.1477245E-007  0.1746895E+04  0.7818608E-02  0.8735061E-01
          2   -1    0    0  501    0  0.00000000000E+00  0.00000000000E+00  0.14502846636E+04  0.14502846636E+04  0.00000000000E+00 0. -1.
         -2   -1    0    0    0  501 -0.00000000000E+00 -0.00000000000E+00 -0.52604216821E+03  0.52604216821E+03  0.00000000000E+00 0.  1.
         23    2    1    2    0    0 -0.42719958249E+03  0.26900687090E+03 -0.10443894291E+03  0.52374548607E+03  0.92399467049E+02 0.  0.
        254    2    1    2    0    0  0.42719958249E+03 -0.26900687090E+03  0.10286814383E+04  0.14525813458E+04  0.89271657576E+03 0.  0.
        -24    2    4    4    0    0  0.13252567263E+03  0.51401835469E+02  0.99523277604E+03  0.10085072433E+04  0.79958605482E+02 0.  0.
         24    2    4    4    0    0  0.29467390986E+03 -0.32040870637E+03  0.33448662297E+02  0.44407410252E+03  0.81169842003E+02 0.  0.
         13    1    3    3    0    0 -0.20582735594E+03  0.16412691182E+03 -0.17573791303E+02  0.26383968954E+03  0.00000000000E+00 0. -1.
        -13    1    3    3    0    0 -0.22137222655E+03  0.10487995908E+03 -0.86865151612E+02  0.25990579652E+03  0.00000000000E+00 0.  1.
          4    1    6    6  502    0  0.38782636960E+01  0.30581952521E+01  0.66536474560E+01  0.82864052498E+01  0.00000000000E+00 0. -1.
          1    1    5    5  503    0  0.99266108615E+02  0.43068955023E+02  0.47602308090E+03  0.48816664036E+03  0.00000000000E+00 0. -1.
         -2    1    5    5    0  503  0.33259564018E+02  0.83328804458E+01  0.51920969514E+03  0.52034060290E+03  0.00000000000E+00 0.  1.
         -3    1    6    6    0  502  0.29079564616E+03 -0.32346690162E+03  0.26795014841E+02  0.43578769727E+03  0.00000000000E+00 0.  1.
<mgrwt>
<rscale>  0 0.17468954E+04</rscale>
<asrwt>0</asrwt>
<pdfrwt beam="1">  1        2 0.22312072E+00 0.17468954E+04</pdfrwt>
<pdfrwt beam="2">  1       -2 0.80929565E-01 0.17468954E+04</pdfrwt>
<totfact> 0.17294657E+01</totfact>
</mgrwt>
</event>
<event>
12    1  0.1553721E-007  0.1801571E+04  0.7818608E-02  0.8705464E-01
         -2   -1    0    0    0  501 -0.00000000000E+00  0.00000000000E+00  0.41327878998E+03  0.41327878998E+03  0.00000000000E+00 0.  1.
          2   -1    0    0  501    0  0.00000000000E+00 -0.00000000000E+00 -0.19633593000E+04  0.19633593000E+04  0.00000000000E+00 0. -1.
         23    2    1    2    0    0  0.12653575842E+03 -0.13904430482E+03  0.25027312332E+03  0.32586278601E+03  0.90583123084E+02 0.  0.
        254    2    1    2    0    0 -0.12653575842E+03  0.13904430482E+03 -0.18003536333E+04  0.20507753040E+04  0.96387837689E+03 0.  0.
        -24    2    4    4    0    0  0.36624689148E+03  0.23362725363E+03 -0.57875251232E+03  0.72780451239E+03  0.77630268494E+02 0.  0.
         24    2    4    4    0    0 -0.49278264990E+03 -0.94582948807E+02 -0.12216011210E+04  0.13229707916E+04  0.78496765878E+02 0.  0.
         11    1    3    3    0    0  0.10188720129E+03 -0.14614573524E+03  0.23835519068E+03  0.29757818240E+03  0.00000000000E+00 0.  1.
        -11    1    3    3    0    0  0.24648557133E+02  0.71014304243E+01  0.11917932633E+02  0.28284603604E+02  0.00000000000E+00 0. -1.
          2    1    6    6  502    0 -0.41019819999E+03 -0.68723474284E+02 -0.92928311725E+03  0.10181122685E+04  0.00000000000E+00 0. -1.
          1    1    5    5  503    0  0.36475644928E+03  0.23585201513E+03 -0.58018497825E+03  0.72476758297E+03  0.00000000000E+00 0. -1.
         -2    1    5    5    0  503  0.14904421940E+01 -0.22247615001E+01  0.14324659327E+01  0.30369294220E+01  0.00000000000E+00 0.  1.
         -1    1    6    6    0  502 -0.82584449913E+02 -0.25859474522E+02 -0.29231800375E+03  0.30485852310E+03  0.00000000000E+00 0.  1.
<mgrwt>
<rscale>  0 0.18015713E+04</rscale>
<asrwt>0</asrwt>
<pdfrwt beam="1">  1        2 0.30205528E+00 0.18015713E+04</pdfrwt>
<pdfrwt beam="2">  1       -2 0.63581352E-01 0.18015713E+04</pdfrwt>
<totfact> 0.15129893E+01</totfact>
</mgrwt>
</event>
<event>
12    1  0.1477245E-007  0.1224328E+04  0.7818608E-02  0.9091825E-01
          2   -1    0    0  501    0  0.00000000000E+00  0.00000000000E+00  0.19470439218E+04  0.19470439218E+04  0.00000000000E+00 0. -1.
         -2   -1    0    0    0  501 -0.00000000000E+00 -0.00000000000E+00 -0.19246867753E+03  0.19246867753E+03  0.00000000000E+00 0.  1.
         23    2    1    2    0    0 -0.23573063646E+03 -0.41934828399E+02  0.25634307774E+03  0.35998523526E+03  0.80932893835E+02 0.  0.
        254    2    1    2    0    0  0.23573063646E+03  0.41934828399E+02  0.14982321665E+04  0.17795273641E+04  0.92988738665E+03 0.  0.
        -24    2    4    4    0    0 -0.62510606807E+02 -0.49206040295E+02  0.14494668221E+04  0.14538429144E+04  0.79851993115E+02 0.  0.
         24    2    4    4    0    0  0.29824124327E+03  0.91140868694E+02  0.48765344384E+02  0.32568444970E+03  0.80235932289E+02 0.  0.
         13    1    3    3    0    0 -0.22097104507E+03 -0.58831097258E+02  0.24390274163E+03  0.33433194304E+03  0.00000000000E+00 0. -1.
        -13    1    3    3    0    0 -0.14759591391E+02  0.16896268859E+02  0.12440336113E+02  0.25653292225E+02  0.00000000000E+00 0.  1.
          4    1    6    6  502    0  0.29616658368E+03  0.10022370559E+03  0.46590916679E+02  0.31611730412E+03  0.00000000000E+00 0. -1.
          3    1    5    5  503    0 -0.26028519364E+02 -0.64134802070E+02  0.72238617719E+03  0.72569452640E+03  0.00000000000E+00 0. -1.
         -4    1    5    5    0  503 -0.36482087443E+02  0.14928761775E+02  0.72708064495E+03  0.72814838796E+03  0.00000000000E+00 0.  1.
         -3    1    6    6    0  502  0.20746595903E+01 -0.90828369006E+01  0.21744277043E+01  0.95671455732E+01  0.00000000000E+00 0.  1.
<mgrwt>
<rscale>  0 0.12243283E+04</rscale>
<asrwt>0</asrwt>
<pdfrwt beam="1">  1        2 0.29954520E+00 0.12243283E+04</pdfrwt>
<pdfrwt beam="2">  1       -2 0.29610567E-01 0.12243283E+04</pdfrwt>
<totfact> 0.74082640E+01</totfact>
</mgrwt>
</event>
<event>
12    1  0.1477245E-007  0.3503309E+04  0.7818608E-02  0.8113006E-01
         -4   -1    0    0    0  501 -0.00000000000E+00  0.00000000000E+00  0.13395170161E+04  0.13395170161E+04  0.00000000000E+00 0.  1.
          4   -1    0    0  501    0  0.00000000000E+00 -0.00000000000E+00 -0.22905963819E+04  0.22905963819E+04  0.00000000000E+00 0. -1.
         23    2    1    2    0    0  0.86233805678E+02  0.63477094622E+03  0.11139172323E+04  0.12880288465E+04  0.88522796057E+02 0.  0.
        254    2    1    2    0    0 -0.86233805678E+02 -0.63477094622E+03 -0.20649965982E+04  0.23420845515E+04  0.90043249200E+03 0.  0.
        -24    2    4    4    0    0  0.12671709440E+03 -0.61881261712E+03 -0.65610528477E+03  0.91486962115E+03  0.86752532433E+02 0.  0.
         24    2    4    4    0    0 -0.21295090007E+03 -0.15958329095E+02 -0.14088913134E+04  0.14272149304E+04  0.79780764560E+02 0.  0.
         13    1    3    3    0    0  0.95153465735E+02  0.50951761149E+03  0.94124934111E+03  0.10745290599E+04  0.00000000000E+00 0.  1.
        -13    1    3    3    0    0 -0.89196600577E+01  0.12525333473E+03  0.17266789124E+03  0.21349978656E+03  0.00000000000E+00 0. -1.
          2    1    6    6  502    0 -0.14425574470E+03 -0.10648450831E+02 -0.68816794018E+03  0.70320567637E+03  0.00000000000E+00 0. -1.
          3    1    5    5  503    0  0.86836432608E+02 -0.23039292203E+03 -0.27770030727E+03  0.37113195121E+03  0.00000000000E+00 0. -1.
         -4    1    5    5    0  503  0.39880661788E+02 -0.38841969509E+03 -0.37840497750E+03  0.54373766995E+03  0.00000000000E+00 0.  1.
         -1    1    6    6    0  502 -0.68695155376E+02 -0.53098782640E+01 -0.72072337323E+03  0.72400925402E+03  0.00000000000E+00 0.  1.
<mgrwt>
<rscale>  0 0.35033086E+04</rscale>
<asrwt>0</asrwt>
<pdfrwt beam="1">  1        4 0.35239944E+00 0.35033086E+04</pdfrwt>
<pdfrwt beam="2">  1       -4 0.20607954E+00 0.35033086E+04</pdfrwt>
<totfact> 0.27785862E-03</totfact>
</mgrwt>
</event>
<event>
12    1  0.1477245E-007  0.4425564E+04  0.7818608E-02  0.7923800E-01
         -1   -1    0    0    0  501 -0.00000000000E+00  0.00000000000E+00  0.18786412885E+04  0.18786412885E+04  0.00000000000E+00 0.  1.
          1   -1    0    0  501    0  0.00000000000E+00 -0.00000000000E+00 -0.26063535982E+04  0.26063535982E+04  0.00000000000E+00 0. -1.
         23    2    1    2    0    0 -0.20540135349E+04  0.35293603552E+03  0.58730782320E+02  0.20860020321E+04  0.66481024404E+02 0.  0.
        254    2    1    2    0    0  0.20540135349E+04 -0.35293603552E+03 -0.78644309204E+03  0.23989928545E+04  0.89058325410E+03 0.  0.
        -24    2    4    4    0    0  0.78557600758E+03  0.99615113880E+01  0.11666307318E+03  0.79822842758E+03  0.79557869222E+02 0.  0.
         24    2    4    4    0    0  0.12684375273E+04 -0.36289754691E+03 -0.90310616522E+03  0.16007644270E+04  0.78851853285E+02 0.  0.
         13    1    3    3    0    0 -0.10821483868E+03  0.36987767798E+01  0.19622093472E+01  0.10829581028E+03  0.00000000000E+00 0. -1.
        -13    1    3    3    0    0 -0.19457986962E+04  0.34923725874E+03  0.56768572973E+02  0.19777062218E+04  0.00000000000E+00 0.  1.
          4    1    6    6  502    0  0.30714549425E+02 -0.16073588856E+02 -0.37570258852E+02  0.51120134539E+02  0.00000000000E+00 0. -1.
          1    1    5    5  503    0  0.44863631157E+02  0.93588270923E+01 -0.96195468785E+01  0.46828076271E+02  0.00000000000E+00 0. -1.
         -2    1    5    5    0  503  0.74071237642E+03  0.60268429573E+00  0.12628262006E+03  0.75140035131E+03  0.00000000000E+00 0.  1.
         -3    1    6    6    0  502  0.12377229779E+04 -0.34682395805E+03 -0.86553590637E+03  0.15496442924E+04  0.00000000000E+00 0.  1.
<mgrwt>
<rscale>  0 0.44255637E+04</rscale>
<asrwt>0</asrwt>
<pdfrwt beam="1">  1        1 0.40097748E+00 0.44255637E+04</pdfrwt>
<pdfrwt beam="2">  1       -1 0.28902174E+00 0.44255637E+04</pdfrwt>
<totfact> 0.33591460E-02</totfact>
</mgrwt>
</event>
<event>
12    1  0.1477245E-007  0.1628007E+04  0.7818608E-02  0.8803525E-01
         -2   -1    0    0    0  501 -0.00000000000E+00  0.00000000000E+00  0.37255266714E+03  0.37255266714E+03  0.00000000000E+00 0.  1.
          2   -1    0    0  501    0  0.00000000000E+00 -0.00000000000E+00 -0.17785446149E+04  0.17785446149E+04  0.00000000000E+00 0. -1.
         23    2    1    2    0    0  0.54777206000E+02 -0.29471028666E+03  0.13292848553E+03  0.34026405103E+03  0.90856737756E+02 0.  0.
        254    2    1    2    0    0 -0.54777206000E+02  0.29471028666E+03 -0.15389204333E+04  0.18108332310E+04  0.90608288537E+03 0.  0.
        -24    2    4    4    0    0 -0.39143327895E+03 -0.10864405885E+03 -0.55289085322E+03  0.69072937375E+03  0.79970174423E+02 0.  0.
         24    2    4    4    0    0  0.33665607295E+03  0.40335434551E+03 -0.98602958009E+03  0.11201038573E+04  0.79663534745E+02 0.  0.
         11    1    3    3    0    0  0.42297407062E+02 -0.61087321011E+02  0.59087130516E+02  0.94931661868E+02  0.00000000000E+00 0. -1.
        -11    1    3    3    0    0  0.12479798938E+02 -0.23362296565E+03  0.73841355018E+02  0.24533238916E+03  0.00000000000E+00 0.  1.
          4    1    6    6  502    0  0.18163778185E+02  0.91214243905E+01 -0.16815794140E+02  0.26379805788E+02  0.00000000000E+00 0. -1.
          3    1    5    5  503    0 -0.21509345756E+03 -0.41810475973E+02 -0.35651227045E+03  0.41846661798E+03  0.00000000000E+00 0. -1.
         -2    1    5    5    0  503 -0.17633982139E+03 -0.66833582873E+02 -0.19637858277E+03  0.27226275577E+03  0.00000000000E+00 0.  1.
         -3    1    6    6    0  502  0.31849229477E+03  0.39423292112E+03 -0.96921378595E+03  0.10937240515E+04  0.00000000000E+00 0.  1.
<mgrwt>
<rscale>  0 0.16280068E+04</rscale>
<asrwt>0</asrwt>
<pdfrwt beam="1">  1        2 0.27362225E+00 0.16280068E+04</pdfrwt>
<pdfrwt beam="2">  1       -2 0.57315794E-01 0.16280068E+04</pdfrwt>
<totfact> 0.24202682E+01</totfact>
</mgrwt>
</event>
<event>
12    1  0.1477245E-007  0.1526249E+04  0.7818608E-02  0.8867183E-01
         -2   -1    0    0    0  501 -0.00000000000E+00  0.00000000000E+00  0.30625709068E+03  0.30625709068E+03  0.00000000000E+00 0.  1.
          2   -1    0    0  501    0  0.00000000000E+00 -0.00000000000E+00 -0.19015360456E+04  0.19015360456E+04  0.00000000000E+00 0. -1.
         23    2    1    2    0    0 -0.56846943241E+02  0.93190765816E+02 -0.12231844058E+04  0.12314036324E+04  0.90877507402E+02 0.  0.
        254    2    1    2    0    0  0.56846943241E+02 -0.93190765816E+02 -0.37209454913E+03  0.97638950394E+03  0.89608371045E+03 0.  0.
        -24    2    4    4    0    0 -0.38032348003E+03  0.11190975493E+03 -0.23632188171E+03  0.46865132956E+03  0.81340606158E+02 0.  0.
         24    2    4    4    0    0  0.43717042327E+03 -0.20510052074E+03 -0.13577266742E+03  0.50773817439E+03  0.78610647603E+02 0.  0.
         13    1    3    3    0    0 -0.46899721746E+02  0.10118836874E+03 -0.76955821705E+03  0.77759791621E+03  0.00000000000E+00 0. -1.
        -13    1    3    3    0    0 -0.99472214953E+01 -0.79976029228E+01 -0.45362618878E+03  0.45380571616E+03  0.00000000000E+00 0.  1.
          4    1    6    6  502    0  0.17170601872E+03 -0.72734195594E+02 -0.13735914902E+02  0.18698100287E+03  0.00000000000E+00 0. -1.
          3    1    5    5  503    0 -0.79244298154E+01 -0.49819154338E+01 -0.20749929525E+02  0.22763471716E+02  0.00000000000E+00 0. -1.
         -4    1    5    5    0  503 -0.37239905022E+03  0.11689167036E+03 -0.21557195218E+03  0.44588785784E+03  0.00000000000E+00 0.  1.
         -3    1    6    6    0  502  0.26546440455E+03 -0.13236632515E+03 -0.12203675252E+03  0.32075717152E+03  0.00000000000E+00 0.  1.
<mgrwt>
<rscale>  0 0.15262489E+04</rscale>
<asrwt>0</asrwt>
<pdfrwt beam="1">  1        2 0.29254401E+00 0.15262489E+04</pdfrwt>
<pdfrwt beam="2">  1       -2 0.47116476E-01 0.15262489E+04</pdfrwt>
<totfact> 0.31205566E+01</totfact>
</mgrwt>
</event>
<event>
12    1  0.1477245E-007  0.2317133E+04  0.7818608E-02  0.8471196E-01
          2   -1    0    0  501    0  0.00000000000E+00  0.00000000000E+00  0.29653433287E+04  0.29653433287E+04  0.00000000000E+00 0. -1.
         -2   -1    0    0    0  501 -0.00000000000E+00 -0.00000000000E+00 -0.45265478896E+03  0.45265478896E+03  0.00000000000E+00 0.  1.
         23    2    1    2    0    0  0.61881441880E+03  0.55549453515E+03  0.30897088197E+03  0.89180475807E+03  0.91363324718E+02 0.  0.
        254    2    1    2    0    0 -0.61881441880E+03 -0.55549453515E+03  0.22037176578E+04  0.25261933596E+04  0.91311330699E+03 0.  0.
        -24    2    4    4    0    0  0.13799605890E+03  0.74343235157E+02  0.10052313611E+03  0.20277653481E+03  0.80271995684E+02 0.  0.
         24    2    4    4    0    0 -0.75681047770E+03 -0.62983777031E+03  0.21031945217E+04  0.23234168248E+04  0.73354138795E+02 0.  0.
         11    1    3    3    0    0  0.70757534253E+02  0.54648523968E+02  0.64171974861E+02  0.11005058920E+03  0.00000000000E+00 0. -1.
        -11    1    3    3    0    0  0.54805688455E+03  0.50084601118E+03  0.24479890711E+03  0.78175416887E+03  0.00000000000E+00 0.  1.
          4    1    6    6  502    0 -0.63343357423E+03 -0.49512131270E+03  0.17464773610E+04  0.19226456720E+04  0.00000000000E+00 0. -1.
          3    1    5    5  503    0  0.11635191200E+03  0.52820712282E+02  0.38180247316E+02  0.13336238734E+03  0.00000000000E+00 0. -1.
         -4    1    5    5    0  503  0.21644146900E+02  0.21522522875E+02  0.62342888792E+02  0.69414147469E+02  0.00000000000E+00 0.  1.
         -3    1    6    6    0  502 -0.12337690347E+03 -0.13471645761E+03  0.35671716063E+03  0.40077115284E+03  0.00000000000E+00 0.  1.
<mgrwt>
<rscale>  0 0.23171335E+04</rscale>
<asrwt>0</asrwt>
<pdfrwt beam="1">  1        2 0.45620665E+00 0.23171335E+04</pdfrwt>
<pdfrwt beam="2">  1       -2 0.69639200E-01 0.23171335E+04</pdfrwt>
<totfact> 0.31172777E+00</totfact>
</mgrwt>
</event>
<event>
12    1  0.1477245E-007  0.1173344E+04  0.7818608E-02  0.9136514E-01
          1   -1    0    0  501    0  0.00000000000E+00  0.00000000000E+00  0.87145265130E+03  0.87145265130E+03  0.00000000000E+00 0. -1.
         -1   -1    0    0    0  501 -0.00000000000E+00 -0.00000000000E+00 -0.39495414883E+03  0.39495414883E+03  0.00000000000E+00 0.  1.
         23    2    1    2    0    0  0.21680937306E+03  0.16962338121E+03  0.14592748848E+03  0.32450208230E+03  0.90710384312E+02 0.  0.
        254    2    1    2    0    0 -0.21680937306E+03 -0.16962338121E+03  0.33057101399E+03  0.94190471783E+03  0.83793132564E+03 0.  0.
        -24    2    4    4    0    0 -0.52843499777E+03 -0.10932079416E+03  0.26805341049E+03  0.60797783102E+03  0.81177763155E+02 0.  0.
         24    2    4    4    0    0  0.31162562471E+03 -0.60302587050E+02  0.62517603504E+02  0.33392688682E+03  0.82775497649E+02 0.  0.
         11    1    3    3    0    0  0.18760827747E+02  0.85310682002E+01  0.45897747776E+02  0.50312533561E+02  0.00000000000E+00 0. -1.
        -11    1    3    3    0    0  0.19804854531E+03  0.16109231301E+03  0.10002974070E+03  0.27418954873E+03  0.00000000000E+00 0.  1.
          4    1    6    6  502    0  0.26344546614E+03 -0.78117946805E+02  0.39390594769E+02  0.27759241020E+03  0.00000000000E+00 0. -1.
          3    1    5    5  503    0 -0.42428485414E+03 -0.81686218206E+02  0.17707780027E+03  0.46695484048E+03  0.00000000000E+00 0. -1.
         -4    1    5    5    0  503 -0.10415014363E+03 -0.27634575951E+02  0.90975610218E+02  0.14102299054E+03  0.00000000000E+00 0.  1.
         -3    1    6    6    0  502  0.48180158563E+02  0.17815359755E+02  0.23127008736E+02  0.56334476615E+02  0.00000000000E+00 0.  1.
<mgrwt>
<rscale>  0 0.11733437E+04</rscale>
<asrwt>0</asrwt>
<pdfrwt beam="1">  1        1 0.13406964E+00 0.11733437E+04</pdfrwt>
<pdfrwt beam="2">  1       -1 0.60762177E-01 0.11733437E+04</pdfrwt>
<totfact> 0.52336633E+01</totfact>
</mgrwt>
</event>
<event>
12    1  0.1477245E-007  0.1990970E+04  0.7818608E-02  0.8610854E-01
         -1   -1    0    0    0  501 -0.00000000000E+00  0.00000000000E+00  0.40925275347E+03  0.40925275347E+03  0.00000000000E+00 0.  1.
          1   -1    0    0  501    0  0.00000000000E+00 -0.00000000000E+00 -0.24214617764E+04  0.24214617764E+04  0.00000000000E+00 0. -1.
         23    2    1    2    0    0  0.29867579443E+03  0.49746349086E+03 -0.15666457223E+04  0.16731132823E+04  0.90840968292E+02 0.  0.
        254    2    1    2    0    0 -0.29867579443E+03 -0.49746349086E+03 -0.44556330066E+03  0.11576012475E+04  0.89712699126E+03 0.  0.
        -24    2    4    4    0    0 -0.35327646494E+03 -0.72572209715E+03 -0.40506921523E+03  0.90659337100E+03  0.79709775063E+02 0.  0.
         24    2    4    4    0    0  0.54600670507E+02  0.22825860629E+03 -0.40494085433E+02  0.25100787652E+03  0.79258807435E+02 0.  0.
         13    1    3    3    0    0  0.27459581909E+03  0.48238456515E+03 -0.15233821424E+04  0.16213546448E+04  0.00000000000E+00 0. -1.
        -13    1    3    3    0    0  0.24079975337E+02  0.15078925718E+02 -0.43263579867E+02  0.51758637501E+02  0.00000000000E+00 0.  1.
          4    1    6    6  502    0  0.13148792044E+01  0.15940027688E+03 -0.38154806188E+02  0.16390840860E+03  0.00000000000E+00 0. -1.
          1    1    5    5  503    0 -0.25330622216E+03 -0.59165412293E+03 -0.31267775112E+03  0.71553198349E+03  0.00000000000E+00 0. -1.
         -2    1    5    5    0  503 -0.99970242783E+02 -0.13406797422E+03 -0.92391464110E+02  0.19106138750E+03  0.00000000000E+00 0.  1.
         -3    1    6    6    0  502  0.53285791303E+02  0.68858329412E+02 -0.23392792446E+01  0.87099467918E+02  0.00000000000E+00 0.  1.
<mgrwt>
<rscale>  0 0.19909695E+04</rscale>
<asrwt>0</asrwt>
<pdfrwt beam="1">  1        1 0.37253258E+00 0.19909695E+04</pdfrwt>
<pdfrwt beam="2">  1       -1 0.62961962E-01 0.19909695E+04</pdfrwt>
<totfact> 0.36484381E+00</totfact>
</mgrwt>
</event>
<event>
12    1  0.1477245E-007  0.2235589E+04  0.7818608E-02  0.8503760E-01
         -2   -1    0    0    0  501 -0.00000000000E+00  0.00000000000E+00  0.63435056853E+03  0.63435056853E+03  0.00000000000E+00 0. -1.
          2   -1    0    0  501    0  0.00000000000E+00 -0.00000000000E+00 -0.19696751405E+04  0.19696751405E+04  0.00000000000E+00 0.  1.
         23    2    1    2    0    0 -0.57317237262E+03 -0.29615257613E+03 -0.13208472229E+04  0.14729333097E+04  0.93071108935E+02 0.  0.
        254    2    1    2    0    0  0.57317237262E+03  0.29615257613E+03 -0.14477349036E+02  0.11310923994E+04  0.92893891359E+03 0.  0.
        -24    2    4    4    0    0  0.71279129253E+03  0.33907620841E+02  0.21289228420E+03  0.74914172831E+03  0.81664257595E+02 0.  0.
         24    2    4    4    0    0 -0.13961891991E+03  0.26224495529E+03 -0.22736963323E+03  0.38195067106E+03  0.76964314037E+02 0.  0.
         13    1    3    3    0    0 -0.18510674630E+03 -0.71198360994E+02 -0.32509964421E+03  0.38081950160E+03  0.00000000000E+00 0. -1.
        -13    1    3    3    0    0 -0.38806562631E+03 -0.22495421513E+03 -0.99574757873E+03  0.10921138081E+04  0.00000000000E+00 0.  1.
          4    1    6    6  502    0 -0.13695174799E+03  0.21935066459E+03 -0.21739089253E+03  0.33783027616E+03  0.00000000000E+00 0. -1.
          3    1    5    5  503    0  0.49817988012E+03 -0.69003373427E+01  0.17061962363E+03  0.52663256980E+03  0.00000000000E+00 0. -1.
         -4    1    5    5    0  503  0.21461141241E+03  0.40807958184E+02  0.42272660569E+02  0.22250915851E+03  0.00000000000E+00 0.  1.
         -3    1    6    6    0  502 -0.26671719208E+01  0.42894290694E+02 -0.99787407069E+01  0.44120394902E+02  0.00000000000E+00 0.  1.
<mgrwt>
<rscale>  0 0.22355890E+04</rscale>
<asrwt>0</asrwt>
<pdfrwt beam="1">  1        2 0.30302694E+00 0.22355890E+04</pdfrwt>
<pdfrwt beam="2">  1       -2 0.97592397E-01 0.22355890E+04</pdfrwt>
<totfact> 0.55383415E+00</totfact>
</mgrwt>
</event>
<event>
12    1  0.1477245E-007  0.1160371E+04  0.7818608E-02  0.9148269E-01
         -1   -1    0    0    0  501 -0.00000000000E+00  0.00000000000E+00  0.32953492673E+03  0.32953492673E+03  0.00000000000E+00 0.  1.
          1   -1    0    0  501    0  0.00000000000E+00 -0.00000000000E+00 -0.10214861502E+04  0.10214861502E+04  0.00000000000E+00 0. -1.
         23    2    1    2    0    0 -0.74501094305E+02 -0.14112135157E+03 -0.31603292187E+03  0.36585335027E+03  0.92229156309E+02 0.  0.
        254    2    1    2    0    0  0.74501094305E+02  0.14112135157E+03 -0.37591830164E+03  0.98516772671E+03  0.89653512553E+03 0.  0.
        -24    2    4    4    0    0 -0.23844625396E+03 -0.28131687855E+03 -0.12525505265E+03  0.39743296283E+03  0.79172782856E+02 0.  0.
         24    2    4    4    0    0  0.31294734827E+03  0.42243823012E+03 -0.25066324898E+03  0.58773476387E+03  0.78803472114E+02 0.  0.
         13    1    3    3    0    0 -0.33467724146E+02 -0.13180454079E+03 -0.19515652254E+03  0.23786255238E+03  0.00000000000E+00 0. -1.
        -13    1    3    3    0    0 -0.41033370159E+02 -0.93168107797E+01 -0.12087639933E+03  0.12799079789E+03  0.00000000000E+00 0.  1.
          4    1    6    6  502    0  0.27283617191E+03  0.39239614671E+03 -0.24567274199E+03  0.53737269079E+03  0.00000000000E+00 0. -1.
          3    1    5    5  503    0 -0.17463023153E+03 -0.18829067417E+03 -0.12265142041E+03  0.28459175440E+03  0.00000000000E+00 0. -1.
         -4    1    5    5    0  503 -0.63816022427E+02 -0.93026204378E+02 -0.26036322497E+01  0.11284120843E+03  0.00000000000E+00 0.  1.
         -3    1    6    6    0  502  0.40111176361E+02  0.30042083413E+02 -0.49905069933E+01  0.50362073080E+02  0.00000000000E+00 0.  1.
<mgrwt>
<rscale>  0 0.11603713E+04</rscale>
<asrwt>0</asrwt>
<pdfrwt beam="1">  1        1 0.15715171E+00 0.11603713E+04</pdfrwt>
<pdfrwt beam="2">  1       -1 0.50697681E-01 0.11603713E+04</pdfrwt>
<totfact> 0.56465212E+01</totfact>
</mgrwt>
</event>
<event>
12    1  0.1477245E-007  0.1206326E+04  0.7818608E-02  0.9107337E-01
         -2   -1    0    0    0  501 -0.00000000000E+00  0.00000000000E+00  0.18466024321E+03  0.18466024321E+03  0.00000000000E+00 0.  1.
          2   -1    0    0  501    0  0.00000000000E+00 -0.00000000000E+00 -0.19701355366E+04  0.19701355366E+04  0.00000000000E+00 0. -1.
         23    2    1    2    0    0 -0.10714969379E+03 -0.87807959147E+02 -0.79777723704E+03  0.81490157142E+03  0.91786472842E+02 0.  0.
        254    2    1    2    0    0  0.10714969379E+03  0.87807959147E+02 -0.98769805638E+03  0.13398942084E+04  0.89475010177E+03 0.  0.
        -24    2    4    4    0    0  0.34299812530E+03  0.22569868577E+03 -0.96780626203E+03  0.10544840680E+04  0.81854004681E+02 0.  0.
         24    2    4    4    0    0 -0.23584843152E+03 -0.13789072662E+03 -0.19891794357E+02  0.28541014044E+03  0.80155658875E+02 0.  0.
         13    1    3    3    0    0 -0.92664952034E+02 -0.68360464264E+02 -0.39624822993E+03  0.41264101364E+03  0.00000000000E+00 0.  1.
        -13    1    3    3    0    0 -0.14484741755E+02 -0.19447494883E+02 -0.40152900710E+03  0.40226055778E+03  0.00000000000E+00 0. -1.
          2    1    6    6  502    0 -0.15005123783E+02 -0.11648793754E+02  0.20382942240E+02  0.27862384500E+02  0.00000000000E+00 0. -1.
          3    1    5    5  503    0  0.11650990230E+03  0.62416008380E+02 -0.40863099764E+03  0.42947596867E+03  0.00000000000E+00 0. -1.
         -4    1    5    5    0  503  0.22648822300E+03  0.16328267739E+03 -0.55917526439E+03  0.62500809931E+03  0.00000000000E+00 0.  1.
         -1    1    6    6    0  502 -0.22084330773E+03 -0.12624193287E+03 -0.40274736597E+02  0.25754775594E+03  0.00000000000E+00 0.  1.
<mgrwt>
<rscale>  0 0.12063262E+04</rscale>
<asrwt>0</asrwt>
<pdfrwt beam="1">  1        2 0.30309779E+00 0.12063262E+04</pdfrwt>
<pdfrwt beam="2">  1       -2 0.28409266E-01 0.12063262E+04</pdfrwt>
<totfact> 0.77788319E+01</totfact>
</mgrwt>
</event>
<event>
12    1  0.1477245E-007  0.1561384E+04  0.7818608E-02  0.8844629E-01
          2   -1    0    0  501    0  0.00000000000E+00  0.00000000000E+00  0.24684342253E+04  0.24684342253E+04  0.00000000000E+00 0.  1.
         -2   -1    0    0    0  501 -0.00000000000E+00 -0.00000000000E+00 -0.24690957092E+03  0.24690957092E+03  0.00000000000E+00 0. -1.
         23    2    1    2    0    0  0.11053476955E+03  0.34309361774E+03  0.99775661493E+02  0.38485342007E+03  0.90696232006E+02 0.  0.
        254    2    1    2    0    0 -0.11053476955E+03 -0.34309361774E+03  0.21217489929E+04  0.23304903762E+04  0.89411153594E+03 0.  0.
        -24    2    4    4    0    0 -0.13963086857E+03  0.14008319113E+02  0.18885599969E+04  0.18954925117E+04  0.80870189304E+02 0.  0.
         24    2    4    4    0    0  0.29096099020E+02 -0.35710193685E+03  0.23318899598E+03  0.43499786445E+03  0.80483898696E+02 0.  0.
         13    1    3    3    0    0  0.43045928208E+02  0.21636440528E+03  0.22365348383E+02  0.22173569089E+03  0.00000000000E+00 0. -1.
        -13    1    3    3    0    0  0.67488841346E+02  0.12672921246E+03  0.77410313110E+02  0.16311772918E+03  0.00000000000E+00 0.  1.
          4    1    6    6  502    0  0.19622450910E+02 -0.34976308950E+03  0.20878880093E+03  0.40781371084E+03  0.00000000000E+00 0. -1.
          3    1    5    5  503    0 -0.61679712165E+02  0.24640225200E+02  0.13002732993E+04  0.13019685789E+04  0.00000000000E+00 0. -1.
         -2    1    5    5    0  503 -0.77951156408E+02 -0.10631906088E+02  0.58828669768E+03  0.59352393287E+03  0.00000000000E+00 0.  1.
         -1    1    6    6    0  502  0.94736481100E+01 -0.73388473491E+01  0.24400195047E+02  0.27184153606E+02  0.00000000000E+00 0.  1.
<mgrwt>
<rscale>  0 0.15613840E+04</rscale>
<asrwt>0</asrwt>
<pdfrwt beam="1">  1        2 0.37975909E+00 0.15613840E+04</pdfrwt>
<pdfrwt beam="2">  1       -2 0.37986090E-01 0.15613840E+04</pdfrwt>
<totfact> 0.22892306E+01</totfact>
</mgrwt>
</event>
<event>
12    1  0.1477245E-007  0.1545248E+04  0.7818608E-02  0.8854909E-01
          1   -1    0    0  501    0  0.00000000000E+00  0.00000000000E+00  0.14295758846E+04  0.14295758846E+04  0.00000000000E+00 0. -1.
         -1   -1    0    0    0  501 -0.00000000000E+00 -0.00000000000E+00 -0.41756976079E+03  0.41756976079E+03  0.00000000000E+00 0.  1.
         23    2    1    2    0    0  0.30133173494E+03  0.29855285609E+03  0.68453963294E+03  0.81058747003E+03  0.92319635679E+02 0.  0.
        254    2    1    2    0    0 -0.30133173494E+03 -0.29855285609E+03  0.32746649082E+03  0.10365581753E+04  0.88729021512E+03 0.  0.
        -24    2    4    4    0    0  0.30052436229E+03 -0.13304994973E+03  0.20118131318E+03  0.39372322428E+03  0.80789077892E+02 0.  0.
         24    2    4    4    0    0 -0.60185609724E+03 -0.16550290636E+03  0.12628517764E+03  0.64283495104E+03  0.87560575601E+02 0.  0.
         11    1    3    3    0    0  0.28509386526E+03  0.30057313531E+03  0.67395544296E+03  0.79109965287E+03  0.00000000000E+00 0. -1.
        -11    1    3    3    0    0  0.16237869683E+02 -0.20202792163E+01  0.10584189986E+02  0.19487817158E+02  0.00000000000E+00 0.  1.
          4    1    6    6  502    0 -0.57117610294E+03 -0.13956197365E+03  0.10470579420E+03  0.59722942694E+03  0.00000000000E+00 0. -1.
          3    1    5    5  503    0  0.27063721497E+03 -0.11137332386E+03  0.20392863405E+03  0.35670072495E+03  0.00000000000E+00 0. -1.
         -4    1    5    5    0  503  0.29887147318E+02 -0.21676625877E+02 -0.27473208707E+01  0.37022499324E+02  0.00000000000E+00 0.  1.
         -3    1    6    6    0  502 -0.30679994296E+02 -0.25940932705E+02  0.21579383437E+02  0.45605524107E+02  0.00000000000E+00 0.  1.
<mgrwt>
<rscale>  0 0.15452478E+04</rscale>
<asrwt>0</asrwt>
<pdfrwt beam="1">  1        1 0.21993475E+00 0.15452478E+04</pdfrwt>
<pdfrwt beam="2">  1       -1 0.64241503E-01 0.15452478E+04</pdfrwt>
<totfact> 0.17345259E+01</totfact>
</mgrwt>
</event>
<event>
12    1  0.1477245E-007  0.1942475E+04  0.7818608E-02  0.8633998E-01
          2   -1    0    0  501    0  0.00000000000E+00  0.00000000000E+00  0.14795395644E+04  0.14795395644E+04  0.00000000000E+00 0. -1.
         -2   -1    0    0    0  501 -0.00000000000E+00 -0.00000000000E+00 -0.63756463920E+03  0.63756463920E+03  0.00000000000E+00 0.  1.
         23    2    1    2    0    0 -0.68250957035E+03  0.21625897550E+03  0.15407976548E+03  0.73838341462E+03  0.94245608679E+02 0.  0.
        254    2    1    2    0    0  0.68250957035E+03 -0.21625897550E+03  0.68789515971E+03  0.13787207890E+04  0.95660023263E+03 0.  0.
        -24    2    4    4    0    0 -0.12926950797E+03 -0.11562932512E+03  0.50077059452E+03  0.53584678361E+03  0.79245445572E+02 0.  0.
         24    2    4    4    0    0  0.81177907832E+03 -0.10062965039E+03  0.18712456518E+03  0.84287400536E+03  0.79431652873E+02 0.  0.
         13    1    3    3    0    0 -0.64149873083E+02  0.38870872873E+02 -0.66677935253E+01  0.75303455731E+02  0.00000000000E+00 0. -1.
        -13    1    3    3    0    0 -0.61835969727E+03  0.17738810263E+03  0.16074755901E+03  0.66307995889E+03  0.00000000000E+00 0.  1.
          2    1    6    6  502    0  0.14372314753E+03 -0.73094488971E+01  0.42068257790E+01  0.14397037391E+03  0.00000000000E+00 0. -1.
          1    1    5    5  503    0 -0.24696096085E+02  0.70951155175E+01  0.11312239500E+03  0.11600393991E+03  0.00000000000E+00 0. -1.
         -2    1    5    5    0  503 -0.10457341188E+03 -0.12272444063E+03  0.38764819953E+03  0.41984284369E+03  0.00000000000E+00 0.  1.
         -1    1    6    6    0  502  0.66805593079E+03 -0.93320201490E+02  0.18291773940E+03  0.69890363145E+03  0.00000000000E+00 0.  1.
<mgrwt>
<rscale>  0 0.19424748E+04</rscale>
<asrwt>0</asrwt>
<pdfrwt beam="1">  1        2 0.22762147E+00 0.19424748E+04</pdfrwt>
<pdfrwt beam="2">  1       -2 0.98086868E-01 0.19424748E+04</pdfrwt>
<totfact> 0.10521695E+01</totfact>
</mgrwt>
</event>
<event>
12    1  0.1477245E-007  0.1652205E+04  0.7818608E-02  0.8789103E-01
         -1   -1    0    0    0  501 -0.00000000000E+00  0.00000000000E+00  0.98622716833E+03  0.98622716833E+03  0.00000000000E+00 0.  1.
          1   -1    0    0  501    0  0.00000000000E+00 -0.00000000000E+00 -0.69197616587E+03  0.69197616587E+03  0.00000000000E+00 0. -1.
         23    2    1    2    0    0 -0.17783707364E+03 -0.52943007868E+03  0.23671172544E+03  0.61334207405E+03  0.90740431310E+02 0.  0.
        254    2    1    2    0    0  0.17783707364E+03  0.52943007868E+03  0.57539277023E+02  0.10648612601E+04  0.90481849118E+03 0.  0.
        -24    2    4    4    0    0  0.51779010016E+03  0.48003862651E+03  0.38945310758E+02  0.71183159472E+03  0.81509577640E+02 0.  0.
         24    2    4    4    0    0 -0.33995302653E+03  0.49391452171E+02  0.18593966264E+02  0.35302966542E+03  0.79225206184E+02 0.  0.
         11    1    3    3    0    0 -0.70130738270E+02 -0.18341403730E+03  0.13025193729E+03  0.23563657759E+03  0.00000000000E+00 0.  1.
        -11    1    3    3    0    0 -0.10770633537E+03 -0.34601604138E+03  0.10645978816E+03  0.37770549647E+03  0.00000000000E+00 0. -1.
          2    1    6    6  502    0 -0.11178799078E+03 -0.11780043975E+02  0.30613828009E+02  0.11650120508E+03  0.00000000000E+00 0. -1.
          3    1    5    5  503    0  0.29647030822E+03  0.25229955587E+03 -0.15647521951E+02  0.38960820639E+03  0.00000000000E+00 0. -1.
         -4    1    5    5    0  503  0.22131979195E+03  0.22773907063E+03  0.54592832709E+02  0.32222338833E+03  0.00000000000E+00 0.  1.
         -1    1    6    6    0  502 -0.22816503574E+03  0.61171496146E+02 -0.12019861744E+02  0.23652846035E+03  0.00000000000E+00 0.  1.
<mgrwt>
<rscale>  0 0.16522054E+04</rscale>
<asrwt>0</asrwt>
<pdfrwt beam="1">  1        1 0.10645787E+00 0.16522054E+04</pdfrwt>
<pdfrwt beam="2">  1       -1 0.15172726E+00 0.16522054E+04</pdfrwt>
<totfact> 0.89607333E+00</totfact>
</mgrwt>
</event>
<event>
12    1  0.1477245E-007  0.2366808E+04  0.7818608E-02  0.8452036E-01
          1   -1    0    0  501    0  0.00000000000E+00  0.00000000000E+00  0.11537435488E+04  0.11537435488E+04  0.00000000000E+00 0. -1.
         -1   -1    0    0    0  501 -0.00000000000E+00 -0.00000000000E+00 -0.12138272113E+04  0.12138272113E+04  0.00000000000E+00 0.  1.
         23    2    1    2    0    0 -0.47071871629E+03 -0.39642774738E+03 -0.82554038131E+03  0.10343885945E+04  0.98548335403E+02 0.  0.
        254    2    1    2    0    0  0.47071871629E+03  0.39642774738E+03  0.76545671875E+03  0.13331821656E+04  0.90150963930E+03 0.  0.
        -24    2    4    4    0    0  0.51024847490E+03  0.59824809584E+03  0.35281667432E+03  0.86592019041E+03  0.84165789716E+02 0.  0.
         24    2    4    4    0    0 -0.39529758610E+02 -0.20182034846E+03  0.41264004443E+03  0.46726197523E+03  0.75946641541E+02 0.  0.
         11    1    3    3    0    0 -0.43295849185E+02 -0.78615274127E+02 -0.13911493637E+03  0.16555318603E+03  0.00000000000E+00 0. -1.
        -11    1    3    3    0    0 -0.42742286711E+03 -0.31781247325E+03 -0.68642544494E+03  0.86883540843E+03  0.00000000000E+00 0.  1.
          4    1    6    6  502    0 -0.48073130720E+02 -0.10757669665E+03  0.17018716609E+03  0.20699623924E+03  0.00000000000E+00 0. -1.
          3    1    5    5  503    0  0.16965053456E+03  0.15192186624E+03  0.12717165457E+03  0.26083363864E+03  0.00000000000E+00 0. -1.
         -4    1    5    5    0  503  0.34059794034E+03  0.44632622960E+03  0.22564501975E+03  0.60508655177E+03  0.00000000000E+00 0.  1.
         -3    1    6    6    0  502  0.85433721097E+01 -0.94243651812E+02  0.24245287834E+03  0.26026573599E+03  0.00000000000E+00 0.  1.
<mgrwt>
<rscale>  0 0.23668082E+04</rscale>
<asrwt>0</asrwt>
<pdfrwt beam="1">  1        1 0.17749901E+00 0.23668082E+04</pdfrwt>
<pdfrwt beam="2">  1       -1 0.18674265E+00 0.23668082E+04</pdfrwt>
<totfact> 0.19351578E+00</totfact>
</mgrwt>
</event>
<event>
12    1  0.1477245E-007  0.1364933E+04  0.7818608E-02  0.8979601E-01
         -1   -1    0    0    0  501 -0.00000000000E+00  0.00000000000E+00  0.33243264498E+03  0.33243264498E+03  0.00000000000E+00 0.  1.
          1   -1    0    0  501    0  0.00000000000E+00 -0.00000000000E+00 -0.14010663195E+04  0.14010663195E+04  0.00000000000E+00 0. -1.
         23    2    1    2    0    0  0.20487892278E+03 -0.30879672567E+03 -0.20788993554E+03  0.43458136726E+03  0.91169889166E+02 0.  0.
        254    2    1    2    0    0 -0.20487892278E+03  0.30879672567E+03 -0.86074373903E+03  0.12989175973E+04  0.89943112544E+03 0.  0.
        -24    2    4    4    0    0 -0.30427911497E+03 -0.13209314755E+03 -0.75398425347E+03  0.82769075850E+03  0.80903385555E+02 0.  0.
         24    2    4    4    0    0  0.99400192194E+02  0.44088987322E+03 -0.10675948557E+03  0.47122683876E+03  0.79955408131E+02 0.  0.
         11    1    3    3    0    0  0.75731037950E+02 -0.16482897071E+03 -0.14164182916E+03  0.23014384081E+03  0.00000000000E+00 0. -1.
        -11    1    3    3    0    0  0.12914788483E+03 -0.14396775496E+03 -0.66248106374E+02  0.20443752645E+03  0.00000000000E+00 0.  1.
          2    1    6    6  502    0  0.11848877300E+02  0.17890273695E+03 -0.70376008921E+02  0.19261196176E+03  0.00000000000E+00 0. -1.
          3    1    5    5  503    0 -0.25269142161E+01 -0.19022672902E+02 -0.41179892802E+02  0.45431607400E+02  0.00000000000E+00 0. -1.
         -4    1    5    5    0  503 -0.30175220075E+03 -0.11307047465E+03 -0.71280436067E+03  0.78225915110E+03  0.00000000000E+00 0.  1.
         -1    1    6    6    0  502  0.87551314894E+02  0.26198713627E+03 -0.36383476647E+02  0.27861487700E+03  0.00000000000E+00 0.  1.
<mgrwt>
<rscale>  0 0.13649325E+04</rscale>
<asrwt>0</asrwt>
<pdfrwt beam="1">  1        1 0.21554867E+00 0.13649325E+04</pdfrwt>
<pdfrwt beam="2">  1       -1 0.51143483E-01 0.13649325E+04</pdfrwt>
<totfact> 0.28821894E+01</totfact>
</mgrwt>
</event>
<event>
12    1  0.1477245E-007  0.1735492E+04  0.7818608E-02  0.8741377E-01
          1   -1    0    0  501    0  0.00000000000E+00  0.00000000000E+00  0.33761388294E+03  0.33761388294E+03  0.00000000000E+00 0. -1.
         -1   -1    0    0    0  501 -0.00000000000E+00 -0.00000000000E+00 -0.22303088228E+04  0.22303088228E+04  0.00000000000E+00 0.  1.
         23    2    1    2    0    0 -0.39795284924E+03  0.42706643027E+03 -0.33063219525E+03  0.67801754101E+03  0.98172966229E+02 0.  0.
        254    2    1    2    0    0  0.39795284924E+03 -0.42706643027E+03 -0.15620627446E+04  0.18899051648E+04  0.88935330858E+03 0.  0.
        -24    2    4    4    0    0  0.45651554643E+03 -0.66013248952E+03 -0.11223755885E+04  0.13825639747E+04  0.87033526195E+02 0.  0.
         24    2    4    4    0    0 -0.58562697184E+02  0.23306605926E+03 -0.43968715614E+03  0.50734119003E+03  0.79504153024E+02 0.  0.
         13    1    3    3    0    0 -0.24971474433E+03  0.24787959094E+03 -0.14542678171E+03  0.38072390781E+03  0.00000000000E+00 0. -1.
        -13    1    3    3    0    0 -0.14823810491E+03  0.17918683933E+03 -0.18520541353E+03  0.29729363320E+03  0.00000000000E+00 0.  1.
          2    1    6    6  502    0 -0.54862987769E+02  0.22635148103E+03 -0.44176266042E+03  0.49939882713E+03  0.00000000000E+00 0. -1.
          3    1    5    5  503    0  0.15383424130E+03 -0.29064904700E+03 -0.42704654014E+03  0.53899034292E+03  0.00000000000E+00 0. -1.
         -4    1    5    5    0  503  0.30268130513E+03 -0.36948344253E+03 -0.69532904836E+03  0.84357363180E+03  0.00000000000E+00 0.  1.
         -1    1    6    6    0  502 -0.36997094157E+01  0.67145782253E+01  0.20755042804E+01  0.79423629055E+01  0.00000000000E+00 0.  1.
<mgrwt>
<rscale>  0 0.17354921E+04</rscale>
<asrwt>0</asrwt>
<pdfrwt beam="1">  1        1 0.51940597E-01 0.17354921E+04</pdfrwt>
<pdfrwt beam="2">  1       -1 0.34312443E+00 0.17354921E+04</pdfrwt>
<totfact> 0.12327787E+00</totfact>
</mgrwt>
</event>
<event>
12    1  0.1477245E-007  0.1740822E+04  0.7818608E-02  0.8738419E-01
         -1   -1    0    0    0  501 -0.00000000000E+00  0.00000000000E+00  0.35589350108E+03  0.35589350108E+03  0.00000000000E+00 0.  1.
          1   -1    0    0  501    0  0.00000000000E+00 -0.00000000000E+00 -0.21287685647E+04  0.21287685647E+04  0.00000000000E+00 0. -1.
         23    2    1    2    0    0 -0.61783376019E+02  0.53711139765E+03 -0.12827375523E+04  0.13949893554E+04  0.90960622183E+02 0.  0.
        254    2    1    2    0    0  0.61783376019E+02 -0.53711139765E+03 -0.49013751134E+03  0.10896727103E+04  0.80922555356E+03 0.  0.
        -24    2    4    4    0    0  0.24506223736E+03 -0.53656792563E+03 -0.61359396090E+03  0.85503953095E+03  0.81451897770E+02 0.  0.
         24    2    4    4    0    0 -0.18327886134E+03 -0.54347201878E+00  0.12345644956E+03  0.23463317936E+03  0.78865693057E+02 0.  0.
         11    1    3    3    0    0 -0.36897064409E+02  0.34040356192E+03 -0.91914330990E+03  0.98084677829E+03  0.00000000000E+00 0. -1.
        -11    1    3    3    0    0 -0.24886311610E+02  0.19670783572E+03 -0.36359424236E+03  0.41414257716E+03  0.00000000000E+00 0.  1.
          2    1    6    6  502    0 -0.12073984418E+02 -0.23365018543E+02  0.10862148499E+02  0.28455077952E+02  0.00000000000E+00 0. -1.
          3    1    5    5  503    0  0.14490192317E+03 -0.23167671549E+03 -0.25417474235E+03  0.37319628547E+03  0.00000000000E+00 0. -1.
         -4    1    5    5    0  503  0.10016031419E+03 -0.30489121014E+03 -0.35941921855E+03  0.48184324549E+03  0.00000000000E+00 0.  1.
         -1    1    6    6    0  502 -0.17120487692E+03  0.22821546524E+02  0.11259430106E+03  0.20617810140E+03  0.00000000000E+00 0.  1.
<mgrwt>
<rscale>  0 0.17408215E+04</rscale>
<asrwt>0</asrwt>
<pdfrwt beam="1">  1        1 0.32750286E+00 0.17408215E+04</pdfrwt>
<pdfrwt beam="2">  1       -1 0.54752846E-01 0.17408215E+04</pdfrwt>
<totfact> 0.77899884E+00</totfact>
</mgrwt>
</event>
<event>
12    1  0.1477245E-007  0.1036785E+04  0.7818608E-02  0.9269095E-01
         -2   -1    0    0    0  501 -0.00000000000E+00  0.00000000000E+00  0.12333161916E+03  0.12333161916E+03  0.00000000000E+00 0.  1.
          2   -1    0    0  501    0  0.00000000000E+00 -0.00000000000E+00 -0.21789272379E+04  0.21789272379E+04  0.00000000000E+00 0. -1.
         23    2    1    2    0    0  0.33462016647E+02  0.37900249509E+02 -0.43735309062E+03  0.44970516600E+03  0.91656287168E+02 0.  0.
        254    2    1    2    0    0 -0.33462016647E+02 -0.37900249509E+02 -0.16182425281E+04  0.18525536910E+04  0.90038334222E+03 0.  0.
        -24    2    4    4    0    0 -0.30918635600E+03 -0.34403680131E+03 -0.10076888773E+04  0.11117262845E+04  0.80876045852E+02 0.  0.
         24    2    4    4    0    0  0.27572433936E+03  0.30613655180E+03 -0.61055365075E+03  0.74082740650E+03  0.79410239362E+02 0.  0.
         11    1    3    3    0    0 -0.14642600507E+02  0.52156274726E+02 -0.24484600726E+03  0.25076732247E+03  0.00000000000E+00 0.  1.
        -11    1    3    3    0    0  0.48104617155E+02 -0.14256025217E+02 -0.19250708336E+03  0.19893784353E+03  0.00000000000E+00 0. -1.
          2    1    6    6  502    0  0.17433460266E+03  0.24490328583E+03 -0.45426957701E+03  0.54473022836E+03  0.00000000000E+00 0. -1.
          1    1    5    5  503    0 -0.30152290859E+03 -0.34477218961E+03 -0.10032064018E+04  0.11028177600E+04  0.00000000000E+00 0. -1.
         -2    1    5    5    0  503 -0.76634474092E+01  0.73538829419E+00 -0.44824754968E+01  0.89085244971E+01  0.00000000000E+00 0.  1.
         -1    1    6    6    0  502  0.10138973670E+03  0.61233265973E+02 -0.15628407374E+03  0.19609717814E+03  0.00000000000E+00 0.  1.
<mgrwt>
<rscale>  0 0.10367847E+04</rscale>
<asrwt>0</asrwt>
<pdfrwt beam="1">  1        2 0.33521955E+00 0.10367847E+04</pdfrwt>
<pdfrwt beam="2">  1       -2 0.18974096E-01 0.10367847E+04</pdfrwt>
<totfact> 0.12462432E+02</totfact>
</mgrwt>
</event>
<event>
12    1  0.1477245E-007  0.1319282E+04  0.7818608E-02  0.9014412E-01
         -2   -1    0    0    0  501 -0.00000000000E+00  0.00000000000E+00  0.15486786133E+03  0.15486786133E+03  0.00000000000E+00 0.  1.
          2   -1    0    0  501    0  0.00000000000E+00 -0.00000000000E+00 -0.28096619384E+04  0.28096619384E+04  0.00000000000E+00 0. -1.
         23    2    1    2    0    0 -0.17406925447E+03 -0.75153147510E+02 -0.12899217493E+04  0.13068066940E+04  0.88867964703E+02 0.  0.
        254    2    1    2    0    0  0.17406925447E+03  0.75153147510E+02 -0.13648723277E+04  0.16577231057E+04  0.92153205222E+03 0.  0.
        -24    2    4    4    0    0 -0.16968108470E+03 -0.27476510828E+03 -0.19221300279E+03  0.38411750036E+03  0.79453636849E+02 0.  0.
         24    2    4    4    0    0  0.34375033917E+03  0.34991825579E+03 -0.11726593249E+04  0.12736056053E+04  0.79588090752E+02 0.  0.
         13    1    3    3    0    0  0.96545035335E+01 -0.17448316111E+01 -0.33642930153E+02  0.35044266651E+02  0.00000000000E+00 0.  1.
        -13    1    3    3    0    0 -0.18372375801E+03 -0.73408315899E+02 -0.12562788192E+04  0.12717624273E+04  0.00000000000E+00 0. -1.
          4    1    6    6  502    0  0.11596327621E+02  0.42247343493E+02 -0.90281719782E+02  0.10034989673E+03  0.00000000000E+00 0. -1.
          1    1    5    5  503    0  0.30550852703E+01  0.33708679185E+01 -0.19353633981E+00  0.45534330836E+01  0.00000000000E+00 0. -1.
         -2    1    5    5    0  503 -0.17273616997E+03 -0.27813597620E+03 -0.19201946645E+03  0.37956406728E+03  0.00000000000E+00 0.  1.
         -3    1    6    6    0  502  0.33215401155E+03  0.30767091230E+03 -0.10823776051E+04  0.11732557086E+04  0.00000000000E+00 0.  1.
<mgrwt>
<rscale>  0 0.13192821E+04</rscale>
<asrwt>0</asrwt>
<pdfrwt beam="1">  1        2 0.43225568E+00 0.13192821E+04</pdfrwt>
<pdfrwt beam="2">  1       -2 0.23825825E-01 0.13192821E+04</pdfrwt>
<totfact> 0.35239301E+01</totfact>
</mgrwt>
</event>
<event>
12    1  0.1477245E-007  0.2094519E+04  0.7818608E-02  0.8563662E-01
         -1   -1    0    0    0  501 -0.00000000000E+00  0.00000000000E+00  0.12802595295E+04  0.12802595295E+04  0.00000000000E+00 0.  1.
          1   -1    0    0  501    0  0.00000000000E+00 -0.00000000000E+00 -0.85666396402E+03  0.85666396402E+03  0.00000000000E+00 0. -1.
         23    2    1    2    0    0  0.49578384237E+02  0.63905748287E+03 -0.39032020583E+03  0.75637650321E+03  0.94356075225E+02 0.  0.
        254    2    1    2    0    0 -0.49578384237E+02 -0.63905748287E+03  0.81391577130E+03  0.13805469903E+04  0.91246842526E+03 0.  0.
        -24    2    4    4    0    0 -0.42859517803E+03 -0.40900016106E+03  0.22442217841E+03  0.63850573211E+03  0.79682478620E+02 0.  0.
         24    2    4    4    0    0  0.37901679380E+03 -0.23005732182E+03  0.58949359289E+03  0.74204125820E+03  0.80885298514E+02 0.  0.
         13    1    3    3    0    0  0.55936737883E+02  0.37593394005E+03 -0.18580673940E+03  0.42305955884E+03  0.00000000000E+00 0. -1.
        -13    1    3    3    0    0 -0.63583536460E+01  0.26312354283E+03 -0.20451346643E+03  0.33331694437E+03  0.00000000000E+00 0.  1.
          4    1    6    6  502    0  0.30845834806E+03 -0.17487885687E+03  0.41462386689E+03  0.54556586959E+03  0.00000000000E+00 0. -1.
          1    1    5    5  503    0 -0.42761580777E+03 -0.39003869843E+03  0.21732762641E+03  0.61823681751E+03  0.00000000000E+00 0. -1.
         -2    1    5    5    0  503 -0.97937026710E+00 -0.18961462623E+02  0.70945520052E+01  0.20268914600E+02  0.00000000000E+00 0.  1.
         -3    1    6    6    0  502  0.70558445735E+02 -0.55178464944E+02  0.17486972600E+03  0.19647538861E+03  0.00000000000E+00 0.  1.
<mgrwt>
<rscale>  0 0.20945188E+04</rscale>
<asrwt>0</asrwt>
<pdfrwt beam="1">  1        1 0.13179446E+00 0.20945188E+04</pdfrwt>
<pdfrwt beam="2">  1       -1 0.19696300E+00 0.20945188E+04</pdfrwt>
<totfact> 0.28734237E+00</totfact>
</mgrwt>
</event>
<event>
12    1  0.1477245E-007  0.3854987E+04  0.7818608E-02  0.8034457E-01
          2   -1    0    0  501    0  0.00000000000E+00  0.00000000000E+00  0.44500438515E+04  0.44500438515E+04  0.00000000000E+00 0. -1.
         -2   -1    0    0    0  501 -0.00000000000E+00 -0.00000000000E+00 -0.83487508144E+03  0.83487508144E+03  0.00000000000E+00 0.  1.
         23    2    1    2    0    0  0.88055950201E+03 -0.10112996862E+04  0.34008708257E+04  0.36568614367E+04  0.92742126077E+02 0.  0.
        254    2    1    2    0    0 -0.88055950201E+03  0.10112996862E+04  0.21429794433E+03  0.16280574963E+04  0.89807322106E+03 0.  0.
        -24    2    4    4    0    0  0.16553059751E+03  0.24222442326E+03 -0.25610050685E+02  0.30538177116E+03  0.80802855931E+02 0.  0.
         24    2    4    4    0    0 -0.10460900995E+04  0.76907526290E+03  0.23990799501E+03  0.13226757251E+04  0.78319674343E+02 0.  0.
         11    1    3    3    0    0  0.87066417000E+03 -0.99144830250E+03  0.33095316241E+04  0.35628675817E+04  0.00000000000E+00 0.  1.
        -11    1    3    3    0    0  0.98953320159E+01 -0.19851383661E+02  0.91339201623E+02  0.93993855023E+02  0.00000000000E+00 0. -1.
          4    1    6    6  502    0 -0.98925836361E+03  0.74663605692E+03  0.23398974444E+03  0.12612885126E+04  0.00000000000E+00 0. -1.
          3    1    5    5  503    0  0.14793654890E+03  0.15606792627E+03 -0.31091230658E+02  0.21727651676E+03  0.00000000000E+00 0. -1.
         -4    1    5    5    0  503  0.17594048609E+02  0.86156496983E+02  0.54811799728E+01  0.88105254399E+02  0.00000000000E+00 0.  1.
         -3    1    6    6    0  502 -0.56831735904E+02  0.22439205981E+02  0.59182505684E+01  0.61387212518E+02  0.00000000000E+00 0.  1.
<mgrwt>
<rscale>  0 0.38549868E+04</rscale>
<asrwt>0</asrwt>
<pdfrwt beam="1">  1        2 0.68462212E+00 0.38549868E+04</pdfrwt>
<pdfrwt beam="2">  1       -2 0.12844232E+00 0.38549868E+04</pdfrwt>
<totfact> 0.48868801E-02</totfact>
</mgrwt>
</event>
<event>
12    1  0.1477245E-007  0.1685843E+04  0.7818608E-02  0.8769480E-01
          2   -1    0    0  501    0  0.00000000000E+00  0.00000000000E+00  0.17493269727E+04  0.17493269727E+04  0.00000000000E+00 0.  1.
         -2   -1    0    0    0  501 -0.00000000000E+00 -0.00000000000E+00 -0.40616560849E+03  0.40616560849E+03  0.00000000000E+00 0. -1.
         23    2    1    2    0    0 -0.41330108674E+03  0.43570589109E+03  0.42038480845E+03  0.73899097781E+03  0.93417697862E+02 0.  0.
        254    2    1    2    0    0  0.41330108674E+03 -0.43570589109E+03  0.92277655580E+03  0.14165016034E+04  0.89123667380E+03 0.  0.
        -24    2    4    4    0    0  0.22249774758E+03 -0.69787513715E+03  0.68749433357E+03  0.10084232907E+04  0.87943844493E+02 0.  0.
         24    2    4    4    0    0  0.19080333915E+03  0.26216924605E+03  0.23528222222E+03  0.40807831273E+03  0.77663102029E+02 0.  0.
         13    1    3    3    0    0 -0.33822138162E+03  0.40209370540E+03  0.36762018316E+03  0.64126254372E+03  0.00000000000E+00 0. -1.
        -13    1    3    3    0    0 -0.75079705120E+02  0.33612185690E+02  0.52764625294E+02  0.97728434092E+02  0.00000000000E+00 0.  1.
          4    1    6    6  502    0  0.16438974194E+03  0.23150305633E+03  0.16901718345E+03  0.33043071989E+03  0.00000000000E+00 0. -1.
          3    1    5    5  503    0  0.12490700266E+03 -0.41171643274E+03  0.34431386772E+03  0.55105736526E+03  0.00000000000E+00 0. -1.
         -4    1    5    5    0  503  0.97590744918E+02 -0.28615870441E+03  0.34318046586E+03  0.45736592543E+03  0.00000000000E+00 0.  1.
         -3    1    6    6    0  502  0.26413597214E+02  0.30666189721E+02  0.66265038776E+02  0.77647592839E+02  0.00000000000E+00 0.  1.
<mgrwt>
<rscale>  0 0.16858428E+04</rscale>
<asrwt>0</asrwt>
<pdfrwt beam="1">  1        2 0.26912722E+00 0.16858428E+04</pdfrwt>
<pdfrwt beam="2">  1       -2 0.62487018E-01 0.16858428E+04</pdfrwt>
<totfact> 0.20833101E+01</totfact>
</mgrwt>
</event>
<event>
12    1  0.1477245E-007  0.1899954E+04  0.7818608E-02  0.8654879E-01
         -1   -1    0    0    0  501 -0.00000000000E+00  0.00000000000E+00  0.82492696590E+03  0.82492696590E+03  0.00000000000E+00 0.  1.
          1   -1    0    0  501    0  0.00000000000E+00 -0.00000000000E+00 -0.10939830838E+04  0.10939830838E+04  0.00000000000E+00 0. -1.
         23    2    1    2    0    0 -0.47131708993E+03  0.52673624253E+03 -0.29614028790E+03  0.77201528938E+03  0.93368455364E+02 0.  0.
        254    2    1    2    0    0  0.47131708993E+03 -0.52673624253E+03  0.27084170013E+02  0.11468947603E+04  0.90279741390E+03 0.  0.
        -24    2    4    4    0    0 -0.17385956528E+03 -0.38472781126E+03 -0.15489175351E+03  0.45686767456E+03  0.80585231639E+02 0.  0.
         24    2    4    4    0    0  0.64517665520E+03 -0.14200843127E+03  0.18197592353E+03  0.69002708577E+03  0.81257808080E+02 0.  0.
         13    1    3    3    0    0 -0.52810617175E+02  0.95873248733E+02 -0.71422273453E+02  0.13069729245E+03  0.00000000000E+00 0.  1.
        -13    1    3    3    0    0 -0.41850647275E+03  0.43086299380E+03 -0.22471801445E+03  0.64131799692E+03  0.00000000000E+00 0. -1.
          2    1    6    6  502    0  0.12467733549E+03 -0.15342762877E+02  0.44827545982E+01  0.12569778617E+03  0.00000000000E+00 0. -1.
          3    1    5    5  503    0 -0.10197428384E+03 -0.16288780066E+03 -0.10272648544E+03  0.21790805625E+03  0.00000000000E+00 0. -1.
         -4    1    5    5    0  503 -0.71885281439E+02 -0.22184001060E+03 -0.52165268073E+02  0.23895961831E+03  0.00000000000E+00 0.  1.
         -1    1    6    6    0  502  0.52049931971E+03 -0.12666566840E+03  0.17749316893E+03  0.56432929960E+03  0.00000000000E+00 0.  1.
<mgrwt>
<rscale>  0 0.18999538E+04</rscale>
<asrwt>0</asrwt>
<pdfrwt beam="1">  1        1 0.16830509E+00 0.18999538E+04</pdfrwt>
<pdfrwt beam="2">  1       -1 0.12691184E+00 0.18999538E+04</pdfrwt>
<totfact> 0.64594539E+00</totfact>
</mgrwt>
</event>
<event>
12    1  0.2513047E-007  0.1549006E+04  0.7818608E-02  0.8852503E-01
          1   -1    0    0  501    0  0.00000000000E+00  0.00000000000E+00  0.10736736872E+04  0.10736736872E+04  0.00000000000E+00 0. -1.
         -1   -1    0    0    0  501 -0.00000000000E+00 -0.00000000000E+00 -0.55869397129E+03  0.55869397129E+03  0.00000000000E+00 0.  1.
         23    2    1    2    0    0  0.29457490916E+03 -0.23254996482E+03 -0.19355388390E+03  0.43179336799E+03  0.90158435084E+02 0.  0.
        254    2    1    2    0    0 -0.29457490916E+03  0.23254996482E+03  0.70853359977E+03  0.12005742905E+04  0.89359101477E+03 0.  0.
        -24    2    4    4    0    0 -0.34891925413E+03 -0.29487558941E+02  0.82385519140E+03  0.89871979421E+03  0.79660090896E+02 0.  0.
         24    2    4    4    0    0  0.54344344962E+02  0.26203752376E+03 -0.11532159163E+03  0.30185449625E+03  0.78740686566E+02 0.  0.
         13    1    3    3    0    0  0.16437969509E+01 -0.29514229283E+02 -0.15504249224E+02  0.33379238196E+02  0.00000000000E+00 0. -1.
        -13    1    3    3    0    0  0.29293111221E+03 -0.20303573554E+03 -0.17804963468E+03  0.39841412979E+03  0.00000000000E+00 0.  1.
          4    1    6    6  502    0  0.44906859279E+02  0.25453763377E+03 -0.12431907657E+03  0.28681224837E+03  0.00000000000E+00 0. -1.
          3    1    5    5  503    0 -0.34480532155E+03 -0.19554873401E+02  0.81358552885E+03  0.88385208920E+03  0.00000000000E+00 0. -1.
         -4    1    5    5    0  503 -0.41139325783E+01 -0.99326855398E+01  0.10269662555E+02  0.14867705011E+02  0.00000000000E+00 0.  1.
         -3    1    6    6    0  502  0.94374856836E+01  0.74998899908E+01  0.89974849427E+01  0.15042247877E+02  0.00000000000E+00 0.  1.
<mgrwt>
<rscale>  0 0.15490062E+04</rscale>
<asrwt>0</asrwt>
<pdfrwt beam="1">  1        1 0.16518057E+00 0.15490062E+04</pdfrwt>
<pdfrwt beam="2">  1       -1 0.85952919E-01 0.15490062E+04</pdfrwt>
<totfact> 0.17094714E+01</totfact>
</mgrwt>
</event>
<event>
12    1  0.1477245E-007  0.1566909E+04  0.7818608E-02  0.8841139E-01
          2   -1    0    0  501    0  0.00000000000E+00  0.00000000000E+00  0.27758690132E+04  0.27758690132E+04  0.00000000000E+00 0. -1.
         -2   -1    0    0    0  501 -0.00000000000E+00 -0.00000000000E+00 -0.22112036688E+03  0.22112036688E+03  0.00000000000E+00 0.  1.
         23    2    1    2    0    0 -0.39096762345E+03 -0.32705547660E+03  0.86971219097E+03  0.10123466440E+04  0.92873382835E+02 0.  0.
        254    2    1    2    0    0  0.39096762345E+03  0.32705547660E+03  0.16850364554E+04  0.19846427360E+04  0.91631761220E+03 0.  0.
        -24    2    4    4    0    0  0.31434048403E+03  0.58963808590E+03  0.75093141518E+03  0.10082742782E+04  0.78968459008E+02 0.  0.
         24    2    4    4    0    0  0.76627139419E+02 -0.26258260931E+03  0.93410504017E+03  0.97636845783E+03  0.76953194625E+02 0.  0.
         11    1    3    3    0    0 -0.37069515836E+03 -0.33123810715E+03  0.84118729450E+03  0.97710268063E+03  0.00000000000E+00 0. -1.
        -11    1    3    3    0    0 -0.20272465089E+02  0.41826305526E+01  0.28524896467E+02  0.35243963421E+02  0.00000000000E+00 0.  1.
          4    1    6    6  502    0  0.17989965212E+02 -0.79923525850E+02  0.41361404458E+03  0.42164912749E+03  0.00000000000E+00 0. -1.
          1    1    5    5  503    0  0.57230017268E+02  0.16462414300E+03  0.16346392133E+03  0.23894944426E+03  0.00000000000E+00 0. -1.
         -2    1    5    5    0  503  0.25711046676E+03  0.42501394290E+03  0.58746749386E+03  0.76932483394E+03  0.00000000000E+00 0.  1.
         -3    1    6    6    0  502  0.58637174207E+02 -0.18265908346E+03  0.52049099559E+03  0.55471933035E+03  0.00000000000E+00 0.  1.
<mgrwt>
<rscale>  0 0.15669093E+04</rscale>
<asrwt>0</asrwt>
<pdfrwt beam="1">  1        2 0.42705675E+00 0.15669093E+04</pdfrwt>
<pdfrwt beam="2">  1       -2 0.34018520E-01 0.15669093E+04</pdfrwt>
<totfact> 0.18676301E+01</totfact>
</mgrwt>
</event>
<event>
12    1  0.1477245E-007  0.1428258E+04  0.7818608E-02  0.8933614E-01
         -1   -1    0    0    0  501 -0.00000000000E+00  0.00000000000E+00  0.31425383348E+03  0.31425383348E+03  0.00000000000E+00 0.  1.
          1   -1    0    0  501    0  0.00000000000E+00 -0.00000000000E+00 -0.16228298889E+04  0.16228298889E+04  0.00000000000E+00 0. -1.
         23    2    1    2    0    0 -0.11260153873E+03 -0.40144458591E+03 -0.49322523009E+03  0.65236041252E+03  0.92011510936E+02 0.  0.
        254    2    1    2    0    0  0.11260153873E+03  0.40144458591E+03 -0.81535082528E+03  0.12847233098E+04  0.90104392369E+03 0.  0.
        -24    2    4    4    0    0  0.40397974935E+03  0.43810874482E+03 -0.26727635678E+03  0.65782031990E+03  0.78434764008E+02 0.  0.
         24    2    4    4    0    0 -0.29137821062E+03 -0.36664158909E+02 -0.54807446850E+03  0.62690298992E+03  0.79851196458E+02 0.  0.
         13    1    3    3    0    0 -0.38888005249E+02 -0.24862509298E+03 -0.24141929611E+03  0.34872623983E+03  0.00000000000E+00 0.  1.
        -13    1    3    3    0    0 -0.73713533480E+02 -0.15281949293E+03 -0.25180593398E+03  0.30363417269E+03  0.00000000000E+00 0. -1.
          4    1    6    6  502    0 -0.56496813289E+02 -0.39943361041E+02 -0.11443475600E+03  0.13372612080E+03  0.00000000000E+00 0. -1.
          3    1    5    5  503    0  0.14473975291E+02  0.31462862482E+02 -0.28188061370E+00  0.34633612762E+02  0.00000000000E+00 0. -1.
         -4    1    5    5    0  503  0.38950577406E+03  0.40664588234E+03 -0.26699447617E+03  0.62318670714E+03  0.00000000000E+00 0.  1.
         -3    1    6    6    0  502 -0.23488139733E+03  0.32792021323E+01 -0.43363971250E+03  0.49317686912E+03  0.00000000000E+00 0.  1.
<mgrwt>
<rscale>  0 0.14282584E+04</rscale>
<asrwt>0</asrwt>
<pdfrwt beam="1">  1        1 0.24966614E+00 0.14282584E+04</pdfrwt>
<pdfrwt beam="2">  1       -1 0.48346744E-01 0.14282584E+04</pdfrwt>
<totfact> 0.22406078E+01</totfact>
</mgrwt>
</event>
<event>
12    1  0.1477245E-007  0.1550169E+04  0.7818608E-02  0.8851759E-01
          2   -1    0    0  501    0  0.00000000000E+00  0.00000000000E+00  0.15165359692E+04  0.15165359692E+04  0.00000000000E+00 0. -1.
         -2   -1    0    0    0  501 -0.00000000000E+00 -0.00000000000E+00 -0.39613723557E+03  0.39613723557E+03  0.00000000000E+00 0.  1.
         23    2    1    2    0    0  0.23588031596E+03 -0.14788456479E+03  0.10075850708E+04  0.10491759004E+04  0.89627156233E+02 0.  0.
        254    2    1    2    0    0 -0.23588031596E+03  0.14788456479E+03  0.11281366281E+03  0.86349730434E+03  0.80956241521E+03 0.  0.
        -24    2    4    4    0    0 -0.22544395500E+03  0.23371137317E+03  0.41836439783E+03  0.53686425467E+03  0.88025426829E+02 0.  0.
         24    2    4    4    0    0 -0.10436360957E+02 -0.85826808374E+02 -0.30555073502E+03  0.32663304968E+03  0.76503194735E+02 0.  0.
         13    1    3    3    0    0  0.16337281021E+03 -0.14701304715E+03  0.74127424521E+03  0.77316946251E+03  0.00000000000E+00 0. -1.
        -13    1    3    3    0    0  0.72507505753E+02 -0.87151764097E+00  0.26631082562E+03  0.27600643793E+03  0.00000000000E+00 0.  1.
          2    1    6    6  502    0 -0.39158681689E+02 -0.70935105614E+02 -0.24393302181E+03  0.25703795574E+03  0.00000000000E+00 0. -1.
          3    1    5    5  503    0 -0.10468286557E+03  0.13608888805E+03  0.28224657899E+03  0.33036618947E+03  0.00000000000E+00 0. -1.
         -4    1    5    5    0  503 -0.12076108944E+03  0.97622485123E+02  0.13611781884E+03  0.20649806520E+03  0.00000000000E+00 0.  1.
         -1    1    6    6    0  502  0.28722320732E+02 -0.14891702761E+02 -0.61617713210E+02  0.69595093940E+02  0.00000000000E+00 0.  1.
<mgrwt>
<rscale>  0 0.15501695E+04</rscale>
<asrwt>0</asrwt>
<pdfrwt beam="1">  1        2 0.23331322E+00 0.15501695E+04</pdfrwt>
<pdfrwt beam="2">  1       -2 0.60944191E-01 0.15501695E+04</pdfrwt>
<totfact> 0.29959731E+01</totfact>
</mgrwt>
</event>
<event>
12    1  0.1477245E-007  0.1554804E+04  0.7818608E-02  0.8848805E-01
         -2   -1    0    0    0  501 -0.00000000000E+00  0.00000000000E+00  0.15788998626E+04  0.15788998626E+04  0.00000000000E+00 0.  1.
          2   -1    0    0  501    0  0.00000000000E+00 -0.00000000000E+00 -0.38276920558E+03  0.38276920558E+03  0.00000000000E+00 0. -1.
         23    2    1    2    0    0  0.11952912281E+03  0.12076505331E+03 -0.20937684707E+03  0.28483426111E+03  0.91763189324E+02 0.  0.
        254    2    1    2    0    0 -0.11952912281E+03 -0.12076505331E+03  0.14055075041E+04  0.16768348071E+04  0.89858345014E+03 0.  0.
        -24    2    4    4    0    0  0.74021325887E+01  0.12009396390E+03 -0.79272716007E+02  0.16505535929E+03  0.80509355949E+02 0.  0.
         24    2    4    4    0    0 -0.12693125540E+03 -0.24085901721E+03  0.14847802201E+04  0.15117794478E+04  0.82341890768E+02 0.  0.
         11    1    3    3    0    0  0.34003679743E+02  0.41006112344E+02 -0.13776429574E+03  0.14770495140E+03  0.00000000000E+00 0.  1.
        -11    1    3    3    0    0  0.85525443070E+02  0.79758940967E+02 -0.71612551326E+02  0.13712930972E+03  0.00000000000E+00 0. -1.
          2    1    6    6  502    0 -0.10608187262E+03 -0.12537858224E+03  0.96891049233E+03  0.98273124237E+03  0.00000000000E+00 0. -1.
          3    1    5    5  503    0  0.20546107680E+02  0.12759145409E+03 -0.74587475599E+02  0.14921465482E+03  0.00000000000E+00 0. -1.
         -4    1    5    5    0  503 -0.13143975091E+02 -0.74974901904E+01 -0.46852404086E+01  0.15840704468E+02  0.00000000000E+00 0.  1.
         -1    1    6    6    0  502 -0.20849382781E+02 -0.11548043497E+03  0.51586972781E+03  0.52904820546E+03  0.00000000000E+00 0.  1.
<mgrwt>
<rscale>  0 0.15548045E+04</rscale>
<asrwt>0</asrwt>
<pdfrwt beam="1">  1        2 0.58887571E-01 0.15548045E+04</pdfrwt>
<pdfrwt beam="2">  1       -2 0.24290767E+00 0.15548045E+04</pdfrwt>
<totfact> 0.57155035E+00</totfact>
</mgrwt>
</event>
<event>
12    1  0.1477245E-007  0.1499770E+04  0.7818608E-02  0.8884606E-01
         -1   -1    0    0    0  501 -0.00000000000E+00  0.00000000000E+00  0.50844041051E+03  0.50844041051E+03  0.00000000000E+00 0.  1.
          1   -1    0    0  501    0  0.00000000000E+00 -0.00000000000E+00 -0.11059854050E+04  0.11059854050E+04  0.00000000000E+00 0. -1.
         23    2    1    2    0    0 -0.28874905575E+03 -0.14137560976E+03  0.18954214383E+03  0.38441288961E+03  0.92108442513E+02 0.  0.
        254    2    1    2    0    0  0.28874905575E+03  0.14137560976E+03 -0.78708713832E+03  0.12300129259E+04  0.88885463060E+03 0.  0.
        -24    2    4    4    0    0  0.31092436413E+03 -0.32641787368E+03 -0.48601966930E+03  0.66747441891E+03  0.78002515890E+02 0.  0.
         24    2    4    4    0    0 -0.22175308384E+02  0.46779348343E+03 -0.30106746902E+03  0.56253850699E+03  0.80532375462E+02 0.  0.
         13    1    3    3    0    0 -0.50349252384E+02  0.89231227173E+01  0.42759649238E+02  0.66656259553E+02  0.00000000000E+00 0. -1.
        -13    1    3    3    0    0 -0.23839980337E+03 -0.15029873247E+03  0.14678249459E+03  0.31775663006E+03  0.00000000000E+00 0.  1.
          2    1    6    6  502    0 -0.50820752258E+02  0.22727303355E+03 -0.15294352198E+03  0.27861712358E+03  0.00000000000E+00 0. -1.
          1    1    5    5  503    0  0.29000780560E+03 -0.31542053737E+03 -0.47930862871E+03  0.64290855047E+03  0.00000000000E+00 0. -1.
         -2    1    5    5    0  503  0.20916558530E+02 -0.10997336306E+02 -0.67110405880E+01  0.24565868442E+02  0.00000000000E+00 0.  1.
         -1    1    6    6    0  502  0.28645443874E+02  0.24052044988E+03 -0.14812394705E+03  0.28392138341E+03  0.00000000000E+00 0.  1.
<mgrwt>
<rscale>  0 0.14997702E+04</rscale>
<asrwt>0</asrwt>
<pdfrwt beam="1">  1        1 0.17015160E+00 0.14997702E+04</pdfrwt>
<pdfrwt beam="2">  1       -1 0.78221602E-01 0.14997702E+04</pdfrwt>
<totfact> 0.19864505E+01</totfact>
</mgrwt>
</event>
<event>
12    1  0.1477245E-007  0.2246521E+04  0.7818608E-02  0.8499311E-01
         -2   -1    0    0    0  501 -0.00000000000E+00  0.00000000000E+00  0.96462833686E+03  0.96462833686E+03  0.00000000000E+00 0. -1.
          2   -1    0    0  501    0  0.00000000000E+00 -0.00000000000E+00 -0.13079800959E+04  0.13079800959E+04  0.00000000000E+00 0.  1.
         23    2    1    2    0    0 -0.73774354541E+03 -0.33225370638E+03  0.37381202377E+03  0.89621111586E+03  0.93812956883E+02 0.  0.
        254    2    1    2    0    0  0.73774354541E+03  0.33225370638E+03 -0.71716378277E+03  0.13763973169E+04  0.85175560953E+03 0.  0.
        -24    2    4    4    0    0  0.15798964722E+02  0.38646066601E+03 -0.45414398615E+03  0.60187409802E+03  0.80026345948E+02 0.  0.
         24    2    4    4    0    0  0.72194458069E+03 -0.54206959623E+02 -0.26301979662E+03  0.77452321885E+03  0.81021176702E+02 0.  0.
         13    1    3    3    0    0 -0.65939105751E+03 -0.26284916963E+03  0.32718366960E+03  0.78162357076E+03  0.00000000000E+00 0. -1.
        -13    1    3    3    0    0 -0.78352487895E+02 -0.69404536750E+02  0.46628354164E+02  0.11458754510E+03  0.00000000000E+00 0.  1.
          4    1    6    6  502    0  0.56378126045E+03 -0.67877305154E+02 -0.18209941941E+03  0.59633617762E+03  0.00000000000E+00 0. -1.
          1    1    5    5  503    0  0.36392260564E+02  0.35089598038E+03 -0.39196744867E+03  0.52734321508E+03  0.00000000000E+00 0. -1.
         -4    1    5    5    0  503 -0.20593295842E+02  0.35564685625E+02 -0.62176537485E+02  0.74530882933E+02  0.00000000000E+00 0.  1.
         -3    1    6    6    0  502  0.15816332023E+03  0.13670345531E+02 -0.80920377212E+02  0.17818704123E+03  0.00000000000E+00 0.  1.
<mgrwt>
<rscale>  0 0.22465215E+04</rscale>
<asrwt>0</asrwt>
<pdfrwt beam="1">  1        2 0.20122771E+00 0.22465215E+04</pdfrwt>
<pdfrwt beam="2">  1       -2 0.14840436E+00 0.22465215E+04</pdfrwt>
<totfact> 0.45909695E+00</totfact>
</mgrwt>
</event>
<event>
12    1  0.1477245E-007  0.1424028E+04  0.7818608E-02  0.8936608E-01
          2   -1    0    0  501    0  0.00000000000E+00  0.00000000000E+00  0.19919165569E+04  0.19919165569E+04  0.00000000000E+00 0. -1.
         -2   -1    0    0    0  501 -0.00000000000E+00 -0.00000000000E+00 -0.25451045836E+03  0.25451045836E+03  0.00000000000E+00 0.  1.
         23    2    1    2    0    0  0.23241154252E+03  0.24437868858E+03  0.95730047138E+03  0.10190284627E+04  0.90877647099E+02 0.  0.
        254    2    1    2    0    0 -0.23241154252E+03 -0.24437868858E+03  0.78010562715E+03  0.12273985526E+04  0.88555426078E+03 0.  0.
        -24    2    4    4    0    0 -0.44613255939E+03 -0.30496396275E+03  0.82283058909E+03  0.98769757678E+03  0.80368188392E+02 0.  0.
         24    2    4    4    0    0  0.21372101687E+03  0.60585274173E+02 -0.42724961943E+02  0.23970097578E+03  0.79270971469E+02 0.  0.
         11    1    3    3    0    0  0.22786716282E+03  0.20664119686E+03  0.79748735025E+03  0.85475733512E+03  0.00000000000E+00 0. -1.
        -11    1    3    3    0    0  0.45443796954E+01  0.37737491718E+02  0.15981312113E+03  0.16427112757E+03  0.00000000000E+00 0.  1.
          2    1    6    6  502    0  0.93678209666E+02  0.43839251974E+02  0.16606106417E+02  0.10475328038E+03  0.00000000000E+00 0. -1.
          1    1    5    5  503    0 -0.10015730401E+03 -0.36333869580E+02  0.13091557563E+03  0.16879136106E+03  0.00000000000E+00 0. -1.
         -2    1    5    5    0  503 -0.34597525538E+03 -0.26863009317E+03  0.69191501347E+03  0.81890621572E+03  0.00000000000E+00 0.  1.
         -1    1    6    6    0  502  0.12004280720E+03  0.16746022200E+02 -0.59331068360E+02  0.13494769540E+03  0.00000000000E+00 0.  1.
<mgrwt>
<rscale>  0 0.14240275E+04</rscale>
<asrwt>0</asrwt>
<pdfrwt beam="1">  1        2 0.30644869E+00 0.14240275E+04</pdfrwt>
<pdfrwt beam="2">  1       -2 0.39155456E-01 0.14240275E+04</pdfrwt>
<totfact> 0.40468129E+01</totfact>
</mgrwt>
</event>
<event>
12    1  0.1551873E-007  0.1599740E+04  0.7818608E-02  0.8820708E-01
         -2   -1    0    0    0  501 -0.00000000000E+00  0.00000000000E+00  0.51150810717E+03  0.51150810717E+03  0.00000000000E+00 0.  1.
          2   -1    0    0  501    0  0.00000000000E+00 -0.00000000000E+00 -0.12507949150E+04  0.12507949150E+04  0.00000000000E+00 0. -1.
         23    2    1    2    0    0  0.43273281335E+03 -0.23119643954E+03 -0.21811636442E+01  0.49870214971E+03  0.89384535783E+02 0.  0.
        254    2    1    2    0    0 -0.43273281335E+03  0.23119643954E+03 -0.73710564420E+03  0.12636008725E+04  0.90147265783E+03 0.  0.
        -24    2    4    4    0    0 -0.37872672821E+03 -0.60226720844E+02 -0.85061034684E+03  0.93653130322E+03  0.80571255365E+02 0.  0.
         24    2    4    4    0    0 -0.54006085142E+02  0.29142316038E+03  0.11350470264E+03  0.32706956926E+03  0.79038408221E+02 0.  0.
         11    1    3    3    0    0  0.36664365149E+03 -0.20842904491E+03 -0.31457081934E+02  0.42291817405E+03  0.00000000000E+00 0. -1.
        -11    1    3    3    0    0  0.66089161865E+02 -0.22767394629E+02  0.29275918289E+02  0.75783975654E+02  0.00000000000E+00 0.  1.
          2    1    6    6  502    0 -0.61669782183E+02  0.27394166054E+03  0.12202650542E+03  0.30616607167E+03  0.00000000000E+00 0. -1.
          3    1    5    5  503    0 -0.27629866498E+03 -0.33038018254E+02 -0.69118536326E+03  0.74509708717E+03  0.00000000000E+00 0. -1.
         -2    1    5    5    0  503 -0.10242806323E+03 -0.27188702590E+02 -0.15942498358E+03  0.19143421605E+03  0.00000000000E+00 0.  1.
         -1    1    6    6    0  502  0.76636970416E+01  0.17481499842E+02 -0.85218027777E+01  0.20903497594E+02  0.00000000000E+00 0.  1.
<mgrwt>
<rscale>  0 0.15997397E+04</rscale>
<asrwt>0</asrwt>
<pdfrwt beam="1">  1        2 0.19242998E+00 0.15997397E+04</pdfrwt>
<pdfrwt beam="2">  1       -2 0.78693556E-01 0.15997397E+04</pdfrwt>
<totfact> 0.24305855E+01</totfact>
</mgrwt>
</event>
<event>
12    1  0.1477245E-007  0.1504160E+04  0.7818608E-02  0.8881691E-01
          1   -1    0    0  501    0  0.00000000000E+00  0.00000000000E+00  0.11996692957E+04  0.11996692957E+04  0.00000000000E+00 0. -1.
         -1   -1    0    0    0  501 -0.00000000000E+00 -0.00000000000E+00 -0.47148383545E+03  0.47148383545E+03  0.00000000000E+00 0.  1.
         23    2    1    2    0    0 -0.77194136975E+02 -0.29325903743E+03 -0.18005806914E+03  0.36461097012E+03  0.92522718547E+02 0.  0.
        254    2    1    2    0    0  0.77194136975E+02  0.29325903743E+03  0.90824352935E+03  0.13065421610E+04  0.88892424424E+03 0.  0.
        -24    2    4    4    0    0  0.13770337459E+03  0.39055747573E+03  0.36213522389E+02  0.42332282070E+03  0.79958927571E+02 0.  0.
         24    2    4    4    0    0 -0.60509237616E+02 -0.97298438302E+02  0.87203000696E+03  0.88321934028E+03  0.80695204739E+02 0.  0.
         13    1    3    3    0    0 -0.40234517177E+02 -0.23542428868E+03 -0.99383450552E+02  0.25868993470E+03  0.00000000000E+00 0. -1.
        -13    1    3    3    0    0 -0.36959619798E+02 -0.57834748758E+02 -0.80674618591E+02  0.10592103542E+03  0.00000000000E+00 0.  1.
          4    1    6    6  502    0 -0.56614845016E+02 -0.19130994560E+02  0.30348249626E+03  0.30931029916E+03  0.00000000000E+00 0. -1.
          3    1    5    5  503    0  0.56897455562E+02  0.66799130700E+02  0.14403271136E+02  0.88920742974E+02  0.00000000000E+00 0. -1.
         -4    1    5    5    0  503  0.80805919030E+02  0.32375834503E+03  0.21810251253E+02  0.33440207773E+03  0.00000000000E+00 0.  1.
         -3    1    6    6    0  502 -0.38943925995E+01 -0.78167443742E+02  0.56854751070E+03  0.57390904112E+03  0.00000000000E+00 0.  1.
<mgrwt>
<rscale>  0 0.15041605E+04</rscale>
<asrwt>0</asrwt>
<pdfrwt beam="1">  1        1 0.18456451E+00 0.15041605E+04</pdfrwt>
<pdfrwt beam="2">  1       -1 0.72535975E-01 0.15041605E+04</pdfrwt>
<totfact> 0.19820432E+01</totfact>
</mgrwt>
</event>
<event>
12    1  0.1477245E-007  0.3820792E+04  0.7818608E-02  0.8041708E-01
          2   -1    0    0  501    0  0.00000000000E+00  0.00000000000E+00  0.17316815451E+04  0.17316815451E+04  0.00000000000E+00 0. -1.
         -2   -1    0    0    0  501 -0.00000000000E+00 -0.00000000000E+00 -0.21075537560E+04  0.21075537560E+04  0.00000000000E+00 0.  1.
         23    2    1    2    0    0 -0.13399141784E+04 -0.10655617976E+04 -0.73765019112E+03  0.18662913652E+04  0.90131600042E+02 0.  0.
        254    2    1    2    0    0  0.13399141784E+04  0.10655617976E+04  0.36177798027E+03  0.19729439359E+04  0.91150014661E+03 0.  0.
        -24    2    4    4    0    0  0.44192093445E+03  0.71560160998E+02 -0.22629979454E+03  0.50781390463E+03  0.79046794868E+02 0.  0.
         24    2    4    4    0    0  0.89799324395E+03  0.99400163661E+03  0.58807777482E+03  0.14651300313E+04  0.79620472157E+02 0.  0.
         11    1    3    3    0    0 -0.74033705816E+03 -0.64416544432E+03 -0.43354434536E+03  0.10728507719E+04  0.00000000000E+00 0.  1.
        -11    1    3    3    0    0 -0.59957712024E+03 -0.42139635329E+03 -0.30410584576E+03  0.79344059330E+03  0.00000000000E+00 0. -1.
          4    1    6    6  502    0  0.62345363937E+03  0.71782025205E+03  0.38301303037E+03  0.10250167492E+04  0.00000000000E+00 0. -1.
          1    1    5    5  503    0  0.21450528613E+03  0.13751240733E+02 -0.70748474735E+02  0.22628955141E+03  0.00000000000E+00 0. -1.
         -4    1    5    5    0  503  0.22741564832E+03  0.57808920264E+02 -0.15555131981E+03  0.28152435322E+03  0.00000000000E+00 0.  1.
         -3    1    6    6    0  502  0.27453960458E+03  0.27618138456E+03  0.20506474444E+03  0.44011328209E+03  0.00000000000E+00 0.  1.
<mgrwt>
<rscale>  0 0.38207915E+04</rscale>
<asrwt>0</asrwt>
<pdfrwt beam="1">  1        2 0.26641255E+00 0.38207915E+04</pdfrwt>
<pdfrwt beam="2">  1       -2 0.32423904E+00 0.38207915E+04</pdfrwt>
<totfact> 0.16987751E-01</totfact>
</mgrwt>
</event>
<event>
12    1  0.1477245E-007  0.1871733E+04  0.7818608E-02  0.8669056E-01
          1   -1    0    0  501    0  0.00000000000E+00  0.00000000000E+00  0.77835790294E+03  0.77835790294E+03  0.00000000000E+00 0. -1.
         -1   -1    0    0    0  501 -0.00000000000E+00 -0.00000000000E+00 -0.11252485080E+04  0.11252485080E+04  0.00000000000E+00 0.  1.
         23    2    1    2    0    0  0.57374162582E+03 -0.45023291513E+03 -0.11309453743E+03  0.74435811302E+03  0.96899406349E+02 0.  0.
        254    2    1    2    0    0 -0.57374162582E+03  0.45023291513E+03 -0.23379606768E+03  0.11592482980E+04  0.87023380998E+03 0.  0.
        -24    2    4    4    0    0 -0.30260249365E+03  0.62932020168E+03  0.72106104033E+02  0.70633355645E+03  0.78074434460E+02 0.  0.
         24    2    4    4    0    0 -0.27113913217E+03 -0.17908728655E+03 -0.30590217171E+03  0.45291474153E+03  0.77245965816E+02 0.  0.
         11    1    3    3    0    0  0.18493788536E+03 -0.17796736950E+03 -0.10663400358E+01  0.25666231342E+03  0.00000000000E+00 0.  1.
        -11    1    3    3    0    0  0.38880374046E+03 -0.27226554563E+03 -0.11202819740E+03  0.48769579960E+03  0.00000000000E+00 0. -1.
          2    1    6    6  502    0 -0.88596926319E+02 -0.10103929078E+03 -0.10572682945E+03  0.17098688868E+03  0.00000000000E+00 0. -1.
          1    1    5    5  503    0 -0.19490524310E+03  0.40668940897E+03  0.83991680204E+02  0.45873623304E+03  0.00000000000E+00 0. -1.
         -2    1    5    5    0  503 -0.10769725055E+03  0.22263079271E+03 -0.11885576171E+02  0.24759732341E+03  0.00000000000E+00 0.  1.
         -1    1    6    6    0  502 -0.18254220585E+03 -0.78047995771E+02 -0.20017534226E+03  0.28192785285E+03  0.00000000000E+00 0.  1.
<mgrwt>
<rscale>  0 0.18717330E+04</rscale>
<asrwt>0</asrwt>
<pdfrwt beam="1">  1        1 0.11974737E+00 0.18717330E+04</pdfrwt>
<pdfrwt beam="2">  1       -1 0.17311515E+00 0.18717330E+04</pdfrwt>
<totfact> 0.50578897E+00</totfact>
</mgrwt>
</event>
<event>
12    1  0.1477245E-007  0.1480269E+04  0.7818608E-02  0.8897681E-01
         -3   -1    0    0    0  501 -0.00000000000E+00  0.00000000000E+00  0.42335491339E+03  0.42335491339E+03  0.00000000000E+00 0.  1.
          3   -1    0    0  501    0  0.00000000000E+00 -0.00000000000E+00 -0.12939481989E+04  0.12939481989E+04  0.00000000000E+00 0. -1.
         23    2    1    2    0    0 -0.26088580984E+03  0.34706322572E+03 -0.43354487725E+03  0.62044018556E+03  0.92035725903E+02 0.  0.
        254    2    1    2    0    0  0.26088580984E+03 -0.34706322572E+03 -0.43704840828E+03  0.10968629267E+04  0.90751456213E+03 0.  0.
        -24    2    4    4    0    0 -0.42925799239E+02 -0.43698103423E+03 -0.58702203438E+03  0.73755774811E+03  0.81249704192E+02 0.  0.
         24    2    4    4    0    0  0.30381160907E+03  0.89917808504E+02  0.14997362610E+03  0.35930517864E+03  0.78875958178E+02 0.  0.
         13    1    3    3    0    0 -0.52412428863E+02  0.52495974050E+02 -0.12636742594E+03  0.14653196351E+03  0.00000000000E+00 0.  1.
        -13    1    3    3    0    0 -0.20847338097E+03  0.29456725167E+03 -0.30717745131E+03  0.47390822205E+03  0.00000000000E+00 0. -1.
          4    1    6    6  502    0  0.23142619318E+03  0.10079020813E+03  0.10495661795E+03  0.27337271370E+03  0.00000000000E+00 0. -1.
          3    1    5    5  503    0  0.16665015034E+02 -0.21732243449E+03 -0.26278041413E+03  0.34140929880E+03  0.00000000000E+00 0. -1.
         -4    1    5    5    0  503 -0.59590814273E+02 -0.21965859974E+03 -0.32424162025E+03  0.39614844931E+03  0.00000000000E+00 0.  1.
         -3    1    6    6    0  502  0.72385415894E+02 -0.10872399627E+02  0.45017008155E+02  0.85932464942E+02  0.00000000000E+00 0.  1.
<mgrwt>
<rscale>  0 0.14802693E+04</rscale>
<asrwt>0</asrwt>
<pdfrwt beam="1">  1        3 0.19906895E+00 0.14802693E+04</pdfrwt>
<pdfrwt beam="2">  1       -3 0.65131526E-01 0.14802693E+04</pdfrwt>
<totfact> 0.86322759E-01</totfact>
</mgrwt>
</event>
<event>
12    1  0.1477245E-007  0.2625538E+04  0.7818608E-02  0.8359578E-01
         -1   -1    0    0    0  501 -0.00000000000E+00  0.00000000000E+00  0.20438930773E+04  0.20438930773E+04  0.00000000000E+00 0.  1.
          1   -1    0    0  501    0  0.00000000000E+00 -0.00000000000E+00 -0.84317672764E+03  0.84317672764E+03  0.00000000000E+00 0. -1.
         23    2    1    2    0    0 -0.81136964621E+03 -0.77450756281E+03  0.22457311364E+03  0.11475834523E+04  0.91279948103E+02 0.  0.
        254    2    1    2    0    0  0.81136964621E+03  0.77450756281E+03  0.97614323606E+03  0.17394863527E+04  0.90264859513E+03 0.  0.
        -24    2    4    4    0    0  0.82908939113E+03  0.27089825211E+03  0.37986732309E+03  0.95472399648E+03  0.80147643827E+02 0.  0.
         24    2    4    4    0    0 -0.17719744927E+02  0.50360931070E+03  0.59627591298E+03  0.78476235623E+03  0.79816440494E+02 0.  0.
         11    1    3    3    0    0 -0.80892729922E+03 -0.76324672969E+03  0.21534394366E+03  0.11328203564E+04  0.00000000000E+00 0.  1.
        -11    1    3    3    0    0 -0.24423469913E+01 -0.11260833122E+02  0.92291699734E+01  0.14763095875E+02  0.00000000000E+00 0. -1.
          2    1    6    6  502    0 -0.45208798871E+02  0.41413735360E+03  0.48544500979E+03  0.63969558438E+03  0.00000000000E+00 0. -1.
          1    1    5    5  503    0  0.56765106203E+03  0.19659802659E+03  0.29979329904E+03  0.67138255446E+03  0.00000000000E+00 0. -1.
         -2    1    5    5    0  503  0.26143832910E+03  0.74300225520E+02  0.80074024044E+02  0.28334144201E+03  0.00000000000E+00 0.  1.
         -1    1    6    6    0  502  0.27489053944E+02  0.89471957099E+02  0.11083090318E+03  0.14506677185E+03  0.00000000000E+00 0.  1.
<mgrwt>
<rscale>  0 0.26255385E+04</rscale>
<asrwt>0</asrwt>
<pdfrwt beam="1">  1        1 0.12971950E+00 0.26255385E+04</pdfrwt>
<pdfrwt beam="2">  1       -1 0.31444509E+00 0.26255385E+04</pdfrwt>
<totfact> 0.47452724E-01</totfact>
</mgrwt>
</event>
<event>
12    1  0.1477245E-007  0.2814118E+04  0.7818608E-02  0.8298899E-01
         -1   -1    0    0    0  501 -0.00000000000E+00  0.00000000000E+00  0.13508162799E+04  0.13508162799E+04  0.00000000000E+00 0.  1.
          1   -1    0    0  501    0  0.00000000000E+00 -0.00000000000E+00 -0.14656436934E+04  0.14656436934E+04  0.00000000000E+00 0. -1.
         23    2    1    2    0    0 -0.10006742418E+04  0.77039443947E+03 -0.66490586544E+02  0.12677377448E+04  0.88777591471E+02 0.  0.
        254    2    1    2    0    0  0.10006742418E+04 -0.77039443947E+03 -0.48336826936E+02  0.15487222285E+04  0.89518018389E+03 0.  0.
        -24    2    4    4    0    0  0.71510000590E+03 -0.31169728645E+02  0.13174452802E+03  0.73179509498E+03  0.76340486937E+02 0.  0.
         24    2    4    4    0    0  0.28557423594E+03 -0.73922471082E+03 -0.18008135496E+03  0.81692713354E+03  0.83275625432E+02 0.  0.
         11    1    3    3    0    0 -0.52072368571E+03  0.40117253711E+03 -0.79014385156E+02  0.66206935773E+03  0.00000000000E+00 0. -1.
        -11    1    3    3    0    0 -0.47995055614E+03  0.36922190236E+03  0.12523798612E+02  0.60566838703E+03  0.00000000000E+00 0.  1.
          2    1    6    6  502    0  0.19104031038E+03 -0.38641507750E+03 -0.11212143987E+03  0.44540344587E+03  0.00000000000E+00 0. -1.
          1    1    5    5  503    0  0.59736391121E+03 -0.52451270401E+02  0.99282726201E+02  0.60782549955E+03  0.00000000000E+00 0. -1.
         -2    1    5    5    0  503  0.11773609469E+03  0.21281541756E+02  0.32461801822E+02  0.12396959543E+03  0.00000000000E+00 0.  1.
         -1    1    6    6    0  502  0.94533925558E+02 -0.35280963332E+03 -0.67959915088E+02  0.37152368768E+03  0.00000000000E+00 0.  1.
<mgrwt>
<rscale>  0 0.28141182E+04</rscale>
<asrwt>0</asrwt>
<pdfrwt beam="1">  1        1 0.22548364E+00 0.28141182E+04</pdfrwt>
<pdfrwt beam="2">  1       -1 0.20781789E+00 0.28141182E+04</pdfrwt>
<totfact> 0.79505322E-01</totfact>
</mgrwt>
</event>
<event>
12    1  0.1477245E-007  0.2250481E+04  0.7818608E-02  0.8497706E-01
          2   -1    0    0  501    0  0.00000000000E+00  0.00000000000E+00  0.22633397673E+04  0.22633397673E+04  0.00000000000E+00 0. -1.
         -2   -1    0    0    0  501 -0.00000000000E+00 -0.00000000000E+00 -0.55942394464E+03  0.55942394464E+03  0.00000000000E+00 0.  1.
         23    2    1    2    0    0  0.99671820527E+02  0.64096365019E+03  0.15709981078E+04  0.17019056804E+04  0.87630002613E+02 0.  0.
        254    2    1    2    0    0 -0.99671820527E+02 -0.64096365019E+03  0.13291771483E+03  0.11208580316E+04  0.90437090588E+03 0.  0.
        -24    2    4    4    0    0  0.39366598194E+03 -0.33421723228E+03  0.16226101946E+02  0.52270114741E+03  0.79241021072E+02 0.  0.
         24    2    4    4    0    0 -0.49333780247E+03 -0.30674641790E+03  0.11669161288E+03  0.59815688418E+03  0.81848477919E+02 0.  0.
         13    1    3    3    0    0  0.11380043393E+03  0.52391271249E+03  0.12606730613E+04  0.13699385521E+04  0.00000000000E+00 0. -1.
        -13    1    3    3    0    0 -0.14128613403E+02  0.11705093770E+03  0.31032504652E+03  0.33196712824E+03  0.00000000000E+00 0.  1.
          2    1    6    6  502    0 -0.20450406472E+02 -0.36377950813E+02  0.42182158668E+01  0.41944818217E+02  0.00000000000E+00 0. -1.
          1    1    5    5  503    0  0.32858868144E+02 -0.62635151579E+02 -0.16764690474E+01  0.70750816091E+02  0.00000000000E+00 0. -1.
         -2    1    5    5    0  503  0.36080711380E+03 -0.27158208071E+03  0.17902570993E+02  0.45195033132E+03  0.00000000000E+00 0.  1.
         -1    1    6    6    0  502 -0.47288739600E+03 -0.27036846709E+03  0.11247339702E+03  0.55621206597E+03  0.00000000000E+00 0.  1.
<mgrwt>
<rscale>  0 0.22504812E+04</rscale>
<asrwt>0</asrwt>
<pdfrwt beam="1">  1        2 0.34820611E+00 0.22504812E+04</pdfrwt>
<pdfrwt beam="2">  1       -2 0.86065223E-01 0.22504812E+04</pdfrwt>
<totfact> 0.50693479E+00</totfact>
</mgrwt>
</event>
<event>
12    1  0.1477245E-007  0.2301833E+04  0.7818608E-02  0.8477199E-01
          2   -1    0    0  501    0  0.00000000000E+00  0.00000000000E+00  0.18403594986E+04  0.18403594986E+04  0.00000000000E+00 0. -1.
         -2   -1    0    0    0  501 -0.00000000000E+00 -0.00000000000E+00 -0.71975526366E+03  0.71975526366E+03  0.00000000000E+00 0.  1.
         23    2    1    2    0    0  0.93581082793E+03 -0.15173484308E+03  0.71919866979E+03  0.11931422075E+04  0.87041555793E+02 0.  0.
        254    2    1    2    0    0 -0.93581082793E+03  0.15173484308E+03  0.40140556515E+03  0.13669725548E+04  0.89928981394E+03 0.  0.
        -24    2    4    4    0    0 -0.18498825813E+03  0.44554557923E+03  0.22340729818E+03  0.53749825874E+03  0.79133042678E+02 0.  0.
         24    2    4    4    0    0 -0.75082256980E+03 -0.29381073615E+03  0.17799826697E+03  0.82947429602E+03  0.79277643232E+02 0.  0.
         13    1    3    3    0    0  0.57867089573E+03 -0.10191107205E+03  0.49700518287E+03  0.76958431895E+03  0.00000000000E+00 0.  1.
        -13    1    3    3    0    0  0.35713993220E+03 -0.49823771030E+02  0.22219348691E+03  0.42355788855E+03  0.00000000000E+00 0. -1.
          4    1    6    6  502    0 -0.30253720563E+02  0.38719912109E+01  0.58145336645E+01  0.31049778189E+02  0.00000000000E+00 0. -1.
          3    1    5    5  503    0 -0.28171442128E+02  0.74696044792E+02  0.63693235244E+01  0.80085563876E+02  0.00000000000E+00 0. -1.
         -4    1    5    5    0  503 -0.15681681600E+03  0.37084953444E+03  0.21703797466E+03  0.45741269486E+03  0.00000000000E+00 0.  1.
         -3    1    6    6    0  502 -0.72056884923E+03 -0.29768272736E+03  0.17218373330E+03  0.79842451783E+03  0.00000000000E+00 0.  1.
<mgrwt>
<rscale>  0 0.23018327E+04</rscale>
<asrwt>0</asrwt>
<pdfrwt beam="1">  1        2 0.28313223E+00 0.23018327E+04</pdfrwt>
<pdfrwt beam="2">  1       -2 0.11073158E+00 0.23018327E+04</pdfrwt>
<totfact> 0.48029844E+00</totfact>
</mgrwt>
</event>
<event>
12    1  0.1477245E-007  0.2326431E+04  0.7818608E-02  0.8467572E-01
          2   -1    0    0  501    0  0.00000000000E+00  0.00000000000E+00  0.17611981210E+04  0.17611981210E+04  0.00000000000E+00 0. -1.
         -2   -1    0    0    0  501 -0.00000000000E+00 -0.00000000000E+00 -0.76826712509E+03  0.76826712509E+03  0.00000000000E+00 0.  1.
         23    2    1    2    0    0  0.69664600260E+02  0.80492875154E+03  0.10334552828E+04  0.13149304750E+04  0.90823349679E+02 0.  0.
        254    2    1    2    0    0 -0.69664600260E+02 -0.80492875154E+03 -0.40524286902E+02  0.12145347711E+04  0.90591889308E+03 0.  0.
        -24    2    4    4    0    0 -0.14212441609E+02 -0.45687920817E+03 -0.46408025450E+03  0.65625133763E+03  0.79716567787E+02 0.  0.
         24    2    4    4    0    0 -0.55452158651E+02 -0.34804954337E+03  0.42355596760E+03  0.55828343348E+03  0.89818193454E+02 0.  0.
         13    1    3    3    0    0  0.24645860892E+02  0.56178565048E+03  0.66054320261E+03  0.86748363561E+03  0.00000000000E+00 0. -1.
        -13    1    3    3    0    0  0.45018739368E+02  0.24314310106E+03  0.37291208023E+03  0.44744683938E+03  0.00000000000E+00 0.  1.
          4    1    6    6  502    0 -0.21686700099E+02 -0.31725379499E+03  0.37170381629E+03  0.48916664895E+03  0.00000000000E+00 0. -1.
          3    1    5    5  503    0 -0.33957346485E+02 -0.42251700711E+03 -0.43243600580E+03  0.60553663951E+03  0.00000000000E+00 0. -1.
         -4    1    5    5    0  503  0.19744904876E+02 -0.34362201056E+02 -0.31644248695E+02  0.50714698121E+02  0.00000000000E+00 0.  1.
         -1    1    6    6    0  502 -0.33765458552E+02 -0.30795748380E+02  0.51852151303E+02  0.69116784533E+02  0.00000000000E+00 0.  1.
<mgrwt>
<rscale>  0 0.23264313E+04</rscale>
<asrwt>0</asrwt>
<pdfrwt beam="1">  1        2 0.27095356E+00 0.23264313E+04</pdfrwt>
<pdfrwt beam="2">  1       -2 0.11819494E+00 0.23264313E+04</pdfrwt>
<totfact> 0.45232741E+00</totfact>
</mgrwt>
</event>
<event>
12    1  0.1477245E-007  0.1118226E+04  0.7818608E-02  0.9187607E-01
          2   -1    0    0  501    0  0.00000000000E+00  0.00000000000E+00  0.20271910133E+04  0.20271910133E+04  0.00000000000E+00 0. -1.
         -2   -1    0    0    0  501 -0.00000000000E+00 -0.00000000000E+00 -0.15420714485E+03  0.15420714485E+03  0.00000000000E+00 0.  1.
         23    2    1    2    0    0 -0.47221410467E+02 -0.46651563334E+02  0.66778822324E+03  0.67696723584E+03  0.89091511021E+02 0.  0.
        254    2    1    2    0    0  0.47221410467E+02  0.46651563334E+02  0.12051956452E+04  0.15044309223E+04  0.89800313293E+03 0.  0.
        -24    2    4    4    0    0 -0.65608728985E+02  0.36904939570E+03  0.10574776018E+04  0.11247938284E+04  0.80001976619E+02 0.  0.
         24    2    4    4    0    0  0.11283013945E+03 -0.32239783236E+03  0.14771804339E+03  0.37963709390E+03  0.75051316064E+02 0.  0.
         13    1    3    3    0    0 -0.22868059812E+02 -0.71925620024E+02  0.42388974442E+03  0.43055633592E+03  0.00000000000E+00 0. -1.
        -13    1    3    3    0    0 -0.24353350655E+02  0.25274056690E+02  0.24389847881E+03  0.24641089992E+03  0.00000000000E+00 0.  1.
          4    1    6    6  502    0  0.22992820771E+02 -0.16870519810E+02 -0.15535140263E+00  0.28518562021E+02  0.00000000000E+00 0. -1.
          1    1    5    5  503    0  0.17172119295E+02  0.41673609978E+02  0.14465486447E+03  0.15151435993E+03  0.00000000000E+00 0. -1.
         -2    1    5    5    0  503 -0.82780848279E+02  0.32737578572E+03  0.91282273732E+03  0.97327946844E+03  0.00000000000E+00 0.  1.
         -3    1    6    6    0  502  0.89837318681E+02 -0.30552731255E+03  0.14787339479E+03  0.35111853188E+03  0.00000000000E+00 0.  1.
<mgrwt>
<rscale>  0 0.11182260E+04</rscale>
<asrwt>0</asrwt>
<pdfrwt beam="1">  1        2 0.31187552E+00 0.11182260E+04</pdfrwt>
<pdfrwt beam="2">  1       -2 0.23724178E-01 0.11182260E+04</pdfrwt>
<totfact> 0.10115587E+02</totfact>
</mgrwt>
</event>
<event>
12    1  0.1477245E-007  0.1192937E+04  0.7818608E-02  0.9119061E-01
         -2   -1    0    0    0  501 -0.00000000000E+00  0.00000000000E+00  0.25507154678E+03  0.25507154678E+03  0.00000000000E+00 0. -1.
          2   -1    0    0  501    0  0.00000000000E+00 -0.00000000000E+00 -0.13948037139E+04  0.13948037139E+04  0.00000000000E+00 0.  1.
         23    2    1    2    0    0 -0.75819559414E+02 -0.18955666334E+03 -0.29769641415E+03  0.37227432195E+03  0.91020226204E+02 0.  0.
        254    2    1    2    0    0  0.75819559414E+02  0.18955666334E+03 -0.84203575300E+03  0.12776009388E+04  0.93891406166E+03 0.  0.
        -24    2    4    4    0    0  0.20206959758E+03  0.53839154806E+03 -0.47967188071E+03  0.75306535013E+03  0.79528153172E+02 0.  0.
         24    2    4    4    0    0 -0.12625003816E+03 -0.34883488471E+03 -0.36236387230E+03  0.52453558863E+03  0.78772830741E+02 0.  0.
         13    1    3    3    0    0 -0.22963023895E+02  0.14307725069E+01 -0.16698421726E+02  0.28428592376E+02  0.00000000000E+00 0. -1.
        -13    1    3    3    0    0 -0.52856535519E+02 -0.19098743585E+03 -0.28099799243E+03  0.34384572958E+03  0.00000000000E+00 0.  1.
          2    1    6    6  502    0 -0.78791995670E+02 -0.26853047420E+03 -0.30972612407E+03  0.41742911505E+03  0.00000000000E+00 0. -1.
          1    1    5    5  503    0  0.16663484411E+03  0.50206337488E+03 -0.42598224253E+03  0.67918751065E+03  0.00000000000E+00 0. -1.
         -4    1    5    5    0  503  0.35434753467E+02  0.36328173175E+02 -0.53689638178E+02  0.73877839486E+02  0.00000000000E+00 0.  1.
         -1    1    6    6    0  502 -0.47458042495E+02 -0.80304410508E+02 -0.52637748226E+02  0.10710647358E+03  0.00000000000E+00 0.  1.
<mgrwt>
<rscale>  0 0.11929371E+04</rscale>
<asrwt>0</asrwt>
<pdfrwt beam="1">  1        2 0.21458519E+00 0.11929371E+04</pdfrwt>
<pdfrwt beam="2">  1       -2 0.39241775E-01 0.11929371E+04</pdfrwt>
<totfact> 0.88259626E+01</totfact>
</mgrwt>
</event>
<event>
12    1  0.1477245E-007  0.1994874E+04  0.7818608E-02  0.8609021E-01
         -2   -1    0    0    0  501 -0.00000000000E+00  0.00000000000E+00  0.30882618510E+03  0.30882618510E+03  0.00000000000E+00 0.  1.
          2   -1    0    0  501    0  0.00000000000E+00 -0.00000000000E+00 -0.32214890625E+04  0.32214890625E+04  0.00000000000E+00 0. -1.
         23    2    1    2    0    0  0.62550332312E+03  0.20919667942E+03 -0.19328590042E+04  0.20442703616E+04  0.89887281022E+02 0.  0.
        254    2    1    2    0    0 -0.62550332312E+03 -0.20919667942E+03 -0.97980387317E+03  0.14860448860E+04  0.90182931608E+03 0.  0.
        -24    2    4    4    0    0 -0.41811609816E+03 -0.29135168671E+03 -0.40815477099E+02  0.51752242618E+03  0.80353478665E+02 0.  0.
         24    2    4    4    0    0 -0.20738722496E+03  0.82155007287E+02 -0.93898839607E+03  0.96852245980E+03  0.81102656431E+02 0.  0.
         13    1    3    3    0    0  0.51467044665E+03  0.18672532872E+03 -0.16877373990E+04  0.17743194596E+04  0.00000000000E+00 0. -1.
        -13    1    3    3    0    0  0.11083287647E+03  0.22471350700E+02 -0.24512160522E+03  0.26995090194E+03  0.00000000000E+00 0.  1.
          4    1    6    6  502    0 -0.16937399701E+03  0.33448098665E+02 -0.61908311207E+03  0.64270539582E+03  0.00000000000E+00 0. -1.
          3    1    5    5  503    0 -0.38211665389E+03 -0.23531695064E+03 -0.27510664653E+02  0.44960431616E+03  0.00000000000E+00 0. -1.
         -4    1    5    5    0  503 -0.35999444271E+02 -0.56034736064E+02 -0.13304812446E+02  0.67918110014E+02  0.00000000000E+00 0.  1.
         -3    1    6    6    0  502 -0.38013227943E+02  0.48706908622E+02 -0.31990528401E+03  0.32581706398E+03  0.00000000000E+00 0.  1.
<mgrwt>
<rscale>  0 0.19948736E+04</rscale>
<asrwt>0</asrwt>
<pdfrwt beam="1">  1        2 0.49561371E+00 0.19948736E+04</pdfrwt>
<pdfrwt beam="2">  1       -2 0.47511720E-01 0.19948736E+04</pdfrwt>
<totfact> 0.49167286E+00</totfact>
</mgrwt>
</event>
<event>
12    1  0.1477245E-007  0.2646435E+04  0.7818608E-02  0.8352597E-01
         -2   -1    0    0    0  501 -0.00000000000E+00  0.00000000000E+00  0.16777650714E+04  0.16777650714E+04  0.00000000000E+00 0.  1.
          2   -1    0    0  501    0  0.00000000000E+00 -0.00000000000E+00 -0.10435931425E+04  0.10435931425E+04  0.00000000000E+00 0. -1.
         23    2    1    2    0    0 -0.37994919415E+03  0.61388589831E+03  0.12184548422E+04  0.14192406647E+04  0.91621916762E+02 0.  0.
        254    2    1    2    0    0  0.37994919415E+03 -0.61388589831E+03 -0.58428291319E+03  0.13021175492E+04  0.91263700507E+03 0.  0.
        -24    2    4    4    0    0 -0.28463384727E+03 -0.15591295162E+03 -0.27913013974E+03  0.43545892810E+03  0.79909746958E+02 0.  0.
         24    2    4    4    0    0  0.66458304142E+03 -0.45797294669E+03 -0.30515277345E+03  0.86665862111E+03  0.81050055833E+02 0.  0.
         11    1    3    3    0    0 -0.68512426682E+01 -0.10847645786E+01  0.47728709198E+01  0.84200081418E+01  0.00000000000E+00 0. -1.
        -11    1    3    3    0    0 -0.37309795149E+03  0.61497066289E+03  0.12136819712E+04  0.14108206565E+04  0.00000000000E+00 0.  1.
          2    1    6    6  502    0  0.40515082465E+03 -0.25179090473E+03 -0.21498809347E+03  0.52322627109E+03  0.00000000000E+00 0. -1.
          3    1    5    5  503    0 -0.20378083498E+03 -0.68398080698E+02 -0.17371147821E+03  0.27637041051E+03  0.00000000000E+00 0. -1.
         -4    1    5    5    0  503 -0.80853012290E+02 -0.87514870917E+02 -0.10541866153E+03  0.15908851759E+03  0.00000000000E+00 0.  1.
         -1    1    6    6    0  502  0.25943221677E+03 -0.20618204196E+03 -0.90164679978E+02  0.34343235002E+03  0.00000000000E+00 0.  1.
<mgrwt>
<rscale>  0 0.26464347E+04</rscale>
<asrwt>0</asrwt>
<pdfrwt beam="1">  1        2 0.16055279E+00 0.26464347E+04</pdfrwt>
<pdfrwt beam="2">  1       -2 0.25811770E+00 0.26464347E+04</pdfrwt>
<totfact> 0.11927584E+00</totfact>
</mgrwt>
</event>
<event>
12    1  0.1477245E-007  0.2153179E+04  0.7818608E-02  0.8538173E-01
          2   -1    0    0  501    0  0.00000000000E+00  0.00000000000E+00  0.25801689120E+04  0.25801689120E+04  0.00000000000E+00 0. -1.
         -2   -1    0    0    0  501 -0.00000000000E+00 -0.00000000000E+00 -0.44921286986E+03  0.44921286986E+03  0.00000000000E+00 0.  1.
         23    2    1    2    0    0  0.19627433981E+03  0.68035949467E+03  0.16750481076E+04  0.18207952824E+04  0.89981327298E+02 0.  0.
        254    2    1    2    0    0 -0.19627433981E+03 -0.68035949467E+03  0.45590793458E+03  0.12085864995E+04  0.86684290588E+03 0.  0.
        -24    2    4    4    0    0  0.48425668476E+02 -0.17209941308E+03  0.59128271772E+03  0.62294757602E+03  0.80530595667E+02 0.  0.
         24    2    4    4    0    0 -0.24470000828E+03 -0.50826008159E+03 -0.13537478314E+03  0.58563892347E+03  0.80250932612E+02 0.  0.
         13    1    3    3    0    0  0.19260838087E+01 -0.21676146397E+01  0.17223373027E+02  0.17465764526E+02  0.00000000000E+00 0.  1.
        -13    1    3    3    0    0  0.19434825600E+03  0.68252710931E+03  0.16578247346E+04  0.18033295179E+04  0.00000000000E+00 0. -1.
          2    1    6    6  502    0 -0.14118208104E+03 -0.37041211518E+03 -0.78447125886E+02  0.40409338851E+03  0.00000000000E+00 0. -1.
          3    1    5    5  503    0 -0.19354221694E+02 -0.15120880273E+02  0.90773338879E+02  0.94037364748E+02  0.00000000000E+00 0. -1.
         -4    1    5    5    0  503  0.67779890170E+02 -0.15697853281E+03  0.50050937884E+03  0.52891021127E+03  0.00000000000E+00 0.  1.
         -1    1    6    6    0  502 -0.10351792725E+03 -0.13784796641E+03 -0.56927657253E+02  0.18154553496E+03  0.00000000000E+00 0.  1.
<mgrwt>
<rscale>  0 0.21531791E+04</rscale>
<asrwt>0</asrwt>
<pdfrwt beam="1">  1        2 0.39694905E+00 0.21531791E+04</pdfrwt>
<pdfrwt beam="2">  1       -2 0.69109674E-01 0.21531791E+04</pdfrwt>
<totfact> 0.54846394E+00</totfact>
</mgrwt>
</event>
<event>
12    1  0.1947586E-007  0.1837262E+04  0.7818608E-02  0.8686731E-01
          2   -1    0    0  501    0  0.00000000000E+00  0.00000000000E+00  0.92910278251E+03  0.92910278251E+03  0.00000000000E+00 0. -1.
         -2   -1    0    0    0  501 -0.00000000000E+00 -0.00000000000E+00 -0.90827677987E+03  0.90827677987E+03  0.00000000000E+00 0.  1.
         23    2    1    2    0    0  0.30851223146E+03 -0.18073504060E+03  0.59823386230E+03  0.70334519857E+03  0.94687710383E+02 0.  0.
        254    2    1    2    0    0 -0.30851223146E+03  0.18073504060E+03 -0.57740785966E+03  0.11340343638E+04  0.90817902972E+03 0.  0.
        -24    2    4    4    0    0  0.16019353054E+03 -0.12944096047E+03 -0.51826119514E+03  0.56333439638E+03  0.79586721765E+02 0.  0.
         24    2    4    4    0    0 -0.46870576200E+03  0.31017600107E+03 -0.59146664527E+02  0.57069996743E+03  0.79409583331E+02 0.  0.
         13    1    3    3    0    0  0.24013818103E+03 -0.12119863801E+03  0.51129286180E+03  0.57773336962E+03  0.00000000000E+00 0. -1.
        -13    1    3    3    0    0  0.68374050432E+02 -0.59536402597E+02  0.86941000498E+02  0.12561182896E+03  0.00000000000E+00 0.  1.
          2    1    6    6  502    0 -0.91928564300E+00  0.28979355693E+01  0.65051432000E+01  0.71805295564E+01  0.00000000000E+00 0. -1.
          3    1    5    5  503    0  0.11399057566E+01 -0.16883879331E+02 -0.11653693607E+02  0.20546857207E+02  0.00000000000E+00 0. -1.
         -4    1    5    5    0  503  0.15905362478E+03 -0.11255708114E+03 -0.50660750153E+03  0.54278753917E+03  0.00000000000E+00 0.  1.
         -1    1    6    6    0  502 -0.46778647636E+03  0.30727806550E+03 -0.65651807727E+02  0.56351943787E+03  0.00000000000E+00 0.  1.
<mgrwt>
<rscale>  0 0.18372615E+04</rscale>
<asrwt>0</asrwt>
<pdfrwt beam="1">  1        2 0.14293889E+00 0.18372615E+04</pdfrwt>
<pdfrwt beam="2">  1       -2 0.13973489E+00 0.18372615E+04</pdfrwt>
<totfact> 0.95215673E+00</totfact>
</mgrwt>
</event>
<event>
12    1  0.1477245E-007  0.1140596E+04  0.7818608E-02  0.9166503E-01
          1   -1    0    0  501    0  0.00000000000E+00  0.00000000000E+00  0.79306934444E+03  0.79306934444E+03  0.00000000000E+00 0. -1.
         -1   -1    0    0    0  501 -0.00000000000E+00 -0.00000000000E+00 -0.41010246799E+03  0.41010246799E+03  0.00000000000E+00 0.  1.
         23    2    1    2    0    0  0.60542500519E+02  0.29127793880E+02 -0.12108129275E+03  0.16731826456E+03  0.93919643607E+02 0.  0.
        254    2    1    2    0    0 -0.60542500519E+02 -0.29127793880E+02  0.50404816921E+03  0.10358535479E+04  0.90244899746E+03 0.  0.
        -24    2    4    4    0    0 -0.58417151955E+02 -0.31289581296E+03 -0.11731127570E+03  0.34803751816E+03  0.77793478090E+02 0.  0.
         24    2    4    4    0    0 -0.21253485634E+01  0.28376801908E+03  0.62135944491E+03  0.68781602971E+03  0.80464434312E+02 0.  0.
         11    1    3    3    0    0  0.51490778140E+02 -0.11903996234E+01 -0.12522910786E+03  0.13540696710E+03  0.00000000000E+00 0.  1.
        -11    1    3    3    0    0  0.90517223781E+01  0.30318193504E+02  0.41478151053E+01  0.31911297458E+02  0.00000000000E+00 0. -1.
          2    1    6    6  502    0  0.17518033276E+02  0.52187299051E+02  0.67037705333E+02  0.86743585402E+02  0.00000000000E+00 0. -1.
          1    1    5    5  503    0  0.10836381129E+02 -0.40233587498E+02 -0.36363251266E+02  0.55303297927E+02  0.00000000000E+00 0. -1.
         -2    1    5    5    0  503 -0.69253533084E+02 -0.27266222546E+03 -0.80948024438E+02  0.29273422024E+03  0.00000000000E+00 0.  1.
         -1    1    6    6    0  502 -0.19643381840E+02  0.23158072002E+03  0.55432173958E+03  0.60107244431E+03  0.00000000000E+00 0.  1.
<mgrwt>
<rscale>  0 0.11405958E+04</rscale>
<asrwt>0</asrwt>
<pdfrwt beam="1">  1        1 0.12201067E+00 0.11405958E+04</pdfrwt>
<pdfrwt beam="2">  1       -1 0.63092688E-01 0.11405958E+04</pdfrwt>
<totfact> 0.56781650E+01</totfact>
</mgrwt>
</event>
<event>
12    1  0.1477245E-007  0.1759303E+04  0.7818608E-02  0.8728246E-01
          2   -1    0    0  501    0  0.00000000000E+00  0.00000000000E+00  0.87835967662E+03  0.87835967662E+03  0.00000000000E+00 0. -1.
         -2   -1    0    0    0  501 -0.00000000000E+00 -0.00000000000E+00 -0.88094516253E+03  0.88094516253E+03  0.00000000000E+00 0.  1.
         23    2    1    2    0    0 -0.68839624052E+02 -0.61226532992E+03 -0.20022822720E+03  0.65435958951E+03  0.92127093468E+02 0.  0.
        254    2    1    2    0    0  0.68839624052E+02  0.61226532992E+03  0.19764274129E+03  0.11049452496E+04  0.89567495414E+03 0.  0.
        -24    2    4    4    0    0  0.25871691378E+03  0.71491282289E+02  0.40364345039E+03  0.49061333359E+03  0.75683308152E+02 0.  0.
         24    2    4    4    0    0 -0.18987728973E+03  0.54077404763E+03 -0.20600070911E+03  0.61433191605E+03  0.80482639007E+02 0.  0.
         13    1    3    3    0    0  0.20633434046E+02 -0.82804250467E+02 -0.17174387786E+02  0.87047355455E+02  0.00000000000E+00 0.  1.
        -13    1    3    3    0    0 -0.89473058098E+02 -0.52946107945E+03 -0.18305383942E+03  0.56731223405E+03  0.00000000000E+00 0. -1.
          4    1    6    6  502    0 -0.13496428227E+03  0.47003245363E+03 -0.17968753231E+03  0.52099277751E+03  0.00000000000E+00 0. -1.
          3    1    5    5  503    0  0.26374676924E+03  0.67032693387E+02  0.39489742078E+03  0.47958285333E+03  0.00000000000E+00 0. -1.
         -4    1    5    5    0  503 -0.50298554554E+01  0.44585889028E+01  0.87460296152E+01  0.11030480268E+02  0.00000000000E+00 0.  1.
         -3    1    6    6    0  502 -0.54913007459E+02  0.70741594003E+02 -0.26313176801E+02  0.93339138542E+02  0.00000000000E+00 0.  1.
<mgrwt>
<rscale>  0 0.17593029E+04</rscale>
<asrwt>0</asrwt>
<pdfrwt beam="1">  1        2 0.13513226E+00 0.17593029E+04</pdfrwt>
<pdfrwt beam="2">  1       -2 0.13553002E+00 0.17593029E+04</pdfrwt>
<totfact> 0.11219962E+01</totfact>
</mgrwt>
</event>
<event>
12    1  0.1477245E-007  0.1586295E+04  0.7818608E-02  0.8829012E-01
          2   -1    0    0  501    0  0.00000000000E+00  0.00000000000E+00  0.96949689693E+03  0.96949689693E+03  0.00000000000E+00 0. -1.
         -2   -1    0    0    0  501 -0.00000000000E+00 -0.00000000000E+00 -0.64887529701E+03  0.64887529701E+03  0.00000000000E+00 0.  1.
         23    2    1    2    0    0 -0.38826105366E+02  0.10913214248E+03  0.63497695757E+03  0.65126943661E+03  0.86826559459E+02 0.  0.
        254    2    1    2    0    0  0.38826105366E+02 -0.10913214248E+03 -0.31435535766E+03  0.96710275733E+03  0.90722167157E+03 0.  0.
        -24    2    4    4    0    0  0.73599457369E+02 -0.31414261529E+03 -0.54979769484E+03  0.64247208308E+03  0.79940036379E+02 0.  0.
         24    2    4    4    0    0 -0.34773352003E+02  0.20501047281E+03  0.23544233718E+03  0.32463067426E+03  0.81935954015E+02 0.  0.
         11    1    3    3    0    0 -0.49945543299E+02  0.64435720921E+02  0.23687746018E+03  0.25051437198E+03  0.00000000000E+00 0.  1.
        -11    1    3    3    0    0  0.11119437933E+02  0.44696421554E+02  0.39809949739E+03  0.40075506463E+03  0.00000000000E+00 0. -1.
          4    1    6    6  502    0  0.45115496732E+01  0.85856724643E+02  0.14981842662E+03  0.17273474521E+03  0.00000000000E+00 0. -1.
          3    1    5    5  503    0  0.49437460206E+02 -0.79189910867E+02 -0.19574449806E+03  0.21686634819E+03  0.00000000000E+00 0. -1.
         -2    1    5    5    0  503  0.24161997163E+02 -0.23495270442E+03 -0.35405319678E+03  0.42560573489E+03  0.00000000000E+00 0.  1.
         -3    1    6    6    0  502 -0.39284901676E+02  0.11915374817E+03  0.85623910557E+02  0.15189592905E+03  0.00000000000E+00 0.  1.
<mgrwt>
<rscale>  0 0.15862945E+04</rscale>
<asrwt>0</asrwt>
<pdfrwt beam="1">  1        2 0.14915337E+00 0.15862945E+04</pdfrwt>
<pdfrwt beam="2">  1       -2 0.99826968E-01 0.15862945E+04</pdfrwt>
<totfact> 0.20992868E+01</totfact>
</mgrwt>
</event>
<event>
12    1  0.1477245E-007  0.2740248E+04  0.7818608E-02  0.8322063E-01
          1   -1    0    0  501    0  0.00000000000E+00  0.00000000000E+00  0.35816876706E+04  0.35816876706E+04  0.00000000000E+00 0. -1.
         -1   -1    0    0    0  501 -0.00000000000E+00 -0.00000000000E+00 -0.52412151655E+03  0.52412151655E+03  0.00000000000E+00 0.  1.
         23    2    1    2    0    0  0.86342498649E+03 -0.31889511730E+03  0.16601287480E+03  0.93983637693E+03  0.92386891154E+02 0.  0.
        254    2    1    2    0    0 -0.86342498649E+03  0.31889511730E+03  0.28915532793E+04  0.31659728103E+04  0.90283257875E+03 0.  0.
        -24    2    4    4    0    0 -0.68831722374E+03 -0.80109606548E+02  0.24217682448E+04  0.25201945323E+04  0.78872679825E+02 0.  0.
         24    2    4    4    0    0 -0.17510776276E+03  0.39900472385E+03  0.46978503446E+03  0.64577827793E+03  0.80399672957E+02 0.  0.
         13    1    3    3    0    0  0.91407225906E+02 -0.20869785532E+02  0.43181410347E+02  0.10322530259E+03  0.00000000000E+00 0. -1.
        -13    1    3    3    0    0  0.77201776059E+03 -0.29802533177E+03  0.12283146446E+03  0.83661107433E+03  0.00000000000E+00 0.  1.
          2    1    6    6  502    0 -0.76192537685E+02  0.25270737267E+03  0.24701259001E+03  0.36149901608E+03  0.00000000000E+00 0. -1.
          1    1    5    5  503    0 -0.21531450183E+03 -0.28091803896E+02  0.63268059129E+03  0.66890523599E+03  0.00000000000E+00 0. -1.
         -2    1    5    5    0  503 -0.47300272191E+03 -0.52017802652E+02  0.17890876535E+04  0.18512892963E+04  0.00000000000E+00 0.  1.
         -1    1    6    6    0  502 -0.98915225074E+02  0.14629735117E+03  0.22277244445E+03  0.28427926185E+03  0.00000000000E+00 0.  1.
<mgrwt>
<rscale>  0 0.27402479E+04</rscale>
<asrwt>0</asrwt>
<pdfrwt beam="1">  1        1 0.55102886E+00 0.27402479E+04</pdfrwt>
<pdfrwt beam="2">  1       -1 0.80634082E-01 0.27402479E+04</pdfrwt>
<totfact> 0.28718598E-01</totfact>
</mgrwt>
</event>
<event>
12    1  0.1477245E-007  0.1044919E+04  0.7818608E-02  0.9260606E-01
          2   -1    0    0  501    0  0.00000000000E+00  0.00000000000E+00  0.11604207470E+04  0.11604207470E+04  0.00000000000E+00 0.  1.
         -2   -1    0    0    0  501 -0.00000000000E+00 -0.00000000000E+00 -0.23522845336E+03  0.23522845336E+03  0.00000000000E+00 0. -1.
         23    2    1    2    0    0 -0.41201106340E+02 -0.40744102212E+02  0.77861966417E+01  0.10883314342E+03  0.91795507618E+02 0.  0.
        254    2    1    2    0    0  0.41201106340E+02  0.40744102212E+02  0.91740609699E+03  0.12868160569E+04  0.90050208470E+03 0.  0.
        -24    2    4    4    0    0 -0.25725012974E+03  0.17489247886E+03  0.12627633934E+02  0.32141897942E+03  0.79910542344E+02 0.  0.
         24    2    4    4    0    0  0.29845123608E+03 -0.13414837665E+03  0.90477846305E+03  0.96539707751E+03  0.79363233192E+02 0.  0.
         11    1    3    3    0    0 -0.87689208589E+01 -0.62406841265E+02 -0.13429094485E+02  0.64434838313E+02  0.00000000000E+00 0. -1.
        -11    1    3    3    0    0 -0.32432185481E+02  0.21662739053E+02  0.21215291126E+02  0.44398305102E+02  0.00000000000E+00 0.  1.
          2    1    6    6  502    0  0.63067951058E+02  0.48575613905E+01  0.16183385941E+03  0.17375661255E+03  0.00000000000E+00 0. -1.
          3    1    5    5  503    0 -0.59486722903E+02  0.27639753405E+02  0.34087836062E+02  0.73922978413E+02  0.00000000000E+00 0. -1.
         -4    1    5    5    0  503 -0.19776340684E+03  0.14725272546E+03 -0.21460202128E+02  0.24749600101E+03  0.00000000000E+00 0.  1.
         -1    1    6    6    0  502  0.23538328502E+03 -0.13900593804E+03  0.74294460364E+03  0.79164046496E+03  0.00000000000E+00 0.  1.
<mgrwt>
<rscale>  0 0.10449191E+04</rscale>
<asrwt>0</asrwt>
<pdfrwt beam="1">  1        2 0.17852627E+00 0.10449191E+04</pdfrwt>
<pdfrwt beam="2">  1       -2 0.36188994E-01 0.10449191E+04</pdfrwt>
<totfact> 0.14302328E+02</totfact>
</mgrwt>
</event>
<event>
12    1  0.1477245E-007  0.1486384E+04  0.7818608E-02  0.8893558E-01
         -2   -1    0    0    0  501 -0.00000000000E+00  0.00000000000E+00  0.25579662182E+04  0.25579662182E+04  0.00000000000E+00 0.  1.
          2   -1    0    0  501    0  0.00000000000E+00 -0.00000000000E+00 -0.21592712020E+03  0.21592712020E+03  0.00000000000E+00 0. -1.
         23    2    1    2    0    0 -0.29054374754E+03  0.36887741521E+03  0.73421186290E+03  0.87613988012E+03  0.89821006533E+02 0.  0.
        254    2    1    2    0    0  0.29054374754E+03 -0.36887741521E+03  0.16078272350E+04  0.18977534582E+04  0.89211745517E+03 0.  0.
        -24    2    4    4    0    0  0.13857444747E+03 -0.50005572333E+03  0.37178035709E+03  0.64318462909E+03  0.78785971223E+02 0.  0.
         24    2    4    4    0    0  0.15196930007E+03  0.13117830812E+03  0.12360468780E+04  0.12545688291E+04  0.76345568773E+02 0.  0.
         11    1    3    3    0    0 -0.28791744431E+03  0.34925903095E+03  0.66705585140E+03  0.80612767867E+03  0.00000000000E+00 0.  1.
        -11    1    3    3    0    0 -0.26263032282E+01  0.19618384264E+02  0.67156011503E+02  0.70012201442E+02  0.00000000000E+00 0. -1.
          2    1    6    6  502    0  0.18827635639E+02  0.58200157698E+01  0.31076010823E+03  0.31138432413E+03  0.00000000000E+00 0. -1.
          3    1    5    5  503    0  0.28425362041E+02 -0.18580588124E+03  0.17244353992E+03  0.25508547816E+03  0.00000000000E+00 0. -1.
         -4    1    5    5    0  503  0.11014908543E+03 -0.31424984209E+03  0.19933681717E+03  0.38809915093E+03  0.00000000000E+00 0.  1.
         -1    1    6    6    0  502  0.13314166443E+03  0.12535829235E+03  0.92528676973E+03  0.94318450502E+03  0.00000000000E+00 0.  1.
<mgrwt>
<rscale>  0 0.14863839E+04</rscale>
<asrwt>0</asrwt>
<pdfrwt beam="1">  1        2 0.33219559E-01 0.14863839E+04</pdfrwt>
<pdfrwt beam="2">  1       -2 0.39353324E+00 0.14863839E+04</pdfrwt>
<totfact> 0.12675768E+00</totfact>
</mgrwt>
</event>
<event>
12    1  0.1477245E-007  0.1619126E+04  0.7818608E-02  0.8808884E-01
          1   -1    0    0  501    0  0.00000000000E+00  0.00000000000E+00  0.23562926663E+04  0.23562926663E+04  0.00000000000E+00 0. -1.
         -1   -1    0    0    0  501 -0.00000000000E+00 -0.00000000000E+00 -0.27814542131E+03  0.27814542131E+03  0.00000000000E+00 0.  1.
         23    2    1    2    0    0  0.18417881377E+03 -0.14233025764E+03 -0.10024478891E+03  0.26817831246E+03  0.87697502168E+02 0.  0.
        254    2    1    2    0    0 -0.18417881377E+03  0.14233025764E+03  0.21783920340E+04  0.23662597752E+04  0.89421123478E+03 0.  0.
        -24    2    4    4    0    0 -0.14160866957E+03 -0.30133440973E+03  0.15809901449E+04  0.16176194574E+04  0.79419322520E+02 0.  0.
         24    2    4    4    0    0 -0.42570144197E+02  0.44366466738E+03  0.59740188901E+03  0.74864031778E+03  0.70162341443E+02 0.  0.
         11    1    3    3    0    0  0.17047271303E+02 -0.39277710633E+01  0.14489423671E+02  0.22715198496E+02  0.00000000000E+00 0. -1.
        -11    1    3    3    0    0  0.16713154247E+03 -0.13840248658E+03 -0.11473421259E+03  0.24546311396E+03  0.00000000000E+00 0.  1.
          4    1    6    6  502    0 -0.19208935011E+02  0.23101905872E+03  0.25244514389E+03  0.34273508626E+03  0.00000000000E+00 0. -1.
          3    1    5    5  503    0 -0.50449251420E+00  0.46731327394E+01  0.12860274284E+02  0.13692309409E+02  0.00000000000E+00 0. -1.
         -4    1    5    5    0  503 -0.14110417706E+03 -0.30600754247E+03  0.15681298707E+04  0.16039271480E+04  0.00000000000E+00 0.  1.
         -3    1    6    6    0  502 -0.23361209186E+02  0.21264560866E+03  0.34495674512E+03  0.40590523152E+03  0.00000000000E+00 0.  1.
<mgrwt>
<rscale>  0 0.16191257E+04</rscale>
<asrwt>0</asrwt>
<pdfrwt beam="1">  1        1 0.36250655E+00 0.16191257E+04</pdfrwt>
<pdfrwt beam="2">  1       -1 0.42791605E-01 0.16191257E+04</pdfrwt>
<totfact> 0.87855477E+00</totfact>
</mgrwt>
</event>
<event>
12    1  0.1477245E-007  0.1878264E+04  0.7818608E-02  0.8665752E-01
         -2   -1    0    0    0  501 -0.00000000000E+00  0.00000000000E+00  0.83465012027E+03  0.83465012027E+03  0.00000000000E+00 0.  1.
          2   -1    0    0  501    0  0.00000000000E+00 -0.00000000000E+00 -0.10566928615E+04  0.10566928615E+04  0.00000000000E+00 0. -1.
         23    2    1    2    0    0 -0.12192378417E+03  0.59198001516E+03 -0.34633078994E+03  0.70236918894E+03  0.89842718269E+02 0.  0.
        254    2    1    2    0    0  0.12192378417E+03 -0.59198001516E+03  0.12428804873E+03  0.11889737928E+04  0.10163195430E+04 0.  0.
        -24    2    4    4    0    0 -0.33320661510E+03 -0.50961087301E+03  0.30522566806E+03  0.68581717964E+03  0.80328109776E+02 0.  0.
         24    2    4    4    0    0  0.45513039927E+03 -0.82369142148E+02 -0.18093761933E+03  0.50315661316E+03  0.80621333158E+02 0.  0.
         13    1    3    3    0    0 -0.91649771960E+02  0.36179530181E+03 -0.25915384980E+03  0.45437455803E+03  0.00000000000E+00 0. -1.
        -13    1    3    3    0    0 -0.30274012214E+02  0.23018471334E+03 -0.87176940136E+02  0.24799463092E+03  0.00000000000E+00 0.  1.
          4    1    6    6  502    0  0.79808546684E+02 -0.34759882734E+02 -0.60911180957E+02  0.10624417884E+03  0.00000000000E+00 0. -1.
          1    1    5    5  503    0 -0.19746207317E+03 -0.28162500309E+03  0.21469653878E+03  0.40546086922E+03  0.00000000000E+00 0. -1.
         -2    1    5    5    0  503 -0.13574454193E+03 -0.22798586992E+03  0.90529129279E+02  0.28035631042E+03  0.00000000000E+00 0.  1.
         -3    1    6    6    0  502  0.37532185259E+03 -0.47609259414E+02 -0.12002643837E+03  0.39691243432E+03  0.00000000000E+00 0.  1.
<mgrwt>
<rscale>  0 0.18782639E+04</rscale>
<asrwt>0</asrwt>
<pdfrwt beam="1">  1        2 0.16256813E+00 0.18782639E+04</pdfrwt>
<pdfrwt beam="2">  1       -2 0.12840771E+00 0.18782639E+04</pdfrwt>
<totfact> 0.97457916E+00</totfact>
</mgrwt>
</event>
<event>
12    1  0.1477245E-007  0.2170330E+04  0.7818608E-02  0.8530880E-01
         -1   -1    0    0    0  501 -0.00000000000E+00  0.00000000000E+00  0.11261732050E+04  0.11261732050E+04  0.00000000000E+00 0.  1.
          1   -1    0    0  501    0  0.00000000000E+00 -0.00000000000E+00 -0.10456497220E+04  0.10456497220E+04  0.00000000000E+00 0. -1.
         23    2    1    2    0    0 -0.46078778155E+03 -0.28255914664E+02  0.82580645964E+03  0.95050372555E+03  0.91527302837E+02 0.  0.
        254    2    1    2    0    0  0.46078778155E+03  0.28255914664E+02 -0.74528297659E+03  0.12213192014E+04  0.85032352678E+03 0.  0.
        -24    2    4    4    0    0  0.68472212885E+03  0.10876882399E+03 -0.64780616290E+03  0.95182882122E+03  0.75168007887E+02 0.  0.
         24    2    4    4    0    0 -0.22393434729E+03 -0.80512909326E+02 -0.97476813698E+02  0.26949038020E+03  0.80587935472E+02 0.  0.
         13    1    3    3    0    0 -0.17359421413E+03 -0.38508660935E+02  0.24777032821E+03  0.30497213593E+03  0.00000000000E+00 0. -1.
        -13    1    3    3    0    0 -0.28719356742E+03  0.10252746271E+02  0.57803613142E+03  0.64553158962E+03  0.00000000000E+00 0.  1.
          2    1    6    6  502    0 -0.15657746935E+03 -0.21734596149E+02 -0.39499568876E+02  0.16293898404E+03  0.00000000000E+00 0. -1.
          3    1    5    5  503    0  0.52591377454E+03  0.10312336436E+03 -0.53247053562E+03  0.75547640455E+03  0.00000000000E+00 0. -1.
         -4    1    5    5    0  503  0.15880835430E+03  0.56454596268E+01 -0.11533562727E+03  0.19635241666E+03  0.00000000000E+00 0.  1.
         -1    1    6    6    0  502 -0.67356877944E+02 -0.58778313176E+02 -0.57977244822E+02  0.10655139616E+03  0.00000000000E+00 0.  1.
<mgrwt>
<rscale>  0 0.21703297E+04</rscale>
<asrwt>0</asrwt>
<pdfrwt beam="1">  1        1 0.16086919E+00 0.21703297E+04</pdfrwt>
<pdfrwt beam="2">  1       -1 0.17325742E+00 0.21703297E+04</pdfrwt>
<totfact> 0.29691698E+00</totfact>
</mgrwt>
</event>
<event>
12    1  0.1477245E-007  0.1580018E+04  0.7818608E-02  0.8832919E-01
          2   -1    0    0  501    0  0.00000000000E+00  0.00000000000E+00  0.75456860467E+03  0.75456860467E+03  0.00000000000E+00 0.  1.
         -2   -1    0    0    0  501 -0.00000000000E+00 -0.00000000000E+00 -0.82711399885E+03  0.82711399885E+03  0.00000000000E+00 0. -1.
         23    2    1    2    0    0  0.23404043613E+03  0.24571571830E+03  0.37881630910E+03  0.51812567859E+03  0.99001428315E+02 0.  0.
        254    2    1    2    0    0 -0.23404043613E+03 -0.24571571830E+03 -0.45136170329E+03  0.10635569249E+04  0.90126289473E+03 0.  0.
        -24    2    4    4    0    0 -0.85542426887E+02 -0.25880968289E+03  0.22712073034E+03  0.36420431505E+03  0.82225289253E+02 0.  0.
         24    2    4    4    0    0 -0.14849800924E+03  0.13093964588E+02 -0.67848243363E+03  0.69935260988E+03  0.80824189150E+02 0.  0.
         13    1    3    3    0    0  0.21398110091E+03  0.16494332635E+03  0.29439901938E+03  0.39958102440E+03  0.00000000000E+00 0.  1.
        -13    1    3    3    0    0  0.20059335219E+02  0.80772391957E+02  0.84417289726E+02  0.11854465419E+03  0.00000000000E+00 0. -1.
          4    1    6    6  502    0 -0.16991337344E+02 -0.13742436526E+02 -0.29936822776E+02  0.37064450142E+02  0.00000000000E+00 0. -1.
          1    1    5    5  503    0 -0.79259901531E+02 -0.13502010914E+03  0.95425844906E+02  0.18335390298E+03  0.00000000000E+00 0. -1.
         -2    1    5    5    0  503 -0.62825253556E+01 -0.12378957375E+03  0.13169488543E+03  0.18085041206E+03  0.00000000000E+00 0.  1.
         -3    1    6    6    0  502 -0.13150667190E+03  0.26836401114E+02 -0.64854561085E+03  0.66228815974E+03  0.00000000000E+00 0.  1.
<mgrwt>
<rscale>  0 0.15800180E+04</rscale>
<asrwt>0</asrwt>
<pdfrwt beam="1">  1        2 0.11608748E+00 0.15800180E+04</pdfrwt>
<pdfrwt beam="2">  1       -2 0.12724831E+00 0.15800180E+04</pdfrwt>
<totfact> 0.16377470E+01</totfact>
</mgrwt>
</event>
<event>
12    1  0.1477245E-007  0.1367993E+04  0.7818608E-02  0.8977318E-01
         -2   -1    0    0    0  501 -0.00000000000E+00  0.00000000000E+00  0.25620567803E+03  0.25620567803E+03  0.00000000000E+00 0. -1.
          2   -1    0    0  501    0  0.00000000000E+00 -0.00000000000E+00 -0.18260775511E+04  0.18260775511E+04  0.00000000000E+00 0.  1.
         23    2    1    2    0    0 -0.55626177407E+02 -0.23009185069E+03 -0.80986218880E+03  0.84887668745E+03  0.93157577640E+02 0.  0.
        254    2    1    2    0    0  0.55626177407E+02  0.23009185069E+03 -0.76000968423E+03  0.12334065416E+04  0.94214672185E+03 0.  0.
        -24    2    4    4    0    0  0.38418108283E+03 -0.14774671822E+03 -0.53284152497E+03  0.67804270089E+03  0.79985100718E+02 0.  0.
         24    2    4    4    0    0 -0.32855490543E+03  0.37783856891E+03 -0.22716815926E+03  0.55536384076E+03  0.78187678113E+02 0.  0.
         11    1    3    3    0    0 -0.77072738188E+02 -0.20451665927E+03 -0.73719321299E+03  0.76890903504E+03  0.00000000000E+00 0.  1.
        -11    1    3    3    0    0  0.21446560781E+02 -0.25575191425E+02 -0.72668975818E+02  0.79967652411E+02  0.00000000000E+00 0. -1.
          4    1    6    6  502    0 -0.13217104365E+03  0.12512605337E+03 -0.46530481072E+02  0.18785845650E+03  0.00000000000E+00 0. -1.
          1    1    5    5  503    0  0.16985955506E+03 -0.35600446422E+02 -0.26874896634E+03  0.31991509364E+03  0.00000000000E+00 0. -1.
         -2    1    5    5    0  503  0.21432152777E+03 -0.11214627180E+03 -0.26409255863E+03  0.35812760724E+03  0.00000000000E+00 0.  1.
         -3    1    6    6    0  502 -0.19638386177E+03  0.25271251554E+03 -0.18063767819E+03  0.36750538426E+03  0.00000000000E+00 0.  1.
<mgrwt>
<rscale>  0 0.13679933E+04</rscale>
<asrwt>0</asrwt>
<pdfrwt beam="1">  1        2 0.28093500E+00 0.13679933E+04</pdfrwt>
<pdfrwt beam="2">  1       -2 0.39416259E-01 0.13679933E+04</pdfrwt>
<totfact> 0.49564240E+01</totfact>
</mgrwt>
</event>
<event>
12    1  0.1477245E-007  0.1444073E+04  0.7818608E-02  0.8922520E-01
          3   -1    0    0  501    0  0.00000000000E+00  0.00000000000E+00  0.72123464377E+03  0.72123464377E+03  0.00000000000E+00 0. -1.
         -3   -1    0    0    0  501 -0.00000000000E+00 -0.00000000000E+00 -0.72283922005E+03  0.72283922005E+03  0.00000000000E+00 0.  1.
         23    2    1    2    0    0 -0.14167003028E+03  0.41283259994E+03  0.50857596298E+02  0.44946121895E+03  0.94486714298E+02 0.  0.
        254    2    1    2    0    0  0.14167003028E+03 -0.41283259994E+03 -0.52462172583E+02  0.99461264488E+03  0.89218881451E+03 0.  0.
        -24    2    4    4    0    0  0.19018824721E+03 -0.51034937662E+03 -0.36081663201E+03  0.65813992396E+03  0.79570484379E+02 0.  0.
         24    2    4    4    0    0 -0.48518216929E+02  0.97516776672E+02  0.30835445942E+03  0.33647272092E+03  0.79169944855E+02 0.  0.
         13    1    3    3    0    0 -0.28155145550E+02  0.62347858640E+02  0.43324577536E+02  0.80975222856E+02  0.00000000000E+00 0. -1.
        -13    1    3    3    0    0 -0.11351488473E+03  0.35048474130E+03  0.75330187611E+01  0.36848599609E+03  0.00000000000E+00 0.  1.
          4    1    6    6  502    0 -0.12828271381E+02  0.36118743461E+01  0.12856713529E+01  0.13388918319E+02  0.00000000000E+00 0. -1.
          1    1    5    5  503    0  0.53421838342E+00 -0.81514580061E+02 -0.53746497430E+02  0.97640146138E+02  0.00000000000E+00 0. -1.
         -2    1    5    5    0  503  0.18965402883E+03 -0.42883479656E+03 -0.30707013458E+03  0.56049977782E+03  0.00000000000E+00 0.  1.
         -3    1    6    6    0  502 -0.35689945548E+02  0.93904902326E+02  0.30706878807E+03  0.32308380260E+03  0.00000000000E+00 0.  1.
<mgrwt>
<rscale>  0 0.14440730E+04</rscale>
<asrwt>0</asrwt>
<pdfrwt beam="1">  1        3 0.11095918E+00 0.14440730E+04</pdfrwt>
<pdfrwt beam="2">  1       -3 0.11120603E+00 0.14440730E+04</pdfrwt>
<totfact> 0.11811641E+00</totfact>
</mgrwt>
</event>
<event>
12    1  0.1477245E-007  0.1475566E+04  0.7818608E-02  0.8900866E-01
          2   -1    0    0  501    0  0.00000000000E+00  0.00000000000E+00  0.15866287442E+04  0.15866287442E+04  0.00000000000E+00 0. -1.
         -2   -1    0    0    0  501 -0.00000000000E+00 -0.00000000000E+00 -0.34306944753E+03  0.34306944753E+03  0.00000000000E+00 0.  1.
         23    2    1    2    0    0 -0.23864471634E+03 -0.93004073537E+02  0.91433371008E+03  0.95382066697E+03  0.90369646493E+02 0.  0.
        254    2    1    2    0    0  0.23864471634E+03  0.93004073537E+02  0.32922558657E+03  0.97587752474E+03  0.88223942222E+03 0.  0.
        -24    2    4    4    0    0  0.44371663607E+03  0.32880103490E+03  0.70971593917E+02  0.56253651405E+03  0.80098619346E+02 0.  0.
         24    2    4    4    0    0 -0.20507191973E+03 -0.23579696136E+03  0.25825399265E+03  0.41334101069E+03  0.80628575255E+02 0.  0.
         13    1    3    3    0    0 -0.18870944201E+03 -0.30977380971E+02  0.61249065934E+03  0.64165073008E+03  0.00000000000E+00 0. -1.
        -13    1    3    3    0    0 -0.49935274331E+02 -0.62026692566E+02  0.30184305074E+03  0.31216993689E+03  0.00000000000E+00 0.  1.
          4    1    6    6  502    0 -0.14874054031E+03 -0.11031085807E+03  0.14814890269E+03  0.23715043982E+03  0.00000000000E+00 0. -1.
          3    1    5    5  503    0  0.35662728219E+03  0.26774825459E+03  0.88768620961E+02  0.45469991677E+03  0.00000000000E+00 0. -1.
         -4    1    5    5    0  503  0.87089353879E+02  0.61052780311E+02 -0.17797027044E+02  0.10783659729E+03  0.00000000000E+00 0.  1.
         -3    1    6    6    0  502 -0.56331379420E+02 -0.12548610329E+03  0.11010508997E+03  0.17619057087E+03  0.00000000000E+00 0.  1.
<mgrwt>
<rscale>  0 0.14755661E+04</rscale>
<asrwt>0</asrwt>
<pdfrwt beam="1">  1        2 0.24409673E+00 0.14755661E+04</pdfrwt>
<pdfrwt beam="2">  1       -2 0.52779916E-01 0.14755661E+04</pdfrwt>
<totfact> 0.37182092E+01</totfact>
</mgrwt>
</event>
<event>
12    1  0.2443735E-007  0.2554735E+04  0.7818608E-02  0.8383741E-01
          2   -1    0    0  501    0  0.00000000000E+00  0.00000000000E+00  0.14928949767E+04  0.14928949767E+04  0.00000000000E+00 0. -1.
         -2   -1    0    0    0  501 -0.00000000000E+00 -0.00000000000E+00 -0.10929556618E+04  0.10929556618E+04  0.00000000000E+00 0.  1.
         23    2    1    2    0    0 -0.58974884374E+03  0.49701215912E+03  0.99227006304E+03  0.12607372228E+04  0.10016826838E+03 0.  0.
        254    2    1    2    0    0  0.58974884374E+03 -0.49701215912E+03 -0.59233074819E+03  0.13251134157E+04  0.90013613651E+03 0.  0.
        -24    2    4    4    0    0 -0.17072023177E+03  0.92831573018E+02 -0.42523174145E+02  0.21403408225E+03  0.78989046976E+02 0.  0.
         24    2    4    4    0    0  0.76046907551E+03 -0.58984373214E+03 -0.54980757405E+03  0.11110793335E+04  0.77330935811E+02 0.  0.
         13    1    3    3    0    0 -0.47925088794E+03  0.35979165242E+03  0.72486069613E+03  0.94050756272E+03  0.00000000000E+00 0. -1.
        -13    1    3    3    0    0 -0.11049795580E+03  0.13722050670E+03  0.26740936691E+03  0.32022966010E+03  0.00000000000E+00 0.  1.
          4    1    6    6  502    0  0.75079931886E+03 -0.56996615837E+03 -0.54348237308E+03  0.10880873718E+04  0.00000000000E+00 0. -1.
          1    1    5    5  503    0 -0.17861902335E+03  0.92863450697E+02 -0.37811581196E+02  0.20483674390E+03  0.00000000000E+00 0. -1.
         -2    1    5    5    0  503  0.78987915838E+01 -0.31877678797E-01 -0.47115929491E+01  0.91973383535E+01  0.00000000000E+00 0.  1.
         -3    1    6    6    0  502  0.96697566446E+01 -0.19877573775E+02 -0.63252009680E+01  0.22991961639E+02  0.00000000000E+00 0.  1.
<mgrwt>
<rscale>  0 0.25547352E+04</rscale>
<asrwt>0</asrwt>
<pdfrwt beam="1">  1        2 0.22967615E+00 0.25547352E+04</pdfrwt>
<pdfrwt beam="2">  1       -2 0.16814702E+00 0.25547352E+04</pdfrwt>
<totfact> 0.24998577E+00</totfact>
</mgrwt>
</event>
<event>
12    1  0.1477245E-007  0.1648323E+04  0.7818608E-02  0.8791399E-01
         -2   -1    0    0    0  501 -0.00000000000E+00  0.00000000000E+00  0.88377125486E+03  0.88377125486E+03  0.00000000000E+00 0. -1.
          2   -1    0    0  501    0  0.00000000000E+00 -0.00000000000E+00 -0.76857234202E+03  0.76857234202E+03  0.00000000000E+00 0.  1.
         23    2    1    2    0    0  0.47743894615E+03 -0.19004186799E+03 -0.21766876818E+03  0.56555111203E+03  0.91676108074E+02 0.  0.
        254    2    1    2    0    0 -0.47743894615E+03  0.19004186799E+03  0.33286768102E+03  0.10867924849E+04  0.89791600564E+03 0.  0.
        -24    2    4    4    0    0 -0.68071479493E+03  0.34466261442E+03  0.23529020772E+03  0.80217056766E+03  0.77143943108E+02 0.  0.
         24    2    4    4    0    0  0.20327584879E+03 -0.15462074643E+03  0.97577473304E+02  0.28462191719E+03  0.79117801554E+02 0.  0.
         11    1    3    3    0    0  0.22281493679E+01 -0.86874871125E+01 -0.16095222219E+02  0.18425342879E+02  0.00000000000E+00 0. -1.
        -11    1    3    3    0    0  0.47521079678E+03 -0.18135438088E+03 -0.20157354596E+03  0.54712576915E+03  0.00000000000E+00 0.  1.
          2    1    6    6  502    0  0.13747579843E+03 -0.14004663618E+03  0.92733409456E+02  0.21705331301E+03  0.00000000000E+00 0. -1.
          3    1    5    5  503    0 -0.50477438997E+03  0.25752613812E+03  0.13888594595E+03  0.58344340134E+03  0.00000000000E+00 0. -1.
         -4    1    5    5    0  503 -0.17594040496E+03  0.87136476301E+02  0.96404261773E+02  0.21872716632E+03  0.00000000000E+00 0.  1.
         -3    1    6    6    0  502  0.65800050351E+02 -0.14574110247E+02  0.48440638485E+01  0.67568604176E+02  0.00000000000E+00 0.  1.
<mgrwt>
<rscale>  0 0.16483230E+04</rscale>
<asrwt>0</asrwt>
<pdfrwt beam="1">  1        2 0.11824190E+00 0.16483230E+04</pdfrwt>
<pdfrwt beam="2">  1       -2 0.13596481E+00 0.16483230E+04</pdfrwt>
<totfact> 0.13438482E+01</totfact>
</mgrwt>
</event>
<event>
12    1  0.1477245E-007  0.1437379E+04  0.7818608E-02  0.8927197E-01
          1   -1    0    0  501    0  0.00000000000E+00  0.00000000000E+00  0.37811579912E+04  0.37811579912E+04  0.00000000000E+00 0. -1.
         -1   -1    0    0    0  501 -0.00000000000E+00 -0.00000000000E+00 -0.13660228903E+03  0.13660228903E+03  0.00000000000E+00 0.  1.
         23    2    1    2    0    0 -0.18388000665E+03  0.75363479690E+02  0.66880401870E+02  0.23533462323E+03  0.10685450771E+03 0.  0.
        254    2    1    2    0    0  0.18388000665E+03 -0.75363479690E+02  0.35776753003E+04  0.36824256570E+04  0.84912110684E+03 0.  0.
        -24    2    4    4    0    0  0.24285934345E+03 -0.12064640643E+03  0.35593426460E+04  0.35705154423E+04  0.78257496391E+02 0.  0.
         24    2    4    4    0    0 -0.58979336800E+02  0.45282926741E+02  0.18332654298E+02  0.11191021474E+03  0.81600884341E+02 0.  0.
         13    1    3    3    0    0 -0.14223831043E+03  0.93677259504E+02  0.22523895352E+02  0.17179782235E+03  0.00000000000E+00 0.  1.
        -13    1    3    3    0    0 -0.41641696227E+02 -0.18313779814E+02  0.44356506517E+02  0.63536800881E+02  0.00000000000E+00 0. -1.
          2    1    6    6  502    0 -0.24917202198E+02 -0.23109539788E+02  0.49808597866E+01  0.34347150665E+02  0.00000000000E+00 0. -1.
          3    1    5    5  503    0  0.11960823129E+03 -0.18033925631E+02  0.16735190361E+04  0.16778847743E+04  0.00000000000E+00 0. -1.
         -4    1    5    5    0  503  0.12325111216E+03 -0.10261248080E+03  0.18858236099E+04  0.18926306680E+04  0.00000000000E+00 0.  1.
         -1    1    6    6    0  502 -0.34062134602E+02  0.68392466529E+02  0.13351794512E+02  0.77563064072E+02  0.00000000000E+00 0.  1.
<mgrwt>
<rscale>  0 0.14373793E+04</rscale>
<asrwt>0</asrwt>
<pdfrwt beam="1">  1        1 0.58171653E+00 0.14373793E+04</pdfrwt>
<pdfrwt beam="2">  1       -1 0.21015740E-01 0.14373793E+04</pdfrwt>
<totfact> 0.27530112E+00</totfact>
</mgrwt>
</event>
<event>
12    1  0.1477245E-007  0.3832111E+04  0.7818608E-02  0.8039299E-01
         -2   -1    0    0    0  501 -0.00000000000E+00  0.00000000000E+00  0.14604805330E+04  0.14604805330E+04  0.00000000000E+00 0.  1.
          2   -1    0    0  501    0  0.00000000000E+00 -0.00000000000E+00 -0.25137402542E+04  0.25137402542E+04  0.00000000000E+00 0. -1.
         23    2    1    2    0    0  0.78054702020E+03  0.12163876923E+03  0.11914308544E+04  0.14320749171E+04  0.85331391128E+02 0.  0.
        254    2    1    2    0    0 -0.78054702020E+03 -0.12163876923E+03 -0.22446905756E+04  0.25421458702E+04  0.89432667634E+03 0.  0.
        -24    2    4    4    0    0 -0.61114809950E+02 -0.86042073240E+02 -0.14897934105E+04  0.14956699246E+04  0.80036610789E+02 0.  0.
         24    2    4    4    0    0 -0.71943221025E+03 -0.35596695994E+02 -0.75489716511E+03  0.10464759455E+04  0.79952140707E+02 0.  0.
         13    1    3    3    0    0  0.46208698734E+03  0.99763753609E+02  0.65344085910E+03  0.80651233514E+03  0.00000000000E+00 0. -1.
        -13    1    3    3    0    0  0.31846003286E+03  0.21875015624E+02  0.53798999530E+03  0.62556258191E+03  0.00000000000E+00 0.  1.
          2    1    6    6  502    0 -0.71465459872E+03 -0.40433632256E+02 -0.73728363360E+03  0.10275958498E+04  0.00000000000E+00 0. -1.
          3    1    5    5  503    0 -0.80611888024E+02 -0.71112585743E+02 -0.11645106402E+04  0.11694615460E+04  0.00000000000E+00 0. -1.
         -4    1    5    5    0  503  0.19497078074E+02 -0.14929487497E+02 -0.32528277027E+03  0.32620837863E+03  0.00000000000E+00 0.  1.
         -1    1    6    6    0  502 -0.47776115352E+01  0.48369362616E+01 -0.17613531512E+02  0.18880095782E+02  0.00000000000E+00 0.  1.
<mgrwt>
<rscale>  0 0.38321110E+04</rscale>
<asrwt>0</asrwt>
<pdfrwt beam="1">  1        2 0.38672927E+00 0.38321110E+04</pdfrwt>
<pdfrwt beam="2">  1       -2 0.22468931E+00 0.38321110E+04</pdfrwt>
<totfact> 0.25231686E-01</totfact>
</mgrwt>
</event>
<event>
12    1  0.1477245E-007  0.1596970E+04  0.7818608E-02  0.8822412E-01
          3   -1    0    0  501    0  0.00000000000E+00  0.00000000000E+00  0.75463123050E+03  0.75463123050E+03  0.00000000000E+00 0. -1.
         -3   -1    0    0    0  501 -0.00000000000E+00 -0.00000000000E+00 -0.84488699431E+03  0.84488699431E+03  0.00000000000E+00 0.  1.
         23    2    1    2    0    0 -0.38950113485E+03  0.51707950050E+02 -0.30139010198E+03  0.50353899160E+03  0.91272538834E+02 0.  0.
        254    2    1    2    0    0  0.38950113485E+03 -0.51707950050E+02  0.21113433817E+03  0.10959792332E+04  0.10011033537E+04 0.  0.
        -24    2    4    4    0    0 -0.69536707029E+02 -0.44291669559E+03  0.10509183294E+02  0.45553001067E+03  0.79916173765E+02 0.  0.
         24    2    4    4    0    0  0.45903784188E+03  0.39120874554E+03  0.20062515488E+03  0.64044922254E+03  0.78515801090E+02 0.  0.
         13    1    3    3    0    0 -0.34444363462E+03  0.15155459384E+02 -0.24814453242E+03  0.42479031810E+03  0.00000000000E+00 0.  1.
        -13    1    3    3    0    0 -0.45057500224E+02  0.36552490666E+02 -0.53245569561E+02  0.78748673501E+02  0.00000000000E+00 0. -1.
          2    1    6    6  502    0  0.43291234709E+03  0.36977707176E+03  0.20748453683E+03  0.60596865933E+03  0.00000000000E+00 0. -1.
          3    1    5    5  503    0 -0.71971208316E+02 -0.43863712521E+03  0.64224486369E+00  0.44450286266E+03  0.00000000000E+00 0. -1.
         -4    1    5    5    0  503  0.24345012867E+01 -0.42795703836E+01  0.98669384301E+01  0.11027148007E+02  0.00000000000E+00 0.  1.
         -1    1    6    6    0  502  0.26125494784E+02  0.21431673778E+02 -0.68593819499E+01  0.34480563211E+02  0.00000000000E+00 0.  1.
<mgrwt>
<rscale>  0 0.15969698E+04</rscale>
<asrwt>0</asrwt>
<pdfrwt beam="1">  1        3 0.11609711E+00 0.15969698E+04</pdfrwt>
<pdfrwt beam="2">  1       -3 0.12998261E+00 0.15969698E+04</pdfrwt>
<totfact> 0.71547673E-01</totfact>
</mgrwt>
</event>
<event>
12    1  0.1477245E-007  0.1776285E+04  0.7818608E-02  0.8719014E-01
         -1   -1    0    0    0  501 -0.00000000000E+00  0.00000000000E+00  0.72948908499E+03  0.72948908499E+03  0.00000000000E+00 0.  1.
          1   -1    0    0  501    0  0.00000000000E+00 -0.00000000000E+00 -0.10813003988E+04  0.10813003988E+04  0.00000000000E+00 0. -1.
         23    2    1    2    0    0 -0.14254832437E+03  0.56499568052E+03  0.20202795014E+03  0.62342843130E+03  0.91145886002E+02 0.  0.
        254    2    1    2    0    0  0.14254832437E+03 -0.56499568052E+03 -0.55383926394E+03  0.11873610525E+04  0.87381244835E+03 0.  0.
        -24    2    4    4    0    0  0.93636386302E+02 -0.77273464166E+03 -0.55582861517E+03  0.95976965265E+03  0.79534504759E+02 0.  0.
         24    2    4    4    0    0  0.48911938067E+02  0.20773896114E+03  0.19893512347E+01  0.22759139983E+03  0.79031854953E+02 0.  0.
         11    1    3    3    0    0 -0.52992816361E+02  0.34248446075E+03  0.86463581459E+02  0.35718313980E+03  0.00000000000E+00 0. -1.
        -11    1    3    3    0    0 -0.89555508007E+02  0.22251121977E+03  0.11556436868E+03  0.26624529150E+03  0.00000000000E+00 0.  1.
          4    1    6    6  502    0  0.11006400137E+02 -0.33626966469E+01  0.61996069949E+01  0.13072249217E+02  0.00000000000E+00 0. -1.
          1    1    5    5  503    0  0.33538848039E+02 -0.13950264392E+03 -0.71605662311E+02  0.16035339991E+03  0.00000000000E+00 0. -1.
         -2    1    5    5    0  503  0.60097538262E+02 -0.63323199774E+03 -0.48422295286E+03  0.79941625274E+03  0.00000000000E+00 0.  1.
         -3    1    6    6    0  502  0.37905537930E+02  0.21110165779E+03 -0.42102557601E+01  0.21451915061E+03  0.00000000000E+00 0.  1.
<mgrwt>
<rscale>  0 0.17762847E+04</rscale>
<asrwt>0</asrwt>
<pdfrwt beam="1">  1        1 0.16635391E+00 0.17762847E+04</pdfrwt>
<pdfrwt beam="2">  1       -1 0.11222909E+00 0.17762847E+04</pdfrwt>
<totfact> 0.90133893E+00</totfact>
</mgrwt>
</event>
<event>
12    1  0.1477245E-007  0.2526316E+04  0.7818608E-02  0.8393670E-01
          1   -1    0    0  501    0  0.00000000000E+00  0.00000000000E+00  0.14495599741E+04  0.14495599741E+04  0.00000000000E+00 0. -1.
         -1   -1    0    0    0  501 -0.00000000000E+00 -0.00000000000E+00 -0.11007260141E+04  0.11007260141E+04  0.00000000000E+00 0.  1.
         23    2    1    2    0    0 -0.82052097116E+03 -0.72231600008E+03  0.19241958120E+02  0.10971898324E+04  0.91979384566E+02 0.  0.
        254    2    1    2    0    0  0.82052097116E+03  0.72231600008E+03  0.32959200180E+03  0.14530961559E+04  0.89881170579E+03 0.  0.
        -24    2    4    4    0    0  0.32774639967E+03 -0.17797983891E+03  0.14016612943E+03  0.40603282467E+03  0.78240560577E+02 0.  0.
         24    2    4    4    0    0  0.49277457149E+03  0.90029583899E+03  0.18942587237E+03  0.10470633312E+04  0.84261986697E+02 0.  0.
         13    1    3    3    0    0 -0.48743474783E+03 -0.46658539833E+03 -0.22921640754E+02  0.67514440600E+03  0.00000000000E+00 0.  1.
        -13    1    3    3    0    0 -0.33308622333E+03 -0.25573060174E+03  0.42163598875E+02  0.42204542636E+03  0.00000000000E+00 0. -1.
          4    1    6    6  502    0  0.34388450976E+03  0.59522294640E+03  0.16357114556E+03  0.70661335370E+03  0.00000000000E+00 0. -1.
          3    1    5    5  503    0  0.26372448095E+03 -0.10789610414E+03  0.11890850840E+03  0.30875784122E+03  0.00000000000E+00 0. -1.
         -4    1    5    5    0  503  0.64021918717E+02 -0.70083734765E+02  0.21257621029E+02  0.97274983457E+02  0.00000000000E+00 0.  1.
         -3    1    6    6    0  502  0.14889006173E+03  0.30507289259E+03  0.25854726806E+02  0.34044997749E+03  0.00000000000E+00 0.  1.
<mgrwt>
<rscale>  0 0.25263162E+04</rscale>
<asrwt>0</asrwt>
<pdfrwt beam="1">  1        1 0.22300923E+00 0.25263162E+04</pdfrwt>
<pdfrwt beam="2">  1       -1 0.16934246E+00 0.25263162E+04</pdfrwt>
<totfact> 0.15643517E+00</totfact>
</mgrwt>
</event>
<event>
12    1  0.1477245E-007  0.2513289E+04  0.7818608E-02  0.8398267E-01
         -2   -1    0    0    0  501 -0.00000000000E+00  0.00000000000E+00  0.47362659562E+03  0.47362659562E+03  0.00000000000E+00 0.  1.
          2   -1    0    0  501    0  0.00000000000E+00 -0.00000000000E+00 -0.33341773507E+04  0.33341773507E+04  0.00000000000E+00 0. -1.
         23    2    1    2    0    0  0.66556734653E+03  0.77690758481E+03 -0.77452518063E+03  0.12863726153E+04  0.91104126683E+02 0.  0.
        254    2    1    2    0    0 -0.66556734653E+03 -0.77690758481E+03 -0.20860255745E+04  0.25214313310E+04  0.97956519522E+03 0.  0.
        -24    2    4    4    0    0 -0.53618652548E+01 -0.36813606981E+03 -0.10219347398E+03  0.38968910301E+03  0.76558313672E+02 0.  0.
         24    2    4    4    0    0 -0.66020548127E+03 -0.40877151500E+03 -0.19838321005E+04  0.21317422280E+04  0.75958507173E+02 0.  0.
         11    1    3    3    0    0  0.10542231970E+03  0.88866734306E+02 -0.78072873532E+02  0.15845041981E+03  0.00000000000E+00 0. -1.
        -11    1    3    3    0    0  0.56014502683E+03  0.68804085050E+03 -0.69645230710E+03  0.11279221955E+04  0.00000000000E+00 0.  1.
          2    1    6    6  502    0 -0.57551837886E+03 -0.38264883117E+03 -0.17810269806E+04  0.19104184458E+04  0.00000000000E+00 0. -1.
          1    1    5    5  503    0  0.21488882094E+02 -0.31802272582E+03 -0.79806399892E+02  0.32858680383E+03  0.00000000000E+00 0. -1.
         -2    1    5    5    0  503 -0.26850747349E+02 -0.50113343989E+02 -0.22387074084E+02  0.61102299180E+02  0.00000000000E+00 0.  1.
         -1    1    6    6    0  502 -0.84687102417E+02 -0.26122683833E+02 -0.20280511987E+03  0.22132378221E+03  0.00000000000E+00 0.  1.
<mgrwt>
<rscale>  0 0.25132887E+04</rscale>
<asrwt>0</asrwt>
<pdfrwt beam="1">  1        2 0.51295035E+00 0.25132887E+04</pdfrwt>
<pdfrwt beam="2">  1       -2 0.72865631E-01 0.25132887E+04</pdfrwt>
<totfact> 0.16035174E+00</totfact>
</mgrwt>
</event>
<event>
12    1  0.1477245E-007  0.1118214E+04  0.7818608E-02  0.9187619E-01
         -1   -1    0    0    0  501 -0.00000000000E+00  0.00000000000E+00  0.16808178330E+03  0.16808178330E+03  0.00000000000E+00 0.  1.
          1   -1    0    0  501    0  0.00000000000E+00 -0.00000000000E+00 -0.18598133402E+04  0.18598133402E+04  0.00000000000E+00 0. -1.
         23    2    1    2    0    0  0.69813962749E+01 -0.92158938490E+02 -0.19711889598E+02  0.13009765570E+03  0.89413822143E+02 0.  0.
        254    2    1    2    0    0 -0.69813962749E+01  0.92158938490E+02 -0.16720196673E+04  0.18977974678E+04  0.89299689309E+03 0.  0.
        -24    2    4    4    0    0 -0.19632668623E+03 -0.35001773947E+03 -0.78857902534E+03  0.88845819503E+03  0.80277639796E+02 0.  0.
         24    2    4    4    0    0  0.18934528996E+03  0.44217667796E+03 -0.88344064195E+03  0.10093392727E+04  0.83225875140E+02 0.  0.
         11    1    3    3    0    0 -0.30499507344E+02 -0.33451061908E+02 -0.36847086134E+02  0.58368666659E+02  0.00000000000E+00 0. -1.
        -11    1    3    3    0    0  0.37480903619E+02 -0.58707876582E+02  0.17135196536E+02  0.71728989043E+02  0.00000000000E+00 0.  1.
          4    1    6    6  502    0  0.91771176719E+02  0.25874394734E+03 -0.57858688930E+03  0.64041640176E+03  0.00000000000E+00 0. -1.
          1    1    5    5  503    0 -0.84778695880E+02 -0.11026029235E+03 -0.34584182976E+03  0.37276176112E+03  0.00000000000E+00 0. -1.
         -2    1    5    5    0  503 -0.11154799035E+03 -0.23975744712E+03 -0.44273719558E+03  0.51569643391E+03  0.00000000000E+00 0.  1.
         -3    1    6    6    0  502  0.97574113236E+02  0.18343273061E+03 -0.30485375264E+03  0.36892287098E+03  0.00000000000E+00 0.  1.
<mgrwt>
<rscale>  0 0.11182142E+04</rscale>
<asrwt>0</asrwt>
<pdfrwt beam="1">  1        1 0.28612514E+00 0.11182142E+04</pdfrwt>
<pdfrwt beam="2">  1       -1 0.25858735E-01 0.11182142E+04</pdfrwt>
<totfact> 0.48878557E+01</totfact>
</mgrwt>
</event>
<event>
12    1  0.1477245E-007  0.1554603E+04  0.7818608E-02  0.8848933E-01
          2   -1    0    0  501    0  0.00000000000E+00  0.00000000000E+00  0.34958831016E+04  0.34958831016E+04  0.00000000000E+00 0. -1.
         -2   -1    0    0    0  501 -0.00000000000E+00 -0.00000000000E+00 -0.17283121323E+03  0.17283121323E+03  0.00000000000E+00 0.  1.
         23    2    1    2    0    0  0.11639580707E+03  0.29859238835E+03  0.16885600442E+03  0.37277288291E+03  0.87987918019E+02 0.  0.
        254    2    1    2    0    0 -0.11639580707E+03 -0.29859238835E+03  0.31541958840E+04  0.32959414319E+04  0.90087338181E+03 0.  0.
        -24    2    4    4    0    0  0.20040582554E+03 -0.13705215089E+03  0.27086018069E+04  0.27206240975E+04  0.79535810052E+02 0.  0.
         24    2    4    4    0    0 -0.31680163261E+03 -0.16154023746E+03  0.44559407711E+03  0.57531733439E+03  0.77313847098E+02 0.  0.
         13    1    3    3    0    0  0.19233878381E+02  0.51247678062E+02  0.70851359373E+02  0.89533131908E+02  0.00000000000E+00 0. -1.
        -13    1    3    3    0    0  0.97161928689E+02  0.24734471029E+03  0.98004645045E+02  0.28323975100E+03  0.00000000000E+00 0.  1.
          4    1    6    6  502    0 -0.60734896515E+02 -0.65992016528E+02  0.93026396924E+02  0.12921913335E+03  0.00000000000E+00 0. -1.
          1    1    5    5  503    0  0.19586841917E+01 -0.28594646234E+02  0.24768272183E+03  0.24933555889E+03  0.00000000000E+00 0. -1.
         -2    1    5    5    0  503  0.19844714134E+03 -0.10845750466E+03  0.24609190850E+04  0.24712885387E+04  0.00000000000E+00 0.  1.
         -3    1    6    6    0  502 -0.25606673609E+03 -0.95548220933E+02  0.35256768018E+03  0.44609820103E+03  0.00000000000E+00 0.  1.
<mgrwt>
<rscale>  0 0.15546031E+04</rscale>
<asrwt>0</asrwt>
<pdfrwt beam="1">  1        2 0.53782811E+00 0.15546031E+04</pdfrwt>
<pdfrwt beam="2">  1       -2 0.26589420E-01 0.15546031E+04</pdfrwt>
<totfact> 0.10226068E+01</totfact>
</mgrwt>
</event>
<event>
12    1  0.1477245E-007  0.1904306E+04  0.7818608E-02  0.8652716E-01
          3   -1    0    0  501    0  0.00000000000E+00  0.00000000000E+00  0.77075486527E+03  0.77075486527E+03  0.00000000000E+00 0. -1.
         -3   -1    0    0    0  501 -0.00000000000E+00 -0.00000000000E+00 -0.11762429767E+04  0.11762429767E+04  0.00000000000E+00 0.  1.
         23    2    1    2    0    0 -0.39306657976E+03 -0.15905167295E+03  0.45004652044E+03  0.62475771460E+03  0.89339580202E+02 0.  0.
        254    2    1    2    0    0  0.39306657976E+03  0.15905167295E+03 -0.85553463185E+03  0.13222401273E+04  0.91464784331E+03 0.  0.
        -24    2    4    4    0    0  0.36871781468E+03  0.47223533981E+03 -0.78544324300E+03  0.99105795542E+03  0.79471630191E+02 0.  0.
         24    2    4    4    0    0  0.24348765083E+02 -0.31318366686E+03 -0.70091388848E+02  0.33118217192E+03  0.78050987590E+02 0.  0.
         13    1    3    3    0    0 -0.27050178618E+02  0.52510883515E+01  0.10107305348E+02  0.29350361387E+02  0.00000000000E+00 0.  1.
        -13    1    3    3    0    0 -0.36601640114E+03 -0.16430276130E+03  0.43993921509E+03  0.59540735321E+03  0.00000000000E+00 0. -1.
          2    1    6    6  502    0 -0.11349042321E+02 -0.15080325416E+03 -0.12487813077E+01  0.15123485604E+03  0.00000000000E+00 0. -1.
          1    1    5    5  503    0  0.22718003173E+03  0.23026781997E+03 -0.39900169427E+03  0.51365006352E+03  0.00000000000E+00 0. -1.
         -2    1    5    5    0  503  0.14153778295E+03  0.24196751984E+03 -0.38644154874E+03  0.47740789190E+03  0.00000000000E+00 0.  1.
         -1    1    6    6    0  502  0.35697807404E+02 -0.16238041269E+03 -0.68842607541E+02  0.17994731588E+03  0.00000000000E+00 0.  1.
<mgrwt>
<rscale>  0 0.19043056E+04</rscale>
<asrwt>0</asrwt>
<pdfrwt beam="1">  1        3 0.11857767E+00 0.19043056E+04</pdfrwt>
<pdfrwt beam="2">  1       -3 0.18096046E+00 0.19043056E+04</pdfrwt>
<totfact> 0.27800030E-01</totfact>
</mgrwt>
</event>
<event>
12    1  0.1477245E-007  0.1412774E+04  0.7818608E-02  0.8944623E-01
         -1   -1    0    0    0  501 -0.00000000000E+00  0.00000000000E+00  0.64196202819E+03  0.64196202819E+03  0.00000000000E+00 0.  1.
          1   -1    0    0  501    0  0.00000000000E+00 -0.00000000000E+00 -0.77727774383E+03  0.77727774383E+03  0.00000000000E+00 0. -1.
         23    2    1    2    0    0  0.15277300322E+03  0.38581775953E+03 -0.31350792519E+02  0.42471763613E+03  0.84895607463E+02 0.  0.
        254    2    1    2    0    0 -0.15277300322E+03 -0.38581775953E+03 -0.10396492313E+03  0.99452213589E+03  0.89781436804E+03 0.  0.
        -24    2    4    4    0    0 -0.21913712218E+02 -0.48363372642E+03 -0.40909633374E+03  0.63879152712E+03  0.79454469533E+02 0.  0.
         24    2    4    4    0    0 -0.13085929101E+03  0.97815966890E+02  0.30513141061E+03  0.35573060877E+03  0.82139946735E+02 0.  0.
         13    1    3    3    0    0  0.45213523695E+02  0.19825358088E+03 -0.44302545243E+02  0.20811405664E+03  0.00000000000E+00 0. -1.
        -13    1    3    3    0    0  0.10755947953E+03  0.18756417865E+03  0.12951752724E+02  0.21660357949E+03  0.00000000000E+00 0.  1.
          4    1    6    6  502    0 -0.12892946534E+03  0.84363770494E+02  0.30547858665E+03  0.34213625898E+03  0.00000000000E+00 0. -1.
          1    1    5    5  503    0 -0.51858099763E+02 -0.33153871344E+03 -0.27701578751E+03  0.43513782592E+03  0.00000000000E+00 0. -1.
         -2    1    5    5    0  503  0.29944387546E+02 -0.15209501298E+03 -0.13208054623E+03  0.20365370120E+03  0.00000000000E+00 0.  1.
         -3    1    6    6    0  502 -0.19298256696E+01  0.13452196396E+02 -0.34717603914E+00  0.13594349789E+02  0.00000000000E+00 0.  1.
<mgrwt>
<rscale>  0 0.14127743E+04</rscale>
<asrwt>0</asrwt>
<pdfrwt beam="1">  1        1 0.11958119E+00 0.14127743E+04</pdfrwt>
<pdfrwt beam="2">  1       -1 0.98763389E-01 0.14127743E+04</pdfrwt>
<totfact> 0.22123679E+01</totfact>
</mgrwt>
</event>
<event>
12    1  0.1477245E-007  0.1598522E+04  0.7818608E-02  0.8821457E-01
         -1   -1    0    0    0  501 -0.00000000000E+00  0.00000000000E+00  0.27991327267E+03  0.27991327267E+03  0.00000000000E+00 0.  1.
          1   -1    0    0  501    0  0.00000000000E+00 -0.00000000000E+00 -0.22821990689E+04  0.22821990689E+04  0.00000000000E+00 0. -1.
         23    2    1    2    0    0 -0.43433532022E+01 -0.48924652555E+03 -0.10275316696E+04  0.11423586013E+04  0.98898000763E+02 0.  0.
        254    2    1    2    0    0  0.43433532022E+01  0.48924652555E+03 -0.97475412669E+03  0.14197537403E+04  0.90894116866E+03 0.  0.
        -24    2    4    4    0    0 -0.37073295647E+03  0.52482423814E+03 -0.62882177242E+03  0.90223488661E+03  0.75680665990E+02 0.  0.
         24    2    4    4    0    0  0.37507630968E+03 -0.35577712590E+02 -0.34593235428E+03  0.51751885368E+03  0.78794406302E+02 0.  0.
         13    1    3    3    0    0  0.61641375472E+01 -0.40548343541E+03 -0.92179543958E+03  0.10070559296E+04  0.00000000000E+00 0. -1.
        -13    1    3    3    0    0 -0.10507490749E+02 -0.83763090139E+02 -0.10573622998E+03  0.13530267168E+03  0.00000000000E+00 0.  1.
          2    1    6    6  502    0  0.69621839095E+02 -0.38209563030E+02 -0.73903527432E+02  0.10848457288E+03  0.00000000000E+00 0. -1.
          1    1    5    5  503    0 -0.24853503311E+02  0.47645868213E+02 -0.27910299300E+02  0.60554192189E+02  0.00000000000E+00 0. -1.
         -2    1    5    5    0  503 -0.34587945316E+03  0.47717836992E+03 -0.60091147312E+03  0.84168069442E+03  0.00000000000E+00 0.  1.
         -1    1    6    6    0  502  0.30545447058E+03  0.26318504403E+01 -0.27202882684E+03  0.40903428080E+03  0.00000000000E+00 0.  1.
<mgrwt>
<rscale>  0 0.15985216E+04</rscale>
<asrwt>0</asrwt>
<pdfrwt beam="1">  1        1 0.35110756E+00 0.15985216E+04</pdfrwt>
<pdfrwt beam="2">  1       -1 0.43063579E-01 0.15985216E+04</pdfrwt>
<totfact> 0.97760915E+00</totfact>
</mgrwt>
</event>
<event>
12    1  0.1477245E-007  0.1220109E+04  0.7818608E-02  0.9095435E-01
         -2   -1    0    0    0  501 -0.00000000000E+00  0.00000000000E+00  0.80652828400E+03  0.80652828400E+03  0.00000000000E+00 0.  1.
          2   -1    0    0  501    0  0.00000000000E+00 -0.00000000000E+00 -0.46144237249E+03  0.46144237249E+03  0.00000000000E+00 0. -1.
         23    2    1    2    0    0  0.61591259478E+02  0.74776520719E+02 -0.18046429603E+03  0.22369765170E+03  0.89934787154E+02 0.  0.
        254    2    1    2    0    0 -0.61591259478E+02 -0.74776520719E+02  0.52555020754E+03  0.10442730048E+04  0.89717226696E+03 0.  0.
        -24    2    4    4    0    0 -0.44549358508E+03 -0.12856160469E+03  0.42334219334E+03  0.63336390879E+03  0.83298305846E+02 0.  0.
         24    2    4    4    0    0  0.38390232560E+03  0.53785083972E+02  0.10220801420E+03  0.41090909600E+03  0.90144196434E+02 0.  0.
         11    1    3    3    0    0 -0.89158046757E+01 -0.12979682081E+02 -0.77871167974E+01  0.17567097312E+02  0.00000000000E+00 0.  1.
        -11    1    3    3    0    0  0.70507064154E+02  0.87756202800E+02 -0.17267717923E+03  0.20613055439E+03  0.00000000000E+00 0. -1.
          2    1    6    6  502    0  0.24035646352E+03  0.42705094576E+01  0.96248857234E+02  0.25894653758E+03  0.00000000000E+00 0. -1.
          1    1    5    5  503    0 -0.38883780162E+02 -0.16656472602E+02  0.76135670861E+02  0.87097800298E+02  0.00000000000E+00 0. -1.
         -2    1    5    5    0  503 -0.40660980491E+03 -0.11190513209E+03  0.34720652247E+03  0.54626610849E+03  0.00000000000E+00 0.  1.
         -3    1    6    6    0  502  0.14354586208E+03  0.49514574514E+02  0.59591569678E+01  0.15196255842E+03  0.00000000000E+00 0.  1.
<mgrwt>
<rscale>  0 0.12201087E+04</rscale>
<asrwt>0</asrwt>
<pdfrwt beam="1">  1        2 0.70991134E-01 0.12201087E+04</pdfrwt>
<pdfrwt beam="2">  1       -2 0.12408127E+00 0.12201087E+04</pdfrwt>
<totfact> 0.32510765E+01</totfact>
</mgrwt>
</event>
<event>
12    1  0.1477245E-007  0.1539870E+04  0.7818608E-02  0.8858365E-01
          2   -1    0    0  501    0  0.00000000000E+00  0.00000000000E+00  0.12615843924E+04  0.12615843924E+04  0.00000000000E+00 0. -1.
         -2   -1    0    0    0  501 -0.00000000000E+00 -0.00000000000E+00 -0.46988504420E+03  0.46988504420E+03  0.00000000000E+00 0.  1.
         23    2    1    2    0    0 -0.30989322331E+03  0.13877577760E+03  0.67602653618E+03  0.76203412040E+03  0.91605658793E+02 0.  0.
        254    2    1    2    0    0  0.30989322331E+03 -0.13877577760E+03  0.11567281204E+03  0.96943531624E+03  0.90062872852E+03 0.  0.
        -24    2    4    4    0    0 -0.13970495070E+03 -0.39771892627E+03 -0.12128070505E+02  0.42925068787E+03  0.80070252773E+02 0.  0.
         24    2    4    4    0    0  0.44959817401E+03  0.25894314867E+03  0.12780088255E+03  0.54018462837E+03  0.79223070096E+02 0.  0.
         13    1    3    3    0    0 -0.16234353622E+03  0.11370256702E+03  0.43963581499E+03  0.48224822168E+03  0.00000000000E+00 0. -1.
        -13    1    3    3    0    0 -0.14754968709E+03  0.25073210573E+02  0.23639072120E+03  0.27978589871E+03  0.00000000000E+00 0.  1.
          2    1    6    6  502    0  0.49221265625E+02  0.28673768600E+02  0.41105596496E+02  0.70246623113E+02  0.00000000000E+00 0. -1.
          3    1    5    5  503    0 -0.18809462265E+02 -0.51338028937E+02  0.25735736080E+02  0.60429439824E+02  0.00000000000E+00 0. -1.
         -4    1    5    5    0  503 -0.12089548843E+03 -0.34638089733E+03 -0.37863806585E+02  0.36882124804E+03  0.00000000000E+00 0.  1.
         -1    1    6    6    0  502  0.40037690838E+03  0.23026938007E+03  0.86695286054E+02  0.46993800526E+03  0.00000000000E+00 0.  1.
<mgrwt>
<rscale>  0 0.15398697E+04</rscale>
<asrwt>0</asrwt>
<pdfrwt beam="1">  1        2 0.19408991E+00 0.15398697E+04</pdfrwt>
<pdfrwt beam="2">  1       -2 0.72290007E-01 0.15398697E+04</pdfrwt>
<totfact> 0.29054581E+01</totfact>
</mgrwt>
</event>
<event>
12    1  0.1477245E-007  0.1229228E+04  0.7818608E-02  0.9087651E-01
         -1   -1    0    0    0  501 -0.00000000000E+00  0.00000000000E+00  0.96621001691E+03  0.96621001691E+03  0.00000000000E+00 0.  1.
          1   -1    0    0  501    0  0.00000000000E+00 -0.00000000000E+00 -0.39096099034E+03  0.39096099034E+03  0.00000000000E+00 0. -1.
         23    2    1    2    0    0 -0.21794421290E+03 -0.13308750686E+03  0.24380989525E+02  0.27257635655E+03  0.92149189261E+02 0.  0.
        254    2    1    2    0    0  0.21794421290E+03  0.13308750686E+03  0.55086803705E+03  0.10845946507E+04  0.89870907287E+03 0.  0.
        -24    2    4    4    0    0 -0.29444090113E+03  0.42751621963E+02  0.45590157074E+03  0.54974678823E+03  0.76499304154E+02 0.  0.
         24    2    4    4    0    0  0.51238511403E+03  0.90335884895E+02  0.94966466316E+02  0.53484786247E+03  0.79652552263E+02 0.  0.
         11    1    3    3    0    0 -0.90544410246E+01 -0.47813649515E+01  0.25443264316E+02  0.27426338657E+02  0.00000000000E+00 0.  1.
        -11    1    3    3    0    0 -0.20888977188E+03 -0.12830614191E+03 -0.10622747914E+01  0.24515001790E+03  0.00000000000E+00 0. -1.
          2    1    6    6  502    0  0.34272179752E+03  0.26291187806E+02  0.79769620153E+02  0.35286349960E+03  0.00000000000E+00 0. -1.
          1    1    5    5  503    0 -0.14246397821E+03  0.57215384789E+02  0.20622741188E+03  0.25709790111E+03  0.00000000000E+00 0. -1.
         -2    1    5    5    0  503 -0.15197692291E+03 -0.14463762826E+02  0.24967415886E+03  0.29264888712E+03  0.00000000000E+00 0.  1.
         -1    1    6    6    0  502  0.16966331651E+03  0.64044697089E+02  0.15196846163E+02  0.18198436287E+03  0.00000000000E+00 0.  1.
<mgrwt>
<rscale>  0 0.12292281E+04</rscale>
<asrwt>0</asrwt>
<pdfrwt beam="1">  1        1 0.60147845E-01 0.12292281E+04</pdfrwt>
<pdfrwt beam="2">  1       -1 0.14864769E+00 0.12292281E+04</pdfrwt>
<totfact> 0.21842372E+01</totfact>
</mgrwt>
</event>
<event>
12    1  0.1477245E-007  0.1579115E+04  0.7818608E-02  0.8833482E-01
          1   -1    0    0  501    0  0.00000000000E+00  0.00000000000E+00  0.75191419665E+03  0.75191419665E+03  0.00000000000E+00 0. -1.
         -1   -1    0    0    0  501 -0.00000000000E+00 -0.00000000000E+00 -0.82908527963E+03  0.82908527963E+03  0.00000000000E+00 0.  1.
         23    2    1    2    0    0  0.32376938110E+03  0.42624208369E+03 -0.61192317559E+02  0.54744528030E+03  0.97174632207E+02 0.  0.
        254    2    1    2    0    0 -0.32376938110E+03 -0.42624208369E+03 -0.15978765421E+02  0.10335541960E+04  0.88400793494E+03 0.  0.
        -24    2    4    4    0    0  0.16639673969E+03 -0.29826748105E+03  0.27304668747E+03  0.44453767850E+03  0.80049290038E+02 0.  0.
         24    2    4    4    0    0 -0.49016612079E+03 -0.12797460264E+03 -0.28902545289E+03  0.58901651749E+03  0.82246097539E+02 0.  0.
         11    1    3    3    0    0  0.16246226819E+03  0.16409115498E+03  0.11418374146E+02  0.23119315517E+03  0.00000000000E+00 0. -1.
        -11    1    3    3    0    0  0.16130711291E+03  0.26215092871E+03 -0.72610691705E+02  0.31625212513E+03  0.00000000000E+00 0.  1.
          4    1    6    6  502    0 -0.52250305438E+02 -0.10899670262E+02 -0.39284034213E+01  0.53519431832E+02  0.00000000000E+00 0. -1.
          3    1    5    5  503    0  0.62964375335E+02 -0.69031799744E+02  0.11220168217E+03  0.14601068255E+03  0.00000000000E+00 0. -1.
         -4    1    5    5    0  503  0.10343236435E+03 -0.22923568131E+03  0.16084500530E+03  0.29852699595E+03  0.00000000000E+00 0.  1.
         -3    1    6    6    0  502 -0.43791581535E+03 -0.11707493238E+03 -0.28509704947E+03  0.53549708565E+03  0.00000000000E+00 0.  1.
<mgrwt>
<rscale>  0 0.15791149E+04</rscale>
<asrwt>0</asrwt>
<pdfrwt beam="1">  1        1 0.11567911E+00 0.15791149E+04</pdfrwt>
<pdfrwt beam="2">  1       -1 0.12755158E+00 0.15791149E+04</pdfrwt>
<totfact> 0.12478188E+01</totfact>
</mgrwt>
</event>
<event>
12    1  0.1477245E-007  0.1730092E+04  0.7818608E-02  0.8744386E-01
          1   -1    0    0  501    0  0.00000000000E+00  0.00000000000E+00  0.21398731413E+04  0.21398731413E+04  0.00000000000E+00 0. -1.
         -1   -1    0    0    0  501 -0.00000000000E+00 -0.00000000000E+00 -0.34969567995E+03  0.34969567995E+03  0.00000000000E+00 0.  1.
         23    2    1    2    0    0 -0.38743635323E+03 -0.49144904162E+03  0.57229516267E+03  0.85277080930E+03  0.89817657889E+02 0.  0.
        254    2    1    2    0    0  0.38743635323E+03  0.49144904162E+03  0.12178822987E+04  0.16367980120E+04  0.89679504358E+03 0.  0.
        -24    2    4    4    0    0  0.24971638510E+03  0.16857585610E+03 -0.52646615394E+02  0.31642871876E+03  0.81113350910E+02 0.  0.
         24    2    4    4    0    0  0.13771996813E+03  0.32287318551E+03  0.12705289141E+04  0.13203692932E+04  0.76925063200E+02 0.  0.
         11    1    3    3    0    0 -0.30987702672E+03 -0.36036087027E+03  0.47552820375E+03  0.67231748532E+03  0.00000000000E+00 0. -1.
        -11    1    3    3    0    0 -0.77559326512E+02 -0.13108817135E+03  0.96766958927E+02  0.18045332398E+03  0.00000000000E+00 0.  1.
          4    1    6    6  502    0  0.10720791058E+03  0.29965798702E+03  0.10752024399E+04  0.11213156255E+04  0.00000000000E+00 0. -1.
          1    1    5    5  503    0  0.21124087565E+03  0.13709361092E+03 -0.73773466448E+02  0.26241168048E+03  0.00000000000E+00 0. -1.
         -2    1    5    5    0  503  0.38475509448E+02  0.31482245180E+02  0.21126851054E+02  0.54017038278E+02  0.00000000000E+00 0.  1.
         -3    1    6    6    0  502  0.30512057555E+02  0.23215198494E+02  0.19532647419E+03  0.19905366768E+03  0.00000000000E+00 0.  1.
<mgrwt>
<rscale>  0 0.17300918E+04</rscale>
<asrwt>0</asrwt>
<pdfrwt beam="1">  1        1 0.32921124E+00 0.17300918E+04</pdfrwt>
<pdfrwt beam="2">  1       -1 0.53799337E-01 0.17300918E+04</pdfrwt>
<totfact> 0.79282547E+00</totfact>
</mgrwt>
</event>
<event>
12    1  0.1477245E-007  0.1648031E+04  0.7818608E-02  0.8791572E-01
          2   -1    0    0  501    0  0.00000000000E+00  0.00000000000E+00  0.14376920635E+04  0.14376920635E+04  0.00000000000E+00 0. -1.
         -2   -1    0    0    0  501 -0.00000000000E+00 -0.00000000000E+00 -0.47228593149E+03  0.47228593149E+03  0.00000000000E+00 0.  1.
         23    2    1    2    0    0  0.25415078788E+03  0.40708382417E+03  0.69500305671E+03  0.84949408929E+03  0.91110350772E+02 0.  0.
        254    2    1    2    0    0 -0.25415078788E+03 -0.40708382417E+03  0.27040307527E+03  0.10604839057E+04  0.90619999348E+03 0.  0.
        -24    2    4    4    0    0  0.18245541075E+03  0.36155318221E+02  0.37320876210E+03  0.42493030779E+03  0.81754525420E+02 0.  0.
         24    2    4    4    0    0 -0.43660619863E+03 -0.44323914239E+03 -0.10280568683E+03  0.63555359787E+03  0.79205154451E+02 0.  0.
         11    1    3    3    0    0  0.13229466650E+03  0.21468425116E+03  0.28549417671E+03  0.38091748636E+03  0.00000000000E+00 0.  1.
        -11    1    3    3    0    0  0.12185612138E+03  0.19239957301E+03  0.40950888000E+03  0.46857660293E+03  0.00000000000E+00 0. -1.
          4    1    6    6  502    0 -0.59432905552E+02 -0.29628949716E+02 -0.22181741681E+02  0.70015531046E+02  0.00000000000E+00 0. -1.
          3    1    5    5  503    0  0.59600022092E+02  0.48125893040E+01  0.50705903068E+02  0.78399057744E+02  0.00000000000E+00 0. -1.
         -4    1    5    5    0  503  0.12285538866E+03  0.31342728917E+02  0.32250285903E+03  0.34653125005E+03  0.00000000000E+00 0.  1.
         -3    1    6    6    0  502 -0.37717329308E+03 -0.41361019268E+03 -0.80623945145E+02  0.56553806683E+03  0.00000000000E+00 0.  1.
<mgrwt>
<rscale>  0 0.16480312E+04</rscale>
<asrwt>0</asrwt>
<pdfrwt beam="1">  1        2 0.22118339E+00 0.16480312E+04</pdfrwt>
<pdfrwt beam="2">  1       -2 0.72659375E-01 0.16480312E+04</pdfrwt>
<totfact> 0.22533709E+01</totfact>
</mgrwt>
</event>
<event>
12    1  0.1477245E-007  0.3076192E+04  0.7818608E-02  0.8222302E-01
         -2   -1    0    0    0  501 -0.00000000000E+00  0.00000000000E+00  0.95786855430E+03  0.95786855430E+03  0.00000000000E+00 0.  1.
          2   -1    0    0  501    0  0.00000000000E+00 -0.00000000000E+00 -0.24697946023E+04  0.24697946023E+04  0.00000000000E+00 0. -1.
         23    2    1    2    0    0 -0.10277261347E+04 -0.90374913257E+03 -0.35191242838E+03  0.14159804353E+04  0.90414231406E+02 0.  0.
        254    2    1    2    0    0  0.10277261347E+04  0.90374913257E+03 -0.11600136196E+04  0.20116827213E+04  0.91008366147E+03 0.  0.
        -24    2    4    4    0    0 -0.92927651585E+02  0.26340438202E+03 -0.45172965440E+03  0.53740279751E+03  0.82004080389E+02 0.  0.
         24    2    4    4    0    0  0.11206537863E+04  0.64034475054E+03 -0.70828396521E+03  0.14742799238E+04  0.76998766263E+02 0.  0.
         11    1    3    3    0    0 -0.64047671768E+03 -0.56457070683E+03 -0.26456312424E+03  0.89383676117E+03  0.00000000000E+00 0.  1.
        -11    1    3    3    0    0 -0.38724941706E+03 -0.33917842574E+03 -0.87349304138E+02  0.52214367413E+03  0.00000000000E+00 0. -1.
          4    1    6    6  502    0  0.85285385914E+03  0.44934741261E+03 -0.52120562546E+03  0.10958686538E+04  0.00000000000E+00 0. -1.
          1    1    5    5  503    0  0.79854762515E+01  0.68999096942E+02 -0.80056692890E+02  0.10598923194E+03  0.00000000000E+00 0. -1.
         -4    1    5    5    0  503 -0.10091312784E+03  0.19440528508E+03 -0.37167296151E+03  0.43141356557E+03  0.00000000000E+00 0.  1.
         -3    1    6    6    0  502  0.26779992719E+03  0.19099733793E+03 -0.18707833975E+03  0.37841127005E+03  0.00000000000E+00 0.  1.
<mgrwt>
<rscale>  0 0.30761915E+04</rscale>
<asrwt>0</asrwt>
<pdfrwt beam="1">  1        2 0.37996839E+00 0.30761915E+04</pdfrwt>
<pdfrwt beam="2">  1       -2 0.14736440E+00 0.30761915E+04</pdfrwt>
<totfact> 0.96792264E-01</totfact>
</mgrwt>
</event>
<event>
12    1  0.1477245E-007  0.1915066E+04  0.7818608E-02  0.8647393E-01
          2   -1    0    0  501    0  0.00000000000E+00  0.00000000000E+00  0.14339660663E+04  0.14339660663E+04  0.00000000000E+00 0. -1.
         -2   -1    0    0    0  501 -0.00000000000E+00 -0.00000000000E+00 -0.63939395232E+03  0.63939395232E+03  0.00000000000E+00 0.  1.
         23    2    1    2    0    0  0.13165238720E+03 -0.61144807451E+03 -0.11583542672E+03  0.64278250472E+03  0.92468391420E+02 0.  0.
        254    2    1    2    0    0 -0.13165238720E+03  0.61144807451E+03  0.91040754067E+03  0.14305775139E+04  0.90912542270E+03 0.  0.
        -24    2    4    4    0    0  0.78075319232E+02  0.35351882882E+03  0.10089225557E+04  0.10748956595E+04  0.80028979715E+02 0.  0.
         24    2    4    4    0    0 -0.20972770643E+03  0.25792924569E+03 -0.98515015006E+02  0.35568185439E+03  0.79316875482E+02 0.  0.
         11    1    3    3    0    0  0.10287636685E+03 -0.32100841065E+03 -0.29295250568E+02  0.33836098810E+03  0.00000000000E+00 0. -1.
        -11    1    3    3    0    0  0.28776020349E+02 -0.29043966387E+03 -0.86540176148E+02  0.30442151662E+03  0.00000000000E+00 0.  1.
          2    1    6    6  502    0 -0.13754655379E+03  0.21895033929E+03 -0.62060111953E+02  0.26591307420E+03  0.00000000000E+00 0. -1.
          1    1    5    5  503    0  0.18846826874E+02  0.16211688670E+03  0.55986175042E+03  0.58316572894E+03  0.00000000000E+00 0. -1.
         -2    1    5    5    0  503  0.59228492358E+02  0.19140194213E+03  0.44906080526E+03  0.49172993053E+03  0.00000000000E+00 0.  1.
         -1    1    6    6    0  502 -0.72181152643E+02  0.38978906398E+02 -0.36454903053E+02  0.89768780193E+02  0.00000000000E+00 0.  1.
<mgrwt>
<rscale>  0 0.19150658E+04</rscale>
<asrwt>0</asrwt>
<pdfrwt beam="1">  1        2 0.22061016E+00 0.19150658E+04</pdfrwt>
<pdfrwt beam="2">  1       -2 0.98368301E-01 0.19150658E+04</pdfrwt>
<totfact> 0.11117709E+01</totfact>
</mgrwt>
</event>
<event>
12    1  0.1477245E-007  0.1273994E+04  0.7818608E-02  0.9050446E-01
          1   -1    0    0  501    0  0.00000000000E+00  0.00000000000E+00  0.36855521747E+03  0.36855521747E+03  0.00000000000E+00 0. -1.
         -1   -1    0    0    0  501 -0.00000000000E+00 -0.00000000000E+00 -0.11009625041E+04  0.11009625041E+04  0.00000000000E+00 0.  1.
         23    2    1    2    0    0 -0.14319633791E+02  0.31405899760E+03 -0.19544979457E+03  0.38121067870E+03  0.91010183344E+02 0.  0.
        254    2    1    2    0    0  0.14319633791E+02 -0.31405899760E+03 -0.53695749208E+03  0.10883070429E+04  0.89288899951E+03 0.  0.
        -24    2    4    4    0    0  0.41824234744E+03 -0.21221536173E+03 -0.11348027621E+03  0.48910689596E+03  0.79910960707E+02 0.  0.
         24    2    4    4    0    0 -0.40392271365E+03 -0.10184363587E+03 -0.42347721587E+03  0.59920014694E+03  0.78626833657E+02 0.  0.
         13    1    3    3    0    0 -0.34622324647E+02  0.27428021228E+03 -0.13961122101E+03  0.30970894924E+03  0.00000000000E+00 0.  1.
        -13    1    3    3    0    0  0.20302690856E+02  0.39778785322E+02 -0.55838573561E+02  0.71501729454E+02  0.00000000000E+00 0. -1.
          4    1    6    6  502    0 -0.34259299712E+03 -0.10206238691E+03 -0.32466276739E+03  0.48290020193E+03  0.00000000000E+00 0. -1.
          1    1    5    5  503    0  0.41384350583E+03 -0.20995999351E+03 -0.12148754522E+03  0.47969664356E+03  0.00000000000E+00 0. -1.
         -2    1    5    5    0  503  0.43988416064E+01 -0.22553682155E+01  0.80072690106E+01  0.94102524022E+01  0.00000000000E+00 0.  1.
         -3    1    6    6    0  502 -0.61329716526E+02  0.21875104085E+00 -0.98814448481E+02  0.11629994501E+03  0.00000000000E+00 0.  1.
<mgrwt>
<rscale>  0 0.12739945E+04</rscale>
<asrwt>0</asrwt>
<pdfrwt beam="1">  1        1 0.56700804E-01 0.12739945E+04</pdfrwt>
<pdfrwt beam="2">  1       -1 0.16937884E+00 0.12739945E+04</pdfrwt>
<totfact> 0.16374426E+01</totfact>
</mgrwt>
</event>
<event>
12    1  0.1477245E-007  0.1392653E+04  0.7818608E-02  0.8959154E-01
         -1   -1    0    0    0  501 -0.00000000000E+00  0.00000000000E+00  0.65382401070E+03  0.65382401070E+03  0.00000000000E+00 0.  1.
          1   -1    0    0  501    0  0.00000000000E+00 -0.00000000000E+00 -0.74159167051E+03  0.74159167051E+03  0.00000000000E+00 0. -1.
         23    2    1    2    0    0  0.24026202959E+03 -0.26575990821E+03  0.14209166971E+03  0.39596276154E+03  0.90787081953E+02 0.  0.
        254    2    1    2    0    0 -0.24026202959E+03  0.26575990821E+03 -0.22985932952E+03  0.99945291968E+03  0.90427686889E+03 0.  0.
        -24    2    4    4    0    0  0.31683127173E+02  0.54291587996E+03 -0.18297565770E+02  0.54971479092E+03  0.78038946552E+02 0.  0.
         24    2    4    4    0    0 -0.27194515676E+03 -0.27715597175E+03 -0.21156176375E+03  0.44973812876E+03  0.82075596965E+02 0.  0.
         13    1    3    3    0    0  0.63189879698E+02 -0.52469521000E+02 -0.47272404593E+01  0.82270033017E+02  0.00000000000E+00 0. -1.
        -13    1    3    3    0    0  0.17707214989E+03 -0.21329038721E+03  0.14681891017E+03  0.31369272852E+03  0.00000000000E+00 0.  1.
          4    1    6    6  502    0 -0.54858634746E+01  0.50436692095E+01  0.48913585491E+00  0.74681022383E+01  0.00000000000E+00 0. -1.
          3    1    5    5  503    0  0.58641290082E+01  0.47144738139E+01 -0.77349593993E+01  0.10790916054E+02  0.00000000000E+00 0. -1.
         -4    1    5    5    0  503  0.25818998165E+02  0.53820140615E+03 -0.10562606371E+02  0.53892387486E+03  0.00000000000E+00 0.  1.
         -3    1    6    6    0  502 -0.26645929329E+03 -0.28219964096E+03 -0.21205089961E+03  0.44227002652E+03  0.00000000000E+00 0.  1.
<mgrwt>
<rscale>  0 0.13926528E+04</rscale>
<asrwt>0</asrwt>
<pdfrwt beam="1">  1        1 0.11409103E+00 0.13926528E+04</pdfrwt>
<pdfrwt beam="2">  1       -1 0.10058831E+00 0.13926528E+04</pdfrwt>
<totfact> 0.22879238E+01</totfact>
</mgrwt>
</event>
<event>
12    1  0.1477245E-007  0.1535431E+04  0.7818608E-02  0.8861228E-01
          2   -1    0    0  501    0  0.00000000000E+00  0.00000000000E+00  0.57042705240E+03  0.57042705240E+03  0.00000000000E+00 0. -1.
         -2   -1    0    0    0  501 -0.00000000000E+00 -0.00000000000E+00 -0.10332378881E+04  0.10332378881E+04  0.00000000000E+00 0.  1.
         23    2    1    2    0    0  0.34985687706E+03 -0.19270156912E+03  0.16073466118E+03  0.43991096822E+03  0.90290085247E+02 0.  0.
        254    2    1    2    0    0 -0.34985687706E+03  0.19270156912E+03 -0.62354549693E+03  0.11637539723E+04  0.89776421859E+03 0.  0.
        -24    2    4    4    0    0 -0.51211738264E+03  0.82590499993E+02 -0.74980224510E+03  0.91516937566E+03  0.79032746979E+02 0.  0.
         24    2    4    4    0    0  0.16226050558E+03  0.11011106913E+03  0.12625674817E+03  0.24858459666E+03  0.86026833149E+02 0.  0.
         11    1    3    3    0    0  0.22620545220E+03 -0.12505593494E+03  0.56409596343E+02  0.26455611130E+03  0.00000000000E+00 0.  1.
        -11    1    3    3    0    0  0.12365142486E+03 -0.67645634186E+02  0.10432506483E+03  0.17535485692E+03  0.00000000000E+00 0. -1.
          2    1    6    6  502    0  0.15555289119E+03  0.82468475386E+02  0.77995325750E+02  0.19256433270E+03  0.00000000000E+00 0. -1.
          1    1    5    5  503    0 -0.40923694267E+02  0.67552345169E+01 -0.28708620905E+02  0.50443699905E+02  0.00000000000E+00 0. -1.
         -2    1    5    5    0  503 -0.47119368837E+03  0.75835265477E+02 -0.72109362420E+03  0.86472567575E+03  0.00000000000E+00 0.  1.
         -1    1    6    6    0  502  0.67076143901E+01  0.27642593743E+02  0.48261422423E+02  0.56020263958E+02  0.00000000000E+00 0.  1.
<mgrwt>
<rscale>  0 0.15354307E+04</rscale>
<asrwt>0</asrwt>
<pdfrwt beam="1">  1        2 0.87758009E-01 0.15354307E+04</pdfrwt>
<pdfrwt beam="2">  1       -2 0.15895967E+00 0.15354307E+04</pdfrwt>
<totfact> 0.13012115E+01</totfact>
</mgrwt>
</event>
<event>
12    1  0.1477245E-007  0.1372433E+04  0.7818608E-02  0.8974019E-01
         -2   -1    0    0    0  501 -0.00000000000E+00  0.00000000000E+00  0.21406196349E+03  0.21406196349E+03  0.00000000000E+00 0.  1.
          2   -1    0    0  501    0  0.00000000000E+00 -0.00000000000E+00 -0.21997968000E+04  0.21997968000E+04  0.00000000000E+00 0. -1.
         23    2    1    2    0    0 -0.45288865007E+02  0.25941158769E+02  0.97572438348E+02  0.14327955085E+03  0.91019909654E+02 0.  0.
        254    2    1    2    0    0  0.45288865007E+02 -0.25941158769E+02 -0.20833072749E+04  0.22705792127E+04  0.90146366229E+03 0.  0.
        -24    2    4    4    0    0 -0.27041528639E+03 -0.10059494907E+03 -0.18221246769E+04  0.18465432291E+04  0.79622784566E+02 0.  0.
         24    2    4    4    0    0  0.31570415140E+03  0.74653790296E+02 -0.26118259800E+03  0.42403598360E+03  0.79673497965E+02 0.  0.
         11    1    3    3    0    0 -0.63560195996E+01 -0.25541050682E+02  0.36095586708E-01  0.26320059992E+02  0.00000000000E+00 0. -1.
        -11    1    3    3    0    0 -0.38932845407E+02  0.51482209451E+02  0.97536342762E+02  0.11695949085E+03  0.00000000000E+00 0.  1.
          4    1    6    6  502    0  0.26587591562E+03  0.82634919008E+02 -0.19117817579E+03  0.33773899278E+03  0.00000000000E+00 0. -1.
          3    1    5    5  503    0 -0.22417036684E+03 -0.10482807860E+03 -0.16412642375E+04  0.16598161274E+04  0.00000000000E+00 0. -1.
         -4    1    5    5    0  503 -0.46244919544E+02  0.42331295308E+01 -0.18086043942E+03  0.18672710172E+03  0.00000000000E+00 0.  1.
         -3    1    6    6    0  502  0.49828235774E+02 -0.79811287118E+01 -0.70004422207E+02  0.86296990819E+02  0.00000000000E+00 0.  1.
<mgrwt>
<rscale>  0 0.13724326E+04</rscale>
<asrwt>0</asrwt>
<pdfrwt beam="1">  1        2 0.33843026E+00 0.13724326E+04</pdfrwt>
<pdfrwt beam="2">  1       -2 0.32932611E-01 0.13724326E+04</pdfrwt>
<totfact> 0.43410694E+01</totfact>
</mgrwt>
</event>
<event>
12    1  0.1477245E-007  0.2639917E+04  0.7818608E-02  0.8354767E-01
         -2   -1    0    0    0  501 -0.00000000000E+00  0.00000000000E+00  0.12480584272E+04  0.12480584272E+04  0.00000000000E+00 0.  1.
          2   -1    0    0  501    0  0.00000000000E+00 -0.00000000000E+00 -0.13960008642E+04  0.13960008642E+04  0.00000000000E+00 0. -1.
         23    2    1    2    0    0 -0.18710146343E+03 -0.17027736910E+02  0.10854484684E+04  0.11059183976E+04  0.97776393698E+02 0.  0.
        254    2    1    2    0    0  0.18710146343E+03  0.17027736910E+02 -0.12333909054E+04  0.15381408938E+04  0.89962624589E+03 0.  0.
        -24    2    4    4    0    0  0.43997813160E+03  0.11919473553E+03 -0.11542703117E+04  0.12434724381E+04  0.78074390907E+02 0.  0.
         24    2    4    4    0    0 -0.25287666817E+03 -0.10216699862E+03 -0.79120593715E+02  0.29466845576E+03  0.78643026122E+02 0.  0.
         13    1    3    3    0    0  0.11141784790E+02 -0.47294112461E+01  0.93430968243E+02  0.94211743036E+02  0.00000000000E+00 0. -1.
        -13    1    3    3    0    0 -0.19824324822E+03 -0.12298325664E+02  0.99201750012E+03  0.10117066545E+04  0.00000000000E+00 0.  1.
          2    1    6    6  502    0 -0.15518119564E+03 -0.53713425743E+02 -0.78673364246E+01  0.16440264769E+03  0.00000000000E+00 0. -1.
          3    1    5    5  503    0  0.34561960902E+03  0.10649152399E+03 -0.98453146777E+03  0.10488544083E+04  0.00000000000E+00 0. -1.
         -4    1    5    5    0  503  0.94358522585E+02  0.12703211535E+02 -0.16973884393E+03  0.19461802975E+03  0.00000000000E+00 0.  1.
         -1    1    6    6    0  502 -0.97695472537E+02 -0.48453572873E+02 -0.71253257290E+02  0.13026580807E+03  0.00000000000E+00 0.  1.
<mgrwt>
<rscale>  0 0.26399172E+04</rscale>
<asrwt>0</asrwt>
<pdfrwt beam="1">  1        2 0.21476936E+00 0.26399172E+04</pdfrwt>
<pdfrwt beam="2">  1       -2 0.19200899E+00 0.26399172E+04</pdfrwt>
<totfact> 0.19274830E+00</totfact>
</mgrwt>
</event>
<event>
12    1  0.1477245E-007  0.2763921E+04  0.7818608E-02  0.8314558E-01
          2   -1    0    0  501    0  0.00000000000E+00  0.00000000000E+00  0.43692428093E+04  0.43692428093E+04  0.00000000000E+00 0. -1.
         -2   -1    0    0    0  501 -0.00000000000E+00 -0.00000000000E+00 -0.43710416647E+03  0.43710416647E+03  0.00000000000E+00 0.  1.
         23    2    1    2    0    0  0.19150603188E+02  0.80655664783E+03  0.13611124558E+03  0.82329177761E+03  0.91557130553E+02 0.  0.
        254    2    1    2    0    0 -0.19150603188E+02 -0.80655664783E+03  0.37960273972E+04  0.39830551981E+04  0.89666289041E+03 0.  0.
        -24    2    4    4    0    0 -0.28243004288E+02  0.96902496287E+02  0.65833342080E+02  0.14415524019E+03  0.79113483480E+02 0.  0.
         24    2    4    4    0    0  0.90924010993E+01 -0.90345914412E+03  0.37301940552E+04  0.38388999579E+04  0.80523916250E+02 0.  0.
         11    1    3    3    0    0  0.40964124850E+02  0.60278716293E+03  0.13141422031E+03  0.61830422982E+03  0.00000000000E+00 0.  1.
        -11    1    3    3    0    0 -0.21813521661E+02  0.20376948490E+03  0.46970252714E+01  0.20498754779E+03  0.00000000000E+00 0. -1.
          2    1    6    6  502    0  0.14859656217E+02 -0.25576485659E+03  0.91825576303E+03  0.95332581922E+03  0.00000000000E+00 0. -1.
          3    1    5    5  503    0 -0.16908361765E+02  0.98934089692E+02  0.78215664605E+02  0.12724597043E+03  0.00000000000E+00 0. -1.
         -4    1    5    5    0  503 -0.11334642523E+02 -0.20315934053E+01 -0.12382322525E+02  0.16909269765E+02  0.00000000000E+00 0.  1.
         -1    1    6    6    0  502 -0.57672551179E+01 -0.64769428753E+03  0.28119382921E+04  0.28855741387E+04  0.00000000000E+00 0.  1.
<mgrwt>
<rscale>  0 0.27639206E+04</rscale>
<asrwt>0</asrwt>
<pdfrwt beam="1">  1        2 0.67219117E+00 0.27639206E+04</pdfrwt>
<pdfrwt beam="2">  1       -2 0.67246798E-01 0.27639206E+04</pdfrwt>
<totfact> 0.29076402E-01</totfact>
</mgrwt>
</event>
<event>
12    1  0.1477245E-007  0.1779008E+04  0.7818608E-02  0.8717543E-01
          1   -1    0    0  501    0  0.00000000000E+00  0.00000000000E+00  0.20102663758E+04  0.20102663758E+04  0.00000000000E+00 0. -1.
         -1   -1    0    0    0  501 -0.00000000000E+00 -0.00000000000E+00 -0.39358846245E+03  0.39358846245E+03  0.00000000000E+00 0.  1.
         23    2    1    2    0    0 -0.35479812708E+03  0.48885564589E+03  0.27933799095E+03  0.67165616214E+03  0.90723389773E+02 0.  0.
        254    2    1    2    0    0  0.35479812708E+03 -0.48885564589E+03  0.13373399224E+04  0.17321986761E+04  0.92041981292E+03 0.  0.
        -24    2    4    4    0    0  0.49316289552E+03 -0.65397875735E+03  0.12264026752E+04  0.14769775549E+04  0.80630759120E+02 0.  0.
         24    2    4    4    0    0 -0.13836476845E+03  0.16512311146E+03  0.11093724717E+03  0.25522112121E+03  0.80126754690E+02 0.  0.
         13    1    3    3    0    0 -0.17637910947E+03  0.16746031290E+03  0.11042431552E+03  0.26710686272E+03  0.00000000000E+00 0. -1.
        -13    1    3    3    0    0 -0.17841901761E+03  0.32139533299E+03  0.16891367543E+03  0.40454929941E+03  0.00000000000E+00 0.  1.
          2    1    6    6  502    0 -0.27706850511E+02  0.83996924775E+02  0.20211187673E+02  0.90728413653E+02  0.00000000000E+00 0. -1.
          3    1    5    5  503    0  0.17469917447E+03 -0.24553156553E+03  0.38440546947E+03  0.48843947034E+03  0.00000000000E+00 0. -1.
         -4    1    5    5    0  503  0.31846372105E+03 -0.40844719182E+03  0.84199720576E+03  0.98853808457E+03  0.00000000000E+00 0.  1.
         -1    1    6    6    0  502 -0.11065791794E+03  0.81126186684E+02  0.90726059495E+02  0.16449270756E+03  0.00000000000E+00 0.  1.
<mgrwt>
<rscale>  0 0.17790083E+04</rscale>
<asrwt>0</asrwt>
<pdfrwt beam="1">  1        1 0.30927174E+00 0.17790083E+04</pdfrwt>
<pdfrwt beam="2">  1       -1 0.60552072E-01 0.17790083E+04</pdfrwt>
<totfact> 0.76683280E+00</totfact>
</mgrwt>
</event>
<event>
12    1  0.1477245E-007  0.2289788E+04  0.7818608E-02  0.8481958E-01
         -2   -1    0    0    0  501 -0.00000000000E+00  0.00000000000E+00  0.78538593936E+03  0.78538593936E+03  0.00000000000E+00 0. -1.
          2   -1    0    0  501    0  0.00000000000E+00 -0.00000000000E+00 -0.16689662491E+04  0.16689662491E+04  0.00000000000E+00 0.  1.
         23    2    1    2    0    0  0.38483288080E+03 -0.88139549684E+03 -0.28130420620E+03  0.10062633784E+04  0.92084538841E+02 0.  0.
        254    2    1    2    0    0 -0.38483288080E+03  0.88139549684E+03 -0.60227610351E+03  0.14480888100E+04  0.89959453581E+03 0.  0.
        -24    2    4    4    0    0  0.24094282708E+02  0.54424267625E+03 -0.71226856242E+03  0.90086056954E+03  0.86270711249E+02 0.  0.
         24    2    4    4    0    0 -0.40892716351E+03  0.33715282059E+03  0.10999245891E+03  0.54722824049E+03  0.80417390451E+02 0.  0.
         11    1    3    3    0    0  0.28292721569E+02 -0.24143501982E+02 -0.46655971812E+01  0.37485391539E+02  0.00000000000E+00 0. -1.
        -11    1    3    3    0    0  0.35654015923E+03 -0.85725199486E+03 -0.27663860902E+03  0.96877798686E+03  0.00000000000E+00 0.  1.
          2    1    6    6  502    0 -0.10416735300E+03  0.48530485617E+02  0.75329642906E+01  0.11516419155E+03  0.00000000000E+00 0. -1.
          1    1    5    5  503    0  0.90031831435E+01  0.24288732607E+03 -0.24871785755E+03  0.34775836890E+03  0.00000000000E+00 0. -1.
         -2    1    5    5    0  503  0.15091099564E+02  0.30135535019E+03 -0.46355070486E+03  0.55310220064E+03  0.00000000000E+00 0.  1.
         -1    1    6    6    0  502 -0.30475981051E+03  0.28862233497E+03  0.10245949462E+03  0.43206404894E+03  0.00000000000E+00 0.  1.
<mgrwt>
<rscale>  0 0.22897883E+04</rscale>
<asrwt>0</asrwt>
<pdfrwt beam="1">  1        2 0.25676404E+00 0.22897883E+04</pdfrwt>
<pdfrwt beam="2">  1       -2 0.12082861E+00 0.22897883E+04</pdfrwt>
<totfact> 0.48340864E+00</totfact>
</mgrwt>
</event>
<event>
12    1  0.1477245E-007  0.1266261E+04  0.7818608E-02  0.9056757E-01
         -1   -1    0    0    0  501 -0.00000000000E+00  0.00000000000E+00  0.19206819517E+03  0.19206819517E+03  0.00000000000E+00 0.  1.
          1   -1    0    0  501    0  0.00000000000E+00 -0.00000000000E+00 -0.20870417069E+04  0.20870417069E+04  0.00000000000E+00 0. -1.
         23    2    1    2    0    0  0.10052531554E+03  0.25374274414E+03 -0.68768737746E+03  0.74514967073E+03  0.88562878219E+02 0.  0.
        254    2    1    2    0    0 -0.10052531554E+03 -0.25374274414E+03 -0.12072861342E+04  0.15339602313E+04  0.90609241365E+03 0.  0.
        -24    2    4    4    0    0  0.27856579030E+03  0.18204437532E+03 -0.61032936549E+03  0.69952981387E+03  0.78108719122E+02 0.  0.
         24    2    4    4    0    0 -0.37909110584E+03 -0.43578711946E+03 -0.59695676874E+03  0.83443041744E+03  0.79348962141E+02 0.  0.
         13    1    3    3    0    0  0.99538183996E+02  0.23386924291E+03 -0.54827601956E+03  0.60432546403E+03  0.00000000000E+00 0. -1.
        -13    1    3    3    0    0  0.98713154583E+00  0.19873501232E+02 -0.13941135791E+03  0.14082420670E+03  0.00000000000E+00 0.  1.
          4    1    6    6  502    0 -0.12713164881E+03 -0.12278952485E+03 -0.23168956574E+03  0.29140998338E+03  0.00000000000E+00 0. -1.
          3    1    5    5  503    0  0.24346777503E+03  0.13986919500E+03 -0.45358967961E+03  0.53346372570E+03  0.00000000000E+00 0. -1.
         -4    1    5    5    0  503  0.35098015270E+02  0.42175180325E+02 -0.15673968588E+03  0.16606608817E+03  0.00000000000E+00 0.  1.
         -3    1    6    6    0  502 -0.25195945702E+03 -0.31299759461E+03 -0.36526720301E+03  0.54302043406E+03  0.00000000000E+00 0.  1.
<mgrwt>
<rscale>  0 0.12662612E+04</rscale>
<asrwt>0</asrwt>
<pdfrwt beam="1">  1        1 0.32108336E+00 0.12662612E+04</pdfrwt>
<pdfrwt beam="2">  1       -1 0.29548951E-01 0.12662612E+04</pdfrwt>
<totfact> 0.26895163E+01</totfact>
</mgrwt>
</event>
<event>
12    1  0.1513508E-007  0.3020935E+04  0.7818608E-02  0.8237778E-01
          2   -1    0    0  501    0  0.00000000000E+00  0.00000000000E+00  0.19078820070E+04  0.19078820070E+04  0.00000000000E+00 0.  1.
         -2   -1    0    0    0  501 -0.00000000000E+00 -0.00000000000E+00 -0.11958350734E+04  0.11958350734E+04  0.00000000000E+00 0. -1.
         23    2    1    2    0    0  0.41841242158E+03 -0.14532716789E+03 -0.10123838708E+04  0.11088560293E+04  0.91932865413E+02 0.  0.
        254    2    1    2    0    0 -0.41841242158E+03  0.14532716789E+03  0.17244308043E+04  0.19948610511E+04  0.89978890519E+03 0.  0.
        -24    2    4    4    0    0 -0.33350532101E+03  0.48813761248E+03  0.76907778111E+03  0.97324808097E+03  0.78911759939E+02 0.  0.
         24    2    4    4    0    0 -0.84907100576E+02 -0.34281044458E+03  0.95535302321E+03  0.10216129701E+04  0.79154564442E+02 0.  0.
         11    1    3    3    0    0  0.33338890119E+03 -0.11376673530E+03 -0.88459849409E+03  0.95215835093E+03  0.00000000000E+00 0. -1.
        -11    1    3    3    0    0  0.85023520398E+02 -0.31560432593E+02 -0.12778537668E+03  0.15669767841E+03  0.00000000000E+00 0.  1.
          2    1    6    6  502    0 -0.31394724031E+02 -0.27165111366E+02  0.97725642379E+02  0.10617849665E+03  0.00000000000E+00 0. -1.
          1    1    5    5  503    0 -0.62206297094E+02  0.14271641651E+03  0.23276620110E+03  0.28003161127E+03  0.00000000000E+00 0. -1.
         -2    1    5    5    0  503 -0.27129902391E+03  0.34542119597E+03  0.53631158001E+03  0.69321646970E+03  0.00000000000E+00 0.  1.
         -1    1    6    6    0  502 -0.53512376545E+02 -0.31564533322E+03  0.85762738083E+03  0.91543447344E+03  0.00000000000E+00 0.  1.
<mgrwt>
<rscale>  0 0.30209351E+04</rscale>
<asrwt>0</asrwt>
<pdfrwt beam="1">  1        2 0.29352031E+00 0.30209351E+04</pdfrwt>
<pdfrwt beam="2">  1       -2 0.18397463E+00 0.30209351E+04</pdfrwt>
<totfact> 0.10939307E+00</totfact>
</mgrwt>
</event>
<event>
12    1  0.1477245E-007  0.1295685E+04  0.7818608E-02  0.9032994E-01
         -1   -1    0    0    0  501 -0.00000000000E+00  0.00000000000E+00  0.19175394653E+03  0.19175394653E+03  0.00000000000E+00 0.  1.
          1   -1    0    0  501    0  0.00000000000E+00 -0.00000000000E+00 -0.21887433508E+04  0.21887433508E+04  0.00000000000E+00 0. -1.
         23    2    1    2    0    0 -0.12751546425E+03  0.15054272149E+03 -0.99279737455E+03  0.10162831008E+04  0.90892295900E+02 0.  0.
        254    2    1    2    0    0  0.12751546425E+03 -0.15054272149E+03 -0.10041920297E+04  0.13642141965E+04  0.90208394112E+03 0.  0.
        -24    2    4    4    0    0  0.30718078910E+03  0.29500790951E+03 -0.52845434602E+03  0.68349247001E+03  0.80673768184E+02 0.  0.
         24    2    4    4    0    0 -0.17966532485E+03 -0.44555063099E+03 -0.47573768371E+03  0.68072172652E+03  0.79124784439E+02 0.  0.
         13    1    3    3    0    0 -0.20558866849E+01  0.16205146762E+02 -0.18000327102E+02  0.24307308108E+02  0.00000000000E+00 0.  1.
        -13    1    3    3    0    0 -0.12545957756E+03  0.13433757472E+03 -0.97479704745E+03  0.99197579270E+03  0.00000000000E+00 0. -1.
          4    1    6    6  502    0 -0.52970171206E+02 -0.18817595067E+03 -0.23911946433E+03  0.30885942704E+03  0.00000000000E+00 0. -1.
          3    1    5    5  503    0  0.11128443281E+03  0.72154568380E+02 -0.20871655486E+03  0.24729154251E+03  0.00000000000E+00 0. -1.
         -4    1    5    5    0  503  0.19589635630E+03  0.22285334113E+03 -0.31973779116E+03  0.43620092751E+03  0.00000000000E+00 0.  1.
         -3    1    6    6    0  502 -0.12669515365E+03 -0.25737468033E+03 -0.23661821938E+03  0.37186229948E+03  0.00000000000E+00 0.  1.
<mgrwt>
<rscale>  0 0.12956854E+04</rscale>
<asrwt>0</asrwt>
<pdfrwt beam="1">  1        1 0.33672976E+00 0.12956854E+04</pdfrwt>
<pdfrwt beam="2">  1       -1 0.29500606E-01 0.12956854E+04</pdfrwt>
<totfact> 0.22957226E+01</totfact>
</mgrwt>
</event>
<event>
12    1  0.1477245E-007  0.1104209E+04  0.7818608E-02  0.9201099E-01
         -1   -1    0    0    0  501 -0.00000000000E+00  0.00000000000E+00  0.36610475870E+03  0.36610475870E+03  0.00000000000E+00 0.  1.
          1   -1    0    0  501    0  0.00000000000E+00 -0.00000000000E+00 -0.83260147644E+03  0.83260147644E+03  0.00000000000E+00 0. -1.
         23    2    1    2    0    0 -0.50698825099E+01 -0.46200081389E+02 -0.23900737885E+03  0.26074533559E+03  0.93292291528E+02 0.  0.
        254    2    1    2    0    0  0.50698825099E+01  0.46200081389E+02 -0.22748933888E+03  0.93796089955E+03  0.90876790137E+03 0.  0.
        -24    2    4    4    0    0  0.40717444608E+03  0.21058473155E+02  0.82096091838E+02  0.42349467000E+03  0.79834067827E+02 0.  0.
         24    2    4    4    0    0 -0.40210456357E+03  0.25141608234E+02 -0.30958543072E+03  0.51446622956E+03  0.80698091208E+02 0.  0.
         11    1    3    3    0    0 -0.64518059951E+01 -0.72838356981E+02 -0.20416429709E+03  0.21686427150E+03  0.00000000000E+00 0. -1.
        -11    1    3    3    0    0  0.13819234852E+01  0.26638275591E+02 -0.34843081767E+02  0.43881064094E+02  0.00000000000E+00 0.  1.
          2    1    6    6  502    0 -0.15129258264E+03  0.35098566313E+02 -0.15635642863E+03  0.22038304765E+03  0.00000000000E+00 0. -1.
          3    1    5    5  503    0  0.10507637622E+03 -0.19639728839E+02  0.46585678028E+02  0.11660612842E+03  0.00000000000E+00 0. -1.
         -4    1    5    5    0  503  0.30209806986E+03  0.40698201994E+02  0.35510413810E+02  0.30688854157E+03  0.00000000000E+00 0.  1.
         -1    1    6    6    0  502 -0.25081198094E+03 -0.99569580783E+01 -0.15322900209E+03  0.29408318190E+03  0.00000000000E+00 0.  1.
<mgrwt>
<rscale>  0 0.11042090E+04</rscale>
<asrwt>0</asrwt>
<pdfrwt beam="1">  1        1 0.12809253E+00 0.11042090E+04</pdfrwt>
<pdfrwt beam="2">  1       -1 0.56323810E-01 0.11042090E+04</pdfrwt>
<totfact> 0.65841890E+01</totfact>
</mgrwt>
</event>
<event>
12    1  0.1477245E-007  0.1339864E+04  0.7818608E-02  0.8998537E-01
         -2   -1    0    0    0  501 -0.00000000000E+00  0.00000000000E+00  0.17879507689E+03  0.17879507689E+03  0.00000000000E+00 0.  1.
          2   -1    0    0  501    0  0.00000000000E+00 -0.00000000000E+00 -0.25101842397E+04  0.25101842397E+04  0.00000000000E+00 0. -1.
         23    2    1    2    0    0 -0.23836981132E+03  0.15749370475E+03 -0.21522635702E+03  0.37137496541E+03  0.99862636590E+02 0.  0.
        254    2    1    2    0    0  0.23836981132E+03 -0.15749370475E+03 -0.21161628058E+04  0.23176043512E+04  0.90084431179E+03 0.  0.
        -24    2    4    4    0    0 -0.49397688189E+02 -0.47363928896E+03 -0.13863062133E+04  0.14680055952E+04  0.80132407894E+02 0.  0.
         24    2    4    4    0    0  0.28776749951E+03  0.31614558420E+03 -0.72985659247E+03  0.84959875600E+03  0.79807496094E+02 0.  0.
         13    1    3    3    0    0 -0.17602486218E+03  0.16234219917E+03 -0.16044425614E+03  0.28823965907E+03  0.00000000000E+00 0.  1.
        -13    1    3    3    0    0 -0.62344949144E+02 -0.48484944118E+01 -0.54782100887E+02  0.83135306335E+02  0.00000000000E+00 0. -1.
          4    1    6    6  502    0  0.10210401099E+03  0.16539078882E+03 -0.29409568280E+03  0.35252179043E+03  0.00000000000E+00 0. -1.
          1    1    5    5  503    0 -0.33022147350E+02 -0.43806467352E+03 -0.13177918460E+04  0.13890883592E+04  0.00000000000E+00 0. -1.
         -2    1    5    5    0  503 -0.16375540839E+02 -0.35574615435E+02 -0.68514367329E+02  0.78917235960E+02  0.00000000000E+00 0.  1.
         -3    1    6    6    0  502  0.18566348852E+03  0.15075479539E+03 -0.43576090967E+03  0.49707696556E+03  0.00000000000E+00 0.  1.
<mgrwt>
<rscale>  0 0.13398636E+04</rscale>
<asrwt>0</asrwt>
<pdfrwt beam="1">  1        2 0.38618222E+00 0.13398636E+04</pdfrwt>
<pdfrwt beam="2">  1       -2 0.27506933E-01 0.13398636E+04</pdfrwt>
<totfact> 0.40611860E+01</totfact>
</mgrwt>
</event>
<event>
12    1  0.1477245E-007  0.1727461E+04  0.7818608E-02  0.8745855E-01
          2   -1    0    0  501    0  0.00000000000E+00  0.00000000000E+00  0.82964336619E+03  0.82964336619E+03  0.00000000000E+00 0. -1.
         -2   -1    0    0    0  501 -0.00000000000E+00 -0.00000000000E+00 -0.89921818416E+03  0.89921818416E+03  0.00000000000E+00 0.  1.
         23    2    1    2    0    0 -0.48342212200E+03  0.20429058308E+03  0.31557231023E+03  0.61912596666E+03  0.91101532527E+02 0.  0.
        254    2    1    2    0    0  0.48342212200E+03 -0.20429058308E+03 -0.38514712820E+03  0.11097355837E+04  0.89874532821E+03 0.  0.
        -24    2    4    4    0    0  0.26188342048E+03 -0.54961603894E+03 -0.30164325765E+03  0.68386608135E+03  0.77610863646E+02 0.  0.
         24    2    4    4    0    0  0.22153870152E+03  0.34532545585E+03 -0.83503870552E+02  0.42586950235E+03  0.77864432822E+02 0.  0.
         11    1    3    3    0    0 -0.46214753739E+03  0.17347688622E+03  0.30483858825E+03  0.58017337172E+03  0.00000000000E+00 0. -1.
        -11    1    3    3    0    0 -0.21274584609E+02  0.30813696864E+02  0.10733721987E+02  0.38952594937E+02  0.00000000000E+00 0.  1.
          4    1    6    6  502    0  0.22481140102E+03  0.34366207491E+03 -0.88080560765E+02  0.42000234874E+03  0.00000000000E+00 0. -1.
          3    1    5    5  503    0  0.21241758264E+03 -0.36252328583E+03 -0.20234998197E+03  0.46635809995E+03  0.00000000000E+00 0. -1.
         -4    1    5    5    0  503  0.49465837839E+02 -0.18709275310E+03 -0.99293275676E+02  0.21750798140E+03  0.00000000000E+00 0.  1.
         -3    1    6    6    0  502 -0.32726994988E+01  0.16633809456E+01  0.45766902129E+01  0.58671536100E+01  0.00000000000E+00 0.  1.
<mgrwt>
<rscale>  0 0.17274610E+04</rscale>
<asrwt>0</asrwt>
<pdfrwt beam="1">  1        2 0.12763744E+00 0.17274610E+04</pdfrwt>
<pdfrwt beam="2">  1       -2 0.13834126E+00 0.17274610E+04</pdfrwt>
<totfact> 0.11535426E+01</totfact>
</mgrwt>
</event>
<event>
12    1  0.1477245E-007  0.1882856E+04  0.7818608E-02  0.8663438E-01
          1   -1    0    0  501    0  0.00000000000E+00  0.00000000000E+00  0.12356427009E+04  0.12356427009E+04  0.00000000000E+00 0. -1.
         -1   -1    0    0    0  501 -0.00000000000E+00 -0.00000000000E+00 -0.71726745832E+03  0.71726745832E+03  0.00000000000E+00 0.  1.
         23    2    1    2    0    0 -0.37496074230E+03 -0.65207824256E+02  0.83185297378E+03  0.91996667964E+03  0.97527960383E+02 0.  0.
        254    2    1    2    0    0  0.37496074230E+03  0.65207824256E+02 -0.31347773119E+03  0.10329434796E+04  0.90766531576E+03 0.  0.
        -24    2    4    4    0    0 -0.17816156653E+03 -0.16535561437E+03  0.12466216169E+03  0.28620683450E+03  0.85379591033E+02 0.  0.
         24    2    4    4    0    0  0.55312230883E+03  0.23056343862E+03 -0.43813989289E+03  0.74673664507E+03  0.80902803428E+02 0.  0.
         13    1    3    3    0    0 -0.90329146042E+02 -0.35596053928E+02  0.13194724492E+03  0.16381852496E+03  0.00000000000E+00 0.  1.
        -13    1    3    3    0    0 -0.28463159626E+03 -0.29611770327E+02  0.69990572886E+03  0.75614815468E+03  0.00000000000E+00 0. -1.
          4    1    6    6  502    0  0.40670674398E+03  0.15869108080E+03 -0.27452325126E+03  0.51570946298E+03  0.00000000000E+00 0. -1.
          3    1    5    5  503    0 -0.18361453221E+03 -0.16941713634E+03  0.11672534714E+03  0.27575581442E+03  0.00000000000E+00 0. -1.
         -4    1    5    5    0  503  0.54529656767E+01  0.40615219706E+01  0.79368145557E+01  0.10451020078E+02  0.00000000000E+00 0.  1.
         -3    1    6    6    0  502  0.14641556485E+03  0.71872357823E+02 -0.16361664163E+03  0.23102718210E+03  0.00000000000E+00 0.  1.
<mgrwt>
<rscale>  0 0.18828556E+04</rscale>
<asrwt>0</asrwt>
<pdfrwt beam="1">  1        1 0.19009888E+00 0.18828556E+04</pdfrwt>
<pdfrwt beam="2">  1       -1 0.11034884E+00 0.18828556E+04</pdfrwt>
<totfact> 0.71442202E+00</totfact>
</mgrwt>
</event>
<event>
12    1  0.2329900E-007  0.2827321E+04  0.7818608E-02  0.8294836E-01
         -2   -1    0    0    0  501 -0.00000000000E+00  0.00000000000E+00  0.11140980402E+04  0.11140980402E+04  0.00000000000E+00 0.  1.
          2   -1    0    0  501    0  0.00000000000E+00 -0.00000000000E+00 -0.17937706773E+04  0.17937706773E+04  0.00000000000E+00 0. -1.
         23    2    1    2    0    0  0.71681867571E+03  0.10161900186E+04 -0.49067352525E+02  0.12478706157E+04  0.91116961342E+02 0.  0.
        254    2    1    2    0    0 -0.71681867571E+03 -0.10161900186E+04 -0.63060528459E+03  0.16599981018E+04  0.90081047130E+03 0.  0.
        -24    2    4    4    0    0 -0.28298905317E+03 -0.10465888785E+04 -0.37787378389E+03  0.11509082521E+04  0.79813052940E+02 0.  0.
         24    2    4    4    0    0 -0.43382962254E+03  0.30398859885E+02 -0.25273150070E+03  0.50908984968E+03  0.78530449688E+02 0.  0.
         11    1    3    3    0    0  0.22412094639E+03  0.31313289993E+03  0.26852846923E+02  0.38600969809E+03  0.00000000000E+00 0.  1.
        -11    1    3    3    0    0  0.49269772932E+03  0.70305711864E+03 -0.75920199448E+02  0.86186091757E+03  0.00000000000E+00 0. -1.
          2    1    6    6  502    0 -0.36424479815E+03  0.52306083140E+02 -0.19783608880E+03  0.41779099720E+03  0.00000000000E+00 0. -1.
          3    1    5    5  503    0 -0.23950772601E+03 -0.75827128863E+03 -0.28902743824E+03  0.84609465076E+03  0.00000000000E+00 0. -1.
         -4    1    5    5    0  503 -0.43481327162E+02 -0.28831758983E+03 -0.88846345649E+02  0.30481360132E+03  0.00000000000E+00 0.  1.
         -1    1    6    6    0  502 -0.69584824388E+02 -0.21907223255E+02 -0.54895411905E+02  0.91298852479E+02  0.00000000000E+00 0.  1.
<mgrwt>
<rscale>  0 0.28273213E+04</rscale>
<asrwt>0</asrwt>
<pdfrwt beam="1">  1        2 0.27596472E+00 0.28273213E+04</pdfrwt>
<pdfrwt beam="2">  1       -2 0.17139970E+00 0.28273213E+04</pdfrwt>
<totfact> 0.15732825E+00</totfact>
</mgrwt>
</event>
<event>
12    1  0.1477245E-007  0.1643172E+04  0.7818608E-02  0.8794456E-01
         -1   -1    0    0    0  501 -0.00000000000E+00  0.00000000000E+00  0.93029969578E+03  0.93029969578E+03  0.00000000000E+00 0.  1.
          1   -1    0    0  501    0  0.00000000000E+00 -0.00000000000E+00 -0.72557686187E+03  0.72557686187E+03  0.00000000000E+00 0. -1.
         23    2    1    2    0    0 -0.55720668635E+03 -0.14190739142E+03  0.38840999168E+02  0.58355007408E+03  0.91679150776E+02 0.  0.
        254    2    1    2    0    0  0.55720668635E+03  0.14190739142E+03  0.16588183474E+03  0.10723264836E+04  0.88980352056E+03 0.  0.
        -24    2    4    4    0    0 -0.21880324584E+03  0.15096682701E+03  0.11907540877E+02  0.27727309822E+03  0.77927775684E+02 0.  0.
         24    2    4    4    0    0  0.77600993219E+03 -0.90594355854E+01  0.15397429387E+03  0.79505338534E+03  0.78283549592E+02 0.  0.
         13    1    3    3    0    0 -0.33263702882E+03 -0.11511672556E+03 -0.10162870722E+02  0.35213994006E+03  0.00000000000E+00 0. -1.
        -13    1    3    3    0    0 -0.22456965753E+03 -0.26790665855E+02  0.49003869889E+02  0.23141013402E+03  0.00000000000E+00 0.  1.
          2    1    6    6  502    0  0.41071545955E+03  0.34275426184E+02  0.82276186909E+02  0.42027534366E+03  0.00000000000E+00 0. -1.
          1    1    5    5  503    0 -0.45434500747E+02 -0.23796125955E+01  0.41766812761E+01  0.45688084669E+02  0.00000000000E+00 0. -1.
         -2    1    5    5    0  503 -0.17336874509E+03  0.15334643960E+03  0.77308596010E+01  0.23158501356E+03  0.00000000000E+00 0.  1.
         -1    1    6    6    0  502  0.36529447264E+03 -0.43334861770E+02  0.71698106959E+02  0.37477804168E+03  0.00000000000E+00 0.  1.
<mgrwt>
<rscale>  0 0.16431725E+04</rscale>
<asrwt>0</asrwt>
<pdfrwt beam="1">  1        1 0.11162721E+00 0.16431725E+04</pdfrwt>
<pdfrwt beam="2">  1       -1 0.14312303E+00 0.16431725E+04</pdfrwt>
<totfact> 0.97522262E+00</totfact>
</mgrwt>
</event>
<event>
12    1  0.1477245E-007  0.1273736E+04  0.7818608E-02  0.9050656E-01
         -1   -1    0    0    0  501 -0.00000000000E+00  0.00000000000E+00  0.13576881386E+04  0.13576881386E+04  0.00000000000E+00 0.  1.
          1   -1    0    0  501    0  0.00000000000E+00 -0.00000000000E+00 -0.29874359621E+03  0.29874359621E+03  0.00000000000E+00 0. -1.
         23    2    1    2    0    0 -0.66438014209E+02 -0.13762304383E+03  0.60585214468E+03  0.63236375699E+03  0.97329276262E+02 0.  0.
        254    2    1    2    0    0  0.66438014209E+02  0.13762304383E+03  0.45309239771E+03  0.10240679778E+04  0.90557627531E+03 0.  0.
        -24    2    4    4    0    0 -0.53524377310E+02 -0.31680576000E+03  0.43438207578E+03  0.54651762827E+03  0.82237349908E+02 0.  0.
         24    2    4    4    0    0  0.11996239152E+03  0.45442880383E+03  0.18710321933E+02  0.47755034955E+03  0.82509072700E+02 0.  0.
         13    1    3    3    0    0 -0.98278541563E+01 -0.15329778156E+02  0.86752557210E+01  0.20170495221E+02  0.00000000000E+00 0. -1.
        -13    1    3    3    0    0 -0.56610160053E+02 -0.12229326567E+03  0.59717688896E+03  0.61219326177E+03  0.00000000000E+00 0.  1.
          4    1    6    6  502    0 -0.10646315369E+02  0.73183382251E+02 -0.24937572859E+01  0.73995745107E+02  0.00000000000E+00 0. -1.
          1    1    5    5  503    0  0.18556128642E+02 -0.85506714524E+02  0.14214644595E+03  0.16691716579E+03  0.00000000000E+00 0. -1.
         -2    1    5    5    0  503 -0.72080505952E+02 -0.23129904548E+03  0.29223562982E+03  0.37960046248E+03  0.00000000000E+00 0.  1.
         -3    1    6    6    0  502  0.13060870689E+03  0.38124542158E+03  0.21204079219E+02  0.40355460444E+03  0.00000000000E+00 0.  1.
<mgrwt>
<rscale>  0 0.12737357E+04</rscale>
<asrwt>0</asrwt>
<pdfrwt beam="1">  1        1 0.45960554E-01 0.12737357E+04</pdfrwt>
<pdfrwt beam="2">  1       -1 0.20887509E+00 0.12737357E+04</pdfrwt>
<totfact> 0.11358134E+01</totfact>
</mgrwt>
</event>
<event>
12    1  0.1477245E-007  0.2517003E+04  0.7818608E-02  0.8396953E-01
          1   -1    0    0  501    0  0.00000000000E+00  0.00000000000E+00  0.17000703394E+04  0.17000703394E+04  0.00000000000E+00 0. -1.
         -1   -1    0    0    0  501 -0.00000000000E+00 -0.00000000000E+00 -0.93162396493E+03  0.93162396493E+03  0.00000000000E+00 0.  1.
         23    2    1    2    0    0  0.60908872212E+03  0.51260548708E+03 -0.44825836256E+03  0.91821235390E+03  0.91787310973E+02 0.  0.
        254    2    1    2    0    0 -0.60908872212E+03 -0.51260548708E+03  0.12167047370E+04  0.17134819504E+04  0.90658508730E+03 0.  0.
        -24    2    4    4    0    0 -0.64669734058E+03  0.19258402920E+02  0.80175829027E+03  0.10332786400E+04  0.79120512271E+02 0.  0.
         24    2    4    4    0    0  0.37608618460E+02 -0.53186389000E+03  0.41494644675E+03  0.68020331042E+03  0.78755216795E+02 0.  0.
         13    1    3    3    0    0  0.18134295130E+03  0.16453282635E+03 -0.91466832388E+02  0.26138572716E+03  0.00000000000E+00 0. -1.
        -13    1    3    3    0    0  0.42774577082E+03  0.34807266072E+03 -0.35679153018E+03  0.65682662674E+03  0.00000000000E+00 0.  1.
          4    1    6    6  502    0 -0.13074427021E+02 -0.29418374116E+03  0.25228518860E+03  0.38776646398E+03  0.00000000000E+00 0. -1.
          3    1    5    5  503    0 -0.11209364602E+03  0.29709073837E+02  0.12044114669E+03  0.16719355359E+03  0.00000000000E+00 0. -1.
         -4    1    5    5    0  503 -0.53460369455E+03 -0.10450670917E+02  0.68131714358E+03  0.86608508641E+03  0.00000000000E+00 0.  1.
         -3    1    6    6    0  502  0.50683045481E+02 -0.23768014884E+03  0.16266125815E+03  0.29243684644E+03  0.00000000000E+00 0.  1.
<mgrwt>
<rscale>  0 0.25170032E+04</rscale>
<asrwt>0</asrwt>
<pdfrwt beam="1">  1        1 0.26154928E+00 0.25170032E+04</pdfrwt>
<pdfrwt beam="2">  1       -1 0.14332676E+00 0.25170032E+04</pdfrwt>
<totfact> 0.16656956E+00</totfact>
</mgrwt>
</event>
<event>
12    1  0.1477245E-007  0.2532261E+04  0.7818608E-02  0.8391582E-01
         -2   -1    0    0    0  501 -0.00000000000E+00  0.00000000000E+00  0.48651306405E+03  0.48651306405E+03  0.00000000000E+00 0.  1.
          2   -1    0    0  501    0  0.00000000000E+00 -0.00000000000E+00 -0.32950544528E+04  0.32950544528E+04  0.00000000000E+00 0. -1.
         23    2    1    2    0    0 -0.64344429818E+03  0.87827585396E+02  0.10548101303E+03  0.66397955485E+03  0.89489415758E+02 0.  0.
        254    2    1    2    0    0  0.64344429818E+03 -0.87827585396E+02 -0.29140224018E+04  0.31175879620E+04  0.89782731806E+03 0.  0.
        -24    2    4    4    0    0  0.64495364640E+03 -0.40889104031E+03 -0.18405495429E+04  0.19943292962E+04  0.81053271663E+02 0.  0.
         24    2    4    4    0    0 -0.15093482191E+01  0.32106345491E+03 -0.10734728588E+04  0.11232586658E+04  0.79259266811E+02 0.  0.
         13    1    3    3    0    0 -0.33592350896E+03  0.31874320729E+02  0.97784157164E+02  0.35131512576E+03  0.00000000000E+00 0. -1.
        -13    1    3    3    0    0 -0.30752078922E+03  0.55953264667E+02  0.76968558638E+01  0.31266442910E+03  0.00000000000E+00 0.  1.
          4    1    6    6  502    0  0.11022563842E+02  0.22876498944E+01 -0.27448646266E+02  0.29667464293E+02  0.00000000000E+00 0. -1.
          1    1    5    5  503    0  0.36590191735E+03 -0.27592265329E+03 -0.10619681066E+04  0.11566303572E+04  0.00000000000E+00 0. -1.
         -2    1    5    5    0  503  0.27905172905E+03 -0.13296838702E+03 -0.77858143635E+03  0.83769893903E+03  0.00000000000E+00 0.  1.
         -3    1    6    6    0  502 -0.12531912061E+02  0.31877580502E+03 -0.10460242126E+04  0.10935912015E+04  0.00000000000E+00 0.  1.
<mgrwt>
<rscale>  0 0.25322615E+04</rscale>
<asrwt>0</asrwt>
<pdfrwt beam="1">  1        2 0.50693147E+00 0.25322615E+04</pdfrwt>
<pdfrwt beam="2">  1       -2 0.74848162E-01 0.25322615E+04</pdfrwt>
<totfact> 0.16022830E+00</totfact>
</mgrwt>
</event>
<event>
12    1  0.1477245E-007  0.3084357E+04  0.7818608E-02  0.8220044E-01
         -1   -1    0    0    0  501 -0.00000000000E+00  0.00000000000E+00  0.16018420158E+04  0.16018420158E+04  0.00000000000E+00 0.  1.
          1   -1    0    0  501    0  0.00000000000E+00 -0.00000000000E+00 -0.14847373724E+04  0.14847373724E+04  0.00000000000E+00 0. -1.
         23    2    1    2    0    0  0.13250060867E+04 -0.48174686824E+03  0.53633668397E+02  0.14138716650E+04  0.91844107648E+02 0.  0.
        254    2    1    2    0    0 -0.13250060867E+04  0.48174686824E+03  0.63470974910E+02  0.16727077231E+04  0.89788717983E+03 0.  0.
        -24    2    4    4    0    0  0.54918741276E+02 -0.50719848495E+02  0.15367173636E+03  0.18851322335E+03  0.79584305270E+02 0.  0.
         24    2    4    4    0    0 -0.13799248279E+04  0.53246671674E+03 -0.90200761454E+02  0.14841944998E+04  0.83569137247E+02 0.  0.
         13    1    3    3    0    0  0.13263369203E+04 -0.48027170680E+03  0.54584226483E+02  0.14116692164E+04  0.00000000000E+00 0. -1.
        -13    1    3    3    0    0 -0.13308336872E+01 -0.14751614456E+01 -0.95055808614E+00  0.22024486983E+01  0.00000000000E+00 0.  1.
          4    1    6    6  502    0 -0.71790521248E+03  0.29509315401E+03 -0.90717649744E+01  0.77624104541E+03  0.00000000000E+00 0. -1.
          3    1    5    5  503    0  0.40978861280E+02 -0.54275166807E+02  0.51431501231E+02  0.85265820366E+02  0.00000000000E+00 0. -1.
         -4    1    5    5    0  503  0.13939879996E+02  0.35553183124E+01  0.10224023513E+03  0.10324740298E+03  0.00000000000E+00 0.  1.
         -3    1    6    6    0  502 -0.66201961545E+03  0.23737356272E+03 -0.81128996479E+02  0.70795345439E+03  0.00000000000E+00 0.  1.
<mgrwt>
<rscale>  0 0.30843571E+04</rscale>
<asrwt>0</asrwt>
<pdfrwt beam="1">  1        1 0.22842113E+00 0.30843571E+04</pdfrwt>
<pdfrwt beam="2">  1       -1 0.24643723E+00 0.30843571E+04</pdfrwt>
<totfact> 0.41666314E-01</totfact>
</mgrwt>
</event>
<event>
12    1  0.1477245E-007  0.1692198E+04  0.7818608E-02  0.8765827E-01
         -1   -1    0    0    0  501 -0.00000000000E+00  0.00000000000E+00  0.21883468830E+04  0.21883468830E+04  0.00000000000E+00 0.  1.
          1   -1    0    0  501    0  0.00000000000E+00 -0.00000000000E+00 -0.32713434204E+03  0.32713434204E+03  0.00000000000E+00 0. -1.
         23    2    1    2    0    0 -0.13649025872E+03 -0.19711474751E+03 -0.15264294594E+03  0.29875319685E+03  0.92031458036E+02 0.  0.
        254    2    1    2    0    0  0.13649025872E+03  0.19711474751E+03  0.20138554869E+04  0.22167280281E+04  0.89486614328E+03 0.  0.
        -24    2    4    4    0    0  0.13733213356E+02  0.24938881919E+03  0.76919797653E+02  0.27359292167E+03  0.80950893933E+02 0.  0.
         24    2    4    4    0    0  0.12275704537E+03 -0.52274071684E+02  0.19369356892E+04  0.19431351065E+04  0.79071531767E+02 0.  0.
         13    1    3    3    0    0 -0.10597248077E+03 -0.19835630084E+03 -0.12365274654E+03  0.25664253445E+03  0.00000000000E+00 0. -1.
        -13    1    3    3    0    0 -0.30517777957E+02  0.12415533288E+01 -0.28990199402E+02  0.42110662396E+02  0.00000000000E+00 0.  1.
          4    1    6    6  502    0  0.70536066816E+02  0.12619178239E+02  0.85433619343E+03  0.85733593870E+03  0.00000000000E+00 0. -1.
          3    1    5    5  503    0  0.88882242960E+01  0.13606583105E+03 -0.33519675099E+00  0.13635623663E+03  0.00000000000E+00 0. -1.
         -4    1    5    5    0  503  0.48449890602E+01  0.11332298815E+03  0.77254994404E+02  0.13723668504E+03  0.00000000000E+00 0.  1.
         -3    1    6    6    0  502  0.52220978550E+02 -0.64893249922E+02  0.10825994958E+04  0.10857991678E+04  0.00000000000E+00 0.  1.
<mgrwt>
<rscale>  0 0.16921979E+04</rscale>
<asrwt>0</asrwt>
<pdfrwt beam="1">  1        1 0.50328362E-01 0.16921979E+04</pdfrwt>
<pdfrwt beam="2">  1       -1 0.33666874E+00 0.16921979E+04</pdfrwt>
<totfact> 0.14225299E+00</totfact>
</mgrwt>
</event>
<event>
12    1  0.1477245E-007  0.1466202E+04  0.7818608E-02  0.8907244E-01
          2   -1    0    0  501    0  0.00000000000E+00  0.00000000000E+00  0.13070929585E+04  0.13070929585E+04  0.00000000000E+00 0. -1.
         -2   -1    0    0    0  501 -0.00000000000E+00 -0.00000000000E+00 -0.41116988685E+03  0.41116988685E+03  0.00000000000E+00 0.  1.
         23    2    1    2    0    0 -0.18709179187E+03  0.39210804459E+03  0.15655203639E+03  0.47105348929E+03  0.92902058431E+02 0.  0.
        254    2    1    2    0    0  0.18709179187E+03 -0.39210804459E+03  0.73937103524E+03  0.12472093560E+04  0.90559902429E+03 0.  0.
        -24    2    4    4    0    0  0.41323802053E+03  0.63775624293E+02  0.55587593392E+03  0.70022818138E+03  0.80550978965E+02 0.  0.
         24    2    4    4    0    0 -0.22614622867E+03 -0.45588366888E+03  0.18349510131E+03  0.54698117465E+03  0.80906841023E+02 0.  0.
         11    1    3    3    0    0 -0.14941603490E+03  0.25691690898E+03  0.14370150393E+03  0.33012357056E+03  0.00000000000E+00 0. -1.
        -11    1    3    3    0    0 -0.37675756971E+02  0.13519113561E+03  0.12850532457E+02  0.14092991874E+03  0.00000000000E+00 0.  1.
          2    1    6    6  502    0 -0.16114574828E+02 -0.20210386101E+02  0.29893030036E+02  0.39518761025E+02  0.00000000000E+00 0. -1.
          3    1    5    5  503    0  0.96954302373E+02  0.49178430153E+02  0.12781652721E+03  0.16779666078E+03  0.00000000000E+00 0. -1.
         -4    1    5    5    0  503  0.31628371816E+03  0.14597194140E+02  0.42805940671E+03  0.53243152060E+03  0.00000000000E+00 0.  1.
         -1    1    6    6    0  502 -0.21003165384E+03 -0.43567328278E+03  0.15360207128E+03  0.50746241363E+03  0.00000000000E+00 0.  1.
<mgrwt>
<rscale>  0 0.14662023E+04</rscale>
<asrwt>0</asrwt>
<pdfrwt beam="1">  1        2 0.20109122E+00 0.14662023E+04</pdfrwt>
<pdfrwt beam="2">  1       -2 0.63256906E-01 0.14662023E+04</pdfrwt>
<totfact> 0.36705721E+01</totfact>
</mgrwt>
</event>
<event>
12    1  0.1477245E-007  0.1067804E+04  0.7818608E-02  0.9237153E-01
         -2   -1    0    0    0  501 -0.00000000000E+00  0.00000000000E+00  0.18311803432E+03  0.18311803432E+03  0.00000000000E+00 0. -1.
          2   -1    0    0  501    0  0.00000000000E+00 -0.00000000000E+00 -0.15566540666E+04  0.15566540666E+04  0.00000000000E+00 0.  1.
         23    2    1    2    0    0 -0.12146039209E+03 -0.33913017034E+02 -0.21521255023E+03  0.26583657718E+03  0.91923470447E+02 0.  0.
        254    2    1    2    0    0  0.12146039209E+03  0.33913017034E+02 -0.11583234820E+04  0.14739355237E+04  0.90270145646E+03 0.  0.
        -24    2    4    4    0    0  0.37828062778E+03 -0.11689134298E+03 -0.10842965542E+04  0.11569353800E+04  0.77721533494E+02 0.  0.
         24    2    4    4    0    0 -0.25682023569E+03  0.15080436002E+03 -0.74026927833E+02  0.31700014367E+03  0.79438759930E+02 0.  0.
         13    1    3    3    0    0  0.13900921517E+02 -0.12921001399E+02 -0.23248767963E+02  0.30011549576E+02  0.00000000000E+00 0. -1.
        -13    1    3    3    0    0 -0.13536131360E+03 -0.20992015635E+02 -0.19196378227E+03  0.23582502760E+03  0.00000000000E+00 0.  1.
          2    1    6    6  502    0 -0.23328190052E+02  0.47471114431E+02 -0.13476009968E+02  0.54583092630E+02  0.00000000000E+00 0. -1.
          1    1    5    5  503    0  0.13232261581E+03 -0.46203123654E+01 -0.32481950833E+03  0.35076820685E+03  0.00000000000E+00 0. -1.
         -2    1    5    5    0  503  0.24595801197E+03 -0.11227103062E+03 -0.75947704585E+03  0.80616717320E+03  0.00000000000E+00 0.  1.
         -1    1    6    6    0  502 -0.23349204564E+03  0.10333324559E+03 -0.60550917865E+02  0.26241705104E+03  0.00000000000E+00 0.  1.
<mgrwt>
<rscale>  0 0.10678042E+04</rscale>
<asrwt>0</asrwt>
<pdfrwt beam="1">  1        2 0.23948524E+00 0.10678042E+04</pdfrwt>
<pdfrwt beam="2">  1       -2 0.28172005E-01 0.10678042E+04</pdfrwt>
<totfact> 0.13513200E+02</totfact>
</mgrwt>
</event>
<event>
12    1  0.1477245E-007  0.1374139E+04  0.7818608E-02  0.8972753E-01
          2   -1    0    0  501    0  0.00000000000E+00  0.00000000000E+00  0.37770207888E+03  0.37770207888E+03  0.00000000000E+00 0. -1.
         -2   -1    0    0    0  501 -0.00000000000E+00 -0.00000000000E+00 -0.12498337286E+04  0.12498337286E+04  0.00000000000E+00 0.  1.
         23    2    1    2    0    0 -0.27047334976E+03  0.26839127925E+03 -0.18945967794E+03  0.43524495010E+03  0.91397403245E+02 0.  0.
        254    2    1    2    0    0  0.27047334976E+03 -0.26839127925E+03 -0.68267197178E+03  0.11922908574E+04  0.90018151271E+03 0.  0.
        -24    2    4    4    0    0  0.18183312054E+03 -0.37748821104E+03 -0.85645104914E+03  0.95679872302E+03  0.79967265808E+02 0.  0.
         24    2    4    4    0    0  0.88640229215E+02  0.10909693179E+03  0.17377907736E+03  0.23549213436E+03  0.74149489903E+02 0.  0.
         11    1    3    3    0    0 -0.12949286257E+03  0.13600312098E+03 -0.14382004721E+03  0.23653637427E+03  0.00000000000E+00 0. -1.
        -11    1    3    3    0    0 -0.14098048719E+03  0.13238815826E+03 -0.45639630733E+02  0.19870857583E+03  0.00000000000E+00 0.  1.
          4    1    6    6  502    0  0.17777418288E+02  0.45592785786E+01  0.68983531362E+02  0.71383129809E+02  0.00000000000E+00 0. -1.
          3    1    5    5  503    0  0.20911447776E+02 -0.10979103465E+02 -0.27404795741E+02  0.36178062284E+02  0.00000000000E+00 0. -1.
         -4    1    5    5    0  503  0.16092167277E+03 -0.36650910758E+03 -0.82904625340E+03  0.92062066074E+03  0.00000000000E+00 0.  1.
         -3    1    6    6    0  502  0.70862810927E+02  0.10453765321E+03  0.10479554600E+03  0.16410900455E+03  0.00000000000E+00 0.  1.
<mgrwt>
<rscale>  0 0.13741394E+04</rscale>
<asrwt>0</asrwt>
<pdfrwt beam="1">  1        2 0.58108012E-01 0.13741394E+04</pdfrwt>
<pdfrwt beam="2">  1       -2 0.19228211E+00 0.13741394E+04</pdfrwt>
<totfact> 0.12364755E+01</totfact>
</mgrwt>
</event>
<event>
12    1  0.1477245E-007  0.3496734E+04  0.7818608E-02  0.8114564E-01
         -1   -1    0    0    0  501 -0.00000000000E+00  0.00000000000E+00  0.11020618114E+04  0.11020618114E+04  0.00000000000E+00 0.  1.
          1   -1    0    0  501    0  0.00000000000E+00 -0.00000000000E+00 -0.27736986784E+04  0.27736986784E+04  0.00000000000E+00 0. -1.
         23    2    1    2    0    0 -0.23961849825E+03  0.15538959716E+04 -0.12512806425E+04  0.20114004878E+04  0.89548649315E+02 0.  0.
        254    2    1    2    0    0  0.23961849825E+03 -0.15538959716E+04 -0.42035622445E+03  0.18643600020E+04  0.90946640746E+03 0.  0.
        -24    2    4    4    0    0 -0.62611353523E+02 -0.11162281848E+04  0.87824401616E+02  0.11240093963E+04  0.76147589081E+02 0.  0.
         24    2    4    4    0    0  0.30222985178E+03 -0.43766778680E+03 -0.50818062607E+03  0.74035060568E+03  0.83519433098E+02 0.  0.
         11    1    3    3    0    0 -0.24171527420E+03  0.14136605112E+04 -0.11269230960E+04  0.18239566823E+04  0.00000000000E+00 0. -1.
        -11    1    3    3    0    0  0.20967759483E+01  0.14023546044E+03 -0.12435754649E+03  0.18744380546E+03  0.00000000000E+00 0.  1.
          4    1    6    6  502    0  0.20176653282E+03 -0.33637457974E+03 -0.40837789923E+03  0.56624208625E+03  0.00000000000E+00 0. -1.
          1    1    5    5  503    0 -0.19939185480E+01 -0.62047830753E+03  0.67672068889E+02  0.62416088850E+03  0.00000000000E+00 0. -1.
         -2    1    5    5    0  503 -0.60617434975E+02 -0.49574987731E+03  0.20152332727E+02  0.49984850784E+03  0.00000000000E+00 0.  1.
         -3    1    6    6    0  502  0.10046331895E+03 -0.10129320706E+03 -0.99802726841E+02  0.17410851943E+03  0.00000000000E+00 0.  1.
<mgrwt>
<rscale>  0 0.34967341E+04</rscale>
<asrwt>0</asrwt>
<pdfrwt beam="1">  1        1 0.42672287E+00 0.34967341E+04</pdfrwt>
<pdfrwt beam="2">  1       -1 0.16954797E+00 0.34967341E+04</pdfrwt>
<totfact> 0.17599105E-01</totfact>
</mgrwt>
</event>
<event>
12    1  0.1477245E-007  0.1465419E+04  0.7818608E-02  0.8907780E-01
         -2   -1    0    0    0  501 -0.00000000000E+00  0.00000000000E+00  0.20364986905E+03  0.20364986905E+03  0.00000000000E+00 0.  1.
          2   -1    0    0  501    0  0.00000000000E+00 -0.00000000000E+00 -0.26362076804E+04  0.26362076804E+04  0.00000000000E+00 0. -1.
         23    2    1    2    0    0 -0.25687872907E+03  0.50631527844E+02 -0.51817036733E+02  0.28154138163E+03  0.89612003737E+02 0.  0.
        254    2    1    2    0    0  0.25687872907E+03 -0.50631527844E+02 -0.23807407747E+04  0.25583161679E+04  0.89916891939E+03 0.  0.
        -24    2    4    4    0    0 -0.52199044013E+02  0.25722349703E+03 -0.21737707237E+03  0.34995564538E+03  0.79545549972E+02 0.  0.
         24    2    4    4    0    0  0.30907777308E+03 -0.30785502487E+03 -0.21633637023E+04  0.22083605225E+04  0.80061868366E+02 0.  0.
         13    1    3    3    0    0 -0.18592338938E+02  0.10745439321E+02 -0.32784472915E+02  0.39191340851E+02  0.00000000000E+00 0. -1.
        -13    1    3    3    0    0 -0.23828639013E+03  0.39886088523E+02 -0.19032563818E+02  0.24235004078E+03  0.00000000000E+00 0.  1.
          4    1    6    6  502    0  0.10507535704E+03 -0.83256945642E+02 -0.50635112410E+03  0.52379768091E+03  0.00000000000E+00 0. -1.
          3    1    5    5  503    0 -0.50723592390E+02  0.79546405503E+02 -0.97143675765E+02  0.13541568297E+03  0.00000000000E+00 0. -1.
         -4    1    5    5    0  503 -0.14754516237E+01  0.17767709152E+03 -0.12023339660E+03  0.21453996240E+03  0.00000000000E+00 0.  1.
         -3    1    6    6    0  502  0.20400241605E+03 -0.22459807923E+03 -0.16570125782E+04  0.16845628416E+04  0.00000000000E+00 0.  1.
<mgrwt>
<rscale>  0 0.14654192E+04</rscale>
<asrwt>0</asrwt>
<pdfrwt beam="1">  1        2 0.40557039E+00 0.14654192E+04</pdfrwt>
<pdfrwt beam="2">  1       -2 0.31330751E-01 0.14654192E+04</pdfrwt>
<totfact> 0.26642393E+01</totfact>
</mgrwt>
</event>
<event>
12    1  0.1477245E-007  0.2143511E+04  0.7818608E-02  0.8542315E-01
          1   -1    0    0  501    0  0.00000000000E+00  0.00000000000E+00  0.17236111677E+04  0.17236111677E+04  0.00000000000E+00 0. -1.
         -1   -1    0    0    0  501 -0.00000000000E+00 -0.00000000000E+00 -0.66642616607E+03  0.66642616607E+03  0.00000000000E+00 0.  1.
         23    2    1    2    0    0  0.46229896716E+01 -0.86984590420E+03  0.59463061776E+03  0.10576694834E+04  0.91792676590E+02 0.  0.
        254    2    1    2    0    0 -0.46229896716E+01  0.86984590420E+03  0.46255438389E+03  0.13323678504E+04  0.89699178459E+03 0.  0.
        -24    2    4    4    0    0 -0.31132568666E+03  0.55121985235E+02  0.30015910108E+03  0.44332152386E+03  0.80475903999E+02 0.  0.
         24    2    4    4    0    0  0.30670269699E+03  0.81472391896E+03  0.16239528281E+03  0.88904632653E+03  0.78673593818E+02 0.  0.
         13    1    3    3    0    0  0.13930566621E+02 -0.79713089864E+03  0.51343228431E+03  0.94827445437E+03  0.00000000000E+00 0. -1.
        -13    1    3    3    0    0 -0.93075769495E+01 -0.72715005561E+02  0.81198333453E+02  0.10939502904E+03  0.00000000000E+00 0.  1.
          2    1    6    6  502    0  0.54650998843E+02  0.78850534394E+02  0.25251933561E+02  0.99205839533E+02  0.00000000000E+00 0. -1.
          3    1    5    5  503    0 -0.61329912893E+02  0.88360058413E+01  0.10843527326E+03  0.12489051886E+03  0.00000000000E+00 0. -1.
         -4    1    5    5    0  503 -0.24999577377E+03  0.46285979394E+02  0.19172382783E+03  0.31843100501E+03  0.00000000000E+00 0.  1.
         -1    1    6    6    0  502  0.25205169815E+03  0.73587338457E+03  0.13714334925E+03  0.78984048699E+03  0.00000000000E+00 0.  1.
<mgrwt>
<rscale>  0 0.21435107E+04</rscale>
<asrwt>0</asrwt>
<pdfrwt beam="1">  1        1 0.26517095E+00 0.21435107E+04</pdfrwt>
<pdfrwt beam="2">  1       -1 0.10252710E+00 0.21435107E+04</pdfrwt>
<totfact> 0.37858003E+00</totfact>
</mgrwt>
</event>
<event>
12    1  0.1477245E-007  0.3246077E+04  0.7818608E-02  0.8176753E-01
          1   -1    0    0  501    0  0.00000000000E+00  0.00000000000E+00  0.14411191905E+04  0.14411191905E+04  0.00000000000E+00 0. -1.
         -1   -1    0    0    0  501 -0.00000000000E+00 -0.00000000000E+00 -0.18279224384E+04  0.18279224384E+04  0.00000000000E+00 0.  1.
         23    2    1    2    0    0  0.29102028447E+03 -0.14185543632E+04  0.20450026567E+03  0.14652796233E+04  0.90745405554E+02 0.  0.
        254    2    1    2    0    0 -0.29102028447E+03  0.14185543632E+04 -0.59130351356E+03  0.18037620056E+04  0.89829184592E+03 0.  0.
        -24    2    4    4    0    0 -0.45190428141E+03  0.77509901454E+03  0.16186221162E+02  0.90077564955E+03  0.78350591334E+02 0.  0.
         24    2    4    4    0    0  0.16088399693E+03  0.64345534865E+03 -0.60748973472E+03  0.90298635606E+03  0.80138226061E+02 0.  0.
         13    1    3    3    0    0  0.12502356401E+03 -0.41419662544E+03  0.74680410669E+02  0.43905227459E+03  0.00000000000E+00 0.  1.
        -13    1    3    3    0    0  0.16599672046E+03 -0.10043577378E+04  0.12981985500E+03  0.10262273488E+04  0.00000000000E+00 0. -1.
          2    1    6    6  502    0  0.16317588351E+03  0.54396043302E+03 -0.50219985922E+03  0.75810554690E+03  0.00000000000E+00 0. -1.
          3    1    5    5  503    0 -0.25272537342E+03  0.37525827931E+03 -0.17840120195E+02  0.45277716423E+03  0.00000000000E+00 0. -1.
         -4    1    5    5    0  503 -0.19917890798E+03  0.39984073524E+03  0.34026341357E+02  0.44799848532E+03  0.00000000000E+00 0.  1.
         -1    1    6    6    0  502 -0.22918865717E+01  0.99494915632E+02 -0.10528987549E+03  0.14488080916E+03  0.00000000000E+00 0.  1.
<mgrwt>
<rscale>  0 0.32460771E+04</rscale>
<asrwt>0</asrwt>
<pdfrwt beam="1">  1        1 0.22171064E+00 0.32460771E+04</pdfrwt>
<pdfrwt beam="2">  1       -1 0.28121884E+00 0.32460771E+04</pdfrwt>
<totfact> 0.26184235E-01</totfact>
</mgrwt>
</event>
<event>
12    1  0.1477245E-007  0.1684979E+04  0.7818608E-02  0.8769978E-01
         -2   -1    0    0    0  501 -0.00000000000E+00  0.00000000000E+00  0.78038431283E+03  0.78038431283E+03  0.00000000000E+00 0.  1.
          2   -1    0    0  501    0  0.00000000000E+00 -0.00000000000E+00 -0.90953676251E+03  0.90953676251E+03  0.00000000000E+00 0. -1.
         23    2    1    2    0    0 -0.30595805126E+03 -0.54710037137E+02 -0.55076962294E+03  0.63894535793E+03  0.91106945838E+02 0.  0.
        254    2    1    2    0    0  0.30595805126E+03  0.54710037137E+02  0.42161717325E+03  0.10509757174E+04  0.91114510397E+03 0.  0.
        -24    2    4    4    0    0 -0.96921859046E+02 -0.30531113891E+03 -0.44394144159E+02  0.33322142047E+03  0.80355066526E+02 0.  0.
         24    2    4    4    0    0  0.40287991031E+03  0.36002117605E+03  0.46601131741E+03  0.71775429694E+03  0.77956484530E+02 0.  0.
         11    1    3    3    0    0 -0.25599443618E+03 -0.10780437863E+02 -0.41441417194E+03  0.48722528167E+03  0.00000000000E+00 0. -1.
        -11    1    3    3    0    0 -0.49963615082E+02 -0.43929599274E+02 -0.13635545100E+03  0.15172007626E+03  0.00000000000E+00 0.  1.
          2    1    6    6  502    0 -0.26998331878E+01 -0.92045460921E+00  0.14603817673E+01  0.32045359782E+01  0.00000000000E+00 0. -1.
          1    1    5    5  503    0 -0.88301056445E+01 -0.17765886237E+02 -0.24923109612E+02  0.31855280131E+02  0.00000000000E+00 0. -1.
         -2    1    5    5    0  503 -0.88091753401E+02 -0.28754525268E+03 -0.19471034547E+02  0.30136614034E+03  0.00000000000E+00 0.  1.
         -1    1    6    6    0  502  0.40557974349E+03  0.36094163066E+03  0.46455093565E+03  0.71454976096E+03  0.00000000000E+00 0.  1.
<mgrwt>
<rscale>  0 0.16849786E+04</rscale>
<asrwt>0</asrwt>
<pdfrwt beam="1">  1        2 0.13992873E+00 0.16849786E+04</pdfrwt>
<pdfrwt beam="2">  1       -2 0.12005913E+00 0.16849786E+04</pdfrwt>
<totfact> 0.14596521E+01</totfact>
</mgrwt>
</event>
<event>
12    1  0.1477245E-007  0.2353109E+04  0.7818608E-02  0.8457270E-01
         -2   -1    0    0    0  501 -0.00000000000E+00  0.00000000000E+00  0.11337765202E+04  0.11337765202E+04  0.00000000000E+00 0. -1.
          2   -1    0    0  501    0  0.00000000000E+00 -0.00000000000E+00 -0.12209467207E+04  0.12209467207E+04  0.00000000000E+00 0.  1.
         23    2    1    2    0    0 -0.25451557684E+03  0.71648904190E+03  0.62028244144E+03  0.98504517268E+03  0.86191409323E+02 0.  0.
        254    2    1    2    0    0  0.25451557684E+03 -0.71648904190E+03 -0.70745264191E+03  0.13696780682E+04  0.89296922902E+03 0.  0.
        -24    2    4    4    0    0 -0.26810148938E+03 -0.37995962860E+03 -0.71072063816E+02  0.47629614101E+03  0.74559021690E+02 0.  0.
         24    2    4    4    0    0  0.52261706622E+03 -0.33652941330E+03 -0.63638057810E+03  0.89338192720E+03  0.82282341635E+02 0.  0.
         13    1    3    3    0    0 -0.61158937673E+01  0.10035592993E+03  0.71562303035E+02  0.12340940015E+03  0.00000000000E+00 0.  1.
        -13    1    3    3    0    0 -0.24839968307E+03  0.61613311197E+03  0.54872013841E+03  0.86163577254E+03  0.00000000000E+00 0. -1.
          2    1    6    6  502    0  0.10146914966E+03 -0.32717207682E+02 -0.89144705172E+02  0.13897187655E+03  0.00000000000E+00 0. -1.
          1    1    5    5  503    0 -0.23590549963E+03 -0.35069103846E+03 -0.83969585847E+02  0.43091356507E+03  0.00000000000E+00 0. -1.
         -2    1    5    5    0  503 -0.32195989756E+02 -0.29268590134E+02  0.12897522031E+02  0.45382575944E+02  0.00000000000E+00 0.  1.
         -3    1    6    6    0  502  0.42114791656E+03 -0.30381220562E+03 -0.54723587292E+03  0.75441005065E+03  0.00000000000E+00 0.  1.
<mgrwt>
<rscale>  0 0.23531092E+04</rscale>
<asrwt>0</asrwt>
<pdfrwt beam="1">  1        2 0.18783796E+00 0.23531092E+04</pdfrwt>
<pdfrwt beam="2">  1       -2 0.17442716E+00 0.23531092E+04</pdfrwt>
<totfact> 0.32945206E+00</totfact>
</mgrwt>
</event>
<event>
12    1  0.1477245E-007  0.1356419E+04  0.7818608E-02  0.8985983E-01
          2   -1    0    0  501    0  0.00000000000E+00  0.00000000000E+00  0.14073114939E+04  0.14073114939E+04  0.00000000000E+00 0. -1.
         -2   -1    0    0    0  501 -0.00000000000E+00 -0.00000000000E+00 -0.32684180654E+03  0.32684180654E+03  0.00000000000E+00 0.  1.
         23    2    1    2    0    0 -0.77459333646E+02 -0.49648925696E+02 -0.15635048295E+03  0.20374529711E+03  0.92745395475E+02 0.  0.
        254    2    1    2    0    0  0.77459333646E+02  0.49648925696E+02  0.12368201703E+04  0.15304080033E+04  0.89663791956E+03 0.  0.
        -24    2    4    4    0    0 -0.27802206211E+03  0.14665791002E+03  0.10704703128E+04  0.11182580059E+04  0.76088551577E+02 0.  0.
         24    2    4    4    0    0  0.35548139576E+03 -0.97008984329E+02  0.16634985753E+03  0.41214999741E+03  0.80109796498E+02 0.  0.
         13    1    3    3    0    0  0.20815136957E+02 -0.64572572962E+00 -0.24941723873E+02  0.32492714229E+02  0.00000000000E+00 0.  1.
        -13    1    3    3    0    0 -0.98274470603E+02 -0.49003199966E+02 -0.13140875908E+03  0.17125258288E+03  0.00000000000E+00 0. -1.
          2    1    6    6  502    0  0.26103375144E+03 -0.38702590050E+02  0.96358593765E+02  0.28092968597E+03  0.00000000000E+00 0. -1.
          3    1    5    5  503    0 -0.27305326555E+03  0.15314918961E+03  0.10149051054E+04  0.10620946912E+04  0.00000000000E+00 0. -1.
         -4    1    5    5    0  503 -0.49687965551E+01 -0.64912795902E+01  0.55565207325E+02  0.56163314672E+02  0.00000000000E+00 0.  1.
         -1    1    6    6    0  502  0.94447644318E+02 -0.58306394279E+02  0.69991263764E+02  0.13122031144E+03  0.00000000000E+00 0.  1.
<mgrwt>
<rscale>  0 0.13564192E+04</rscale>
<asrwt>0</asrwt>
<pdfrwt beam="1">  1        2 0.21650946E+00 0.13564192E+04</pdfrwt>
<pdfrwt beam="2">  1       -2 0.50283355E-01 0.13564192E+04</pdfrwt>
<totfact> 0.52330221E+01</totfact>
</mgrwt>
</event>
<event>
12    1  0.1477245E-007  0.2223298E+04  0.7818608E-02  0.8508793E-01
          2   -1    0    0  501    0  0.00000000000E+00  0.00000000000E+00  0.32389384801E+04  0.32389384801E+04  0.00000000000E+00 0.  1.
         -2   -1    0    0    0  501 -0.00000000000E+00 -0.00000000000E+00 -0.38153343538E+03  0.38153343538E+03  0.00000000000E+00 0. -1.
         23    2    1    2    0    0  0.43121782964E+03  0.55205141681E+03  0.20778021494E+03  0.73684887270E+03  0.95205357414E+02 0.  0.
        254    2    1    2    0    0 -0.43121782964E+03 -0.55205141681E+03  0.26496248298E+04  0.28836230428E+04  0.89669422372E+03 0.  0.
        -24    2    4    4    0    0  0.26133045184E+03 -0.16278068692E+03  0.10303743279E+04  0.10782528112E+04  0.78528417267E+02 0.  0.
         24    2    4    4    0    0 -0.69254828148E+03 -0.38927072989E+03  0.16192505019E+04  0.18053702316E+04  0.78959873798E+02 0.  0.
         11    1    3    3    0    0  0.43034269402E+03  0.53277766515E+03  0.21232398460E+03  0.71702743966E+03  0.00000000000E+00 0. -1.
        -11    1    3    3    0    0  0.87513561805E+00  0.19273751657E+02 -0.45437696586E+01  0.19821433046E+02  0.00000000000E+00 0.  1.
          4    1    6    6  502    0 -0.60510026847E+03 -0.32623809671E+03  0.13402607948E+04  0.15062790673E+04  0.00000000000E+00 0. -1.
          3    1    5    5  503    0  0.11994335776E+03 -0.69641455081E+02  0.59888859307E+03  0.61473887809E+03  0.00000000000E+00 0. -1.
         -4    1    5    5    0  503  0.14138709408E+03 -0.93139231836E+02  0.43148573481E+03  0.46351393315E+03  0.00000000000E+00 0.  1.
         -3    1    6    6    0  502 -0.87448013006E+02 -0.63032633182E+02  0.27898970716E+03  0.29909116424E+03  0.00000000000E+00 0.  1.
<mgrwt>
<rscale>  0 0.22232978E+04</rscale>
<asrwt>0</asrwt>
<pdfrwt beam="1">  1        2 0.49829821E+00 0.22232978E+04</pdfrwt>
<pdfrwt beam="2">  1       -2 0.58697454E-01 0.22232978E+04</pdfrwt>
<totfact> 0.30321640E+00</totfact>
</mgrwt>
</event>
<event>
12    1  0.1477245E-007  0.3014149E+04  0.7818608E-02  0.8239702E-01
          1   -1    0    0  501    0  0.00000000000E+00  0.00000000000E+00  0.98676030760E+03  0.98676030760E+03  0.00000000000E+00 0. -1.
         -1   -1    0    0    0  501 -0.00000000000E+00 -0.00000000000E+00 -0.23017476554E+04  0.23017476554E+04  0.00000000000E+00 0.  1.
         23    2    1    2    0    0 -0.10239446876E+04 -0.63769925223E+03 -0.13137736782E+04  0.17858773984E+04  0.90739985288E+02 0.  0.
        254    2    1    2    0    0  0.10239446876E+04  0.63769925223E+03 -0.12136696750E+01  0.15026305647E+04  0.89597660750E+03 0.  0.
        -24    2    4    4    0    0  0.45237786741E+02 -0.18215789977E+03  0.86957942801E+02  0.22025445257E+03  0.75646429270E+02 0.  0.
         24    2    4    4    0    0  0.97870690091E+03  0.81985715200E+03 -0.88171612476E+02  0.12823761121E+04  0.81739293090E+02 0.  0.
         11    1    3    3    0    0 -0.16102997614E+03 -0.10764159166E+03 -0.26177365388E+03  0.32564215227E+03  0.00000000000E+00 0. -1.
        -11    1    3    3    0    0 -0.86291471151E+03 -0.53005766057E+03 -0.10520000243E+04  0.14602352461E+04  0.00000000000E+00 0.  1.
          4    1    6    6  502    0  0.32800398412E+03  0.31396475819E+03 -0.62356974034E+01  0.45409180449E+03  0.00000000000E+00 0. -1.
          3    1    5    5  503    0 -0.21952615723E+01 -0.57081798123E+02 -0.58816135687E+01  0.57425989139E+02  0.00000000000E+00 0. -1.
         -4    1    5    5    0  503  0.47433048313E+02 -0.12507610165E+03  0.92839556370E+02  0.16282846343E+03  0.00000000000E+00 0.  1.
         -3    1    6    6    0  502  0.65070291679E+03  0.50589239381E+03 -0.81935915073E+02  0.82828430759E+03  0.00000000000E+00 0.  1.
<mgrwt>
<rscale>  0 0.30141488E+04</rscale>
<asrwt>0</asrwt>
<pdfrwt beam="1">  1        1 0.15180928E+00 0.30141488E+04</pdfrwt>
<pdfrwt beam="2">  1       -1 0.35411502E+00 0.30141488E+04</pdfrwt>
<totfact> 0.19214151E-01</totfact>
</mgrwt>
</event>
<event>
12    1  0.1477245E-007  0.1651830E+04  0.7818608E-02  0.8789325E-01
         -2   -1    0    0    0  501 -0.00000000000E+00  0.00000000000E+00  0.46243855316E+03  0.46243855316E+03  0.00000000000E+00 0.  1.
          2   -1    0    0  501    0  0.00000000000E+00 -0.00000000000E+00 -0.14750829158E+04  0.14750829158E+04  0.00000000000E+00 0. -1.
         23    2    1    2    0    0  0.42484950324E+03 -0.22571310661E+03 -0.72958397629E+03  0.87866849207E+03  0.91225180692E+02 0.  0.
        254    2    1    2    0    0 -0.42484950324E+03  0.22571310661E+03 -0.28306038630E+03  0.10588529768E+04  0.89977938261E+03 0.  0.
        -24    2    4    4    0    0  0.25521179808E+03  0.11905624403E+03  0.33922148818E+02  0.29683894876E+03  0.87493989494E+02 0.  0.
         24    2    4    4    0    0 -0.68006130132E+03  0.10665686259E+03 -0.31698253512E+03  0.76201402808E+03  0.79551188088E+02 0.  0.
         13    1    3    3    0    0  0.21039729011E+03 -0.10668156726E+03 -0.43936465216E+03  0.49868755152E+03  0.00000000000E+00 0. -1.
        -13    1    3    3    0    0  0.21445221312E+03 -0.11903153936E+03 -0.29021932414E+03  0.37998094055E+03  0.00000000000E+00 0.  1.
          2    1    6    6  502    0 -0.10168870448E+03  0.37094082247E+02 -0.72324989428E+02  0.13018243988E+03  0.00000000000E+00 0. -1.
          3    1    5    5  503    0  0.75308770480E+02  0.70105422925E+02  0.39758714009E+02  0.11030383753E+03  0.00000000000E+00 0. -1.
         -4    1    5    5    0  503  0.17990302760E+03  0.48950821102E+02 -0.58365651910E+01  0.18653511123E+03  0.00000000000E+00 0.  1.
         -1    1    6    6    0  502 -0.57837259684E+03  0.69562780339E+02 -0.24465754569E+03  0.63183158820E+03  0.00000000000E+00 0.  1.
<mgrwt>
<rscale>  0 0.16518295E+04</rscale>
<asrwt>0</asrwt>
<pdfrwt beam="1">  1        2 0.22693584E+00 0.16518295E+04</pdfrwt>
<pdfrwt beam="2">  1       -2 0.71144392E-01 0.16518295E+04</pdfrwt>
<totfact> 0.22468196E+01</totfact>
</mgrwt>
</event>
<event>
12    1  0.1477245E-007  0.2479594E+04  0.7818608E-02  0.8410291E-01
          2   -1    0    0  501    0  0.00000000000E+00  0.00000000000E+00  0.23698449958E+04  0.23698449958E+04  0.00000000000E+00 0. -1.
         -2   -1    0    0    0  501 -0.00000000000E+00 -0.00000000000E+00 -0.64860645738E+03  0.64860645738E+03  0.00000000000E+00 0.  1.
         23    2    1    2    0    0 -0.55231353207E+02 -0.50522700767E+03  0.19036804328E+04  0.19724811175E+04  0.91529978462E+02 0.  0.
        254    2    1    2    0    0  0.55231353207E+02  0.50522700767E+03 -0.18244189434E+03  0.10459703357E+04  0.89580358715E+03 0.  0.
        -24    2    4    4    0    0 -0.40149937941E+03  0.28756837359E+03  0.59714748915E+01  0.50025056241E+03  0.79483617945E+02 0.  0.
         24    2    4    4    0    0  0.45673073262E+03  0.21765863408E+03 -0.18841336923E+03  0.54571977332E+03  0.79575311348E+02 0.  0.
         11    1    3    3    0    0  0.93535135623E+01 -0.25638789152E+02  0.53450314929E+02  0.60014763943E+02  0.00000000000E+00 0.  1.
        -11    1    3    3    0    0 -0.64584866770E+02 -0.47958821852E+03  0.18502301179E+04  0.19124663535E+04  0.00000000000E+00 0. -1.
          2    1    6    6  502    0  0.17027091453E+03  0.49351886298E+02 -0.39481241782E+02  0.18162202914E+03  0.00000000000E+00 0. -1.
          1    1    5    5  503    0 -0.12134391497E+03  0.46302058616E+02 -0.93009065422E+01  0.13021034212E+03  0.00000000000E+00 0. -1.
         -2    1    5    5    0  503 -0.28015546444E+03  0.24126631498E+03  0.15272381434E+02  0.37004022029E+03  0.00000000000E+00 0.  1.
         -1    1    6    6    0  502  0.28645981809E+03  0.16830674778E+03 -0.14893212745E+03  0.36409774417E+03  0.00000000000E+00 0.  1.
<mgrwt>
<rscale>  0 0.24795941E+04</rscale>
<asrwt>0</asrwt>
<pdfrwt beam="1">  1        2 0.36459153E+00 0.24795941E+04</pdfrwt>
<pdfrwt beam="2">  1       -2 0.99785610E-01 0.24795941E+04</pdfrwt>
<totfact> 0.30677281E+00</totfact>
</mgrwt>
</event>
<event>
12    1  0.1477245E-007  0.1565725E+04  0.7818608E-02  0.8841886E-01
         -1   -1    0    0    0  501 -0.00000000000E+00  0.00000000000E+00  0.11901479552E+04  0.11901479552E+04  0.00000000000E+00 0.  1.
          1   -1    0    0  501    0  0.00000000000E+00 -0.00000000000E+00 -0.51495568869E+03  0.51495568869E+03  0.00000000000E+00 0. -1.
         23    2    1    2    0    0 -0.24761018665E+03  0.43031903637E+03  0.38429423292E+03  0.63426026545E+03  0.90104102383E+02 0.  0.
        254    2    1    2    0    0  0.24761018665E+03 -0.43031903637E+03  0.29089803362E+03  0.10708433785E+04  0.90310497600E+03 0.  0.
        -24    2    4    4    0    0 -0.29489275618E+03 -0.36258444488E+03  0.89122305156E+02  0.48291654375E+03  0.82682438498E+02 0.  0.
         24    2    4    4    0    0  0.54250294283E+03 -0.67734591495E+02  0.20177572846E+03  0.58792683473E+03  0.77763105221E+02 0.  0.
         11    1    3    3    0    0 -0.12141409175E+03  0.15033656079E+03  0.10921778612E+03  0.22197069174E+03  0.00000000000E+00 0. -1.
        -11    1    3    3    0    0 -0.12619609490E+03  0.27998247558E+03  0.27507644680E+03  0.41228957370E+03  0.00000000000E+00 0.  1.
          2    1    6    6  502    0  0.91767998933E+02 -0.39130713166E+02  0.24402436537E+02  0.10270373533E+03  0.00000000000E+00 0. -1.
          1    1    5    5  503    0 -0.35053134229E+02 -0.60632632390E+02  0.42285936657E+02  0.81811605343E+02  0.00000000000E+00 0. -1.
         -2    1    5    5    0  503 -0.25983962195E+03 -0.30195181249E+03  0.46836368500E+02  0.40110493840E+03  0.00000000000E+00 0.  1.
         -1    1    6    6    0  502  0.45073494390E+03 -0.28603878329E+02  0.17737329193E+03  0.48522309940E+03  0.00000000000E+00 0.  1.
<mgrwt>
<rscale>  0 0.15657247E+04</rscale>
<asrwt>0</asrwt>
<pdfrwt beam="1">  1        1 0.79223952E-01 0.15657247E+04</pdfrwt>
<pdfrwt beam="2">  1       -1 0.18309968E+00 0.15657247E+04</pdfrwt>
<totfact> 0.80937909E+00</totfact>
</mgrwt>
</event>
<event>
12    1  0.1477245E-007  0.1278856E+04  0.7818608E-02  0.9046503E-01
         -2   -1    0    0    0  501 -0.00000000000E+00  0.00000000000E+00  0.11194206519E+03  0.11194206519E+03  0.00000000000E+00 0.  1.
          2   -1    0    0  501    0  0.00000000000E+00 -0.00000000000E+00 -0.36524955186E+04  0.36524955186E+04  0.00000000000E+00 0. -1.
         23    2    1    2    0    0  0.81963892545E+02 -0.16083089860E+03 -0.15004782138E+03  0.25105854577E+03  0.89058335238E+02 0.  0.
        254    2    1    2    0    0 -0.81963892545E+02  0.16083089860E+03 -0.33905056321E+04  0.35133790380E+04  0.90317172585E+03 0.  0.
        -24    2    4    4    0    0 -0.50657582451E+02  0.44878996147E+03 -0.29152284641E+04  0.29511946236E+04  0.83750152317E+02 0.  0.
         24    2    4    4    0    0 -0.31306310093E+02 -0.28795906286E+03 -0.47527716793E+03  0.56218441447E+03  0.79135469806E+02 0.  0.
         13    1    3    3    0    0  0.14443920113E+02  0.12329290880E+01 -0.43123405470E+02  0.45494780379E+02  0.00000000000E+00 0. -1.
        -13    1    3    3    0    0  0.67519972432E+02 -0.16206382769E+03 -0.10692441591E+03  0.20556376539E+03  0.00000000000E+00 0.  1.
          4    1    6    6  502    0 -0.48132134197E+02 -0.25946480007E+03 -0.44483576595E+03  0.51722098128E+03  0.00000000000E+00 0. -1.
          1    1    5    5  503    0 -0.63470129271E+01  0.31188673547E+03 -0.18178202593E+04  0.18443926143E+04  0.00000000000E+00 0. -1.
         -2    1    5    5    0  503 -0.44310569524E+02  0.13690322600E+03 -0.10974082048E+04  0.11068020093E+04  0.00000000000E+00 0.  1.
         -3    1    6    6    0  502  0.16825824104E+02 -0.28494262799E+02 -0.30441401982E+02  0.44963433186E+02  0.00000000000E+00 0.  1.
<mgrwt>
<rscale>  0 0.12788556E+04</rscale>
<asrwt>0</asrwt>
<pdfrwt beam="1">  1        2 0.56192227E+00 0.12788556E+04</pdfrwt>
<pdfrwt beam="2">  1       -2 0.17221860E-01 0.12788556E+04</pdfrwt>
<totfact> 0.17661385E+01</totfact>
</mgrwt>
</event>
<event>
12    1  0.1477245E-007  0.1378081E+04  0.7818608E-02  0.8969839E-01
         -2   -1    0    0    0  501 -0.00000000000E+00  0.00000000000E+00  0.52913798827E+03  0.52913798827E+03  0.00000000000E+00 0.  1.
          2   -1    0    0  501    0  0.00000000000E+00 -0.00000000000E+00 -0.89726486369E+03  0.89726486369E+03  0.00000000000E+00 0. -1.
         23    2    1    2    0    0  0.28715950564E+03  0.24662344042E+02  0.16804802202E+03  0.34508254733E+03  0.88164697450E+02 0.  0.
        254    2    1    2    0    0 -0.28715950564E+03 -0.24662344042E+02 -0.53617489744E+03  0.10813203046E+04  0.89370088266E+03 0.  0.
        -24    2    4    4    0    0  0.26957955811E+03  0.16535394196E+03 -0.89040305189E+02  0.33809356135E+03  0.79774783039E+02 0.  0.
         24    2    4    4    0    0 -0.55673906375E+03 -0.19001628600E+03 -0.44713459225E+03  0.74322674328E+03  0.79950448958E+02 0.  0.
         13    1    3    3    0    0  0.30199390300E+02  0.30723841550E+02  0.35854098997E+02  0.56048853949E+02  0.00000000000E+00 0. -1.
        -13    1    3    3    0    0  0.25696011534E+03 -0.60614975075E+01  0.13219392303E+03  0.28903369339E+03  0.00000000000E+00 0.  1.
          2    1    6    6  502    0 -0.38894772534E+03 -0.12197551928E+03 -0.26371285296E+03  0.48549235748E+03  0.00000000000E+00 0. -1.
          1    1    5    5  503    0  0.17534096924E+03  0.65545758942E+02 -0.34274370567E+02  0.19030353252E+03  0.00000000000E+00 0. -1.
         -4    1    5    5    0  503  0.94238588862E+02  0.99808183014E+02 -0.54765934622E+02  0.14779002883E+03  0.00000000000E+00 0.  1.
         -1    1    6    6    0  502 -0.16779133841E+03 -0.68040766719E+02 -0.18342173929E+03  0.25773438580E+03  0.00000000000E+00 0.  1.
<mgrwt>
<rscale>  0 0.13780812E+04</rscale>
<asrwt>0</asrwt>
<pdfrwt beam="1">  1        2 0.13804075E+00 0.13780812E+04</pdfrwt>
<pdfrwt beam="2">  1       -2 0.81405846E-01 0.13780812E+04</pdfrwt>
<totfact> 0.38164079E+01</totfact>
</mgrwt>
</event>
<event>
12    1  0.1477245E-007  0.1976078E+04  0.7818608E-02  0.8617887E-01
         -1   -1    0    0    0  501 -0.00000000000E+00  0.00000000000E+00  0.61186469096E+03  0.61186469096E+03  0.00000000000E+00 0.  1.
          1   -1    0    0  501    0  0.00000000000E+00 -0.00000000000E+00 -0.15954847862E+04  0.15954847862E+04  0.00000000000E+00 0. -1.
         23    2    1    2    0    0  0.19595276428E+03  0.70990034521E+03 -0.67024368940E+03  0.99996631319E+03  0.91378544372E+02 0.  0.
        254    2    1    2    0    0 -0.19595276428E+03 -0.70990034521E+03 -0.31337640584E+03  0.12073831640E+04  0.90399853259E+03 0.  0.
        -24    2    4    4    0    0 -0.35810512957E+03 -0.38175561167E+03  0.20535378174E+03  0.56738188378E+03  0.75996022928E+02 0.  0.
         24    2    4    4    0    0  0.16215236528E+03 -0.32814473354E+03 -0.51873018758E+03  0.64000128019E+03  0.80921415069E+02 0.  0.
         13    1    3    3    0    0  0.16463718860E+03  0.57359281049E+03 -0.58773503393E+03  0.83758377863E+03  0.00000000000E+00 0. -1.
        -13    1    3    3    0    0  0.31315575680E+02  0.13630753472E+03 -0.82508655469E+02  0.16238253456E+03  0.00000000000E+00 0.  1.
          4    1    6    6  502    0 -0.37049852484E+01 -0.65109507137E-01  0.56935056819E+00  0.37490418787E+01  0.00000000000E+00 0. -1.
          3    1    5    5  503    0 -0.12597922944E+03 -0.17105521382E+03  0.53631026028E+02  0.21910485932E+03  0.00000000000E+00 0. -1.
         -4    1    5    5    0  503 -0.23212590013E+03 -0.21070039785E+03  0.15172275571E+03  0.34827702446E+03  0.00000000000E+00 0.  1.
         -3    1    6    6    0  502  0.16585735053E+03 -0.32807962403E+03 -0.51929953815E+03  0.63625223831E+03  0.00000000000E+00 0.  1.
<mgrwt>
<rscale>  0 0.19760777E+04</rscale>
<asrwt>0</asrwt>
<pdfrwt beam="1">  1        1 0.24545919E+00 0.19760777E+04</pdfrwt>
<pdfrwt beam="2">  1       -1 0.94133031E-01 0.19760777E+04</pdfrwt>
<totfact> 0.57098638E+00</totfact>
</mgrwt>
</event>
<event>
12    1  0.1477245E-007  0.1415019E+04  0.7818608E-02  0.8943018E-01
         -2   -1    0    0    0  501 -0.00000000000E+00  0.00000000000E+00  0.10378203370E+04  0.10378203370E+04  0.00000000000E+00 0.  1.
          2   -1    0    0  501    0  0.00000000000E+00 -0.00000000000E+00 -0.48232767435E+03  0.48232767435E+03  0.00000000000E+00 0. -1.
         23    2    1    2    0    0 -0.95943520013E+02  0.14682622068E+03  0.56190008008E+03  0.59553292074E+03  0.90358516916E+02 0.  0.
        254    2    1    2    0    0  0.95943520013E+02 -0.14682622068E+03 -0.64074174268E+01  0.92461509061E+03  0.90780444627E+03 0.  0.
        -24    2    4    4    0    0 -0.18295643586E+03 -0.21497207520E+03 -0.35839951577E+03  0.46328456563E+03  0.80599784768E+02 0.  0.
         24    2    4    4    0    0  0.27889995588E+03  0.68145854519E+02  0.35199209834E+03  0.46133052498E+03  0.80612487289E+02 0.  0.
         13    1    3    3    0    0 -0.94708669520E+02  0.14796717345E+03  0.56517572476E+03  0.59185100859E+03  0.00000000000E+00 0.  1.
        -13    1    3    3    0    0 -0.12348504935E+01 -0.11409527755E+01 -0.32756446862E+01  0.36819121510E+01  0.00000000000E+00 0. -1.
          2    1    6    6  502    0  0.21873234822E+03  0.86596786946E+02  0.27533420696E+03  0.36214882188E+03  0.00000000000E+00 0. -1.
          3    1    5    5  503    0 -0.18817993448E+03 -0.18853816702E+03 -0.31977936030E+03  0.41619366578E+03  0.00000000000E+00 0. -1.
         -4    1    5    5    0  503  0.52234986192E+01 -0.26433908178E+02 -0.38620155473E+02  0.47090899844E+02  0.00000000000E+00 0.  1.
         -3    1    6    6    0  502  0.60167607659E+02 -0.18450932427E+02  0.76657891388E+02  0.99181703105E+02  0.00000000000E+00 0.  1.
<mgrwt>
<rscale>  0 0.14150187E+04</rscale>
<asrwt>0</asrwt>
<pdfrwt beam="1">  1        2 0.74204258E-01 0.14150187E+04</pdfrwt>
<pdfrwt beam="2">  1       -2 0.15966467E+00 0.14150187E+04</pdfrwt>
<totfact> 0.15798530E+01</totfact>
</mgrwt>
</event>
<event>
12    1  0.1477245E-007  0.1596835E+04  0.7818608E-02  0.8822495E-01
          1   -1    0    0  501    0  0.00000000000E+00  0.00000000000E+00  0.14759594988E+04  0.14759594988E+04  0.00000000000E+00 0. -1.
         -1   -1    0    0    0  501 -0.00000000000E+00 -0.00000000000E+00 -0.43190224309E+03  0.43190224309E+03  0.00000000000E+00 0.  1.
         23    2    1    2    0    0 -0.26410981223E+03  0.93219105518E+02 -0.19130833663E+03  0.35097599527E+03  0.90230122684E+02 0.  0.
        254    2    1    2    0    0  0.26410981223E+03 -0.93219105518E+02  0.12353655923E+04  0.15568857466E+04  0.90516367954E+03 0.  0.
        -24    2    4    4    0    0 -0.25431194963E+03 -0.26175794566E+03  0.67234430812E+03  0.76907550069E+03  0.78983968331E+02 0.  0.
         24    2    4    4    0    0  0.51842176186E+03  0.16853884014E+03  0.56302128422E+03  0.78781024594E+03  0.80532933139E+02 0.  0.
         11    1    3    3    0    0 -0.17210296741E+02  0.31165739038E+02 -0.44894521288E+02  0.57297605931E+02  0.00000000000E+00 0. -1.
        -11    1    3    3    0    0 -0.24689951549E+03  0.62053366480E+02 -0.14641381534E+03  0.29367838934E+03  0.00000000000E+00 0.  1.
          2    1    6    6  502    0  0.46493046963E+03  0.17235559936E+03  0.52450825424E+03  0.72178646634E+03  0.00000000000E+00 0. -1.
          1    1    5    5  503    0 -0.20881888272E+03 -0.25070257663E+03  0.59793111016E+03  0.68115983456E+03  0.00000000000E+00 0. -1.
         -2    1    5    5    0  503 -0.45493066905E+02 -0.11055369027E+02  0.74413197959E+02  0.87915666131E+02  0.00000000000E+00 0.  1.
         -1    1    6    6    0  502  0.53491292227E+02 -0.38167592156E+01  0.38513029985E+02  0.66023779607E+02  0.00000000000E+00 0.  1.
<mgrwt>
<rscale>  0 0.15968346E+04</rscale>
<asrwt>0</asrwt>
<pdfrwt beam="1">  1        1 0.22707069E+00 0.15968346E+04</pdfrwt>
<pdfrwt beam="2">  1       -1 0.66446500E-01 0.15968346E+04</pdfrwt>
<totfact> 0.14974141E+01</totfact>
</mgrwt>
</event>
<event>
12    1  0.1477245E-007  0.1904665E+04  0.7818608E-02  0.8652538E-01
          1   -1    0    0  501    0  0.00000000000E+00  0.00000000000E+00  0.10872550676E+04  0.10872550676E+04  0.00000000000E+00 0. -1.
         -1   -1    0    0    0  501 -0.00000000000E+00 -0.00000000000E+00 -0.83415323047E+03  0.83415323047E+03  0.00000000000E+00 0.  1.
         23    2    1    2    0    0  0.14290590428E+03  0.17075010844E+03  0.80411552787E+03  0.83920284197E+03  0.89899559504E+02 0.  0.
        254    2    1    2    0    0 -0.14290590428E+03 -0.17075010844E+03 -0.55101369072E+03  0.10822054561E+04  0.90441962876E+03 0.  0.
        -24    2    4    4    0    0 -0.15153829996E+03  0.82855846644E+02  0.20543404149E+03  0.28021117203E+03  0.80536996785E+02 0.  0.
         24    2    4    4    0    0  0.86323956772E+01 -0.25360595509E+03 -0.75644773221E+03  0.80199428409E+03  0.81185968194E+02 0.  0.
         11    1    3    3    0    0  0.11770087528E+03  0.16777557808E+03  0.76922045941E+03  0.79605417895E+03  0.00000000000E+00 0. -1.
        -11    1    3    3    0    0  0.25205029005E+02  0.29745303619E+01  0.34895068453E+02  0.43148663019E+02  0.00000000000E+00 0.  1.
          4    1    6    6  502    0 -0.29698773385E+02 -0.18165926820E+03 -0.55258477038E+03  0.58243629293E+03  0.00000000000E+00 0. -1.
          1    1    5    5  503    0 -0.13368211235E+03  0.34966801183E+02  0.16373287626E+03  0.21424761169E+03  0.00000000000E+00 0. -1.
         -2    1    5    5    0  503 -0.17856187607E+02  0.47889045461E+02  0.41701165232E+02  0.65963560340E+02  0.00000000000E+00 0.  1.
         -3    1    6    6    0  502  0.38331169063E+02 -0.71946686887E+02 -0.20386296183E+03  0.21955799116E+03  0.00000000000E+00 0.  1.
<mgrwt>
<rscale>  0 0.19046651E+04</rscale>
<asrwt>0</asrwt>
<pdfrwt beam="1">  1        1 0.16727001E+00 0.19046651E+04</pdfrwt>
<pdfrwt beam="2">  1       -1 0.12833127E+00 0.19046651E+04</pdfrwt>
<totfact> 0.63529847E+00</totfact>
</mgrwt>
</event>
<event>
12    1  0.1477245E-007  0.3062862E+04  0.7818608E-02  0.8226005E-01
          1   -1    0    0  501    0  0.00000000000E+00  0.00000000000E+00  0.90169560617E+03  0.90169560617E+03  0.00000000000E+00 0. -1.
         -1   -1    0    0    0  501 -0.00000000000E+00 -0.00000000000E+00 -0.26009674197E+04  0.26009674197E+04  0.00000000000E+00 0.  1.
         23    2    1    2    0    0 -0.11720437487E+04 -0.72965459776E+03 -0.51337446371E+03  0.14755792396E+04  0.87740363915E+02 0.  0.
        254    2    1    2    0    0  0.11720437487E+04  0.72965459776E+03 -0.11858973498E+04  0.20270837863E+04  0.89254342832E+03 0.  0.
        -24    2    4    4    0    0  0.24701455701E+03  0.64918220865E+03 -0.63616452549E+03  0.94520911705E+03  0.79127997978E+02 0.  0.
         24    2    4    4    0    0  0.92502919167E+03  0.80472389112E+02 -0.54973282432E+03  0.10818746692E+04  0.78050053916E+02 0.  0.
         11    1    3    3    0    0 -0.25230323291E+03 -0.14325814073E+03 -0.72349289364E+02  0.29902213279E+03  0.00000000000E+00 0. -1.
        -11    1    3    3    0    0 -0.91974051576E+03 -0.58639645703E+03 -0.44102517434E+03  0.11765571068E+04  0.00000000000E+00 0.  1.
          4    1    6    6  502    0  0.36333772656E+03  0.21563353013E+02 -0.17313605127E+03  0.40305753186E+03  0.00000000000E+00 0. -1.
          1    1    5    5  503    0  0.10612063185E+03  0.18555181316E+03 -0.21531883411E+03  0.30340280848E+03  0.00000000000E+00 0. -1.
         -4    1    5    5    0  503  0.14089392516E+03  0.46363039549E+03 -0.42084569138E+03  0.64180630857E+03  0.00000000000E+00 0.  1.
         -3    1    6    6    0  502  0.56169146510E+03  0.58909036099E+02 -0.37659677305E+03  0.67881713736E+03  0.00000000000E+00 0.  1.
<mgrwt>
<rscale>  0 0.30628620E+04</rscale>
<asrwt>0</asrwt>
<pdfrwt beam="1">  1        1 0.13872240E+00 0.30628620E+04</pdfrwt>
<pdfrwt beam="2">  1       -1 0.40014883E+00 0.30628620E+04</pdfrwt>
<totfact> 0.10950090E-01</totfact>
</mgrwt>
</event>
<event>
12    1  0.1477245E-007  0.2246826E+04  0.7818608E-02  0.8499187E-01
          2   -1    0    0  501    0  0.00000000000E+00  0.00000000000E+00  0.19122351565E+04  0.19122351565E+04  0.00000000000E+00 0. -1.
         -2   -1    0    0    0  501 -0.00000000000E+00 -0.00000000000E+00 -0.65999044111E+03  0.65999044111E+03  0.00000000000E+00 0.  1.
         23    2    1    2    0    0 -0.58902728056E+03 -0.19311305867E+03 -0.28034831100E+03  0.68654655027E+03  0.92223638661E+02 0.  0.
        254    2    1    2    0    0  0.58902728056E+03  0.19311305867E+03  0.15325930264E+04  0.18856790473E+04  0.90702717400E+03 0.  0.
        -24    2    4    4    0    0 -0.51596272568E+02  0.12317523577E+03 -0.59365158884E+02  0.16664128084E+03  0.80067348780E+02 0.  0.
         24    2    4    4    0    0  0.64062355313E+03  0.69937822903E+02  0.15919581852E+04  0.17190377665E+04  0.73960415936E+02 0.  0.
         13    1    3    3    0    0 -0.44677136548E+02 -0.12886521962E+02  0.36869708167E+01  0.46644428737E+02  0.00000000000E+00 0. -1.
        -13    1    3    3    0    0 -0.54435014401E+03 -0.18022653671E+03 -0.28403528182E+03  0.63990212153E+03  0.00000000000E+00 0.  1.
          2    1    6    6  502    0  0.35536950092E+03  0.18933811698E+01  0.88017349615E+03  0.94920832824E+03  0.00000000000E+00 0. -1.
          3    1    5    5  503    0 -0.22369659909E+02  0.74721875903E+02  0.82946437751E+01  0.78438265778E+02  0.00000000000E+00 0. -1.
         -4    1    5    5    0  503 -0.29226612659E+02  0.48453359862E+02 -0.67659802659E+02  0.88203015058E+02  0.00000000000E+00 0.  1.
         -1    1    6    6    0  502  0.28525405221E+03  0.68044441733E+02  0.71178468909E+03  0.76982943824E+03  0.00000000000E+00 0.  1.
<mgrwt>
<rscale>  0 0.22468261E+04</rscale>
<asrwt>0</asrwt>
<pdfrwt beam="1">  1        2 0.29419002E+00 0.22468261E+04</pdfrwt>
<pdfrwt beam="2">  1       -2 0.10153699E+00 0.22468261E+04</pdfrwt>
<totfact> 0.54218424E+00</totfact>
</mgrwt>
</event>
<event>
12    1  0.1477245E-007  0.1928970E+04  0.7818608E-02  0.8640569E-01
          1   -1    0    0  501    0  0.00000000000E+00  0.00000000000E+00  0.75653796369E+03  0.75653796369E+03  0.00000000000E+00 0. -1.
         -1   -1    0    0    0  501 -0.00000000000E+00 -0.00000000000E+00 -0.12295901545E+04  0.12295901545E+04  0.00000000000E+00 0.  1.
         23    2    1    2    0    0 -0.59374364093E+02  0.75019407388E+03 -0.11264141167E+03  0.76632944227E+03  0.90863979997E+02 0.  0.
        254    2    1    2    0    0  0.59374364093E+02 -0.75019407388E+03 -0.36041077918E+03  0.12197986760E+04  0.88977323883E+03 0.  0.
        -24    2    4    4    0    0 -0.20656650216E+03 -0.47097737762E+03 -0.57144088745E+03  0.77291789076E+03  0.79799548601E+02 0.  0.
         24    2    4    4    0    0  0.26594086625E+03 -0.27921669626E+03  0.21103010827E+03  0.44688078521E+03  0.80512246162E+02 0.  0.
         11    1    3    3    0    0 -0.11360898595E+02  0.48108006713E+03 -0.36690305991E+02  0.48261089872E+03  0.00000000000E+00 0. -1.
        -11    1    3    3    0    0 -0.48013465498E+02  0.26911400675E+03 -0.75951105682E+02  0.28371854355E+03  0.00000000000E+00 0.  1.
          2    1    6    6  502    0  0.16938679903E+03 -0.15471075677E+03  0.83333213972E+02  0.24407320725E+03  0.00000000000E+00 0. -1.
          3    1    5    5  503    0 -0.94956394540E+02 -0.15252602228E+03 -0.24123278010E+03  0.30078922609E+03  0.00000000000E+00 0. -1.
         -4    1    5    5    0  503 -0.11161010762E+03 -0.31845135534E+03 -0.33020810735E+03  0.47212866467E+03  0.00000000000E+00 0.  1.
         -1    1    6    6    0  502  0.96554067215E+02 -0.12450593950E+03  0.12769689430E+03  0.20280757796E+03  0.00000000000E+00 0.  1.
<mgrwt>
<rscale>  0 0.19289703E+04</rscale>
<asrwt>0</asrwt>
<pdfrwt beam="1">  1        1 0.11639046E+00 0.19289703E+04</pdfrwt>
<pdfrwt beam="2">  1       -1 0.18916771E+00 0.19289703E+04</pdfrwt>
<totfact> 0.40382829E+00</totfact>
</mgrwt>
</event>
<event>
12    1  0.1477245E-007  0.1769433E+04  0.7818608E-02  0.8722725E-01
          1   -1    0    0  501    0  0.00000000000E+00  0.00000000000E+00  0.21683748544E+04  0.21683748544E+04  0.00000000000E+00 0. -1.
         -1   -1    0    0    0  501 -0.00000000000E+00 -0.00000000000E+00 -0.36097248809E+03  0.36097248809E+03  0.00000000000E+00 0.  1.
         23    2    1    2    0    0 -0.58109608569E+02  0.71908375990E+02  0.14129415968E+04  0.14189385635E+04  0.91843071275E+02 0.  0.
        254    2    1    2    0    0  0.58109608569E+02 -0.71908375990E+02  0.39446076943E+03  0.11104087790E+04  0.10338572516E+04 0.  0.
        -24    2    4    4    0    0  0.26876287233E+02 -0.54178649665E+03  0.12229687471E+03  0.56176547202E+03  0.79805872074E+02 0.  0.
         24    2    4    4    0    0  0.31233321336E+02  0.46987812066E+03  0.27216389472E+03  0.54864330693E+03  0.71939724851E+02 0.  0.
         11    1    3    3    0    0  0.14708059512E+02  0.20667611036E+02  0.69984704367E+03  0.70030661977E+03  0.00000000000E+00 0. -1.
        -11    1    3    3    0    0 -0.72817668082E+02  0.51240764954E+02  0.71309455318E+03  0.71863194373E+03  0.00000000000E+00 0.  1.
          4    1    6    6  502    0  0.13782445558E+02  0.41485874245E+03  0.25956795802E+03  0.48956435412E+03  0.00000000000E+00 0. -1.
          1    1    5    5  503    0  0.18956366092E+02 -0.53969569906E+03  0.11934675471E+03  0.55305916434E+03  0.00000000000E+00 0. -1.
         -2    1    5    5    0  503  0.79199211414E+01 -0.20907975972E+01  0.29501199973E+01  0.87063076834E+01  0.00000000000E+00 0.  1.
         -3    1    6    6    0  502  0.17450875778E+02  0.55019378209E+02  0.12595936707E+02  0.59078952813E+02  0.00000000000E+00 0.  1.
<mgrwt>
<rscale>  0 0.17694334E+04</rscale>
<asrwt>0</asrwt>
<pdfrwt beam="1">  1        1 0.33359612E+00 0.17694334E+04</pdfrwt>
<pdfrwt beam="2">  1       -1 0.55534230E-01 0.17694334E+04</pdfrwt>
<totfact> 0.71047453E+00</totfact>
</mgrwt>
</event>
<event>
12    1  0.1477245E-007  0.1214829E+04  0.7818608E-02  0.9099975E-01
         -2   -1    0    0    0  501 -0.00000000000E+00  0.00000000000E+00  0.40801913690E+03  0.40801913690E+03  0.00000000000E+00 0.  1.
          2   -1    0    0  501    0  0.00000000000E+00 -0.00000000000E+00 -0.90425214760E+03  0.90425214760E+03  0.00000000000E+00 0. -1.
         23    2    1    2    0    0  0.23156142472E+03 -0.14541140742E+03 -0.13521426974E+03  0.31735795357E+03  0.87567123518E+02 0.  0.
        254    2    1    2    0    0 -0.23156142472E+03  0.14541140742E+03 -0.36101874095E+03  0.99491333093E+03  0.88586276246E+03 0.  0.
        -24    2    4    4    0    0 -0.27675363631E+03  0.42911082733E+03 -0.44842195886E+03  0.68412139374E+03  0.78810854818E+02 0.  0.
         24    2    4    4    0    0  0.45192211589E+02 -0.28369941991E+03  0.87403217909E+02  0.31079193719E+03  0.80153657914E+02 0.  0.
         13    1    3    3    0    0  0.12493394243E+03 -0.38193027874E+02 -0.93002686814E+02  0.16036426380E+03  0.00000000000E+00 0. -1.
        -13    1    3    3    0    0  0.10662748229E+03 -0.10721837955E+03 -0.42211582928E+02  0.15699368977E+03  0.00000000000E+00 0.  1.
          2    1    6    6  502    0  0.25073678383E+02 -0.36547633191E+02  0.37036573025E+02  0.57759212087E+02  0.00000000000E+00 0. -1.
          3    1    5    5  503    0 -0.22936805197E+02  0.49375377160E+02 -0.20331212128E+02  0.58115256938E+02  0.00000000000E+00 0. -1.
         -4    1    5    5    0  503 -0.25381683112E+03  0.37973545017E+03 -0.42809074673E+03  0.62600613680E+03  0.00000000000E+00 0.  1.
         -1    1    6    6    0  502  0.20118533206E+02 -0.24715178672E+03  0.50366644884E+02  0.25303272511E+03  0.00000000000E+00 0.  1.
<mgrwt>
<rscale>  0 0.12148287E+04</rscale>
<asrwt>0</asrwt>
<pdfrwt beam="1">  1        2 0.13911572E+00 0.12148287E+04</pdfrwt>
<pdfrwt beam="2">  1       -2 0.62772175E-01 0.12148287E+04</pdfrwt>
<totfact> 0.67573158E+01</totfact>
</mgrwt>
</event>
<event>
12    1  0.1477245E-007  0.1134597E+04  0.7818608E-02  0.9172113E-01
          1   -1    0    0  501    0  0.00000000000E+00  0.00000000000E+00  0.68221020159E+03  0.68221020159E+03  0.00000000000E+00 0.  1.
         -1   -1    0    0    0  501 -0.00000000000E+00 -0.00000000000E+00 -0.47174219377E+03  0.47174219377E+03  0.00000000000E+00 0. -1.
         23    2    1    2    0    0 -0.13494694939E+03  0.89713805430E+02 -0.82014513860E+02  0.20244033684E+03  0.89422947052E+02 0.  0.
        254    2    1    2    0    0  0.13494694939E+03 -0.89713805430E+02  0.29248252168E+03  0.95151205853E+03  0.89082541836E+03 0.  0.
        -24    2    4    4    0    0 -0.16234305192E+03 -0.41792801943E+03  0.15660338645E+03  0.48146906779E+03  0.79175416991E+02 0.  0.
         24    2    4    4    0    0  0.29729000131E+03  0.32821421400E+03  0.13587913523E+03  0.47004299074E+03  0.79820790536E+02 0.  0.
         13    1    3    3    0    0  0.11006834175E+02  0.13237662964E+02  0.22604935456E+01  0.17363638742E+02  0.00000000000E+00 0. -1.
        -13    1    3    3    0    0 -0.14595378357E+03  0.76476142466E+02 -0.84275007406E+02  0.18507669809E+03  0.00000000000E+00 0.  1.
          4    1    6    6  502    0  0.22919540708E+03  0.29028871810E+03  0.94263493733E+02  0.38168531637E+03  0.00000000000E+00 0. -1.
          1    1    5    5  503    0 -0.15923367138E+03 -0.34498298018E+03  0.14874386988E+03  0.40803597579E+03  0.00000000000E+00 0. -1.
         -2    1    5    5    0  503 -0.31093805396E+01 -0.72945039253E+02  0.78595165629E+01  0.73433091993E+02  0.00000000000E+00 0.  1.
         -3    1    6    6    0  502  0.68094594227E+02  0.37925495901E+02  0.41615641497E+02  0.88357674367E+02  0.00000000000E+00 0.  1.
<mgrwt>
<rscale>  0 0.11345966E+04</rscale>
<asrwt>0</asrwt>
<pdfrwt beam="1">  1        1 0.10495542E+00 0.11345966E+04</pdfrwt>
<pdfrwt beam="2">  1       -1 0.72575722E-01 0.11345966E+04</pdfrwt>
<totfact> 0.53950620E+01</totfact>
</mgrwt>
</event>
<event>
12    1  0.1477245E-007  0.3168879E+04  0.7818608E-02  0.8197085E-01
          2   -1    0    0  501    0  0.00000000000E+00  0.00000000000E+00  0.14367193410E+04  0.14367193410E+04  0.00000000000E+00 0.  1.
         -2   -1    0    0    0  501 -0.00000000000E+00 -0.00000000000E+00 -0.17473476585E+04  0.17473476585E+04  0.00000000000E+00 0. -1.
         23    2    1    2    0    0  0.80102911292E+03 -0.33200574142E+03 -0.13013875837E+04  0.15663991044E+04  0.90116919366E+02 0.  0.
        254    2    1    2    0    0 -0.80102911292E+03  0.33200574142E+03  0.99075926622E+03  0.16176678951E+04  0.93987767450E+03 0.  0.
        -24    2    4    4    0    0 -0.23964531214E+03  0.57473195694E+03  0.31357790914E+03  0.70181916881E+03  0.80450870966E+02 0.  0.
         24    2    4    4    0    0 -0.56138380078E+03 -0.24272621553E+03  0.67718135708E+03  0.91584872625E+03  0.78335889091E+02 0.  0.
         11    1    3    3    0    0  0.64033782198E+03 -0.22600500944E+03 -0.99908585906E+03  0.12080080067E+04  0.00000000000E+00 0. -1.
        -11    1    3    3    0    0  0.16069129094E+03 -0.10600073198E+03 -0.30230172466E+03  0.35839109768E+03  0.00000000000E+00 0.  1.
          2    1    6    6  502    0 -0.24310688553E+03 -0.13664500857E+03  0.26878873966E+03  0.38732441535E+03  0.00000000000E+00 0. -1.
          1    1    5    5  503    0 -0.25201824702E+02  0.47745186877E+02  0.54322537993E+02  0.76587681596E+02  0.00000000000E+00 0. -1.
         -2    1    5    5    0  503 -0.21444348744E+03  0.52698677007E+03  0.25925537115E+03  0.62523148721E+03  0.00000000000E+00 0.  1.
         -1    1    6    6    0  502 -0.31827691525E+03 -0.10608120696E+03  0.40839261742E+03  0.52852431090E+03  0.00000000000E+00 0.  1.
<mgrwt>
<rscale>  0 0.31688788E+04</rscale>
<asrwt>0</asrwt>
<pdfrwt beam="1">  1        2 0.22103375E+00 0.31688788E+04</pdfrwt>
<pdfrwt beam="2">  1       -2 0.26882271E+00 0.31688788E+04</pdfrwt>
<totfact> 0.57357743E-01</totfact>
</mgrwt>
</event>
<event>
12    1  0.1477245E-007  0.1439917E+04  0.7818608E-02  0.8925421E-01
         -1   -1    0    0    0  501 -0.00000000000E+00  0.00000000000E+00  0.54487725030E+03  0.54487725030E+03  0.00000000000E+00 0.  1.
          1   -1    0    0  501    0  0.00000000000E+00 -0.00000000000E+00 -0.95129686720E+03  0.95129686720E+03  0.00000000000E+00 0. -1.
         23    2    1    2    0    0  0.21122825671E+03 -0.37050353079E+03 -0.18213058145E+03  0.47269230023E+03  0.91521687236E+02 0.  0.
        254    2    1    2    0    0 -0.21122825671E+03  0.37050353079E+03 -0.22428903545E+03  0.10234818173E+04  0.90295028439E+03 0.  0.
        -24    2    4    4    0    0 -0.48829527296E+03  0.10310940976E+03 -0.34384813232E+03  0.61214434487E+03  0.86170394453E+02 0.  0.
         24    2    4    4    0    0  0.27706701625E+03  0.26739412103E+03  0.11955909687E+03  0.41133747239E+03  0.81476322318E+02 0.  0.
         13    1    3    3    0    0  0.13494008865E+03 -0.30639100376E+03 -0.15779546960E+03  0.37011307047E+03  0.00000000000E+00 0. -1.
        -13    1    3    3    0    0  0.76288168060E+02 -0.64112527035E+02 -0.24335111848E+02  0.10257922976E+03  0.00000000000E+00 0.  1.
          4    1    6    6  502    0  0.41131875771E+02  0.64167848805E+01  0.93894644100E+01  0.42675149379E+02  0.00000000000E+00 0. -1.
          1    1    5    5  503    0 -0.91352144828E+01 -0.81273285745E+01 -0.19217987989E+02  0.22777986648E+02  0.00000000000E+00 0. -1.
         -2    1    5    5    0  503 -0.47916005848E+03  0.11123673834E+03 -0.32463014433E+03  0.58936635822E+03  0.00000000000E+00 0.  1.
         -3    1    6    6    0  502  0.23593514048E+03  0.26097733615E+03  0.11016963246E+03  0.36866232301E+03  0.00000000000E+00 0.  1.
<mgrwt>
<rscale>  0 0.14399167E+04</rscale>
<asrwt>0</asrwt>
<pdfrwt beam="1">  1        1 0.14635336E+00 0.14399167E+04</pdfrwt>
<pdfrwt beam="2">  1       -1 0.83827270E-01 0.14399167E+04</pdfrwt>
<totfact> 0.22683561E+01</totfact>
</mgrwt>
</event>
<event>
12    1  0.1477245E-007  0.1149205E+04  0.7818608E-02  0.9158517E-01
         -1   -1    0    0    0  501 -0.00000000000E+00  0.00000000000E+00  0.22426326325E+03  0.22426326325E+03  0.00000000000E+00 0.  1.
          1   -1    0    0  501    0  0.00000000000E+00 -0.00000000000E+00 -0.14722350937E+04  0.14722350937E+04  0.00000000000E+00 0. -1.
         23    2    1    2    0    0 -0.60627198149E+02  0.13702050709E+03 -0.49033640797E+03  0.52058989706E+03  0.90187423908E+02 0.  0.
        254    2    1    2    0    0  0.60627198149E+02 -0.13702050709E+03 -0.75763542250E+03  0.11759084599E+04  0.88673502025E+03 0.  0.
        -24    2    4    4    0    0  0.33221272703E+03  0.22421087319E+03 -0.51370572888E+03  0.65656876400E+03  0.80951555327E+02 0.  0.
         24    2    4    4    0    0 -0.27158552888E+03 -0.36123138028E+03 -0.24392969362E+03  0.51933969591E+03  0.77234802575E+02 0.  0.
         13    1    3    3    0    0  0.17409023446E+01  0.95510474967E+02 -0.33118350094E+03  0.34468506331E+03  0.00000000000E+00 0. -1.
        -13    1    3    3    0    0 -0.62368100494E+02  0.41510032122E+02 -0.15915290702E+03  0.17590483376E+03  0.00000000000E+00 0.  1.
          2    1    6    6  502    0 -0.23117963963E+03 -0.32012797235E+03 -0.23881732617E+03  0.46147552453E+03  0.00000000000E+00 0. -1.
          3    1    5    5  503    0  0.21644283894E+03  0.14770826640E+03 -0.39469275707E+03  0.47375901783E+03  0.00000000000E+00 0. -1.
         -4    1    5    5    0  503  0.11576988808E+03  0.76502606791E+02 -0.11901297182E+03  0.18280974617E+03  0.00000000000E+00 0.  1.
         -1    1    6    6    0  502 -0.40405889244E+02 -0.41103407933E+02 -0.51123674503E+01  0.57864171386E+02  0.00000000000E+00 0.  1.
<mgrwt>
<rscale>  0 0.11492054E+04</rscale>
<asrwt>0</asrwt>
<pdfrwt beam="1">  1        1 0.22649772E+00 0.11492054E+04</pdfrwt>
<pdfrwt beam="2">  1       -1 0.34502039E-01 0.11492054E+04</pdfrwt>
<totfact> 0.54064125E+01</totfact>
</mgrwt>
</event>
<event>
12    1  0.1477245E-007  0.1502506E+04  0.7818608E-02  0.8882788E-01
         -1   -1    0    0    0  501 -0.00000000000E+00  0.00000000000E+00  0.10179335817E+04  0.10179335817E+04  0.00000000000E+00 0.  1.
          1   -1    0    0  501    0  0.00000000000E+00 -0.00000000000E+00 -0.55443788842E+03  0.55443788842E+03  0.00000000000E+00 0. -1.
         23    2    1    2    0    0 -0.23991442706E+03 -0.18603032667E+03  0.53748977084E+03  0.62396836852E+03  0.90967336997E+02 0.  0.
        254    2    1    2    0    0  0.23991442706E+03  0.18603032667E+03 -0.73994077548E+02  0.94840310162E+03  0.89544799118E+03 0.  0.
        -24    2    4    4    0    0 -0.96992915834E+01  0.44840420410E+03  0.18993920885E+03  0.49379812161E+03  0.81235923946E+02 0.  0.
         24    2    4    4    0    0  0.24961371865E+03 -0.26237387742E+03 -0.26393328640E+03  0.45460498001E+03  0.76536580072E+02 0.  0.
         11    1    3    3    0    0 -0.17694712130E+03 -0.99914092154E+02  0.28650893453E+03  0.35125557520E+03  0.00000000000E+00 0.  1.
        -11    1    3    3    0    0 -0.62967305768E+02 -0.86116234518E+02  0.25098083632E+03  0.27271279332E+03  0.00000000000E+00 0. -1.
          2    1    6    6  502    0  0.19062326974E+02 -0.41919020438E+02 -0.61402472262E+02  0.76751808995E+02  0.00000000000E+00 0. -1.
          3    1    5    5  503    0 -0.26684921436E+02  0.12519076164E+03  0.24572877985E+02  0.13034047018E+03  0.00000000000E+00 0. -1.
         -4    1    5    5    0  503  0.16985629852E+02  0.32321344245E+03  0.16536633087E+03  0.36345765144E+03  0.00000000000E+00 0.  1.
         -1    1    6    6    0  502  0.23055139167E+03 -0.22045485699E+03 -0.20253081414E+03  0.37785317102E+03  0.00000000000E+00 0.  1.
<mgrwt>
<rscale>  0 0.15025058E+04</rscale>
<asrwt>0</asrwt>
<pdfrwt beam="1">  1        1 0.85298137E-01 0.15025058E+04</pdfrwt>
<pdfrwt beam="2">  1       -1 0.15660517E+00 0.15025058E+04</pdfrwt>
<totfact> 0.11505698E+01</totfact>
</mgrwt>
</event>
<event>
12    1  0.1477245E-007  0.3181576E+04  0.7818608E-02  0.8193700E-01
         -2   -1    0    0    0  501 -0.00000000000E+00  0.00000000000E+00  0.81666677586E+03  0.81666677586E+03  0.00000000000E+00 0. -1.
          2   -1    0    0  501    0  0.00000000000E+00 -0.00000000000E+00 -0.30987011799E+04  0.30987011799E+04  0.00000000000E+00 0.  1.
         23    2    1    2    0    0  0.84146168227E+03 -0.90579850603E+03 -0.94965848576E+02  0.12433634079E+04  0.91680725329E+02 0.  0.
        254    2    1    2    0    0 -0.84146168227E+03  0.90579850603E+03 -0.21870685555E+04  0.26720045479E+04  0.90984105281E+03 0.  0.
        -24    2    4    4    0    0 -0.19451921221E+03  0.83582050816E+03 -0.10352058613E+04  0.13470043041E+04  0.79597576066E+02 0.  0.
         24    2    4    4    0    0 -0.64694247006E+03  0.69977997870E+02 -0.11518626941E+04  0.13250002438E+04  0.73528907130E+02 0.  0.
         11    1    3    3    0    0  0.33214468797E+03 -0.35865303556E+03 -0.82558471802E+02  0.49574993185E+03  0.00000000000E+00 0.  1.
        -11    1    3    3    0    0  0.50931699430E+03 -0.54714547046E+03 -0.12407376774E+02  0.74761347602E+03  0.00000000000E+00 0. -1.
          2    1    6    6  502    0 -0.62964102434E+03  0.56146173814E+02 -0.11219641919E+04  0.12877903014E+04  0.00000000000E+00 0. -1.
          1    1    5    5  503    0 -0.19627798114E+03  0.83400862915E+03 -0.10359668239E+04  0.13443670256E+04  0.00000000000E+00 0. -1.
         -2    1    5    5    0  503  0.17587689300E+01  0.18118790065E+01  0.76096255822E+00  0.26372784643E+01  0.00000000000E+00 0.  1.
         -1    1    6    6    0  502 -0.17301445718E+02  0.13831824056E+02 -0.29898502214E+02  0.37209942426E+02  0.00000000000E+00 0.  1.
<mgrwt>
<rscale>  0 0.31815759E+04</rscale>
<asrwt>0</asrwt>
<pdfrwt beam="1">  1        2 0.47672326E+00 0.31815759E+04</pdfrwt>
<pdfrwt beam="2">  1       -2 0.12564104E+00 0.31815759E+04</pdfrwt>
<totfact> 0.60139487E-01</totfact>
</mgrwt>
</event>
<event>
12    1  0.1477245E-007  0.1643544E+04  0.7818608E-02  0.8794235E-01
          1   -1    0    0  501    0  0.00000000000E+00  0.00000000000E+00  0.13771867216E+04  0.13771867216E+04  0.00000000000E+00 0. -1.
         -1   -1    0    0    0  501 -0.00000000000E+00 -0.00000000000E+00 -0.49035437618E+03  0.49035437618E+03  0.00000000000E+00 0.  1.
         23    2    1    2    0    0 -0.22534548352E+02  0.30218776864E+03  0.87948981652E+03  0.93475312662E+03  0.91846703681E+02 0.  0.
        254    2    1    2    0    0  0.22534548352E+02 -0.30218776864E+03  0.73425289369E+01  0.93278797121E+03  0.88216451590E+03 0.  0.
        -24    2    4    4    0    0 -0.39390959425E+02  0.23726978896E+03  0.22847406192E+03  0.34114888895E+03  0.79583710822E+02 0.  0.
         24    2    4    4    0    0  0.61925507777E+02 -0.53945755759E+03 -0.22113153298E+03  0.59163908225E+03  0.79299582660E+02 0.  0.
         11    1    3    3    0    0 -0.25891009599E+02  0.16959603147E+02  0.72377456593E+02  0.78717652022E+02  0.00000000000E+00 0.  1.
        -11    1    3    3    0    0  0.33564612471E+01  0.28522816549E+03  0.80711235993E+03  0.85603547460E+03  0.00000000000E+00 0. -1.
          4    1    6    6  502    0  0.64955922810E+02 -0.48794556450E+03 -0.22208427759E+03  0.54002923271E+03  0.00000000000E+00 0. -1.
          3    1    5    5  503    0 -0.24350330736E+02  0.22173573969E+03  0.17517192487E+03  0.28362806653E+03  0.00000000000E+00 0. -1.
         -4    1    5    5    0  503 -0.15040628690E+02  0.15534049272E+02  0.53302137053E+02  0.57520822426E+02  0.00000000000E+00 0.  1.
         -3    1    6    6    0  502 -0.30304150336E+01 -0.51511993095E+02  0.95274461110E+00  0.51609849547E+02  0.00000000000E+00 0.  1.
<mgrwt>
<rscale>  0 0.16435444E+04</rscale>
<asrwt>0</asrwt>
<pdfrwt beam="1">  1        1 0.21187488E+00 0.16435444E+04</pdfrwt>
<pdfrwt beam="2">  1       -1 0.75439135E-01 0.16435444E+04</pdfrwt>
<totfact> 0.13462363E+01</totfact>
</mgrwt>
</event>
<event>
12    1  0.1477245E-007  0.1458747E+04  0.7818608E-02  0.8912359E-01
          2   -1    0    0  501    0  0.00000000000E+00  0.00000000000E+00  0.88946560977E+03  0.88946560977E+03  0.00000000000E+00 0. -1.
         -2   -1    0    0    0  501 -0.00000000000E+00 -0.00000000000E+00 -0.59809573799E+03  0.59809573799E+03  0.00000000000E+00 0.  1.
         23    2    1    2    0    0  0.85902558173E+02  0.34473822871E+03 -0.17559890917E+03  0.40661305626E+03  0.90969801509E+02 0.  0.
        254    2    1    2    0    0 -0.85902558173E+02 -0.34473822871E+03  0.46696878095E+03  0.10809482915E+04  0.90783570687E+03 0.  0.
        -24    2    4    4    0    0 -0.56224581007E+02  0.22649180828E+03 -0.10502559260E+03  0.26815486411E+03  0.80105638494E+02 0.  0.
         24    2    4    4    0    0 -0.29677977166E+02 -0.57123003699E+03  0.57199437354E+03  0.81279342739E+03  0.79189991472E+02 0.  0.
         13    1    3    3    0    0 -0.16506319472E+02  0.47986121734E+02 -0.40170486543E+02  0.64720896553E+02  0.00000000000E+00 0. -1.
        -13    1    3    3    0    0  0.10240887765E+03  0.29675210697E+03 -0.13542842263E+03  0.34189215971E+03  0.00000000000E+00 0.  1.
          2    1    6    6  502    0 -0.48183476527E+02 -0.21062548543E+03  0.20131609261E+03  0.29531832261E+03  0.00000000000E+00 0. -1.
          1    1    5    5  503    0  0.15549314552E+02  0.12942890076E+02 -0.16468887254E+02  0.26086851745E+02  0.00000000000E+00 0. -1.
         -2    1    5    5    0  503 -0.71773895559E+02  0.21354891820E+03 -0.88556705342E+02  0.24206801237E+03  0.00000000000E+00 0.  1.
         -1    1    6    6    0  502  0.18505499361E+02 -0.36060455155E+03  0.37067828093E+03  0.51747510477E+03  0.00000000000E+00 0.  1.
<mgrwt>
<rscale>  0 0.14587468E+04</rscale>
<asrwt>0</asrwt>
<pdfrwt beam="1">  1        2 0.13684086E+00 0.14587468E+04</pdfrwt>
<pdfrwt beam="2">  1       -2 0.92014729E-01 0.14587468E+04</pdfrwt>
<totfact> 0.29013081E+01</totfact>
</mgrwt>
</event>
<event>
12    1  0.1730115E-007  0.1901835E+04  0.7818608E-02  0.8653943E-01
          2   -1    0    0  501    0  0.00000000000E+00  0.00000000000E+00  0.27985894947E+04  0.27985894947E+04  0.00000000000E+00 0.  1.
         -2   -1    0    0    0  501 -0.00000000000E+00 -0.00000000000E+00 -0.32310717010E+03  0.32310717010E+03  0.00000000000E+00 0. -1.
         23    2    1    2    0    0  0.63686043464E+03 -0.26306743581E+03  0.13336798065E+04  0.15046657034E+04  0.10257369954E+03 0.  0.
        254    2    1    2    0    0 -0.63686043464E+03  0.26306743581E+03  0.11418025181E+04  0.16170309614E+04  0.91448370718E+03 0.  0.
        -24    2    4    4    0    0 -0.52457724052E+03 -0.93260169382E+02  0.15812436993E+03  0.56174813389E+03  0.81724593014E+02 0.  0.
         24    2    4    4    0    0 -0.11228319412E+03  0.35632760519E+03  0.98367814818E+03  0.10552828275E+04  0.80139059613E+02 0.  0.
         13    1    3    3    0    0  0.74257633872E+02 -0.13278230058E+02  0.93626771883E+02  0.12023510301E+03  0.00000000000E+00 0. -1.
        -13    1    3    3    0    0  0.56260280077E+03 -0.24978920575E+03  0.12400530346E+04  0.13844306004E+04  0.00000000000E+00 0.  1.
          2    1    6    6  502    0  0.70401567614E+01  0.97996072508E+01  0.13081641197E+02  0.17796781897E+02  0.00000000000E+00 0. -1.
          1    1    5    5  503    0 -0.11041889034E+03 -0.37462570339E+01  0.64061693338E+02  0.12771165311E+03  0.00000000000E+00 0. -1.
         -4    1    5    5    0  503 -0.41415835018E+03 -0.89513912348E+02  0.94062676591E+02  0.43403648079E+03  0.00000000000E+00 0.  1.
         -1    1    6    6    0  502 -0.11932335088E+03  0.34652799794E+03  0.97059650698E+03  0.10374860456E+04  0.00000000000E+00 0.  1.
<mgrwt>
<rscale>  0 0.19018353E+04</rscale>
<asrwt>0</asrwt>
<pdfrwt beam="1">  1        2 0.43055221E+00 0.19018353E+04</pdfrwt>
<pdfrwt beam="2">  1       -2 0.49708797E-01 0.19018353E+04</pdfrwt>
<totfact> 0.83255885E+00</totfact>
</mgrwt>
</event>
<event>
12    1  0.1477245E-007  0.2309058E+04  0.7818608E-02  0.8474358E-01
         -2   -1    0    0    0  501 -0.00000000000E+00  0.00000000000E+00  0.51888609444E+03  0.51888609444E+03  0.00000000000E+00 0. -1.
          2   -1    0    0  501    0  0.00000000000E+00 -0.00000000000E+00 -0.25688446688E+04  0.25688446688E+04  0.00000000000E+00 0.  1.
         23    2    1    2    0    0  0.58061871860E+03 -0.49839537611E+03 -0.61638820691E+02  0.77313468998E+03  0.91770677854E+02 0.  0.
        254    2    1    2    0    0 -0.58061871860E+03  0.49839537611E+03 -0.19883197537E+04  0.23145960733E+04  0.90466761422E+03 0.  0.
        -24    2    4    4    0    0 -0.53147196617E+03  0.69592384564E+03 -0.18651935779E+04  0.20620133574E+04  0.78610136726E+02 0.  0.
         24    2    4    4    0    0 -0.49146752435E+02 -0.19752846954E+03 -0.12312617584E+03  0.25258271585E+03  0.84882705057E+02 0.  0.
         11    1    3    3    0    0  0.45435420457E+03 -0.40401110263E+03 -0.12921561159E+02  0.60813623556E+03  0.00000000000E+00 0. -1.
        -11    1    3    3    0    0  0.12626451403E+03 -0.94384273475E+02 -0.48717259532E+02  0.16499845442E+03  0.00000000000E+00 0.  1.
          2    1    6    6  502    0 -0.61779033317E+02 -0.74197834208E+02 -0.52497754330E+02  0.10989987156E+03  0.00000000000E+00 0. -1.
          3    1    5    5  503    0 -0.75147908438E+02  0.12101527477E+03 -0.24699140225E+03  0.28512568747E+03  0.00000000000E+00 0. -1.
         -4    1    5    5    0  503 -0.45632405773E+03  0.57490857088E+03 -0.16182021756E+04  0.17768876700E+04  0.00000000000E+00 0.  1.
         -1    1    6    6    0  502  0.12632280882E+02 -0.12333063533E+03 -0.70628421509E+02  0.14268284429E+03  0.00000000000E+00 0.  1.
<mgrwt>
<rscale>  0 0.23090585E+04</rscale>
<asrwt>0</asrwt>
<pdfrwt beam="1">  1        2 0.39520688E+00 0.23090585E+04</pdfrwt>
<pdfrwt beam="2">  1       -2 0.79828627E-01 0.23090585E+04</pdfrwt>
<totfact> 0.39940741E+00</totfact>
</mgrwt>
</event>
<event>
12    1  0.1477245E-007  0.1589178E+04  0.7818608E-02  0.8827224E-01
          2   -1    0    0  501    0  0.00000000000E+00  0.00000000000E+00  0.93401430615E+03  0.93401430615E+03  0.00000000000E+00 0. -1.
         -2   -1    0    0    0  501 -0.00000000000E+00 -0.00000000000E+00 -0.67597628806E+03  0.67597628806E+03  0.00000000000E+00 0.  1.
         23    2    1    2    0    0  0.22355592474E+03  0.36741065945E+03  0.40136614210E+03  0.59543238948E+03  0.92071202099E+02 0.  0.
        254    2    1    2    0    0 -0.22355592474E+03 -0.36741065945E+03 -0.14332812401E+03  0.10145582047E+04  0.90764395855E+03 0.  0.
        -24    2    4    4    0    0 -0.83567031769E+02 -0.65934426151E+03 -0.75187579666E+02  0.67426389574E+03  0.85207540613E+02 0.  0.
         24    2    4    4    0    0 -0.13998889297E+03  0.29193360206E+03 -0.68140544344E+02  0.34029430899E+03  0.79592492008E+02 0.  0.
         13    1    3    3    0    0  0.19718193300E+03  0.25978264399E+03  0.26868031101E+03  0.42255987309E+03  0.00000000000E+00 0. -1.
        -13    1    3    3    0    0  0.26373991740E+02  0.10762801546E+03  0.13268583109E+03  0.17287251639E+03  0.00000000000E+00 0.  1.
          2    1    6    6  502    0 -0.13093273911E+02  0.11196291307E+03 -0.31628553155E+02  0.11707900367E+03  0.00000000000E+00 0. -1.
          1    1    5    5  503    0 -0.32113566328E+02 -0.58104552316E+02 -0.12788205130E+02  0.67608862825E+02  0.00000000000E+00 0. -1.
         -2    1    5    5    0  503 -0.51453465442E+02 -0.60123970919E+03 -0.62399374536E+02  0.60665503291E+03  0.00000000000E+00 0.  1.
         -1    1    6    6    0  502 -0.12689561906E+03  0.17997068899E+03 -0.36511991188E+02  0.22321530533E+03  0.00000000000E+00 0.  1.
<mgrwt>
<rscale>  0 0.15891778E+04</rscale>
<asrwt>0</asrwt>
<pdfrwt beam="1">  1        2 0.14369451E+00 0.15891778E+04</pdfrwt>
<pdfrwt beam="2">  1       -2 0.10399635E+00 0.15891778E+04</pdfrwt>
<totfact> 0.20087393E+01</totfact>
</mgrwt>
</event>
<event>
12    1  0.1477245E-007  0.2626046E+04  0.7818608E-02  0.8359407E-01
          1   -1    0    0  501    0  0.00000000000E+00  0.00000000000E+00  0.14311256127E+04  0.14311256127E+04  0.00000000000E+00 0. -1.
         -1   -1    0    0    0  501 -0.00000000000E+00 -0.00000000000E+00 -0.12046665988E+04  0.12046665988E+04  0.00000000000E+00 0.  1.
         23    2    1    2    0    0 -0.18520425117E+03  0.10394309352E+04  0.57221739535E+03  0.12043536728E+04  0.91201633375E+02 0.  0.
        254    2    1    2    0    0  0.18520425117E+03 -0.10394309352E+04 -0.34575838147E+03  0.14314385387E+04  0.90263511344E+03 0.  0.
        -24    2    4    4    0    0  0.69710705531E+02 -0.40336468498E+03  0.30099893286E+03  0.51388408316E+03  0.76901507087E+02 0.  0.
         24    2    4    4    0    0  0.11549354564E+03 -0.63606625024E+03 -0.64675731433E+03  0.91755445555E+03  0.75446149496E+02 0.  0.
         13    1    3    3    0    0 -0.15286977250E+03  0.69510482150E+03  0.42088627364E+03  0.82685254765E+03  0.00000000000E+00 0.  1.
        -13    1    3    3    0    0 -0.32334478671E+02  0.34432611372E+03  0.15133112171E+03  0.37750112516E+03  0.00000000000E+00 0. -1.
          2    1    6    6  502    0  0.68866827996E+02 -0.49482382320E+03 -0.53100620567E+03  0.72908219459E+03  0.00000000000E+00 0. -1.
          3    1    5    5  503    0  0.75582726771E+02 -0.26627810948E+03  0.22709494865E+03  0.35803476909E+03  0.00000000000E+00 0. -1.
         -4    1    5    5    0  503 -0.58720212400E+01 -0.13708657549E+03  0.73903984209E+02  0.15584931407E+03  0.00000000000E+00 0.  1.
         -1    1    6    6    0  502  0.46626717647E+02 -0.14124242704E+03 -0.11575110866E+03  0.18847226096E+03  0.00000000000E+00 0.  1.
<mgrwt>
<rscale>  0 0.26260459E+04</rscale>
<asrwt>0</asrwt>
<pdfrwt beam="1">  1        1 0.22017317E+00 0.26260459E+04</pdfrwt>
<pdfrwt beam="2">  1       -1 0.18533332E+00 0.26260459E+04</pdfrwt>
<totfact> 0.12239645E+00</totfact>
</mgrwt>
</event>
<event>
12    1  0.1477245E-007  0.1262347E+04  0.7818608E-02  0.9059969E-01
         -2   -1    0    0    0  501 -0.00000000000E+00  0.00000000000E+00  0.52473211653E+03  0.52473211653E+03  0.00000000000E+00 0.  1.
          2   -1    0    0  501    0  0.00000000000E+00 -0.00000000000E+00 -0.75920666876E+03  0.75920666876E+03  0.00000000000E+00 0. -1.
         23    2    1    2    0    0  0.50659603344E+02  0.21406563231E+03  0.15196289893E+03  0.28215577150E+03  0.90159117093E+02 0.  0.
        254    2    1    2    0    0 -0.50659603344E+02 -0.21406563231E+03 -0.38643745115E+03  0.10017830138E+04  0.89768859451E+03 0.  0.
        -24    2    4    4    0    0  0.23052602480E+03  0.24516337641E+03 -0.28269829898E+03  0.44658426386E+03  0.79194995053E+02 0.  0.
         24    2    4    4    0    0 -0.28118562814E+03 -0.45922900871E+03 -0.10373915218E+03  0.55519874993E+03  0.86759439335E+02 0.  0.
         11    1    3    3    0    0  0.56722048509E+02  0.20711683678E+03  0.11407595112E+03  0.24316269757E+03  0.00000000000E+00 0.  1.
        -11    1    3    3    0    0 -0.60624451654E+01  0.69487955290E+01  0.37886947808E+02  0.38993073935E+02  0.00000000000E+00 0. -1.
          4    1    6    6  502    0 -0.15419665492E+03 -0.31059424405E+03 -0.37498594757E+02  0.34878580452E+03  0.00000000000E+00 0. -1.
          1    1    5    5  503    0  0.13703559514E+03  0.18715561146E+03 -0.22127587425E+03  0.32057602806E+03  0.00000000000E+00 0. -1.
         -2    1    5    5    0  503  0.93490429656E+02  0.58007764940E+02 -0.61422424725E+02  0.12600823580E+03  0.00000000000E+00 0.  1.
         -3    1    6    6    0  502 -0.12698897322E+03 -0.14863476467E+03 -0.66240557419E+02  0.20641294541E+03  0.00000000000E+00 0.  1.
<mgrwt>
<rscale>  0 0.12623472E+04</rscale>
<asrwt>0</asrwt>
<pdfrwt beam="1">  1        2 0.11680103E+00 0.12623472E+04</pdfrwt>
<pdfrwt beam="2">  1       -2 0.80728018E-01 0.12623472E+04</pdfrwt>
<totfact> 0.49144578E+01</totfact>
</mgrwt>
</event>
<event>
12    1  0.1477245E-007  0.1799820E+04  0.7818608E-02  0.8706395E-01
          2   -1    0    0  501    0  0.00000000000E+00  0.00000000000E+00  0.28825204095E+04  0.28825204095E+04  0.00000000000E+00 0. -1.
         -2   -1    0    0    0  501 -0.00000000000E+00 -0.00000000000E+00 -0.28094801133E+03  0.28094801133E+03  0.00000000000E+00 0.  1.
         23    2    1    2    0    0  0.57786007164E+03  0.51509329367E+02  0.39096538334E+03  0.70546886955E+03  0.90867604422E+02 0.  0.
        254    2    1    2    0    0 -0.57786007164E+03 -0.51509329367E+02  0.22106070148E+04  0.24579995512E+04  0.90465625883E+03 0.  0.
        -24    2    4    4    0    0  0.21810608592E+03 -0.38838081250E+02  0.82246716791E+03  0.85578217219E+03  0.82657260295E+02 0.  0.
         24    2    4    4    0    0 -0.79596615756E+03 -0.12671248116E+02  0.13881398469E+04  0.16022173790E+04  0.80284560854E+02 0.  0.
         13    1    3    3    0    0  0.56939264071E+03  0.54402947963E+02  0.36628028467E+03  0.67921197500E+03  0.00000000000E+00 0. -1.
        -13    1    3    3    0    0  0.84674309235E+01 -0.28936185963E+01  0.24685098678E+02  0.26256894557E+02  0.00000000000E+00 0.  1.
          2    1    6    6  502    0 -0.51458155376E+03  0.39101263235E+01  0.96802311999E+03  0.10963020685E+04  0.00000000000E+00 0. -1.
          1    1    5    5  503    0  0.85942424502E+02 -0.17551717197E+02  0.18953766423E+03  0.20885087806E+03  0.00000000000E+00 0. -1.
         -2    1    5    5    0  503  0.13216366142E+03 -0.21286364053E+02  0.63292950368E+03  0.64693129413E+03  0.00000000000E+00 0.  1.
         -1    1    6    6    0  502 -0.28138460380E+03 -0.16581374440E+02  0.42011672688E+03  0.50591531054E+03  0.00000000000E+00 0.  1.
<mgrwt>
<rscale>  0 0.17998204E+04</rscale>
<asrwt>0</asrwt>
<pdfrwt beam="1">  1        2 0.44346466E+00 0.17998204E+04</pdfrwt>
<pdfrwt beam="2">  1       -2 0.43222773E-01 0.17998204E+04</pdfrwt>
<totfact> 0.98982514E+00</totfact>
</mgrwt>
</event>
<event>
12    1  0.1477245E-007  0.1238329E+04  0.7818608E-02  0.9079953E-01
          2   -1    0    0  501    0  0.00000000000E+00  0.00000000000E+00  0.15786977188E+04  0.15786977188E+04  0.00000000000E+00 0. -1.
         -2   -1    0    0    0  501 -0.00000000000E+00 -0.00000000000E+00 -0.24283615809E+03  0.24283615809E+03  0.00000000000E+00 0.  1.
         23    2    1    2    0    0  0.29432270006E+02 -0.16156772157E+03  0.69795259277E+03  0.72260567162E+03  0.89725959049E+02 0.  0.
        254    2    1    2    0    0 -0.29432270006E+02  0.16156772157E+03  0.63790896799E+03  0.10989282053E+04  0.87962774048E+03 0.  0.
        -24    2    4    4    0    0  0.37474865016E+03 -0.53558770331E+02  0.12569002809E+03  0.40667236881E+03  0.79242284870E+02 0.  0.
         24    2    4    4    0    0 -0.40418092017E+03  0.21512649190E+03  0.51221893989E+03  0.69225583650E+03  0.84901572659E+02 0.  0.
         13    1    3    3    0    0  0.40076323712E+02 -0.63221935215E+02  0.44027949613E+03  0.44659731250E+03  0.00000000000E+00 0. -1.
        -13    1    3    3    0    0 -0.10644053706E+02 -0.98345786357E+02  0.25767309663E+03  0.27600835912E+03  0.00000000000E+00 0.  1.
          2    1    6    6  502    0 -0.16451406357E+03  0.55191519815E+02  0.23758366381E+03  0.29420567344E+03  0.00000000000E+00 0. -1.
          3    1    5    5  503    0  0.52994854840E+02 -0.24053717853E+02  0.45212900051E+02  0.73696962713E+02  0.00000000000E+00 0. -1.
         -4    1    5    5    0  503  0.32175379532E+03 -0.29505052478E+02  0.80477128044E+02  0.33297540610E+03  0.00000000000E+00 0.  1.
         -1    1    6    6    0  502 -0.23966685660E+03  0.15993497209E+03  0.27463527608E+03  0.39805016307E+03  0.00000000000E+00 0.  1.
<mgrwt>
<rscale>  0 0.12383293E+04</rscale>
<asrwt>0</asrwt>
<pdfrwt beam="1">  1        2 0.24287657E+00 0.12383293E+04</pdfrwt>
<pdfrwt beam="2">  1       -2 0.37359410E-01 0.12383293E+04</pdfrwt>
<totfact> 0.76193679E+01</totfact>
</mgrwt>
</event>
<event>
12    1  0.1477245E-007  0.2904466E+04  0.7818608E-02  0.8271550E-01
         -2   -1    0    0    0  501 -0.00000000000E+00  0.00000000000E+00  0.85508861627E+03  0.85508861627E+03  0.00000000000E+00 0. -1.
          2   -1    0    0  501    0  0.00000000000E+00 -0.00000000000E+00 -0.24663880982E+04  0.24663880982E+04  0.00000000000E+00 0.  1.
         23    2    1    2    0    0  0.11147558210E+04 -0.61482601673E+03 -0.34414681743E+03  0.13219789486E+04  0.92194019157E+02 0.  0.
        254    2    1    2    0    0 -0.11147558210E+04  0.61482601673E+03 -0.12671526645E+04  0.19994977659E+04  0.87842123681E+03 0.  0.
        -24    2    4    4    0    0 -0.14218071132E+03  0.11592968279E+03 -0.77175270196E+03  0.79670580448E+03  0.74046336079E+02 0.  0.
         24    2    4    4    0    0 -0.97257510971E+03  0.49889633394E+03 -0.49539996256E+03  0.12027919614E+04  0.80544916092E+02 0.  0.
         11    1    3    3    0    0  0.77184767042E+03 -0.40474435400E+03 -0.19509685288E+03  0.89310111434E+03  0.00000000000E+00 0.  1.
        -11    1    3    3    0    0  0.34290815061E+03 -0.21008166273E+03 -0.14904996455E+03  0.42887783424E+03  0.00000000000E+00 0. -1.
          4    1    6    6  502    0 -0.70541286427E+02  0.45370191131E+02 -0.17096942124E+02  0.85596920295E+02  0.00000000000E+00 0. -1.
          1    1    5    5  503    0 -0.84848785032E+02  0.45110229169E+02 -0.26633827418E+03  0.28314364798E+03  0.00000000000E+00 0. -1.
         -2    1    5    5    0  503 -0.57331926289E+02  0.70819453618E+02 -0.50541442778E+03  0.51356215650E+03  0.00000000000E+00 0.  1.
         -3    1    6    6    0  502 -0.90203382328E+03  0.45352614281E+03 -0.47830302043E+03  0.11171950411E+04  0.00000000000E+00 0.  1.
<mgrwt>
<rscale>  0 0.29044658E+04</rscale>
<asrwt>0</asrwt>
<pdfrwt beam="1">  1        2 0.37944432E+00 0.29044658E+04</pdfrwt>
<pdfrwt beam="2">  1       -2 0.13155210E+00 0.29044658E+04</pdfrwt>
<totfact> 0.13233785E+00</totfact>
</mgrwt>
</event>
<event>
12    1  0.1477245E-007  0.1891168E+04  0.7818608E-02  0.8659265E-01
          2   -1    0    0  501    0  0.00000000000E+00  0.00000000000E+00  0.12129545149E+04  0.12129545149E+04  0.00000000000E+00 0. -1.
         -2   -1    0    0    0  501 -0.00000000000E+00 -0.00000000000E+00 -0.73715003772E+03  0.73715003772E+03  0.00000000000E+00 0.  1.
         23    2    1    2    0    0 -0.45967235388E+03 -0.55408688890E+03  0.35434905129E+03  0.80760110435E+03  0.91352833701E+02 0.  0.
        254    2    1    2    0    0  0.45967235388E+03  0.55408688890E+03  0.12145542588E+03  0.11425034483E+04  0.87877855881E+03 0.  0.
        -24    2    4    4    0    0  0.35793848606E+03  0.59323037144E+03 -0.25529026659E+03  0.74271591514E+03  0.80072323393E+02 0.  0.
         24    2    4    4    0    0  0.10173386782E+03 -0.39143482545E+02  0.37674569247E+03  0.39978753312E+03  0.77529109076E+02 0.  0.
         13    1    3    3    0    0  0.27425315483E+01  0.12027298647E+01  0.64400130041E+00  0.30631317463E+01  0.00000000000E+00 0.  1.
        -13    1    3    3    0    0 -0.46241488543E+03 -0.55528961876E+03  0.35370504999E+03  0.80453797261E+03  0.00000000000E+00 0. -1.
          2    1    6    6  502    0  0.30140053494E+02 -0.25170071872E+02  0.25388741775E+03  0.25690616231E+03  0.00000000000E+00 0. -1.
          3    1    5    5  503    0  0.62099092390E+02  0.11507179667E+03 -0.16357598861E+02  0.13177779291E+03  0.00000000000E+00 0. -1.
         -4    1    5    5    0  503  0.29583939367E+03  0.47815857478E+03 -0.23893266773E+03  0.61093812223E+03  0.00000000000E+00 0.  1.
         -3    1    6    6    0  502  0.71593814329E+02 -0.13973410673E+02  0.12285827472E+03  0.14288137081E+03  0.00000000000E+00 0.  1.
<mgrwt>
<rscale>  0 0.18911684E+04</rscale>
<asrwt>0</asrwt>
<pdfrwt beam="1">  1        2 0.18660839E+00 0.18911684E+04</pdfrwt>
<pdfrwt beam="2">  1       -2 0.11340770E+00 0.18911684E+04</pdfrwt>
<totfact> 0.10640223E+01</totfact>
</mgrwt>
</event>
<event>
12    1  0.1477245E-007  0.1614232E+04  0.7818608E-02  0.8811852E-01
          1   -1    0    0  501    0  0.00000000000E+00  0.00000000000E+00  0.13797182567E+04  0.13797182567E+04  0.00000000000E+00 0.  1.
         -1   -1    0    0    0  501 -0.00000000000E+00 -0.00000000000E+00 -0.47215188368E+03  0.47215188368E+03  0.00000000000E+00 0. -1.
         23    2    1    2    0    0 -0.38749899926E+03 -0.26285013105E+02  0.75848106207E+03  0.85704216793E+03  0.91549875701E+02 0.  0.
        254    2    1    2    0    0  0.38749899926E+03  0.26285013105E+02  0.14908531099E+03  0.99482797249E+03  0.90366469919E+03 0.  0.
        -24    2    4    4    0    0  0.35209948510E+03 -0.22288939378E+01  0.50855002594E+03  0.62359660754E+03  0.79187023385E+02 0.  0.
         24    2    4    4    0    0  0.35399514154E+02  0.28513907043E+02 -0.35946471495E+03  0.37123136495E+03  0.80818788210E+02 0.  0.
         13    1    3    3    0    0 -0.31347259314E+03  0.36571279961E+01  0.53968817908E+03  0.62413281589E+03  0.00000000000E+00 0.  1.
        -13    1    3    3    0    0 -0.74026406119E+02 -0.29942141102E+02  0.21879288300E+03  0.23290935204E+03  0.00000000000E+00 0. -1.
          2    1    6    6  502    0 -0.36707903671E+01  0.45493254733E+02 -0.12835449565E+03  0.13622770453E+03  0.00000000000E+00 0. -1.
          3    1    5    5  503    0  0.18271950648E+03 -0.40237937661E+02  0.27444429163E+03  0.33215234288E+03  0.00000000000E+00 0. -1.
         -4    1    5    5    0  503  0.16937997863E+03  0.38009043723E+02  0.23410573431E+03  0.29144426466E+03  0.00000000000E+00 0.  1.
         -1    1    6    6    0  502  0.39070304521E+02 -0.16979347690E+02 -0.23111021930E+03  0.23500366041E+03  0.00000000000E+00 0.  1.
<mgrwt>
<rscale>  0 0.16142324E+04</rscale>
<asrwt>0</asrwt>
<pdfrwt beam="1">  1        1 0.21226435E+00 0.16142324E+04</pdfrwt>
<pdfrwt beam="2">  1       -1 0.72638752E-01 0.16142324E+04</pdfrwt>
<totfact> 0.14543885E+01</totfact>
</mgrwt>
</event>
<event>
12    1  0.1477245E-007  0.1427471E+04  0.7818608E-02  0.8934170E-01
         -2   -1    0    0    0  501 -0.00000000000E+00  0.00000000000E+00  0.27141109162E+03  0.27141109162E+03  0.00000000000E+00 0.  1.
          2   -1    0    0  501    0  0.00000000000E+00 -0.00000000000E+00 -0.18769249480E+04  0.18769249480E+04  0.00000000000E+00 0. -1.
         23    2    1    2    0    0  0.17528720230E+02  0.90213883578E+02 -0.11033079685E+04  0.11108317701E+04  0.90625312393E+02 0.  0.
        254    2    1    2    0    0 -0.17528720230E+02 -0.90213883578E+02 -0.50220588788E+03  0.10375042695E+04  0.90319353113E+03 0.  0.
        -24    2    4    4    0    0 -0.81864031519E+02  0.35583403773E+03 -0.22325443780E+02  0.37428047518E+03  0.79169859158E+02 0.  0.
         24    2    4    4    0    0  0.64335311289E+02 -0.44604792131E+03 -0.47988044410E+03  0.66322379436E+03  0.80515715194E+02 0.  0.
         11    1    3    3    0    0  0.14335186651E+02  0.61308400067E+02 -0.10306301858E+04  0.10325515955E+04  0.00000000000E+00 0. -1.
        -11    1    3    3    0    0  0.31935335791E+01  0.28905483511E+02 -0.72677782679E+02  0.78280174559E+02  0.00000000000E+00 0.  1.
          2    1    6    6  502    0  0.18455175405E+02 -0.14939984086E+03 -0.10778684608E+03  0.18514564574E+03  0.00000000000E+00 0. -1.
          1    1    5    5  503    0 -0.55338775539E+02  0.84719834484E+02 -0.46444752044E+01  0.10129857641E+03  0.00000000000E+00 0. -1.
         -2    1    5    5    0  503 -0.26525255980E+02  0.27111420325E+03 -0.17680968576E+02  0.27298189877E+03  0.00000000000E+00 0.  1.
         -1    1    6    6    0  502  0.45880135884E+02 -0.29664808045E+03 -0.37209359802E+03  0.47807814862E+03  0.00000000000E+00 0.  1.
<mgrwt>
<rscale>  0 0.14274708E+04</rscale>
<asrwt>0</asrwt>
<pdfrwt beam="1">  1        2 0.28875768E+00 0.14274708E+04</pdfrwt>
<pdfrwt beam="2">  1       -2 0.41755553E-01 0.14274708E+04</pdfrwt>
<totfact> 0.41295493E+01</totfact>
</mgrwt>
</event>
<event>
12    1  0.1477245E-007  0.1577850E+04  0.7818608E-02  0.8834272E-01
         -2   -1    0    0    0  501 -0.00000000000E+00  0.00000000000E+00  0.53456904068E+03  0.53456904068E+03  0.00000000000E+00 0. -1.
          2   -1    0    0  501    0  0.00000000000E+00 -0.00000000000E+00 -0.11643073827E+04  0.11643073827E+04  0.00000000000E+00 0.  1.
         23    2    1    2    0    0 -0.99263189444E+02  0.39590563750E+03 -0.57079998292E+03  0.70762046978E+03  0.91212138248E+02 0.  0.
        254    2    1    2    0    0  0.99263189444E+02 -0.39590563750E+03 -0.58938359147E+02  0.99125595364E+03  0.90139901313E+03 0.  0.
        -24    2    4    4    0    0 -0.32028359451E+03  0.84844262636E+02  0.30094457017E+02  0.34217090259E+03  0.79969496821E+02 0.  0.
         24    2    4    4    0    0  0.41954678396E+03 -0.48074990014E+03 -0.89032816164E+02  0.64908505105E+03  0.79022722914E+02 0.  0.
         13    1    3    3    0    0 -0.39507012577E+02  0.17149238934E+03 -0.32418155530E+03  0.36886870895E+03  0.00000000000E+00 0. -1.
        -13    1    3    3    0    0 -0.59756176868E+02  0.22441324816E+03 -0.24661842762E+03  0.33875176083E+03  0.00000000000E+00 0.  1.
          2    1    6    6  502    0  0.16776886164E+03 -0.25145775057E+03 -0.35514809602E+02  0.30436605093E+03  0.00000000000E+00 0. -1.
          3    1    5    5  503    0  0.23653299512E+00  0.92413699551E+01 -0.57864860791E+01  0.10906066553E+02  0.00000000000E+00 0. -1.
         -2    1    5    5    0  503 -0.32052012751E+03  0.75602892681E+02  0.35880943096E+02  0.33126483604E+03  0.00000000000E+00 0.  1.
         -1    1    6    6    0  502  0.25177792232E+03 -0.22929214956E+03 -0.53518006562E+02  0.34471900012E+03  0.00000000000E+00 0.  1.
<mgrwt>
<rscale>  0 0.15778500E+04</rscale>
<asrwt>0</asrwt>
<pdfrwt beam="1">  1        2 0.17912421E+00 0.15778500E+04</pdfrwt>
<pdfrwt beam="2">  1       -2 0.82241390E-01 0.15778500E+04</pdfrwt>
<totfact> 0.24829446E+01</totfact>
</mgrwt>
</event>
<event>
12    1  0.1477245E-007  0.1049603E+04  0.7818608E-02  0.9255754E-01
         -2   -1    0    0    0  501 -0.00000000000E+00  0.00000000000E+00  0.29924538053E+03  0.29924538053E+03  0.00000000000E+00 0.  1.
          2   -1    0    0  501    0  0.00000000000E+00 -0.00000000000E+00 -0.92037042845E+03  0.92037042845E+03  0.00000000000E+00 0. -1.
         23    2    1    2    0    0 -0.41430102283E+01 -0.11041534398E+03 -0.71483302357E+02  0.16058046111E+03  0.92019070056E+02 0.  0.
        254    2    1    2    0    0  0.41430102283E+01  0.11041534398E+03 -0.54964174556E+03  0.10590353479E+04  0.89846597424E+03 0.  0.
        -24    2    4    4    0    0 -0.16401989054E+03 -0.35281633776E+03 -0.17860624239E+03  0.43569586566E+03  0.80924686252E+02 0.  0.
         24    2    4    4    0    0  0.16816290077E+03  0.46323168174E+03 -0.37103550316E+03  0.62333948221E+03  0.89567925698E+02 0.  0.
         13    1    3    3    0    0  0.33930616099E+01 -0.49695699549E+02 -0.84440884171E+02  0.98037943371E+02  0.00000000000E+00 0. -1.
        -13    1    3    3    0    0 -0.75360718381E+01 -0.60719644429E+02  0.12957581814E+02  0.62542517737E+02  0.00000000000E+00 0.  1.
          4    1    6    6  502    0 -0.24593544491E+01  0.83557053690E+02 -0.47557002589E+02  0.96174311232E+02  0.00000000000E+00 0. -1.
          3    1    5    5  503    0 -0.76291698780E+02 -0.14722456990E+03 -0.11978891824E+03  0.20456021661E+03  0.00000000000E+00 0. -1.
         -4    1    5    5    0  503 -0.87728191763E+02 -0.20559176786E+03 -0.58817324154E+02  0.23113564905E+03  0.00000000000E+00 0.  1.
         -3    1    6    6    0  502  0.17062225522E+03  0.37967462805E+03 -0.32347850057E+03  0.52716517098E+03  0.00000000000E+00 0.  1.
<mgrwt>
<rscale>  0 0.10496030E+04</rscale>
<asrwt>0</asrwt>
<pdfrwt beam="1">  1        2 0.14159545E+00 0.10496030E+04</pdfrwt>
<pdfrwt beam="2">  1       -2 0.46037751E-01 0.10496030E+04</pdfrwt>
<totfact> 0.12650680E+02</totfact>
</mgrwt>
</event>
<event>
12    1  0.1477245E-007  0.1473259E+04  0.7818608E-02  0.8902433E-01
          2   -1    0    0  501    0  0.00000000000E+00  0.00000000000E+00  0.17532189973E+04  0.17532189973E+04  0.00000000000E+00 0. -1.
         -2   -1    0    0    0  501 -0.00000000000E+00 -0.00000000000E+00 -0.30950107124E+03  0.30950107124E+03  0.00000000000E+00 0.  1.
         23    2    1    2    0    0  0.40584678519E+03  0.12870640473E+03  0.23834410438E+03  0.49702765658E+03  0.94613041615E+02 0.  0.
        254    2    1    2    0    0 -0.40584678519E+03 -0.12870640473E+03  0.12053738217E+04  0.15656924120E+04  0.90398546850E+03 0.  0.
        -24    2    4    4    0    0 -0.10540617673E+03 -0.24842540943E+03 -0.32834407114E+02  0.28337761919E+03  0.79994566217E+02 0.  0.
         24    2    4    4    0    0 -0.30044060845E+03  0.11971900469E+03  0.12382082288E+04  0.12823147928E+04  0.81082739396E+02 0.  0.
         11    1    3    3    0    0  0.23524284249E+03  0.68892596912E+02  0.83381370280E+02  0.25891666181E+03  0.00000000000E+00 0.  1.
        -11    1    3    3    0    0  0.17060394269E+03  0.59813807822E+02  0.15496273410E+03  0.23811099477E+03  0.00000000000E+00 0. -1.
          2    1    6    6  502    0 -0.15047133771E+02 -0.10681303815E+02  0.97929061674E+02  0.99652434021E+02  0.00000000000E+00 0. -1.
          3    1    5    5  503    0  0.11346605577E+02 -0.41980742267E+02  0.26400807867E+01  0.43567168900E+02  0.00000000000E+00 0. -1.
         -4    1    5    5    0  503 -0.11675278231E+03 -0.20644466716E+03 -0.35474487900E+02  0.23981045029E+03  0.00000000000E+00 0.  1.
         -1    1    6    6    0  502 -0.28539347468E+03  0.13040030851E+03  0.11402791672E+04  0.11826623588E+04  0.00000000000E+00 0.  1.
<mgrwt>
<rscale>  0 0.14732592E+04</rscale>
<asrwt>0</asrwt>
<pdfrwt beam="1">  1        2 0.26972599E+00 0.14732592E+04</pdfrwt>
<pdfrwt beam="2">  1       -2 0.47615550E-01 0.14732592E+04</pdfrwt>
<totfact> 0.37065286E+01</totfact>
</mgrwt>
</event>
<event>
12    1  0.1477245E-007  0.1756483E+04  0.7818608E-02  0.8729790E-01
          2   -1    0    0  501    0  0.00000000000E+00  0.00000000000E+00  0.67008542260E+03  0.67008542260E+03  0.00000000000E+00 0.  1.
         -2   -1    0    0    0  501 -0.00000000000E+00 -0.00000000000E+00 -0.11510599195E+04  0.11510599195E+04  0.00000000000E+00 0. -1.
         23    2    1    2    0    0 -0.58166762069E+03  0.11769951651E+03 -0.43361712544E+03  0.74045934668E+03  0.89809996476E+02 0.  0.
        254    2    1    2    0    0  0.58166762069E+03 -0.11769951651E+03 -0.47357371456E+02  0.10806859954E+04  0.90191413279E+03 0.  0.
        -24    2    4    4    0    0  0.15078301963E+03 -0.44047298310E+02 -0.44798845776E+03  0.48229199218E+03  0.85065997507E+02 0.  0.
         24    2    4    4    0    0  0.43088460106E+03 -0.73652218196E+02  0.40063108631E+03  0.59839400324E+03  0.80522836066E+02 0.  0.
         11    1    3    3    0    0 -0.16295579546E+03  0.16095790045E+02 -0.16641322005E+03  0.23346739717E+03  0.00000000000E+00 0. -1.
        -11    1    3    3    0    0 -0.41871182523E+03  0.10160372646E+03 -0.26720390539E+03  0.50699194951E+03  0.00000000000E+00 0.  1.
          4    1    6    6  502    0  0.34223362788E+03 -0.87905952557E+02  0.29992274762E+03  0.46347056766E+03  0.00000000000E+00 0. -1.
          1    1    5    5  503    0  0.11002326364E+03 -0.62961574565E+02 -0.38178192372E+03  0.40227691420E+03  0.00000000000E+00 0. -1.
         -2    1    5    5    0  503  0.40759755990E+02  0.18914276255E+02 -0.66206534040E+02  0.80015077980E+02  0.00000000000E+00 0.  1.
         -1    1    6    6    0  502  0.88650973180E+02  0.14253734361E+02  0.10070833869E+03  0.13492343559E+03  0.00000000000E+00 0.  1.
<mgrwt>
<rscale>  0 0.17564834E+04</rscale>
<asrwt>0</asrwt>
<pdfrwt beam="1">  1        2 0.10309007E+00 0.17564834E+04</pdfrwt>
<pdfrwt beam="2">  1       -2 0.17708614E+00 0.17564834E+04</pdfrwt>
<totfact> 0.77851212E+00</totfact>
</mgrwt>
</event>
<event>
12    1  0.1477245E-007  0.1165524E+04  0.7818608E-02  0.9143581E-01
         -2   -1    0    0    0  501 -0.00000000000E+00  0.00000000000E+00  0.66747913484E+03  0.66747913484E+03  0.00000000000E+00 0.  1.
          2   -1    0    0  501    0  0.00000000000E+00 -0.00000000000E+00 -0.50879690368E+03  0.50879690368E+03  0.00000000000E+00 0. -1.
         23    2    1    2    0    0 -0.10104579253E+03 -0.19324632067E+03  0.13277644605E+02  0.23723341207E+03  0.92460820433E+02 0.  0.
        254    2    1    2    0    0  0.10104579253E+03  0.19324632067E+03  0.14540458656E+03  0.93904262645E+03  0.90172288861E+03 0.  0.
        -24    2    4    4    0    0 -0.30531619762E+03  0.29101771580E+03 -0.10972533937E+03  0.44316677989E+03  0.80298525897E+02 0.  0.
         24    2    4    4    0    0  0.40636199015E+03 -0.97771395127E+02  0.25512992593E+03  0.49587584656E+03  0.78180965400E+02 0.  0.
         13    1    3    3    0    0 -0.45772033972E+02 -0.14879035887E+02 -0.96759513348E+01  0.49092655632E+02  0.00000000000E+00 0. -1.
        -13    1    3    3    0    0 -0.55273758562E+02 -0.17836728478E+03  0.22953595939E+02  0.18814075644E+03  0.00000000000E+00 0.  1.
          2    1    6    6  502    0  0.24289592757E+03 -0.92354103872E+02  0.13419404307E+03  0.29246496085E+03  0.00000000000E+00 0. -1.
          3    1    5    5  503    0 -0.29771200625E+03  0.28343243056E+03 -0.12009257213E+03  0.42823896044E+03  0.00000000000E+00 0. -1.
         -4    1    5    5    0  503 -0.76041913629E+01  0.75852852345E+01  0.10367232754E+02  0.14927819444E+02  0.00000000000E+00 0.  1.
         -1    1    6    6    0  502  0.16346606258E+03 -0.54172912558E+01  0.12093588286E+03  0.20341088571E+03  0.00000000000E+00 0.  1.
<mgrwt>
<rscale>  0 0.11655236E+04</rscale>
<asrwt>0</asrwt>
<pdfrwt beam="1">  1        2 0.78276447E-01 0.11655236E+04</pdfrwt>
<pdfrwt beam="2">  1       -2 0.10268910E+00 0.11655236E+04</pdfrwt>
<totfact> 0.46274154E+01</totfact>
</mgrwt>
</event>
<event>
12    1  0.1477245E-007  0.1807134E+04  0.7818608E-02  0.8702515E-01
         -2   -1    0    0    0  501 -0.00000000000E+00  0.00000000000E+00  0.37274159542E+03  0.37274159542E+03  0.00000000000E+00 0.  1.
          2   -1    0    0  501    0  0.00000000000E+00 -0.00000000000E+00 -0.21903469784E+04  0.21903469784E+04  0.00000000000E+00 0. -1.
         23    2    1    2    0    0  0.26490390308E+03 -0.23478501459E+03 -0.15049878404E+04  0.15498487586E+04  0.10837293809E+03 0.  0.
        254    2    1    2    0    0 -0.26490390308E+03  0.23478501459E+03 -0.31261754255E+03  0.10132398152E+04  0.89645251649E+03 0.  0.
        -24    2    4    4    0    0 -0.42353863061E+03  0.48029287179E+03 -0.12477866340E+03  0.65723085950E+03  0.79476245094E+02 0.  0.
         24    2    4    4    0    0  0.15863472753E+03 -0.24550785719E+03 -0.18783887914E+03  0.35600895573E+03  0.77587675042E+02 0.  0.
         13    1    3    3    0    0  0.88543443892E+02 -0.17549042214E+02 -0.35068920679E+03  0.36211991122E+03  0.00000000000E+00 0.  1.
        -13    1    3    3    0    0  0.17636045919E+03 -0.21723597238E+03 -0.11542986336E+04  0.11877288473E+04  0.00000000000E+00 0. -1.
          4    1    6    6  502    0  0.10863084567E+03 -0.12699080800E+03 -0.14249144788E+03  0.21961588892E+03  0.00000000000E+00 0. -1.
          1    1    5    5  503    0 -0.33669737887E+03  0.40683816754E+03 -0.76248578912E+02  0.53356936315E+03  0.00000000000E+00 0. -1.
         -2    1    5    5    0  503 -0.86841251741E+02  0.73454704246E+02 -0.48530084491E+02  0.12366149635E+03  0.00000000000E+00 0.  1.
         -3    1    6    6    0  502  0.50003881856E+02 -0.11851704919E+03 -0.45347431262E+02  0.13639306681E+03  0.00000000000E+00 0.  1.
<mgrwt>
<rscale>  0 0.18071341E+04</rscale>
<asrwt>0</asrwt>
<pdfrwt beam="1">  1        2 0.33697646E+00 0.18071341E+04</pdfrwt>
<pdfrwt beam="2">  1       -2 0.57344860E-01 0.18071341E+04</pdfrwt>
<totfact> 0.14060132E+01</totfact>
</mgrwt>
</event>
<event>
12    1  0.1477245E-007  0.1556408E+04  0.7818608E-02  0.8847785E-01
         -2   -1    0    0    0  501 -0.00000000000E+00  0.00000000000E+00  0.71049114498E+03  0.71049114498E+03  0.00000000000E+00 0.  1.
          2   -1    0    0  501    0  0.00000000000E+00 -0.00000000000E+00 -0.85237062265E+03  0.85237062265E+03  0.00000000000E+00 0. -1.
         23    2    1    2    0    0 -0.17133022348E+03  0.48365338312E+03 -0.13057570171E+03  0.53787209689E+03  0.94772033127E+02 0.  0.
        254    2    1    2    0    0  0.17133022348E+03 -0.48365338312E+03 -0.11303775965E+02  0.10249896707E+04  0.88724371470E+03 0.  0.
        -24    2    4    4    0    0  0.41193770311E+03  0.29929277625E+02  0.12104709088E+03  0.43714731350E+03  0.76530664363E+02 0.  0.
         24    2    4    4    0    0 -0.24060747964E+03 -0.51358266074E+03 -0.13235086685E+03  0.58784235723E+03  0.79892279519E+02 0.  0.
         11    1    3    3    0    0 -0.54910764476E+02  0.24577780590E+03 -0.10120616031E+03  0.27141224883E+03  0.00000000000E+00 0.  1.
        -11    1    3    3    0    0 -0.11641945900E+03  0.23787557722E+03 -0.29369541401E+02  0.26645984807E+03  0.00000000000E+00 0. -1.
          4    1    6    6  502    0 -0.50907854624E+02 -0.12056067343E+03 -0.65496252401E+02  0.14634290116E+03  0.00000000000E+00 0. -1.
          1    1    5    5  503    0  0.77604996849E+02  0.30155825108E+02  0.43508357090E+02  0.93940866829E+02  0.00000000000E+00 0. -1.
         -2    1    5    5    0  503  0.33433270626E+03 -0.22654748335E+00  0.77538733792E+02  0.34320644667E+03  0.00000000000E+00 0.  1.
         -3    1    6    6    0  502 -0.18969962501E+03 -0.39302198731E+03 -0.66854614445E+02  0.44149945607E+03  0.00000000000E+00 0.  1.
<mgrwt>
<rscale>  0 0.15564084E+04</rscale>
<asrwt>0</asrwt>
<pdfrwt beam="1">  1        2 0.13113394E+00 0.15564084E+04</pdfrwt>
<pdfrwt beam="2">  1       -2 0.10930633E+00 0.15564084E+04</pdfrwt>
<totfact> 0.20297403E+01</totfact>
</mgrwt>
</event>
<event>
12    1  0.1477245E-007  0.1661102E+04  0.7818608E-02  0.8783866E-01
          2   -1    0    0  501    0  0.00000000000E+00  0.00000000000E+00  0.31279279564E+04  0.31279279564E+04  0.00000000000E+00 0. -1.
         -2   -1    0    0    0  501 -0.00000000000E+00 -0.00000000000E+00 -0.22053409872E+03  0.22053409872E+03  0.00000000000E+00 0.  1.
         23    2    1    2    0    0 -0.14481706124E+03 -0.49243017770E+03  0.14274475715E+04  0.15190319784E+04  0.79950740369E+02 0.  0.
        254    2    1    2    0    0  0.14481706124E+03  0.49243017770E+03  0.14799462862E+04  0.18294300767E+04  0.94504705411E+03 0.  0.
        -24    2    4    4    0    0  0.75090810466E+02  0.73233790619E+03  0.75115537585E+03  0.10547771135E+04  0.79767925407E+02 0.  0.
         24    2    4    4    0    0  0.69726250770E+02 -0.23990772849E+03  0.72879091036E+03  0.77465296320E+03  0.80830403505E+02 0.  0.
         13    1    3    3    0    0 -0.46317237017E+02 -0.24983790087E+03  0.61453209963E+03  0.66499170268E+03  0.00000000000E+00 0.  1.
        -13    1    3    3    0    0 -0.98499824219E+02 -0.24259227683E+03  0.81291547186E+03  0.85404027571E+03  0.00000000000E+00 0. -1.
          4    1    6    6  502    0  0.71994382356E+02 -0.23540527486E+03  0.72916504540E+03  0.76959762081E+03  0.00000000000E+00 0. -1.
          3    1    5    5  503    0  0.30381766242E+02  0.55098244505E+03  0.52756071463E+03  0.76342977024E+03  0.00000000000E+00 0. -1.
         -4    1    5    5    0  503  0.44709044224E+02  0.18135546114E+03  0.22359466122E+03  0.29134734330E+03  0.00000000000E+00 0.  1.
         -3    1    6    6    0  502 -0.22681315858E+01 -0.45024536361E+01 -0.37413504075E+00  0.50553423884E+01  0.00000000000E+00 0.  1.
<mgrwt>
<rscale>  0 0.16611018E+04</rscale>
<asrwt>0</asrwt>
<pdfrwt beam="1">  1        2 0.48121965E+00 0.16611018E+04</pdfrwt>
<pdfrwt beam="2">  1       -2 0.33928325E-01 0.16611018E+04</pdfrwt>
<totfact> 0.11277343E+01</totfact>
</mgrwt>
</event>
<event>
12    1  0.1477245E-007  0.1255689E+04  0.7818608E-02  0.9065462E-01
          1   -1    0    0  501    0  0.00000000000E+00  0.00000000000E+00  0.26359224797E+03  0.26359224797E+03  0.00000000000E+00 0. -1.
         -1   -1    0    0    0  501 -0.00000000000E+00 -0.00000000000E+00 -0.14954487563E+04  0.14954487563E+04  0.00000000000E+00 0.  1.
         23    2    1    2    0    0  0.25007685366E+03 -0.50868021436E+01 -0.83677031366E+02  0.27836977210E+03  0.89014471591E+02 0.  0.
        254    2    1    2    0    0 -0.25007685366E+03  0.50868021436E+01 -0.11481794770E+04  0.14806712322E+04  0.90083676556E+03 0.  0.
        -24    2    4    4    0    0 -0.21105689581E+02  0.18131740366E+03 -0.11637858238E+04  0.11806749710E+04  0.79211694956E+02 0.  0.
         24    2    4    4    0    0 -0.22897116408E+03 -0.17623060151E+03  0.15606346749E+02  0.29999626119E+03  0.79178152177E+02 0.  0.
         11    1    3    3    0    0  0.94328409465E+02 -0.37175033367E+01  0.12634150741E+02  0.95243322223E+02  0.00000000000E+00 0.  1.
        -11    1    3    3    0    0  0.15574844419E+03 -0.13692988069E+01 -0.96311182107E+02  0.18312644988E+03  0.00000000000E+00 0. -1.
          4    1    6    6  502    0 -0.65625056897E+02 -0.36344797470E+02  0.37424431272E+02  0.83834243909E+02  0.00000000000E+00 0. -1.
          3    1    5    5  503    0  0.22458828189E+02  0.20721492948E+02 -0.25016067523E+03  0.25202012353E+03  0.00000000000E+00 0. -1.
         -4    1    5    5    0  503 -0.43564517770E+02  0.16059591071E+03 -0.91362514853E+03  0.92865484749E+03  0.00000000000E+00 0.  1.
         -3    1    6    6    0  502 -0.16334610718E+03 -0.13988580404E+03 -0.21818084522E+02  0.21616201728E+03  0.00000000000E+00 0.  1.
<mgrwt>
<rscale>  0 0.12556890E+04</rscale>
<asrwt>0</asrwt>
<pdfrwt beam="1">  1        1 0.40552653E-01 0.12556890E+04</pdfrwt>
<pdfrwt beam="2">  1       -1 0.23006904E+00 0.12556890E+04</pdfrwt>
<totfact> 0.96571575E+00</totfact>
</mgrwt>
</event>
<event>
12    1  0.1477245E-007  0.2339611E+04  0.7818608E-02  0.8462465E-01
         -2   -1    0    0    0  501 -0.00000000000E+00  0.00000000000E+00  0.77337599967E+03  0.77337599967E+03  0.00000000000E+00 0.  1.
          2   -1    0    0  501    0  0.00000000000E+00 -0.00000000000E+00 -0.17694433003E+04  0.17694433003E+04  0.00000000000E+00 0. -1.
         23    2    1    2    0    0 -0.69056200707E+03 -0.67367091054E+03 -0.69238328166E+03  0.11909187571E+04  0.90468203934E+02 0.  0.
        254    2    1    2    0    0  0.69056200707E+03  0.67367091054E+03 -0.30368401895E+03  0.13519005429E+04  0.89705223546E+03 0.  0.
        -24    2    4    4    0    0  0.66414669477E+02 -0.18297954793E+03  0.75106639702E+02  0.22347632173E+03  0.80051456975E+02 0.  0.
         24    2    4    4    0    0  0.62414733759E+03  0.85665045847E+03 -0.37879065865E+03  0.11284242211E+04  0.80305371966E+02 0.  0.
         11    1    3    3    0    0 -0.81014857097E+02 -0.48410680817E+02 -0.49448535740E+02  0.10654650991E+03  0.00000000000E+00 0.  1.
        -11    1    3    3    0    0 -0.60954714997E+03 -0.62526022972E+03 -0.64293474592E+03  0.10843722472E+04  0.00000000000E+00 0. -1.
          2    1    6    6  502    0  0.31279129693E+03  0.46429277465E+03 -0.23638725063E+03  0.60768833154E+03  0.00000000000E+00 0. -1.
          3    1    5    5  503    0  0.47346350728E+02 -0.33630453327E+02  0.34442546692E+02  0.67520169882E+02  0.00000000000E+00 0. -1.
         -4    1    5    5    0  503  0.19068318749E+02 -0.14934909460E+03  0.40664093010E+02  0.15595615185E+03  0.00000000000E+00 0.  1.
         -1    1    6    6    0  502  0.31135604066E+03  0.39235768382E+03 -0.14240340802E+03  0.52073588961E+03  0.00000000000E+00 0.  1.
<mgrwt>
<rscale>  0 0.23396111E+04</rscale>
<asrwt>0</asrwt>
<pdfrwt beam="1">  1        2 0.27222204E+00 0.23396111E+04</pdfrwt>
<pdfrwt beam="2">  1       -2 0.11898092E+00 0.23396111E+04</pdfrwt>
<totfact> 0.43982253E+00</totfact>
</mgrwt>
</event>
<event>
12    1  0.1477245E-007  0.1833843E+04  0.7818608E-02  0.8688507E-01
         -1   -1    0    0    0  501 -0.00000000000E+00  0.00000000000E+00  0.73514852848E+03  0.73514852848E+03  0.00000000000E+00 0.  1.
          1   -1    0    0  501    0  0.00000000000E+00 -0.00000000000E+00 -0.11436392193E+04  0.11436392193E+04  0.00000000000E+00 0. -1.
         23    2    1    2    0    0 -0.61131653589E+03 -0.86770435850E+02  0.15847156424E+03  0.64382030265E+03  0.90301328031E+02 0.  0.
        254    2    1    2    0    0  0.61131653589E+03  0.86770435850E+02 -0.56696225506E+03  0.12349674451E+04  0.90689656316E+03 0.  0.
        -24    2    4    4    0    0  0.10384648750E+03  0.31442583923E+03 -0.58034190464E+03  0.67293172479E+03  0.79954228164E+02 0.  0.
         24    2    4    4    0    0  0.50747004839E+03 -0.22765540338E+03  0.13379649575E+02  0.56203572034E+03  0.79701337632E+02 0.  0.
         11    1    3    3    0    0 -0.58810420116E+03 -0.96381736513E+02  0.13876966672E+03  0.61189297345E+03  0.00000000000E+00 0.  1.
        -11    1    3    3    0    0 -0.23212334725E+02  0.96113006635E+01  0.19701897519E+02  0.31927329197E+02  0.00000000000E+00 0. -1.
          2    1    6    6  502    0  0.13851918670E+03 -0.47206008266E+02 -0.28839480136E+02  0.14915658857E+03  0.00000000000E+00 0. -1.
          3    1    5    5  503    0  0.84503200002E+02  0.13248600971E+03 -0.24931326750E+03  0.29470398526E+03  0.00000000000E+00 0. -1.
         -4    1    5    5    0  503  0.19343287502E+02  0.18193982953E+03 -0.33102863714E+03  0.37822773952E+03  0.00000000000E+00 0.  1.
         -1    1    6    6    0  502  0.36895086169E+03 -0.18044939512E+03  0.42219129711E+02  0.41287913177E+03  0.00000000000E+00 0.  1.
<mgrwt>
<rscale>  0 0.18338426E+04</rscale>
<asrwt>0</asrwt>
<pdfrwt beam="1">  1        1 0.17594449E+00 0.18338426E+04</pdfrwt>
<pdfrwt beam="2">  1       -1 0.11309977E+00 0.18338426E+04</pdfrwt>
<totfact> 0.79050706E+00</totfact>
</mgrwt>
</event>
<event>
12    1  0.1477245E-007  0.2220447E+04  0.7818608E-02  0.8509966E-01
          1   -1    0    0  501    0  0.00000000000E+00  0.00000000000E+00  0.14682445386E+04  0.14682445386E+04  0.00000000000E+00 0. -1.
         -1   -1    0    0    0  501 -0.00000000000E+00 -0.00000000000E+00 -0.83950332591E+03  0.83950332591E+03  0.00000000000E+00 0.  1.
         23    2    1    2    0    0  0.67299227441E+03 -0.63510555468E+03  0.27068031348E+03  0.96856100915E+03  0.92546903544E+02 0.  0.
        254    2    1    2    0    0 -0.67299227441E+03  0.63510555468E+03  0.35806089920E+03  0.13391868553E+04  0.89940878303E+03 0.  0.
        -24    2    4    4    0    0 -0.13341028488E+03  0.46761352233E+03 -0.20854716397E+03  0.53510215210E+03  0.79885437971E+02 0.  0.
         24    2    4    4    0    0 -0.53958198953E+03  0.16749203234E+03  0.56660806317E+03  0.80408470324E+03  0.79405342550E+02 0.  0.
         11    1    3    3    0    0  0.23524950078E+02 -0.32120971461E+02 -0.57394678610E+01  0.40225881906E+02  0.00000000000E+00 0. -1.
        -11    1    3    3    0    0  0.64946732433E+03 -0.60298458322E+03  0.27641978134E+03  0.92833512725E+03  0.00000000000E+00 0.  1.
          4    1    6    6  502    0 -0.10266978077E+03  0.60997301610E+02  0.14270757771E+03  0.18608387201E+03  0.00000000000E+00 0. -1.
          3    1    5    5  503    0 -0.47060871232E+02  0.28205529820E+03 -0.96659681129E+02  0.30184931804E+03  0.00000000000E+00 0. -1.
         -2    1    5    5    0  503 -0.86349413648E+02  0.18555822413E+03 -0.11188748284E+03  0.23325283406E+03  0.00000000000E+00 0.  1.
         -3    1    6    6    0  502 -0.43691220875E+03  0.10649473073E+03  0.42390048546E+03  0.61800083123E+03  0.00000000000E+00 0.  1.
<mgrwt>
<rscale>  0 0.22204470E+04</rscale>
<asrwt>0</asrwt>
<pdfrwt beam="1">  1        1 0.22588378E+00 0.22204470E+04</pdfrwt>
<pdfrwt beam="2">  1       -1 0.12915436E+00 0.22204470E+04</pdfrwt>
<totfact> 0.32296500E+00</totfact>
</mgrwt>
</event>
<event>
12    1  0.1477245E-007  0.1705461E+04  0.7818608E-02  0.8758256E-01
          2   -1    0    0  501    0  0.00000000000E+00  0.00000000000E+00  0.33224563828E+04  0.33224563828E+04  0.00000000000E+00 0. -1.
         -2   -1    0    0    0  501 -0.00000000000E+00 -0.00000000000E+00 -0.21885885490E+03  0.21885885490E+03  0.00000000000E+00 0.  1.
         23    2    1    2    0    0  0.43653504120E+03 -0.20727408682E+03  0.19122222614E+04  0.19749119824E+04  0.10078676545E+03 0.  0.
        254    2    1    2    0    0 -0.43653504120E+03  0.20727408682E+03  0.11913752665E+04  0.15664032552E+04  0.89482889046E+03 0.  0.
        -24    2    4    4    0    0  0.14504689079E+03  0.92294857107E+02 -0.44146957429E+02  0.19360419982E+03  0.77309062615E+02 0.  0.
         24    2    4    4    0    0 -0.58158193199E+03  0.11497922971E+03  0.12355222239E+04  0.13727990554E+04  0.81266930036E+02 0.  0.
         11    1    3    3    0    0  0.42085120173E+03 -0.20253708173E+03  0.17294106426E+04  0.17913676826E+04  0.00000000000E+00 0. -1.
        -11    1    3    3    0    0  0.15683839476E+02 -0.47370050904E+01  0.18281161879E+03  0.18354429983E+03  0.00000000000E+00 0.  1.
          4    1    6    6  502    0 -0.20722333810E+03  0.11876396474E+02  0.49198012146E+03  0.53397284628E+03  0.00000000000E+00 0. -1.
          3    1    5    5  503    0  0.13709091249E+03  0.55643852533E+02 -0.48842639647E+02  0.15580680363E+03  0.00000000000E+00 0. -1.
         -4    1    5    5    0  503  0.79559783021E+01  0.36651004574E+02  0.46956822180E+01  0.37797396187E+02  0.00000000000E+00 0.  1.
         -3    1    6    6    0  502 -0.37435859390E+03  0.10310283324E+03  0.74354210243E+03  0.83882620913E+03  0.00000000000E+00 0.  1.
<mgrwt>
<rscale>  0 0.17054606E+04</rscale>
<asrwt>0</asrwt>
<pdfrwt beam="1">  1        2 0.51114710E+00 0.17054606E+04</pdfrwt>
<pdfrwt beam="2">  1       -2 0.33670595E-01 0.17054606E+04</pdfrwt>
<totfact> 0.85079984E+00</totfact>
</mgrwt>
</event>
<event>
12    1  0.1477245E-007  0.1210771E+04  0.7818608E-02  0.9103481E-01
          2   -1    0    0  501    0  0.00000000000E+00  0.00000000000E+00  0.74136680598E+03  0.74136680598E+03  0.00000000000E+00 0. -1.
         -2   -1    0    0    0  501 -0.00000000000E+00 -0.00000000000E+00 -0.49434576071E+03  0.49434576071E+03  0.00000000000E+00 0.  1.
         23    2    1    2    0    0 -0.75779747334E+02  0.30128943168E+02 -0.17724804596E+03  0.21488853614E+03  0.90054926821E+02 0.  0.
        254    2    1    2    0    0  0.75779747334E+02 -0.30128943168E+02  0.42426909123E+03  0.10208240306E+04  0.92489302964E+03 0.  0.
        -24    2    4    4    0    0  0.34709498833E+03  0.26783233927E+03  0.21956166120E+02  0.44597089444E+03  0.78732919280E+02 0.  0.
         24    2    4    4    0    0 -0.27131524099E+03 -0.29796128244E+03  0.40231292511E+03  0.57485313612E+03  0.78788022992E+02 0.  0.
         13    1    3    3    0    0 -0.95891681218E+01  0.47640499708E+02 -0.10301188074E+03  0.11389915246E+03  0.00000000000E+00 0.  1.
        -13    1    3    3    0    0 -0.66190579212E+02 -0.17511556539E+02 -0.74236165215E+02  0.10098938367E+03  0.00000000000E+00 0. -1.
          4    1    6    6  502    0 -0.11759758715E+03 -0.93285360687E+02  0.19102078212E+03  0.24294091920E+03  0.00000000000E+00 0. -1.
          1    1    5    5  503    0  0.32980073789E+03  0.24715758055E+03  0.15078651666E+01  0.41213792593E+03  0.00000000000E+00 0. -1.
         -2    1    5    5    0  503  0.17294250443E+02  0.20674758716E+02  0.20448300953E+02  0.33832968510E+02  0.00000000000E+00 0.  1.
         -3    1    6    6    0  502 -0.15371765384E+03 -0.20467592175E+03  0.21129214299E+03  0.33191221692E+03  0.00000000000E+00 0.  1.
<mgrwt>
<rscale>  0 0.12107709E+04</rscale>
<asrwt>0</asrwt>
<pdfrwt beam="1">  1        2 0.11405643E+00 0.12107709E+04</pdfrwt>
<pdfrwt beam="2">  1       -2 0.76053194E-01 0.12107709E+04</pdfrwt>
<totfact> 0.58137883E+01</totfact>
</mgrwt>
</event>
<event>
12    1  0.1477245E-007  0.1966529E+04  0.7818608E-02  0.8622431E-01
          2   -1    0    0  501    0  0.00000000000E+00  0.00000000000E+00  0.12250460560E+04  0.12250460560E+04  0.00000000000E+00 0.  1.
         -2   -1    0    0    0  501 -0.00000000000E+00 -0.00000000000E+00 -0.78920256886E+03  0.78920256886E+03  0.00000000000E+00 0. -1.
         23    2    1    2    0    0  0.31289278997E+02  0.28272592769E+03 -0.55571574885E+03  0.63632354787E+03  0.12318561153E+03 0.  0.
        254    2    1    2    0    0 -0.31289278997E+02 -0.28272592769E+03  0.99155923596E+03  0.13779250770E+04  0.91355067189E+03 0.  0.
        -24    2    4    4    0    0 -0.36409233839E+03 -0.12643547343E+03  0.91423518036E+03  0.99555903215E+03  0.82235404061E+02 0.  0.
         24    2    4    4    0    0  0.33280305940E+03 -0.15629045427E+03  0.77324055600E+02  0.38236604480E+03  0.70994367415E+02 0.  0.
         11    1    3    3    0    0 -0.18862961630E+02  0.14836216208E+03 -0.17914704121E+03  0.23336838868E+03  0.00000000000E+00 0.  1.
        -11    1    3    3    0    0  0.50152240627E+02  0.13436376561E+03 -0.37656870764E+03  0.40295515919E+03  0.00000000000E+00 0. -1.
          4    1    6    6  502    0  0.24034219780E+03 -0.10625983136E+03  0.86954409933E+02  0.27679702529E+03  0.00000000000E+00 0. -1.
          3    1    5    5  503    0 -0.23840456458E+03 -0.11404489770E+03  0.55354526769E+03  0.61339655892E+03  0.00000000000E+00 0. -1.
         -4    1    5    5    0  503 -0.12568777381E+03 -0.12390575725E+02  0.36068991266E+03  0.38216247323E+03  0.00000000000E+00 0.  1.
         -1    1    6    6    0  502  0.92460861594E+02 -0.50030622908E+02 -0.96303543332E+01  0.10556901951E+03  0.00000000000E+00 0.  1.
<mgrwt>
<rscale>  0 0.19665294E+04</rscale>
<asrwt>0</asrwt>
<pdfrwt beam="1">  1        2 0.18846862E+00 0.19665294E+04</pdfrwt>
<pdfrwt beam="2">  1       -2 0.12141578E+00 0.19665294E+04</pdfrwt>
<totfact> 0.87933020E+00</totfact>
</mgrwt>
</event>
<event>
12    1  0.1477245E-007  0.3669995E+04  0.7818608E-02  0.8074644E-01
         -2   -1    0    0    0  501 -0.00000000000E+00  0.00000000000E+00  0.12757278161E+04  0.12757278161E+04  0.00000000000E+00 0.  1.
          2   -1    0    0  501    0  0.00000000000E+00 -0.00000000000E+00 -0.26394471005E+04  0.26394471005E+04  0.00000000000E+00 0. -1.
         23    2    1    2    0    0  0.29369371051E+03  0.66465316044E+03  0.10258000482E+04  0.12609358926E+04  0.98355309788E+02 0.  0.
        254    2    1    2    0    0 -0.29369371051E+03 -0.66465316044E+03 -0.23895193326E+04  0.26542390241E+04  0.89842213725E+03 0.  0.
        -24    2    4    4    0    0 -0.48061626477E+03 -0.39400989560E+02 -0.11844048147E+04  0.12813313766E+04  0.80317492679E+02 0.  0.
         24    2    4    4    0    0  0.18692255426E+03 -0.62525217088E+03 -0.12051145179E+04  0.13729076475E+04  0.81817410885E+02 0.  0.
         13    1    3    3    0    0  0.13487911247E+03  0.19204783044E+03  0.33266315845E+03  0.40711119015E+03  0.00000000000E+00 0. -1.
        -13    1    3    3    0    0  0.15881459804E+03  0.47260533000E+03  0.69313688975E+03  0.85382470240E+03  0.00000000000E+00 0.  1.
          2    1    6    6  502    0  0.48424596073E+02 -0.12036917785E+03 -0.18054477409E+03  0.22232880140E+03  0.00000000000E+00 0. -1.
          3    1    5    5  503    0 -0.46862549467E+02 -0.20231640271E+02 -0.18009646260E+03  0.18719015373E+03  0.00000000000E+00 0. -1.
         -4    1    5    5    0  503 -0.43375371531E+03 -0.19169349290E+02 -0.10043083521E+04  0.10941412229E+04  0.00000000000E+00 0.  1.
         -1    1    6    6    0  502  0.13849795819E+03 -0.50488299304E+03 -0.10245697438E+04  0.11505788461E+04  0.00000000000E+00 0.  1.
<mgrwt>
<rscale>  0 0.36699951E+04</rscale>
<asrwt>0</asrwt>
<pdfrwt beam="1">  1        2 0.40606879E+00 0.36699951E+04</pdfrwt>
<pdfrwt beam="2">  1       -2 0.19626582E+00 0.36699951E+04</pdfrwt>
<totfact> 0.32900282E-01</totfact>
</mgrwt>
</event>
<event>
12    1  0.1477245E-007  0.2851800E+04  0.7818608E-02  0.8287365E-01
          2   -1    0    0  501    0  0.00000000000E+00  0.00000000000E+00  0.32075165012E+04  0.32075165012E+04  0.00000000000E+00 0. -1.
         -2   -1    0    0    0  501 -0.00000000000E+00 -0.00000000000E+00 -0.63388308726E+03  0.63388308726E+03  0.00000000000E+00 0.  1.
         23    2    1    2    0    0 -0.12682291652E+04  0.21068268659E+02  0.13855284932E+04  0.18807209480E+04  0.92590449625E+02 0.  0.
        254    2    1    2    0    0  0.12682291652E+04 -0.21068268659E+02  0.11881049207E+04  0.19606786404E+04  0.90764439128E+03 0.  0.
        -24    2    4    4    0    0  0.18179806842E+03  0.27704904528E+03  0.28108262753E+02  0.34166182578E+03  0.78332736376E+02 0.  0.
         24    2    4    4    0    0  0.10864310968E+04 -0.29811731394E+03  0.11599966579E+04  0.16190168146E+04  0.80104548858E+02 0.  0.
         13    1    3    3    0    0 -0.25705845422E+02  0.13564201737E+02  0.36418828868E+02  0.46595162343E+02  0.00000000000E+00 0. -1.
        -13    1    3    3    0    0 -0.12425233198E+04  0.75040669222E+01  0.13491096644E+04  0.18341257857E+04  0.00000000000E+00 0.  1.
          4    1    6    6  502    0  0.57791783637E+03 -0.11765054206E+03  0.59636689299E+03  0.83873961794E+03  0.00000000000E+00 0. -1.
          3    1    5    5  503    0  0.24064231698E+02  0.64138744045E+02 -0.22085245052E+02  0.71976550236E+02  0.00000000000E+00 0. -1.
         -4    1    5    5    0  503  0.15773383673E+03  0.21291030124E+03  0.50193507805E+02  0.26968527555E+03  0.00000000000E+00 0.  1.
         -3    1    6    6    0  502  0.50851326041E+03 -0.18046677188E+03  0.56362976491E+03  0.78027719668E+03  0.00000000000E+00 0.  1.
<mgrwt>
<rscale>  0 0.28517998E+04</rscale>
<asrwt>0</asrwt>
<pdfrwt beam="1">  1        2 0.49346407E+00 0.28517998E+04</pdfrwt>
<pdfrwt beam="2">  1       -2 0.97520477E-01 0.28517998E+04</pdfrwt>
<totfact> 0.97327054E-01</totfact>
</mgrwt>
</event>
<event>
12    1  0.1477245E-007  0.1125309E+04  0.7818608E-02  0.9180869E-01
         -2   -1    0    0    0  501 -0.00000000000E+00  0.00000000000E+00  0.23392434562E+03  0.23392434562E+03  0.00000000000E+00 0.  1.
          2   -1    0    0  501    0  0.00000000000E+00 -0.00000000000E+00 -0.13533450515E+04  0.13533450515E+04  0.00000000000E+00 0. -1.
         23    2    1    2    0    0  0.10112284532E+03  0.15821089600E+03 -0.18993723093E+03  0.28258391677E+03  0.92309267490E+02 0.  0.
        254    2    1    2    0    0 -0.10112284532E+03 -0.15821089600E+03 -0.92948347491E+03  0.13046854803E+04  0.89610722289E+03 0.  0.
        -24    2    4    4    0    0 -0.19193972409E+03 -0.55698289814E+02 -0.10715389730E+04  0.10929502442E+04  0.80008177460E+02 0.  0.
         24    2    4    4    0    0  0.90816878769E+02 -0.10251260619E+03  0.14205549812E+03  0.21173523608E+03  0.76782196850E+02 0.  0.
         11    1    3    3    0    0  0.11801640775E+03  0.12515278672E+03 -0.15308244006E+03  0.23027228660E+03  0.00000000000E+00 0. -1.
        -11    1    3    3    0    0 -0.16893562428E+02  0.33058109288E+02 -0.36854790877E+02  0.52311630177E+02  0.00000000000E+00 0.  1.
          2    1    6    6  502    0  0.38640952229E+02 -0.92534914993E+02  0.11339815636E+03  0.15137693202E+03  0.00000000000E+00 0. -1.
          3    1    5    5  503    0 -0.14273722251E+03 -0.66566237038E+02 -0.91634136417E+03  0.92977764777E+03  0.00000000000E+00 0. -1.
         -4    1    5    5    0  503 -0.49202501578E+02  0.10867947224E+02 -0.15519760885E+03  0.16317259645E+03  0.00000000000E+00 0.  1.
         -1    1    6    6    0  502  0.52175926539E+02 -0.99776911981E+01  0.28657341760E+02  0.60358304057E+02  0.00000000000E+00 0.  1.
<mgrwt>
<rscale>  0 0.11253095E+04</rscale>
<asrwt>0</asrwt>
<pdfrwt beam="1">  1        2 0.20820693E+00 0.11253095E+04</pdfrwt>
<pdfrwt beam="2">  1       -2 0.35988361E-01 0.11253095E+04</pdfrwt>
<totfact> 0.11072475E+02</totfact>
</mgrwt>
</event>
<event>
12    1  0.1477245E-007  0.1189124E+04  0.7818608E-02  0.9122430E-01
         -2   -1    0    0    0  501 -0.00000000000E+00  0.00000000000E+00  0.39342544776E+03  0.39342544776E+03  0.00000000000E+00 0.  1.
          2   -1    0    0  501    0  0.00000000000E+00 -0.00000000000E+00 -0.89852881027E+03  0.89852881027E+03  0.00000000000E+00 0. -1.
         23    2    1    2    0    0  0.17869763463E+03  0.56231513576E+02 -0.26675058380E+03  0.33833073447E+03  0.90647582356E+02 0.  0.
        254    2    1    2    0    0 -0.17869763463E+03 -0.56231513576E+02 -0.23835277872E+03  0.95362352356E+03  0.90415206123E+03 0.  0.
        -24    2    4    4    0    0 -0.12870779621E+03 -0.82100691372E+02  0.33184520180E+03  0.37375828834E+03  0.79169437397E+02 0.  0.
         24    2    4    4    0    0 -0.49989838414E+02  0.25869177796E+02 -0.57019798051E+03  0.57986523522E+03  0.89161402708E+02 0.  0.
         13    1    3    3    0    0  0.16507506855E+03  0.19451081629E+02 -0.23513793223E+03  0.28795480550E+03  0.00000000000E+00 0. -1.
        -13    1    3    3    0    0  0.13622566079E+02  0.36780431947E+02 -0.31612651569E+02  0.50375928974E+02  0.00000000000E+00 0.  1.
          4    1    6    6  502    0 -0.70386058222E+02 -0.16734772183E+01 -0.41480515160E+03  0.42073781802E+03  0.00000000000E+00 0. -1.
          1    1    5    5  503    0 -0.72940130717E+02 -0.88242026580E+02  0.24402781062E+03  0.26954867887E+03  0.00000000000E+00 0. -1.
         -2    1    5    5    0  503 -0.55767665498E+02  0.61413352080E+01  0.87817391175E+02  0.10420960947E+03  0.00000000000E+00 0.  1.
         -3    1    6    6    0  502  0.20396219808E+02  0.27542655015E+02 -0.15539282891E+03  0.15912741720E+03  0.00000000000E+00 0.  1.
<mgrwt>
<rscale>  0 0.11891242E+04</rscale>
<asrwt>0</asrwt>
<pdfrwt beam="1">  1        2 0.13823520E+00 0.11891242E+04</pdfrwt>
<pdfrwt beam="2">  1       -2 0.60526993E-01 0.11891242E+04</pdfrwt>
<totfact> 0.73796105E+01</totfact>
</mgrwt>
</event>
<event>
12    1  0.1477245E-007  0.1362320E+04  0.7818608E-02  0.8981554E-01
          1   -1    0    0  501    0  0.00000000000E+00  0.00000000000E+00  0.15314725684E+04  0.15314725684E+04  0.00000000000E+00 0. -1.
         -1   -1    0    0    0  501 -0.00000000000E+00 -0.00000000000E+00 -0.30296260393E+03  0.30296260393E+03  0.00000000000E+00 0.  1.
         23    2    1    2    0    0  0.14172860389E+03  0.10276355213E+02  0.81569674613E+03  0.83288198118E+03  0.90214257741E+02 0.  0.
        254    2    1    2    0    0 -0.14172860389E+03 -0.10276355213E+02  0.41281321833E+03  0.10015531911E+04  0.90138861808E+03 0.  0.
        -24    2    4    4    0    0  0.10346067359E+03  0.33399828232E+03 -0.58879319182E+02  0.36315940860E+03  0.78479412945E+02 0.  0.
         24    2    4    4    0    0 -0.24518927748E+03 -0.34427463753E+03  0.47169253751E+03  0.63839378254E+03  0.80062249530E+02 0.  0.
         13    1    3    3    0    0  0.96460233202E+02 -0.33391381828E+02  0.58123570753E+03  0.59013092503E+03  0.00000000000E+00 0. -1.
        -13    1    3    3    0    0  0.45268370686E+02  0.43667737040E+02  0.23446103860E+03  0.24275105615E+03  0.00000000000E+00 0.  1.
          4    1    6    6  502    0 -0.17897587205E+03 -0.27012795626E+03  0.40503954335E+03  0.51870849926E+03  0.00000000000E+00 0. -1.
          3    1    5    5  503    0  0.10091201176E+03  0.24207708870E+03 -0.67455069988E+02  0.27080387268E+03  0.00000000000E+00 0. -1.
         -4    1    5    5    0  503  0.25486618301E+01  0.91921193619E+02  0.85757508061E+01  0.92355535922E+02  0.00000000000E+00 0.  1.
         -3    1    6    6    0  502 -0.66213405431E+02 -0.74146681274E+02  0.66652994167E+02  0.11968528328E+03  0.00000000000E+00 0.  1.
<mgrwt>
<rscale>  0 0.13623200E+04</rscale>
<asrwt>0</asrwt>
<pdfrwt beam="1">  1        1 0.23561116E+00 0.13623200E+04</pdfrwt>
<pdfrwt beam="2">  1       -1 0.46609632E-01 0.13623200E+04</pdfrwt>
<totfact> 0.27892085E+01</totfact>
</mgrwt>
</event>
<event>
12    1  0.1477245E-007  0.2174899E+04  0.7818608E-02  0.8528949E-01
         -1   -1    0    0    0  501 -0.00000000000E+00  0.00000000000E+00  0.68794406904E+03  0.68794406904E+03  0.00000000000E+00 0.  1.
          1   -1    0    0  501    0  0.00000000000E+00 -0.00000000000E+00 -0.17189570900E+04  0.17189570900E+04  0.00000000000E+00 0. -1.
         23    2    1    2    0    0 -0.77450919604E+03 -0.35325886060E+03 -0.12133784457E+03  0.86595760397E+03  0.10248600881E+03 0.  0.
        254    2    1    2    0    0  0.77450919604E+03  0.35325886060E+03 -0.90967517637E+03  0.15409435551E+04  0.90683063249E+03 0.  0.
        -24    2    4    4    0    0  0.23327311583E+02  0.29864250784E+03 -0.68368348703E+03  0.75057017552E+03  0.78746218921E+02 0.  0.
         24    2    4    4    0    0  0.75118188446E+03  0.54616352756E+02 -0.22599168935E+03  0.79037337953E+03  0.79753782979E+02 0.  0.
         13    1    3    3    0    0 -0.44514082535E+03 -0.24416503303E+03 -0.38022357361E+02  0.50912927377E+03  0.00000000000E+00 0.  1.
        -13    1    3    3    0    0 -0.32936837069E+03 -0.10909382757E+03 -0.83315487204E+02  0.35682833020E+03  0.00000000000E+00 0. -1.
          2    1    6    6  502    0  0.43046359776E+03 -0.49415346978E+01 -0.14515170630E+03  0.45430424343E+03  0.00000000000E+00 0. -1.
          1    1    5    5  503    0  0.24066658490E+02  0.11330887479E+03 -0.35263258542E+03  0.37117091138E+03  0.00000000000E+00 0. -1.
         -2    1    5    5    0  503 -0.73934690729E+00  0.18533363306E+03 -0.33105090161E+03  0.37939926414E+03  0.00000000000E+00 0.  1.
         -1    1    6    6    0  502  0.32071828670E+03  0.59557887454E+02 -0.80839983046E+02  0.33606913610E+03  0.00000000000E+00 0.  1.
<mgrwt>
<rscale>  0 0.21748989E+04</rscale>
<asrwt>0</asrwt>
<pdfrwt beam="1">  1        1 0.26445494E+00 0.21748989E+04</pdfrwt>
<pdfrwt beam="2">  1       -1 0.10583755E+00 0.21748989E+04</pdfrwt>
<totfact> 0.35321170E+00</totfact>
</mgrwt>
</event>
<event>
12    1  0.1477245E-007  0.2281635E+04  0.7818608E-02  0.8485198E-01
          2   -1    0    0  501    0  0.00000000000E+00  0.00000000000E+00  0.14187199775E+04  0.14187199775E+04  0.00000000000E+00 0.  1.
         -2   -1    0    0    0  501 -0.00000000000E+00 -0.00000000000E+00 -0.91735134433E+03  0.91735134433E+03  0.00000000000E+00 0. -1.
         23    2    1    2    0    0 -0.86666973310E+03 -0.23764743128E+03  0.55197208593E+03  0.10585757643E+04  0.91196147239E+02 0.  0.
        254    2    1    2    0    0  0.86666973310E+03  0.23764743128E+03 -0.50603452782E+02  0.12774955575E+04  0.90655472098E+03 0.  0.
        -24    2    4    4    0    0  0.86596017959E+03  0.18179623973E+03 -0.35653515654E+03  0.95713830918E+03  0.77842916424E+02 0.  0.
         24    2    4    4    0    0  0.70955350262E+00  0.55851191555E+02  0.30593170375E+03  0.32035724832E+03  0.76907087606E+02 0.  0.
         13    1    3    3    0    0 -0.52240588560E+03 -0.13369945996E+03  0.38184701766E+03  0.66075002822E+03  0.00000000000E+00 0. -1.
        -13    1    3    3    0    0 -0.34426384750E+03 -0.10394797133E+03  0.17012506827E+03  0.39782573608E+03  0.00000000000E+00 0.  1.
          2    1    6    6  502    0  0.16724481434E+02  0.54829436446E+02  0.29596809096E+03  0.30146821764E+03  0.00000000000E+00 0. -1.
          1    1    5    5  503    0  0.67217604761E+03  0.12277615161E+03 -0.24501541630E+03  0.72589749732E+03  0.00000000000E+00 0. -1.
         -2    1    5    5    0  503  0.19378413198E+03  0.59020088118E+02 -0.11151974024E+03  0.23124081187E+03  0.00000000000E+00 0.  1.
         -1    1    6    6    0  502 -0.16014927931E+02  0.10217551091E+01  0.99636127973E+01  0.18889030682E+02  0.00000000000E+00 0.  1.
<mgrwt>
<rscale>  0 0.22816351E+04</rscale>
<asrwt>0</asrwt>
<pdfrwt beam="1">  1        2 0.21826461E+00 0.22816351E+04</pdfrwt>
<pdfrwt beam="2">  1       -2 0.14113098E+00 0.22816351E+04</pdfrwt>
<totfact> 0.45093388E+00</totfact>
</mgrwt>
</event>
<event>
12    1  0.1477245E-007  0.1582573E+04  0.7818608E-02  0.8831326E-01
          2   -1    0    0  501    0  0.00000000000E+00  0.00000000000E+00  0.72240563346E+03  0.72240563346E+03  0.00000000000E+00 0. -1.
         -2   -1    0    0    0  501 -0.00000000000E+00 -0.00000000000E+00 -0.86673558765E+03  0.86673558765E+03  0.00000000000E+00 0.  1.
         23    2    1    2    0    0  0.25230392441E+03 -0.26435646594E+02  0.41765572459E+03  0.49630621001E+03  0.86760798308E+02 0.  0.
        254    2    1    2    0    0 -0.25230392441E+03  0.26435646594E+02 -0.56198567878E+03  0.10928350111E+04  0.90227731028E+03 0.  0.
        -24    2    4    4    0    0  0.15441126033E+03  0.36230250998E+03 -0.20932539878E+03  0.45324580133E+03  0.80676438909E+02 0.  0.
         24    2    4    4    0    0 -0.40671518474E+03 -0.33586686339E+03 -0.35266028001E+03  0.63958920977E+03  0.80506476397E+02 0.  0.
         13    1    3    3    0    0  0.21195919259E+03 -0.52430830502E+02  0.36261549917E+03  0.42327968478E+03  0.00000000000E+00 0. -1.
        -13    1    3    3    0    0  0.40344731815E+02  0.25995183908E+02  0.55040225428E+02  0.73026525227E+02  0.00000000000E+00 0.  1.
          4    1    6    6  502    0 -0.28537631883E+02 -0.82558472621E+01 -0.45405038873E+01  0.30052813896E+02  0.00000000000E+00 0. -1.
          1    1    5    5  503    0 -0.42414031284E+01  0.28654732621E+01 -0.13123835618E+02  0.14086713557E+02  0.00000000000E+00 0. -1.
         -2    1    5    5    0  503  0.15865266346E+03  0.35943703672E+03 -0.19620156316E+03  0.43915908777E+03  0.00000000000E+00 0.  1.
         -3    1    6    6    0  502 -0.37817755286E+03 -0.32761101613E+03 -0.34811977612E+03  0.60953639587E+03  0.00000000000E+00 0.  1.
<mgrwt>
<rscale>  0 0.15825734E+04</rscale>
<asrwt>0</asrwt>
<pdfrwt beam="1">  1        2 0.11113933E+00 0.15825734E+04</pdfrwt>
<pdfrwt beam="2">  1       -2 0.13334394E+00 0.15825734E+04</pdfrwt>
<totfact> 0.15382384E+01</totfact>
</mgrwt>
</event>
<event>
12    1  0.1477245E-007  0.1610279E+04  0.7818608E-02  0.8814258E-01
          3   -1    0    0  501    0  0.00000000000E+00  0.00000000000E+00  0.64485774032E+03  0.64485774032E+03  0.00000000000E+00 0. -1.
         -3   -1    0    0    0  501 -0.00000000000E+00 -0.00000000000E+00 -0.10052594030E+04  0.10052594030E+04  0.00000000000E+00 0.  1.
         23    2    1    2    0    0  0.50789447238E+03 -0.19341554465E+03 -0.79588906654E+02  0.55664531054E+03  0.90295291654E+02 0.  0.
        254    2    1    2    0    0 -0.50789447238E+03  0.19341554465E+03 -0.28081275598E+03  0.10934718327E+04  0.90634346529E+03 0.  0.
        -24    2    4    4    0    0  0.13488711588E+03  0.18652719161E+03  0.17629282392E+03  0.30068613961E+03  0.79662209039E+02 0.  0.
         24    2    4    4    0    0 -0.64278158826E+03  0.68883530435E+01 -0.45710557990E+03  0.79278569312E+03  0.79674490479E+02 0.  0.
         11    1    3    3    0    0  0.47036968555E+02 -0.21655899744E+02  0.18774878830E+02  0.55081307898E+02  0.00000000000E+00 0. -1.
        -11    1    3    3    0    0  0.46085750382E+03 -0.17175964491E+03 -0.98363785484E+02  0.50156400264E+03  0.00000000000E+00 0.  1.
          4    1    6    6  502    0 -0.10456745535E+03  0.27376578532E+02 -0.60102358140E+02  0.12367749684E+03  0.00000000000E+00 0. -1.
          1    1    5    5  503    0  0.50969768078E+02  0.10631733731E+03  0.46999270039E+02  0.12692606058E+03  0.00000000000E+00 0. -1.
         -2    1    5    5    0  503  0.83917347798E+02  0.80209854296E+02  0.12929355389E+03  0.17376007903E+03  0.00000000000E+00 0.  1.
         -3    1    6    6    0  502 -0.53821413291E+03 -0.20488225488E+02 -0.39700322176E+03  0.66910819629E+03  0.00000000000E+00 0.  1.
<mgrwt>
<rscale>  0 0.16102786E+04</rscale>
<asrwt>0</asrwt>
<pdfrwt beam="1">  1        3 0.99208883E-01 0.16102786E+04</pdfrwt>
<pdfrwt beam="2">  1       -3 0.15465529E+00 0.16102786E+04</pdfrwt>
<totfact> 0.66583395E-01</totfact>
</mgrwt>
</event>
<event>
12    1  0.1477245E-007  0.2330164E+04  0.7818608E-02  0.8466122E-01
          2   -1    0    0  501    0  0.00000000000E+00  0.00000000000E+00  0.26460179575E+04  0.26460179575E+04  0.00000000000E+00 0. -1.
         -2   -1    0    0    0  501 -0.00000000000E+00 -0.00000000000E+00 -0.51300353244E+03  0.51300353244E+03  0.00000000000E+00 0.  1.
         23    2    1    2    0    0  0.50294845409E+01 -0.17191930725E+03 -0.41354940145E+03  0.45622144981E+03  0.86794930204E+02 0.  0.
        254    2    1    2    0    0 -0.50294845409E+01  0.17191930725E+03  0.25465638265E+04  0.27028000401E+04  0.88913395532E+03 0.  0.
        -24    2    4    4    0    0  0.42113794531E+03  0.19371733909E+03  0.12490750097E+04  0.13347634560E+04  0.80755973208E+02 0.  0.
         24    2    4    4    0    0 -0.42616742985E+03 -0.21798031846E+02  0.12974888168E+04  0.13680365841E+04  0.77155902339E+02 0.  0.
         13    1    3    3    0    0  0.85769259763E+01 -0.10359287021E+03 -0.34103503339E+03  0.35652481038E+03  0.00000000000E+00 0.  1.
        -13    1    3    3    0    0 -0.35474414354E+01 -0.68326437034E+02 -0.72514368061E+02  0.99696639430E+02  0.00000000000E+00 0. -1.
          4    1    6    6  502    0 -0.66384587852E+02 -0.31951743818E+02  0.22785021418E+03  0.23946512802E+03  0.00000000000E+00 0. -1.
          3    1    5    5  503    0  0.13416196108E+02 -0.58377289327E+01  0.22045711692E+02  0.26459153447E+02  0.00000000000E+00 0. -1.
         -4    1    5    5    0  503  0.40772174920E+03  0.19955506803E+03  0.12270292980E+04  0.13083043026E+04  0.00000000000E+00 0.  1.
         -3    1    6    6    0  502 -0.35978284200E+03  0.10153711973E+02  0.10696386026E+04  0.11285714561E+04  0.00000000000E+00 0.  1.
<mgrwt>
<rscale>  0 0.23301644E+04</rscale>
<asrwt>0</asrwt>
<pdfrwt beam="1">  1        2 0.40707968E+00 0.23301644E+04</pdfrwt>
<pdfrwt beam="2">  1       -2 0.78923622E-01 0.23301644E+04</pdfrwt>
<totfact> 0.36848134E+00</totfact>
</mgrwt>
</event>
<event>
12    1  0.1477245E-007  0.1439740E+04  0.7818608E-02  0.8925544E-01
          2   -1    0    0  501    0  0.00000000000E+00  0.00000000000E+00  0.15288849015E+04  0.15288849015E+04  0.00000000000E+00 0. -1.
         -2   -1    0    0    0  501 -0.00000000000E+00 -0.00000000000E+00 -0.33894839892E+03  0.33894839892E+03  0.00000000000E+00 0.  1.
         23    2    1    2    0    0  0.95926760110E+02  0.20651682170E+02  0.88343686037E+03  0.89348490632E+03  0.90698160242E+02 0.  0.
        254    2    1    2    0    0 -0.95926760110E+02 -0.20651682170E+02  0.30649964224E+03  0.97434839413E+03  0.91966533433E+03 0.  0.
        -24    2    4    4    0    0 -0.30923648921E+02 -0.43991626287E+03  0.65067849968E+01  0.44793952044E+03  0.78261646550E+02 0.  0.
         24    2    4    4    0    0 -0.65003111188E+02  0.41926458070E+03  0.29999285724E+03  0.52640887369E+03  0.84275707118E+02 0.  0.
         11    1    3    3    0    0  0.96071317065E+02 -0.10182921224E+02  0.53223794510E+03  0.54093494992E+03  0.00000000000E+00 0. -1.
        -11    1    3    3    0    0 -0.14455695504E+00  0.30834603394E+02  0.35119891528E+03  0.35254995640E+03  0.00000000000E+00 0.  1.
          4    1    6    6  502    0 -0.53689144593E+02  0.33866214628E+03  0.19811578970E+03  0.39601065604E+03  0.00000000000E+00 0. -1.
          1    1    5    5  503    0 -0.49547698644E+02 -0.40074216045E+03 -0.16839835907E+01  0.40379708940E+03  0.00000000000E+00 0. -1.
         -2    1    5    5    0  503  0.18624049722E+02 -0.39174102416E+02  0.81907685876E+01  0.44142431041E+02  0.00000000000E+00 0.  1.
         -3    1    6    6    0  502 -0.11313966596E+02  0.80602434417E+02  0.10187706755E+03  0.13039821765E+03  0.00000000000E+00 0.  1.
<mgrwt>
<rscale>  0 0.14397404E+04</rscale>
<asrwt>0</asrwt>
<pdfrwt beam="1">  1        2 0.23521306E+00 0.14397404E+04</pdfrwt>
<pdfrwt beam="2">  1       -2 0.52145908E-01 0.14397404E+04</pdfrwt>
<totfact> 0.41185473E+01</totfact>
</mgrwt>
</event>
<event>
12    1  0.1477245E-007  0.1332150E+04  0.7818608E-02  0.9004451E-01
         -1   -1    0    0    0  501 -0.00000000000E+00  0.00000000000E+00  0.63213153758E+03  0.63213153758E+03  0.00000000000E+00 0.  1.
          1   -1    0    0  501    0  0.00000000000E+00 -0.00000000000E+00 -0.70184145914E+03  0.70184145914E+03  0.00000000000E+00 0. -1.
         23    2    1    2    0    0 -0.18763201641E+03 -0.10007732528E+03  0.26841403577E+03  0.35451818276E+03  0.91737684155E+02 0.  0.
        254    2    1    2    0    0  0.18763201641E+03  0.10007732528E+03 -0.33812395733E+03  0.97945481396E+03  0.89430569575E+03 0.  0.
        -24    2    4    4    0    0 -0.25353362551E+03  0.71745250052E+02 -0.43986493808E+03  0.51891692844E+03  0.79793074237E+02 0.  0.
         24    2    4    4    0    0  0.44116564192E+03  0.28332075228E+02  0.10174098075E+03  0.46053788553E+03  0.79461227913E+02 0.  0.
         13    1    3    3    0    0 -0.17050697256E+03 -0.11256672076E+03  0.21281224936E+03  0.29501347052E+03  0.00000000000E+00 0. -1.
        -13    1    3    3    0    0 -0.17125043853E+02  0.12489395483E+02  0.55601786410E+02  0.59504712238E+02  0.00000000000E+00 0.  1.
          2    1    6    6  502    0  0.27020672245E+02  0.19325916500E+02  0.18464746813E+02  0.38007297352E+02  0.00000000000E+00 0. -1.
          1    1    5    5  503    0 -0.11242593025E+03  0.73829866548E+01 -0.24657604009E+03  0.27109747663E+03  0.00000000000E+00 0. -1.
         -2    1    5    5    0  503 -0.14110769526E+03  0.64362263397E+02 -0.19328889799E+03  0.24781945181E+03  0.00000000000E+00 0.  1.
         -1    1    6    6    0  502  0.41414496968E+03  0.90061587281E+01  0.83276233937E+02  0.42253058817E+03  0.00000000000E+00 0.  1.
<mgrwt>
<rscale>  0 0.13321503E+04</rscale>
<asrwt>0</asrwt>
<pdfrwt beam="1">  1        1 0.10797561E+00 0.13321503E+04</pdfrwt>
<pdfrwt beam="2">  1       -1 0.97251006E-01 0.13321503E+04</pdfrwt>
<totfact> 0.27025007E+01</totfact>
</mgrwt>
</event>
<event>
12    1  0.1477245E-007  0.1579633E+04  0.7818608E-02  0.8833159E-01
          2   -1    0    0  501    0  0.00000000000E+00  0.00000000000E+00  0.70619599083E+03  0.70619599083E+03  0.00000000000E+00 0. -1.
         -2   -1    0    0    0  501 -0.00000000000E+00 -0.00000000000E+00 -0.88333900309E+03  0.88333900309E+03  0.00000000000E+00 0.  1.
         23    2    1    2    0    0 -0.23585796507E+03 -0.20772637297E+03  0.37442152172E+03  0.49705625586E+03  0.89967882316E+02 0.  0.
        254    2    1    2    0    0  0.23585796507E+03  0.20772637297E+03 -0.55156453399E+03  0.10924787381E+04  0.88910468014E+03 0.  0.
        -24    2    4    4    0    0  0.36724931648E+02 -0.29662803154E+03  0.78137977882E+01  0.30963117903E+03  0.80458075349E+02 0.  0.
         24    2    4    4    0    0  0.19913303342E+03  0.50435440451E+03 -0.55937833177E+03  0.78284755903E+03  0.76934077516E+02 0.  0.
         11    1    3    3    0    0 -0.14013965302E+03 -0.14765437509E+03  0.17785577212E+03  0.27032131345E+03  0.00000000000E+00 0.  1.
        -11    1    3    3    0    0 -0.95718312052E+02 -0.60071997876E+02  0.19656574961E+03  0.22673494241E+03  0.00000000000E+00 0. -1.
          4    1    6    6  502    0  0.30983989479E+02  0.25779921557E+02 -0.45409297149E+02  0.60717511701E+02  0.00000000000E+00 0. -1.
          3    1    5    5  503    0  0.43410471823E+01 -0.12584309202E+02 -0.18219412060E+02  0.22564496550E+02  0.00000000000E+00 0. -1.
         -4    1    5    5    0  503  0.32383884466E+02 -0.28404372234E+03  0.26033209848E+02  0.28706668248E+03  0.00000000000E+00 0.  1.
         -3    1    6    6    0  502  0.16814904394E+03  0.47857448295E+03 -0.51396903463E+03  0.72213004733E+03  0.00000000000E+00 0.  1.
<mgrwt>
<rscale>  0 0.15796335E+04</rscale>
<asrwt>0</asrwt>
<pdfrwt beam="1">  1        2 0.10864554E+00 0.15796335E+04</pdfrwt>
<pdfrwt beam="2">  1       -2 0.13589831E+00 0.15796335E+04</pdfrwt>
<totfact> 0.15087622E+01</totfact>
</mgrwt>
</event>
<event>
12    1  0.1477245E-007  0.1309408E+04  0.7818608E-02  0.9022137E-01
         -1   -1    0    0    0  501 -0.00000000000E+00  0.00000000000E+00  0.97083082286E+02  0.97083082286E+02  0.00000000000E+00 0.  1.
          1   -1    0    0  501    0  0.00000000000E+00 -0.00000000000E+00 -0.44151612072E+04  0.44151612072E+04  0.00000000000E+00 0. -1.
         23    2    1    2    0    0  0.93469485569E+02  0.59630585112E+02 -0.22307899404E+04  0.22354039826E+04  0.91185831495E+02 0.  0.
        254    2    1    2    0    0 -0.93469485569E+02 -0.59630585112E+02 -0.20872881846E+04  0.22768403069E+04  0.90273886944E+03 0.  0.
        -24    2    4    4    0    0 -0.18469558419E+03  0.39271921662E+03 -0.10200582447E+04  0.11111872779E+04  0.76664868917E+02 0.  0.
         24    2    4    4    0    0  0.91226098623E+02 -0.45234980174E+03 -0.10672299399E+04  0.11656530290E+04  0.82611713838E+02 0.  0.
         13    1    3    3    0    0  0.13907212863E+02 -0.14489699578E+02 -0.88512749469E+03  0.88535532066E+03  0.00000000000E+00 0. -1.
        -13    1    3    3    0    0  0.79562272706E+02  0.74120284690E+02 -0.13456624457E+04  0.13500486619E+04  0.00000000000E+00 0.  1.
          4    1    6    6  502    0  0.86975203559E+02 -0.43628643599E+03 -0.97179723696E+03  0.10687845480E+04  0.00000000000E+00 0. -1.
          1    1    5    5  503    0 -0.17231506363E+03  0.37062790620E+03 -0.89963129780E+03  0.98812650911E+03  0.00000000000E+00 0. -1.
         -2    1    5    5    0  503 -0.12380520564E+02  0.22091310423E+02 -0.12042694685E+03  0.12306076878E+03  0.00000000000E+00 0.  1.
         -3    1    6    6    0  502  0.42508950639E+01 -0.16063365747E+02 -0.95432702940E+02  0.96868481037E+02  0.00000000000E+00 0.  1.
<mgrwt>
<rscale>  0 0.13094082E+04</rscale>
<asrwt>0</asrwt>
<pdfrwt beam="1">  1        1 0.67925536E+00 0.13094082E+04</pdfrwt>
<pdfrwt beam="2">  1       -1 0.14935863E-01 0.13094082E+04</pdfrwt>
<totfact> 0.13276486E+00</totfact>
</mgrwt>
</event>
<event>
12    1  0.1477245E-007  0.1888915E+04  0.7818608E-02  0.8660394E-01
         -1   -1    0    0    0  501 -0.00000000000E+00  0.00000000000E+00  0.98135534385E+03  0.98135534385E+03  0.00000000000E+00 0.  1.
          1   -1    0    0  501    0  0.00000000000E+00 -0.00000000000E+00 -0.90894656395E+03  0.90894656395E+03  0.00000000000E+00 0. -1.
         23    2    1    2    0    0 -0.51078052214E+03  0.53090704745E+03 -0.92150672051E+01  0.74233560529E+03  0.90654280559E+02 0.  0.
        254    2    1    2    0    0  0.51078052214E+03 -0.53090704745E+03  0.81623847106E+02  0.11479663025E+04  0.87658721440E+03 0.  0.
        -24    2    4    4    0    0  0.17104900324E+03  0.10487062938E+03 -0.26668904570E+03  0.34334595190E+03  0.80670844659E+02 0.  0.
         24    2    4    4    0    0  0.33973151890E+03 -0.63577767684E+03  0.34831289280E+03  0.80462035061E+03  0.80382075224E+02 0.  0.
         13    1    3    3    0    0 -0.46929729524E+03  0.46459193087E+03 -0.31134361853E+02  0.66110132509E+03  0.00000000000E+00 0.  1.
        -13    1    3    3    0    0 -0.41483226897E+02  0.66315116578E+02  0.21919294648E+02  0.81234280193E+02  0.00000000000E+00 0. -1.
          4    1    6    6  502    0  0.15850608481E+02 -0.27603468933E+02  0.36153876063E+02  0.48169451322E+02  0.00000000000E+00 0. -1.
          3    1    5    5  503    0  0.21187931483E+02 -0.61339874385E+00 -0.18432050059E+01  0.21276797297E+02  0.00000000000E+00 0. -1.
         -4    1    5    5    0  503  0.14986107175E+03  0.10548402813E+03 -0.26484584069E+03  0.32206915461E+03  0.00000000000E+00 0.  1.
         -3    1    6    6    0  502  0.32388091042E+03 -0.60817420790E+03  0.31215901674E+03  0.75645089928E+03  0.00000000000E+00 0.  1.
<mgrwt>
<rscale>  0 0.18889146E+04</rscale>
<asrwt>0</asrwt>
<pdfrwt beam="1">  1        1 0.13983793E+00 0.18889146E+04</pdfrwt>
<pdfrwt beam="2">  1       -1 0.15097775E+00 0.18889146E+04</pdfrwt>
<totfact> 0.57447689E+00</totfact>
</mgrwt>
</event>
<event>
12    1  0.1477245E-007  0.1872423E+04  0.7818608E-02  0.8668706E-01
          2   -1    0    0  501    0  0.00000000000E+00  0.00000000000E+00  0.12146484089E+04  0.12146484089E+04  0.00000000000E+00 0. -1.
         -2   -1    0    0    0  501 -0.00000000000E+00 -0.00000000000E+00 -0.72160154131E+03  0.72160154131E+03  0.00000000000E+00 0.  1.
         23    2    1    2    0    0 -0.56882313904E+03 -0.44773878153E+03  0.17150725499E+03  0.74945389540E+03  0.90755841783E+02 0.  0.
        254    2    1    2    0    0  0.56882313904E+03  0.44773878153E+03  0.32153961257E+03  0.11867960548E+04  0.88378016113E+03 0.  0.
        -24    2    4    4    0    0  0.54204442067E+03  0.57978856208E+03 -0.33079641767E+02  0.79868370246E+03  0.82670812124E+02 0.  0.
         24    2    4    4    0    0  0.26778718367E+02 -0.13204978055E+03  0.35461925433E+03  0.38811235232E+03  0.81988646627E+02 0.  0.
         13    1    3    3    0    0 -0.18642078961E+02 -0.15005524385E+01  0.14996657828E+02  0.23972453183E+02  0.00000000000E+00 0. -1.
        -13    1    3    3    0    0 -0.55018106008E+03 -0.44623822909E+03  0.15651059716E+03  0.72548144221E+03  0.00000000000E+00 0.  1.
          4    1    6    6  502    0  0.38987528796E+01 -0.41923432175E+02  0.33511994687E+02  0.53812900194E+02  0.00000000000E+00 0. -1.
          3    1    5    5  503    0  0.47492078389E+03  0.51520203993E+03 -0.27078925789E+01  0.70070694702E+03  0.00000000000E+00 0. -1.
         -4    1    5    5    0  503  0.67123636783E+02  0.64586522156E+02 -0.30371749188E+02  0.97976755447E+02  0.00000000000E+00 0.  1.
         -3    1    6    6    0  502  0.22879965487E+02 -0.90126348377E+02  0.32110725965E+03  0.33429945212E+03  0.00000000000E+00 0.  1.
<mgrwt>
<rscale>  0 0.18724232E+04</rscale>
<asrwt>0</asrwt>
<pdfrwt beam="1">  1        2 0.18686899E+00 0.18724232E+04</pdfrwt>
<pdfrwt beam="2">  1       -2 0.11101562E+00 0.18724232E+04</pdfrwt>
<totfact> 0.11197329E+01</totfact>
</mgrwt>
</event>
<event>
12    1  0.1477245E-007  0.2089506E+04  0.7818608E-02  0.8565880E-01
          1   -1    0    0  501    0  0.00000000000E+00  0.00000000000E+00  0.99698246365E+03  0.99698246365E+03  0.00000000000E+00 0. -1.
         -1   -1    0    0    0  501 -0.00000000000E+00 -0.00000000000E+00 -0.10948119835E+04  0.10948119835E+04  0.00000000000E+00 0.  1.
         23    2    1    2    0    0  0.31121626080E+03  0.20432026966E+03 -0.80370595050E+03  0.89050376028E+03  0.91931271269E+02 0.  0.
        254    2    1    2    0    0 -0.31121626080E+03 -0.20432026966E+03  0.70587643069E+03  0.12012906868E+04  0.89790614504E+03 0.  0.
        -24    2    4    4    0    0 -0.42898215184E+03  0.88407376124E+02  0.24944686364E+02  0.44636222669E+03  0.82313117365E+02 0.  0.
         24    2    4    4    0    0  0.11776589104E+03 -0.29272764578E+03  0.68093174432E+03  0.75492846015E+03  0.81796453592E+02 0.  0.
         11    1    3    3    0    0  0.20523529268E+03  0.10009336740E+03 -0.56373879897E+03  0.60822828035E+03  0.00000000000E+00 0.  1.
        -11    1    3    3    0    0  0.10598096811E+03  0.10422690226E+03 -0.23996715153E+03  0.28227547993E+03  0.00000000000E+00 0. -1.
          4    1    6    6  502    0  0.12213471693E+03 -0.21773764844E+03  0.54930283233E+03  0.60337399201E+03  0.00000000000E+00 0. -1.
          1    1    5    5  503    0 -0.40146833351E+03  0.71919472588E+02  0.36764901984E+01  0.40787590015E+03  0.00000000000E+00 0. -1.
         -2    1    5    5    0  503 -0.27513818329E+02  0.16487903536E+02  0.21268196165E+02  0.38486326535E+02  0.00000000000E+00 0.  1.
         -3    1    6    6    0  502 -0.43688258932E+01 -0.74989997335E+02  0.13162891199E+03  0.15155446814E+03  0.00000000000E+00 0.  1.
<mgrwt>
<rscale>  0 0.20895055E+04</rscale>
<asrwt>0</asrwt>
<pdfrwt beam="1">  1        1 0.15338192E+00 0.20895055E+04</pdfrwt>
<pdfrwt beam="2">  1       -1 0.16843261E+00 0.20895055E+04</pdfrwt>
<totfact> 0.35390385E+00</totfact>
</mgrwt>
</event>
<event>
12    1  0.2119957E-007  0.2396845E+04  0.7818608E-02  0.8440686E-01
         -1   -1    0    0    0  501 -0.00000000000E+00  0.00000000000E+00  0.97216869773E+03  0.97216869773E+03  0.00000000000E+00 0.  1.
          1   -1    0    0  501    0  0.00000000000E+00 -0.00000000000E+00 -0.14773320373E+04  0.14773320373E+04  0.00000000000E+00 0. -1.
         23    2    1    2    0    0 -0.83301084450E+03 -0.26890846682E+03  0.31428486184E+03  0.93453182478E+03  0.91410757407E+02 0.  0.
        254    2    1    2    0    0  0.83301084450E+03  0.26890846682E+03 -0.81944820139E+03  0.15149689102E+04  0.92596793336E+03 0.  0.
        -24    2    4    4    0    0  0.41134495709E+03 -0.16744609891E+03  0.47222660128E+02  0.45383563371E+03  0.80584942975E+02 0.  0.
         24    2    4    4    0    0  0.42166588741E+03  0.43635456573E+03 -0.86667086152E+03  0.10611332765E+04  0.81719157386E+02 0.  0.
         13    1    3    3    0    0 -0.67363853697E+03 -0.25408094841E+03  0.25236047152E+03  0.76291009590E+03  0.00000000000E+00 0.  1.
        -13    1    3    3    0    0 -0.15937230753E+03 -0.14827518412E+02  0.61924390325E+02  0.17162172889E+03  0.00000000000E+00 0. -1.
          4    1    6    6  502    0  0.10628439466E+03  0.11363592061E+03 -0.16410611070E+03  0.22614223526E+03  0.00000000000E+00 0. -1.
          1    1    5    5  503    0  0.31923149195E+02 -0.30239939114E+02 -0.13102724917E+02  0.45882706681E+02  0.00000000000E+00 0. -1.
         -2    1    5    5    0  503  0.37942180790E+03 -0.13720615979E+03  0.60325385045E+02  0.40795292703E+03  0.00000000000E+00 0.  1.
         -3    1    6    6    0  502  0.31538149275E+03  0.32271864512E+03 -0.70256475082E+03  0.83499104125E+03  0.00000000000E+00 0.  1.
<mgrwt>
<rscale>  0 0.23968446E+04</rscale>
<asrwt>0</asrwt>
<pdfrwt beam="1">  1        1 0.22728185E+00 0.23968446E+04</pdfrwt>
<pdfrwt beam="2">  1       -1 0.14956442E+00 0.23968446E+04</pdfrwt>
<totfact> 0.21382210E+00</totfact>
</mgrwt>
</event>
<event>
12    1  0.1477245E-007  0.3474301E+04  0.7818608E-02  0.8119907E-01
         -1   -1    0    0    0  501 -0.00000000000E+00  0.00000000000E+00  0.92047496740E+03  0.92047496740E+03  0.00000000000E+00 0.  1.
          1   -1    0    0  501    0  0.00000000000E+00 -0.00000000000E+00 -0.32784070298E+04  0.32784070298E+04  0.00000000000E+00 0. -1.
         23    2    1    2    0    0  0.78790326195E+03 -0.12099184098E+04 -0.19518363486E+04  0.24296501820E+04  0.94025352712E+02 0.  0.
        254    2    1    2    0    0 -0.78790326195E+03  0.12099184098E+04 -0.40609571389E+03  0.17692318152E+04  0.93838871396E+03 0.  0.
        -24    2    4    4    0    0 -0.68715331121E+03  0.23118305067E+03 -0.24577654798E+03  0.76929299917E+03  0.76028488108E+02 0.  0.
         24    2    4    4    0    0 -0.10074995074E+03  0.97873535914E+03 -0.16031916591E+03  0.99993881603E+03  0.78114947699E+02 0.  0.
         13    1    3    3    0    0  0.18100297809E+02 -0.96952538177E+01 -0.35895001038E+02  0.41352990543E+02  0.00000000000E+00 0.  1.
        -13    1    3    3    0    0  0.76980296415E+03 -0.12002231560E+04 -0.19159413475E+04  0.23882971915E+04  0.00000000000E+00 0. -1.
          2    1    6    6  502    0 -0.67570958912E+02  0.31969323369E+03 -0.40224954031E+02  0.32922278944E+03  0.00000000000E+00 0. -1.
          3    1    5    5  503    0 -0.26005248027E+02  0.68676909109E+01  0.51865762356E+01  0.27392310535E+02  0.00000000000E+00 0. -1.
         -4    1    5    5    0  503 -0.66114806318E+03  0.22431535976E+03 -0.25096312421E+03  0.74190068863E+03  0.00000000000E+00 0.  1.
         -1    1    6    6    0  502 -0.33178991832E+02  0.65904212544E+03 -0.12009421188E+03  0.67071602659E+03  0.00000000000E+00 0.  1.
<mgrwt>
<rscale>  0 0.34743009E+04</rscale>
<asrwt>0</asrwt>
<pdfrwt beam="1">  1        1 0.50437031E+00 0.34743009E+04</pdfrwt>
<pdfrwt beam="2">  1       -1 0.14161153E+00 0.34743009E+04</pdfrwt>
<totfact> 0.12320153E-01</totfact>
</mgrwt>
</event>
<event>
12    1  0.1477245E-007  0.1430417E+04  0.7818608E-02  0.8932091E-01
         -1   -1    0    0    0  501 -0.00000000000E+00  0.00000000000E+00  0.21096705573E+03  0.21096705573E+03  0.00000000000E+00 0.  1.
          1   -1    0    0  501    0  0.00000000000E+00 -0.00000000000E+00 -0.24246585360E+04  0.24246585360E+04  0.00000000000E+00 0. -1.
         23    2    1    2    0    0 -0.41777213232E+03  0.56932902281E+02 -0.30576540710E+03  0.52896499644E+03  0.92393578655E+02 0.  0.
        254    2    1    2    0    0  0.41777213232E+03 -0.56932902281E+02 -0.19079260732E+04  0.21066605953E+04  0.78744019020E+03 0.  0.
        -24    2    4    4    0    0  0.19374943088E+03 -0.41411662367E+03 -0.97476416351E+03  0.10796534975E+04  0.80343514024E+02 0.  0.
         24    2    4    4    0    0  0.22402270144E+03  0.35718372139E+03 -0.93316190964E+03  0.10270070978E+04  0.78651431366E+02 0.  0.
         11    1    3    3    0    0 -0.20053158342E+03  0.52157658788E+02 -0.10146948362E+03  0.23071496143E+03  0.00000000000E+00 0.  1.
        -11    1    3    3    0    0 -0.21724054889E+03  0.47752434923E+01 -0.20429592348E+03  0.29825003501E+03  0.00000000000E+00 0. -1.
          4    1    6    6  502    0  0.67921790491E+02  0.66885430686E+02 -0.27241575953E+03  0.28861284882E+03  0.00000000000E+00 0. -1.
          1    1    5    5  503    0  0.57258449871E+02 -0.21695222131E+03 -0.46556702619E+03  0.51681665249E+03  0.00000000000E+00 0. -1.
         -2    1    5    5    0  503  0.13649098101E+03 -0.19716440236E+03 -0.50919713732E+03  0.56283684502E+03  0.00000000000E+00 0.  1.
         -3    1    6    6    0  502  0.15610091095E+03  0.29029829071E+03 -0.66074615011E+03  0.73839424894E+03  0.00000000000E+00 0.  1.
<mgrwt>
<rscale>  0 0.14304168E+04</rscale>
<asrwt>0</asrwt>
<pdfrwt beam="1">  1        1 0.37302437E+00 0.14304168E+04</pdfrwt>
<pdfrwt beam="2">  1       -1 0.32456472E-01 0.14304168E+04</pdfrwt>
<totfact> 0.13230828E+01</totfact>
</mgrwt>
</event>
<event>
12    1  0.1477245E-007  0.1473518E+04  0.7818608E-02  0.8902257E-01
          1   -1    0    0  501    0  0.00000000000E+00  0.00000000000E+00  0.52323320473E+03  0.52323320473E+03  0.00000000000E+00 0. -1.
         -1   -1    0    0    0  501 -0.00000000000E+00 -0.00000000000E+00 -0.10374222432E+04  0.10374222432E+04  0.00000000000E+00 0.  1.
         23    2    1    2    0    0 -0.28381660599E+03 -0.31508094452E+03  0.16052520729E+02  0.43257372356E+03  0.83871779849E+02 0.  0.
        254    2    1    2    0    0  0.28381660599E+03  0.31508094452E+03 -0.53024155924E+03  0.11280817244E+04  0.90087979128E+03 0.  0.
        -24    2    4    4    0    0  0.56289182061E+03  0.35949643453E+03 -0.24149927963E+03  0.71466960632E+03  0.79660881203E+02 0.  0.
         24    2    4    4    0    0 -0.27907521461E+03 -0.44415490015E+02 -0.28874227961E+03  0.41341211807E+03  0.87645674006E+02 0.  0.
         13    1    3    3    0    0 -0.17152779299E+03 -0.21079037453E+03  0.48163498429E+02  0.27599653683E+03  0.00000000000E+00 0. -1.
        -13    1    3    3    0    0 -0.11228881301E+03 -0.10429056999E+03 -0.32110977699E+02  0.15657718673E+03  0.00000000000E+00 0.  1.
          4    1    6    6  502    0 -0.34469658390E+02 -0.71074701549E+00 -0.86208875664E+02  0.92847362666E+02  0.00000000000E+00 0. -1.
          3    1    5    5  503    0  0.24711739019E+03  0.12850352819E+03 -0.68181674372E+02  0.28675582297E+03  0.00000000000E+00 0. -1.
         -4    1    5    5    0  503  0.31577443042E+03  0.23099290635E+03 -0.17331760526E+03  0.42791378335E+03  0.00000000000E+00 0.  1.
         -3    1    6    6    0  502 -0.24460555622E+03 -0.43704742999E+02 -0.20253340394E+03  0.32056475541E+03  0.00000000000E+00 0.  1.
<mgrwt>
<rscale>  0 0.14735179E+04</rscale>
<asrwt>0</asrwt>
<pdfrwt beam="1">  1        1 0.80497417E-01 0.14735179E+04</pdfrwt>
<pdfrwt beam="2">  1       -1 0.15960342E+00 0.14735179E+04</pdfrwt>
<totfact> 0.11869926E+01</totfact>
</mgrwt>
</event>
<event>
12    1  0.1477245E-007  0.2789048E+04  0.7818608E-02  0.8306677E-01
         -2   -1    0    0    0  501 -0.00000000000E+00  0.00000000000E+00  0.11050147649E+04  0.11050147649E+04  0.00000000000E+00 0.  1.
          2   -1    0    0  501    0  0.00000000000E+00 -0.00000000000E+00 -0.17598838076E+04  0.17598838076E+04  0.00000000000E+00 0. -1.
         23    2    1    2    0    0 -0.63802977182E+03 -0.54075349674E+03 -0.12435622873E+04  0.15019047359E+04  0.98865259418E+02 0.  0.
        254    2    1    2    0    0  0.63802977182E+03  0.54075349674E+03  0.58869324453E+03  0.13629938366E+04  0.90094180079E+03 0.  0.
        -24    2    4    4    0    0 -0.17784198664E+03  0.13706656366E+03  0.34190661867E+03  0.41651769943E+03  0.78561077908E+02 0.  0.
         24    2    4    4    0    0  0.81587175846E+03  0.40368693307E+03  0.24678662585E+03  0.94647613714E+03  0.79395045760E+02 0.  0.
         13    1    3    3    0    0 -0.11934530623E+03 -0.15027357768E+03 -0.25313239189E+03  0.31764989861E+03  0.00000000000E+00 0.  1.
        -13    1    3    3    0    0 -0.51868446559E+03 -0.39047991906E+03 -0.99042989538E+03  0.11842548373E+04  0.00000000000E+00 0. -1.
          2    1    6    6  502    0  0.45136580998E+03  0.17968454320E+03  0.12474904914E+03  0.50157746634E+03  0.00000000000E+00 0. -1.
          1    1    5    5  503    0 -0.17137471161E+03  0.11486235409E+03  0.26283295253E+03  0.33413143088E+03  0.00000000000E+00 0. -1.
         -4    1    5    5    0  503 -0.64672750318E+01  0.22204209578E+02  0.79073666139E+02  0.82386268552E+02  0.00000000000E+00 0.  1.
         -3    1    6    6    0  502  0.36450594848E+03  0.22400238987E+03  0.12203757672E+03  0.44489867080E+03  0.00000000000E+00 0.  1.
<mgrwt>
<rscale>  0 0.27890483E+04</rscale>
<asrwt>0</asrwt>
<pdfrwt beam="1">  1        2 0.27075135E+00 0.27890483E+04</pdfrwt>
<pdfrwt beam="2">  1       -2 0.17000227E+00 0.27890483E+04</pdfrwt>
<totfact> 0.16862301E+00</totfact>
</mgrwt>
</event>
<event>
12    1  0.1629970E-007  0.1648161E+04  0.7818608E-02  0.8791495E-01
         -1   -1    0    0    0  501 -0.00000000000E+00  0.00000000000E+00  0.76143442745E+03  0.76143442745E+03  0.00000000000E+00 0.  1.
          1   -1    0    0  501    0  0.00000000000E+00 -0.00000000000E+00 -0.89188044968E+03  0.89188044968E+03  0.00000000000E+00 0. -1.
         23    2    1    2    0    0 -0.38342844710E+02  0.42955692735E+02 -0.61827548412E+03  0.62747380506E+03  0.90240991253E+02 0.  0.
        254    2    1    2    0    0  0.38342844710E+02 -0.42955692735E+02  0.48782946188E+03  0.10258410721E+04  0.90058700633E+03 0.  0.
        -24    2    4    4    0    0 -0.31073249360E+03  0.22825689656E+03  0.41103478371E+03  0.57003199181E+03  0.85621170681E+02 0.  0.
         24    2    4    4    0    0  0.34907533831E+03 -0.27121258929E+03  0.76794678177E+02  0.45580908025E+03  0.80340740831E+02 0.  0.
         11    1    3    3    0    0 -0.34988144721E+02  0.51455548091E+02 -0.61440852812E+03  0.61755136072E+03  0.00000000000E+00 0. -1.
        -11    1    3    3    0    0 -0.33546999894E+01 -0.84998553557E+01 -0.38669559979E+01  0.99224443449E+01  0.00000000000E+00 0.  1.
          4    1    6    6  502    0  0.42300973379E+02 -0.18642034379E+02  0.31339068335E+02  0.55848321360E+02  0.00000000000E+00 0. -1.
          1    1    5    5  503    0 -0.60172795837E+02  0.64156786390E+02  0.50904340736E+02  0.10162731180E+03  0.00000000000E+00 0. -1.
         -2    1    5    5    0  503 -0.25055969776E+03  0.16410011017E+03  0.36013044297E+03  0.46840468001E+03  0.00000000000E+00 0.  1.
         -3    1    6    6    0  502  0.30677436493E+03 -0.25257055491E+03  0.45455609842E+02  0.39996075889E+03  0.00000000000E+00 0.  1.
<mgrwt>
<rscale>  0 0.16481608E+04</rscale>
<asrwt>0</asrwt>
<pdfrwt beam="1">  1        1 0.13721238E+00 0.16481608E+04</pdfrwt>
<pdfrwt beam="2">  1       -1 0.11714376E+00 0.16481608E+04</pdfrwt>
<totfact> 0.11597362E+01</totfact>
</mgrwt>
</event>
<event>
12    1  0.1477245E-007  0.1152338E+04  0.7818608E-02  0.9155629E-01
         -1   -1    0    0    0  501 -0.00000000000E+00  0.00000000000E+00  0.84465900890E+03  0.84465900890E+03  0.00000000000E+00 0.  1.
          1   -1    0    0  501    0  0.00000000000E+00 -0.00000000000E+00 -0.39302363971E+03  0.39302363971E+03  0.00000000000E+00 0. -1.
         23    2    1    2    0    0 -0.97708340682E+02  0.18666329546E+03  0.11924071065E+03  0.25725468124E+03  0.87014471413E+02 0.  0.
        254    2    1    2    0    0  0.97708340682E+02 -0.18666329546E+03  0.33239465854E+03  0.98042796737E+03  0.89797699551E+03 0.  0.
        -24    2    4    4    0    0  0.26803222947E+03 -0.47508401602E+03  0.31736214493E+03  0.63618860042E+03  0.80443184686E+02 0.  0.
         24    2    4    4    0    0 -0.17032388879E+03  0.28842072056E+03  0.15032513617E+02  0.34423936695E+03  0.77961696715E+02 0.  0.
         11    1    3    3    0    0 -0.82565678013E+02  0.64339906883E+02  0.53083577918E+02  0.11736516113E+03  0.00000000000E+00 0. -1.
        -11    1    3    3    0    0 -0.15142662669E+02  0.12232338857E+03  0.66157132729E+02  0.13988952011E+03  0.00000000000E+00 0.  1.
          4    1    6    6  502    0 -0.16353469730E+03  0.21553813537E+03  0.75640162017E+01  0.27066122619E+03  0.00000000000E+00 0. -1.
          1    1    5    5  503    0  0.64162856946E+02 -0.91589232146E+02  0.10221591704E+03  0.15150430143E+03  0.00000000000E+00 0. -1.
         -2    1    5    5    0  503  0.20386937252E+03 -0.38349478387E+03  0.21514622788E+03  0.48468429899E+03  0.00000000000E+00 0.  1.
         -3    1    6    6    0  502 -0.67891914862E+01  0.72882585187E+02  0.74684974152E+01  0.73578140763E+02  0.00000000000E+00 0.  1.
<mgrwt>
<rscale>  0 0.11523384E+04</rscale>
<asrwt>0</asrwt>
<pdfrwt beam="1">  1        1 0.60465176E-01 0.11523384E+04</pdfrwt>
<pdfrwt beam="2">  1       -1 0.12994754E+00 0.11523384E+04</pdfrwt>
<totfact> 0.30971664E+01</totfact>
</mgrwt>
</event>
<event>
12    1  0.1477245E-007  0.1722459E+04  0.7818608E-02  0.8748658E-01
         -2   -1    0    0    0  501 -0.00000000000E+00  0.00000000000E+00  0.29834965824E+03  0.29834965824E+03  0.00000000000E+00 0. -1.
          2   -1    0    0  501    0  0.00000000000E+00 -0.00000000000E+00 -0.24860624264E+04  0.24860624264E+04  0.00000000000E+00 0.  1.
         23    2    1    2    0    0 -0.72688779580E+02  0.47087476287E+03 -0.14248052056E+04  0.15050638729E+04  0.90225754299E+02 0.  0.
        254    2    1    2    0    0  0.72688779580E+02 -0.47087476287E+03 -0.76290756259E+03  0.12793482117E+04  0.90977865265E+03 0.  0.
        -24    2    4    4    0    0  0.19994899982E+03 -0.43311642575E+03  0.17215390279E+02  0.48401879656E+03  0.80052388982E+02 0.  0.
         24    2    4    4    0    0 -0.12726022024E+03 -0.37758337119E+02 -0.78012295287E+03  0.79532941517E+03  0.79600259802E+02 0.  0.
         13    1    3    3    0    0 -0.63222599451E+01  0.11973265599E+03 -0.48523464542E+03  0.49982851159E+03  0.00000000000E+00 0. -1.
        -13    1    3    3    0    0 -0.66366519635E+02  0.35114210688E+03 -0.93957056018E+03  0.10052353614E+04  0.00000000000E+00 0.  1.
          2    1    6    6  502    0 -0.69472319443E+02 -0.50841607456E+02 -0.31887961753E+03  0.33029605310E+03  0.00000000000E+00 0. -1.
          1    1    5    5  503    0  0.18236065517E+02 -0.35816118039E+02  0.24508381315E+02  0.47074506387E+02  0.00000000000E+00 0. -1.
         -2    1    5    5    0  503  0.18171293430E+03 -0.39730030771E+03 -0.72929910358E+01  0.43694429018E+03  0.00000000000E+00 0.  1.
         -1    1    6    6    0  502 -0.57787900798E+02  0.13083270337E+02 -0.46124333534E+03  0.46503336207E+03  0.00000000000E+00 0.  1.
<mgrwt>
<rscale>  0 0.17224586E+04</rscale>
<asrwt>0</asrwt>
<pdfrwt beam="1">  1        2 0.38247112E+00 0.17224586E+04</pdfrwt>
<pdfrwt beam="2">  1       -2 0.45899950E-01 0.17224586E+04</pdfrwt>
<totfact> 0.15183997E+01</totfact>
</mgrwt>
</event>
<event>
12    1  0.1477245E-007  0.1339432E+04  0.7818608E-02  0.8998867E-01
          2   -1    0    0  501    0  0.00000000000E+00  0.00000000000E+00  0.24847683560E+04  0.24847683560E+04  0.00000000000E+00 0. -1.
         -2   -1    0    0    0  501 -0.00000000000E+00 -0.00000000000E+00 -0.18050745941E+03  0.18050745941E+03  0.00000000000E+00 0.  1.
         23    2    1    2    0    0  0.16466757362E+03 -0.98799648524E+02  0.27692586045E+02  0.21410755295E+03  0.90544931150E+02 0.  0.
        254    2    1    2    0    0 -0.16466757362E+03  0.98799648524E+02  0.22765683105E+04  0.24511682624E+04  0.88802353458E+03 0.  0.
        -24    2    4    4    0    0  0.56511463974E+02  0.31336977732E+03  0.20069573536E+04  0.20336408808E+04  0.80145181943E+02 0.  0.
         24    2    4    4    0    0 -0.22117903759E+03 -0.21457012879E+03  0.26961095690E+03  0.41752738157E+03  0.81722331358E+02 0.  0.
         11    1    3    3    0    0  0.14588555764E+03 -0.63054674635E+02  0.51704734247E+02  0.16712829642E+03  0.00000000000E+00 0.  1.
        -11    1    3    3    0    0  0.18782015983E+02 -0.35744973888E+02 -0.24012148202E+02  0.46979256528E+02  0.00000000000E+00 0. -1.
          4    1    6    6  502    0 -0.47841482728E+01  0.72720729694E+01  0.99474899090E+01  0.13218308343E+02  0.00000000000E+00 0. -1.
          3    1    5    5  503    0 -0.55206376958E+01  0.78234461641E+01  0.17934135882E+02  0.20330198727E+02  0.00000000000E+00 0. -1.
         -4    1    5    5    0  503  0.62032101670E+02  0.30554633115E+03  0.19890232177E+04  0.20133106821E+04  0.00000000000E+00 0.  1.
         -3    1    6    6    0  502 -0.21639488932E+03 -0.22184220176E+03  0.25966346699E+03  0.40430907323E+03  0.00000000000E+00 0.  1.
<mgrwt>
<rscale>  0 0.13394316E+04</rscale>
<asrwt>0</asrwt>
<pdfrwt beam="1">  1        2 0.38227203E+00 0.13394316E+04</pdfrwt>
<pdfrwt beam="2">  1       -2 0.27770380E-01 0.13394316E+04</pdfrwt>
<totfact> 0.41273021E+01</totfact>
</mgrwt>
</event>
<event>
12    1  0.1477245E-007  0.1229852E+04  0.7818608E-02  0.9087121E-01
         -1   -1    0    0    0  501 -0.00000000000E+00  0.00000000000E+00  0.50825655971E+03  0.50825655971E+03  0.00000000000E+00 0.  1.
          1   -1    0    0  501    0  0.00000000000E+00 -0.00000000000E+00 -0.74398263119E+03  0.74398263119E+03  0.00000000000E+00 0. -1.
         23    2    1    2    0    0  0.12241570386E+03  0.76933731991E+02  0.17576247556E+03  0.24524996864E+03  0.91382140675E+02 0.  0.
        254    2    1    2    0    0 -0.12241570386E+03 -0.76933731991E+02 -0.41148854704E+03  0.10069892223E+04  0.90763432380E+03 0.  0.
        -24    2    4    4    0    0  0.10245004563E+03  0.26885776834E+03  0.12745649432E+03  0.32352806291E+03  0.75131472092E+02 0.  0.
         24    2    4    4    0    0 -0.22486574949E+03 -0.34579150033E+03 -0.53894504136E+03  0.68346115936E+03  0.80752905544E+02 0.  0.
         11    1    3    3    0    0  0.80410489183E+02  0.36112043218E+02  0.38839443452E+02  0.96324601238E+02  0.00000000000E+00 0. -1.
        -11    1    3    3    0    0  0.42005214672E+02  0.40821688773E+02  0.13692303211E+03  0.14892536740E+03  0.00000000000E+00 0.  1.
          2    1    6    6  502    0 -0.32005953844E+02 -0.11081214954E+03 -0.16958276019E+03  0.20509028773E+03  0.00000000000E+00 0. -1.
          1    1    5    5  503    0  0.33190751845E+02  0.28156860776E+02  0.37324673523E+02  0.57337300864E+02  0.00000000000E+00 0. -1.
         -2    1    5    5    0  503  0.69259293785E+02  0.24070090756E+03  0.90131820799E+02  0.26619076204E+03  0.00000000000E+00 0.  1.
         -1    1    6    6    0  502 -0.19285979564E+03 -0.23497935078E+03 -0.36936228117E+03  0.47837087162E+03  0.00000000000E+00 0.  1.
<mgrwt>
<rscale>  0 0.12298521E+04</rscale>
<asrwt>0</asrwt>
<pdfrwt beam="1">  1        1 0.11445887E+00 0.12298521E+04</pdfrwt>
<pdfrwt beam="2">  1       -1 0.78193317E-01 0.12298521E+04</pdfrwt>
<totfact> 0.40129121E+01</totfact>
</mgrwt>
</event>
<event>
12    1  0.1477245E-007  0.1373514E+04  0.7818608E-02  0.8973217E-01
         -2   -1    0    0    0  501 -0.00000000000E+00  0.00000000000E+00  0.40522408009E+03  0.40522408009E+03  0.00000000000E+00 0.  1.
          2   -1    0    0  501    0  0.00000000000E+00 -0.00000000000E+00 -0.11638876140E+04  0.11638876140E+04  0.00000000000E+00 0. -1.
         23    2    1    2    0    0 -0.23038785421E+03  0.25792363084E+03 -0.40612560645E+03  0.54192537063E+03  0.95613473986E+02 0.  0.
        254    2    1    2    0    0  0.23038785421E+03 -0.25792363084E+03 -0.35253792742E+03  0.10271863234E+04  0.90068062598E+03 0.  0.
        -24    2    4    4    0    0 -0.69901377175E+02  0.18081244617E+03 -0.43479752240E+03  0.48242327529E+03  0.78128022089E+02 0.  0.
         24    2    4    4    0    0  0.30028923138E+03 -0.43873607701E+03  0.82259594983E+02  0.54476304812E+03  0.85657281488E+02 0.  0.
         13    1    3    3    0    0 -0.16598620196E+03  0.23627416000E+03 -0.35045393579E+03  0.45408684085E+03  0.00000000000E+00 0. -1.
        -13    1    3    3    0    0 -0.64401652244E+02  0.21649470840E+02 -0.55671670662E+02  0.87838529779E+02  0.00000000000E+00 0.  1.
          4    1    6    6  502    0  0.13885867387E+03 -0.23250710697E+03  0.81678405453E+02  0.28286507034E+03  0.00000000000E+00 0. -1.
          3    1    5    5  503    0 -0.76938856157E+02  0.18440728331E+03 -0.40519080671E+03  0.45178006106E+03  0.00000000000E+00 0. -1.
         -4    1    5    5    0  503  0.70374789812E+01 -0.35948371482E+01 -0.29606715688E+02  0.30643214230E+02  0.00000000000E+00 0.  1.
         -3    1    6    6    0  502  0.16143055751E+03 -0.20622897004E+03  0.58118953026E+00  0.26189797778E+03  0.00000000000E+00 0.  1.
<mgrwt>
<rscale>  0 0.13735142E+04</rscale>
<asrwt>0</asrwt>
<pdfrwt beam="1">  1        2 0.17905963E+00 0.13735142E+04</pdfrwt>
<pdfrwt beam="2">  1       -2 0.62342169E-01 0.13735142E+04</pdfrwt>
<totfact> 0.46361816E+01</totfact>
</mgrwt>
</event>
<event>
12    1  0.1477245E-007  0.1186050E+04  0.7818608E-02  0.9125155E-01
         -1   -1    0    0    0  501 -0.00000000000E+00  0.00000000000E+00  0.15199237223E+03  0.15199237223E+03  0.00000000000E+00 0.  1.
          1   -1    0    0  501    0  0.00000000000E+00 -0.00000000000E+00 -0.23137929958E+04  0.23137929958E+04  0.00000000000E+00 0. -1.
         23    2    1    2    0    0 -0.91613576855E+02 -0.61555617575E+02 -0.66354053885E+01  0.14292025977E+03  0.90554019956E+02 0.  0.
        254    2    1    2    0    0  0.91613576855E+02  0.61555617575E+02 -0.21551652182E+04  0.23228651082E+04  0.85952489899E+03 0.  0.
        -24    2    4    4    0    0  0.33453509065E+03  0.30907411224E+03 -0.15823674965E+04  0.16485865964E+04  0.80686664996E+02 0.  0.
         24    2    4    4    0    0 -0.24292151379E+03 -0.24751849467E+03 -0.57279772162E+03  0.67427851186E+03  0.79233923310E+02 0.  0.
         11    1    3    3    0    0 -0.36194381450E+02 -0.56484999869E+02 -0.39929781179E+02  0.78070326525E+02  0.00000000000E+00 0. -1.
        -11    1    3    3    0    0 -0.55419195405E+02 -0.50706177067E+01  0.33294375790E+02  0.64849933250E+02  0.00000000000E+00 0.  1.
          4    1    6    6  502    0 -0.23951170364E+03 -0.24454414433E+03 -0.57505618075E+03  0.66922141756E+03  0.00000000000E+00 0. -1.
          1    1    5    5  503    0  0.27489885362E+03  0.26080475350E+03 -0.14077446111E+04  0.14578523208E+04  0.00000000000E+00 0. -1.
         -2    1    5    5    0  503  0.59636237026E+02  0.48269358743E+02 -0.17462288538E+03  0.19073427553E+03  0.00000000000E+00 0.  1.
         -3    1    6    6    0  502 -0.34098101486E+01 -0.29743503347E+01  0.22584591254E+01  0.50570943025E+01  0.00000000000E+00 0.  1.
<mgrwt>
<rscale>  0 0.11860504E+04</rscale>
<asrwt>0</asrwt>
<pdfrwt beam="1">  1        1 0.35596815E+00 0.11860504E+04</pdfrwt>
<pdfrwt beam="2">  1       -1 0.23383442E-01 0.11860504E+04</pdfrwt>
<totfact> 0.28465838E+01</totfact>
</mgrwt>
</event>
<event>
12    1  0.1477245E-007  0.1690816E+04  0.7818608E-02  0.8766620E-01
         -4   -1    0    0    0  501 -0.00000000000E+00  0.00000000000E+00  0.17940596302E+04  0.17940596302E+04  0.00000000000E+00 0.  1.
          4   -1    0    0  501    0  0.00000000000E+00 -0.00000000000E+00 -0.39837839339E+03  0.39837839339E+03  0.00000000000E+00 0. -1.
         23    2    1    2    0    0 -0.33594809153E+03 -0.82231392387E+02  0.11445336813E+04  0.11994046889E+04  0.94821611688E+02 0.  0.
        254    2    1    2    0    0  0.33594809153E+03  0.82231392387E+02  0.25114755557E+03  0.99303333475E+03  0.89633530956E+03 0.  0.
        -24    2    4    4    0    0 -0.11230544405E+03 -0.11790597062E+03  0.42812547975E+03  0.46500669021E+03  0.80158997362E+02 0.  0.
         24    2    4    4    0    0  0.44825353557E+03  0.20013736301E+03 -0.17697792418E+03  0.52802664454E+03  0.80652064273E+02 0.  0.
         13    1    3    3    0    0 -0.72120822363E+02 -0.60070523983E+02  0.29545103670E+03  0.31000192896E+03  0.00000000000E+00 0. -1.
        -13    1    3    3    0    0 -0.26382726916E+03 -0.22160868405E+02  0.84908264456E+03  0.88940275991E+03  0.00000000000E+00 0.  1.
          2    1    6    6  502    0  0.32514151020E+02  0.28662519568E+02  0.34207788775E+01  0.43478865816E+02  0.00000000000E+00 0. -1.
          3    1    5    5  503    0  0.53066753070E+01  0.73923925056E+01  0.14722906157E+02  0.17308155173E+02  0.00000000000E+00 0. -1.
         -4    1    5    5    0  503 -0.11761211935E+03 -0.12529836313E+03  0.41340257359E+03  0.44769853504E+03  0.00000000000E+00 0.  1.
         -1    1    6    6    0  502  0.41573938455E+03  0.17147484344E+03 -0.18039870306E+03  0.48454777872E+03  0.00000000000E+00 0.  1.
<mgrwt>
<rscale>  0 0.16908159E+04</rscale>
<asrwt>0</asrwt>
<pdfrwt beam="1">  1        4 0.61288984E-01 0.16908159E+04</pdfrwt>
<pdfrwt beam="2">  1       -4 0.27600917E+00 0.16908159E+04</pdfrwt>
<totfact> 0.20832666E-01</totfact>
</mgrwt>
</event>
<event>
12    1  0.1477245E-007  0.1308765E+04  0.7818608E-02  0.9022643E-01
          1   -1    0    0  501    0  0.00000000000E+00  0.00000000000E+00  0.73458165557E+03  0.73458165557E+03  0.00000000000E+00 0. -1.
         -1   -1    0    0    0  501 -0.00000000000E+00 -0.00000000000E+00 -0.58293901670E+03  0.58293901670E+03  0.00000000000E+00 0.  1.
         23    2    1    2    0    0 -0.73321143217E+02  0.87480857891E+02  0.35890359924E+03  0.38762613603E+03  0.91724245661E+02 0.  0.
        254    2    1    2    0    0  0.73321143217E+02 -0.87480857891E+02 -0.20726096038E+03  0.92989453624E+03  0.89928741361E+03 0.  0.
        -24    2    4    4    0    0  0.40663978008E+02 -0.12201856632E+03 -0.55231798612E+03  0.57252497046E+03  0.78661263522E+02 0.  0.
         24    2    4    4    0    0  0.32657165209E+02  0.34537708426E+02  0.34505702574E+03  0.35736956578E+03  0.79933170779E+02 0.  0.
         13    1    3    3    0    0 -0.20735491645E+02  0.72326116329E+02  0.29017546608E+03  0.29977129421E+03  0.00000000000E+00 0. -1.
        -13    1    3    3    0    0 -0.52585651572E+02  0.15154741562E+02  0.68728133168E+02  0.87854841824E+02  0.00000000000E+00 0.  1.
          2    1    6    6  502    0  0.48240213833E+02 -0.64916506765E+01  0.19858902785E+03  0.20446726325E+03  0.00000000000E+00 0. -1.
          3    1    5    5  503    0  0.40077202855E+02 -0.91825605216E+02 -0.51432276725E+03  0.52399048929E+03  0.00000000000E+00 0. -1.
         -4    1    5    5    0  503  0.58677515293E+00 -0.30192961101E+02 -0.37995218869E+02  0.48534481166E+02  0.00000000000E+00 0.  1.
         -1    1    6    6    0  502 -0.15583048624E+02  0.41029359102E+02  0.14646799789E+03  0.15290230253E+03  0.00000000000E+00 0.  1.
<mgrwt>
<rscale>  0 0.13087648E+04</rscale>
<asrwt>0</asrwt>
<pdfrwt beam="1">  1        1 0.11301256E+00 0.13087648E+04</pdfrwt>
<pdfrwt beam="2">  1       -1 0.89682925E-01 0.13087648E+04</pdfrwt>
<totfact> 0.30254124E+01</totfact>
</mgrwt>
</event>
<event>
12    1  0.1477245E-007  0.1876337E+04  0.7818608E-02  0.8666726E-01
         -1   -1    0    0    0  501 -0.00000000000E+00  0.00000000000E+00  0.83015024681E+03  0.83015024681E+03  0.00000000000E+00 0.  1.
          1   -1    0    0  501    0  0.00000000000E+00 -0.00000000000E+00 -0.10602414931E+04  0.10602414931E+04  0.00000000000E+00 0. -1.
         23    2    1    2    0    0 -0.25737020059E+03  0.20259467827E+03 -0.73800093672E+03  0.81276419258E+03  0.93038843076E+02 0.  0.
        254    2    1    2    0    0  0.25737020059E+03 -0.20259467827E+03  0.50790969045E+03  0.10776275473E+04  0.89220224907E+03 0.  0.
        -24    2    4    4    0    0  0.22536678925E+03 -0.51328544310E+03  0.49942840189E+03  0.75510838576E+03  0.80670997485E+02 0.  0.
         24    2    4    4    0    0  0.32003411347E+02  0.31069076483E+03  0.84812885581E+01  0.32251916155E+03  0.79960662960E+02 0.  0.
         13    1    3    3    0    0 -0.19795765959E+03  0.14837948293E+03 -0.44746807114E+03  0.51130360905E+03  0.00000000000E+00 0.  1.
        -13    1    3    3    0    0 -0.59412541000E+02  0.54215195342E+02 -0.29053286559E+03  0.30146058353E+03  0.00000000000E+00 0. -1.
          2    1    6    6  502    0 -0.21429113240E+02  0.55587827524E+02  0.16294171555E+02  0.61763366892E+02  0.00000000000E+00 0. -1.
          1    1    5    5  503    0  0.16166552472E+03 -0.28096342921E+03  0.26100030815E+03  0.41616985869E+03  0.00000000000E+00 0. -1.
         -2    1    5    5    0  503  0.63701264531E+02 -0.23232201389E+03  0.23842809375E+03  0.33893852706E+03  0.00000000000E+00 0.  1.
         -1    1    6    6    0  502  0.53432524587E+02  0.25510293731E+03 -0.78128829973E+01  0.26075579466E+03  0.00000000000E+00 0.  1.
<mgrwt>
<rscale>  0 0.18763366E+04</rscale>
<asrwt>0</asrwt>
<pdfrwt beam="1">  1        1 0.16311408E+00 0.18763366E+04</pdfrwt>
<pdfrwt beam="2">  1       -1 0.12771542E+00 0.18763366E+04</pdfrwt>
<totfact> 0.67583264E+00</totfact>
</mgrwt>
</event>
<event>
12    1  0.1477245E-007  0.2633070E+04  0.7818608E-02  0.8357054E-01
          2   -1    0    0  501    0  0.00000000000E+00  0.00000000000E+00  0.18977054382E+04  0.18977054382E+04  0.00000000000E+00 0. -1.
         -2   -1    0    0    0  501 -0.00000000000E+00 -0.00000000000E+00 -0.91334773960E+03  0.91334773960E+03  0.00000000000E+00 0.  1.
         23    2    1    2    0    0  0.82352061362E+03  0.36807838408E+03  0.12487308433E+04  0.15430338862E+04  0.89201777372E+02 0.  0.
        254    2    1    2    0    0 -0.82352061362E+03 -0.36807838408E+03 -0.26437314476E+03  0.12680192915E+04  0.85106513626E+03 0.  0.
        -24    2    4    4    0    0 -0.29449078335E+03  0.24806104686E+03  0.44604707665E+02  0.39566311834E+03  0.79376437444E+02 0.  0.
         24    2    4    4    0    0 -0.52902983026E+03 -0.61613943094E+03 -0.30897785243E+03  0.87235617319E+03  0.77702123189E+02 0.  0.
         13    1    3    3    0    0  0.67911650845E+03  0.33170297032E+03  0.10769367446E+04  0.13156818934E+04  0.00000000000E+00 0. -1.
        -13    1    3    3    0    0  0.14440410516E+03  0.36375413767E+02  0.17179409869E+03  0.22735199286E+03  0.00000000000E+00 0.  1.
          4    1    6    6  502    0 -0.48086573243E+03 -0.52887723987E+03 -0.25442968491E+03  0.75873411156E+03  0.00000000000E+00 0. -1.
          1    1    5    5  503    0 -0.28818256685E+03  0.25135498915E+03  0.51383047826E+02  0.38583512025E+03  0.00000000000E+00 0. -1.
         -2    1    5    5    0  503 -0.63082164969E+01 -0.32939422944E+01 -0.67783401610E+01  0.98279980946E+01  0.00000000000E+00 0.  1.
         -3    1    6    6    0  502 -0.48164097835E+02 -0.87262191071E+02 -0.54548167521E+02  0.11362206164E+03  0.00000000000E+00 0.  1.
<mgrwt>
<rscale>  0 0.26330704E+04</rscale>
<asrwt>0</asrwt>
<pdfrwt beam="1">  1        2 0.29195468E+00 0.26330704E+04</pdfrwt>
<pdfrwt beam="2">  1       -2 0.14051504E+00 0.26330704E+04</pdfrwt>
<totfact> 0.23902086E+00</totfact>
</mgrwt>
</event>
<event>
12    1  0.1477245E-007  0.2789903E+04  0.7818608E-02  0.8306410E-01
          2   -1    0    0  501    0  0.00000000000E+00  0.00000000000E+00  0.11183505693E+04  0.11183505693E+04  0.00000000000E+00 0. -1.
         -2   -1    0    0    0  501 -0.00000000000E+00 -0.00000000000E+00 -0.17399645780E+04  0.17399645780E+04  0.00000000000E+00 0.  1.
         23    2    1    2    0    0  0.10742234083E+04 -0.19091521473E+03 -0.90959299562E+03  0.14243081340E+04  0.10435369070E+03 0.  0.
        254    2    1    2    0    0 -0.10742234083E+04  0.19091521473E+03  0.28797898688E+03  0.14340070133E+04  0.88489528591E+03 0.  0.
        -24    2    4    4    0    0 -0.94591592664E+03  0.28399877388E+03  0.53774563928E+03  0.11277238477E+04  0.84725794076E+02 0.  0.
         24    2    4    4    0    0 -0.12830748170E+03 -0.93083559145E+02 -0.24976665240E+03  0.30628316563E+03  0.79363959419E+02 0.  0.
         11    1    3    3    0    0  0.73891129976E+02 -0.34881940373E+02 -0.91383059929E+02  0.12258675498E+03  0.00000000000E+00 0. -1.
        -11    1    3    3    0    0  0.10003322784E+04 -0.15603327436E+03 -0.81820993569E+03  0.13017213791E+04  0.00000000000E+00 0.  1.
          4    1    6    6  502    0 -0.31233190234E+02 -0.71972121684E+01 -0.97445057459E+01  0.33500260109E+02  0.00000000000E+00 0. -1.
          3    1    5    5  503    0 -0.13398800831E+02  0.15385170288E+02  0.15985405384E+02  0.25918420356E+02  0.00000000000E+00 0. -1.
         -4    1    5    5    0  503 -0.93251712581E+03  0.26861360359E+03  0.52176023390E+03  0.11018054273E+04  0.00000000000E+00 0.  1.
         -3    1    6    6    0  502 -0.97074291467E+02 -0.85886346976E+02 -0.24002214665E+03  0.27278290552E+03  0.00000000000E+00 0.  1.
<mgrwt>
<rscale>  0 0.27899035E+04</rscale>
<asrwt>0</asrwt>
<pdfrwt beam="1">  1        2 0.17205393E+00 0.27899035E+04</pdfrwt>
<pdfrwt beam="2">  1       -2 0.26768686E+00 0.27899035E+04</pdfrwt>
<totfact> 0.92554748E-01</totfact>
</mgrwt>
</event>
<event>
12    1  0.1477245E-007  0.1465825E+04  0.7818608E-02  0.8907503E-01
         -2   -1    0    0    0  501 -0.00000000000E+00  0.00000000000E+00  0.29429763435E+03  0.29429763435E+03  0.00000000000E+00 0. -1.
          2   -1    0    0  501    0  0.00000000000E+00 -0.00000000000E+00 -0.18252284123E+04  0.18252284123E+04  0.00000000000E+00 0.  1.
         23    2    1    2    0    0  0.26359272355E+03  0.36389482376E+03 -0.45836394314E+03  0.64835221613E+03  0.91446843177E+02 0.  0.
        254    2    1    2    0    0 -0.26359272355E+03 -0.36389482376E+03 -0.10725668348E+04  0.14711738305E+04  0.90113942194E+03 0.  0.
        -24    2    4    4    0    0 -0.35954454652E+03  0.14450753640E+03 -0.17522820468E+03  0.43242823236E+03  0.78323326134E+02 0.  0.
         24    2    4    4    0    0  0.95951822962E+02 -0.50840236016E+03 -0.89733863014E+03  0.10387455982E+04  0.78077451415E+02 0.  0.
         13    1    3    3    0    0  0.46808201406E+02  0.37456255707E+02 -0.27543544437E+02  0.65974431795E+02  0.00000000000E+00 0. -1.
        -13    1    3    3    0    0  0.21678452215E+03  0.32643856805E+03 -0.43082039870E+03  0.58237778433E+03  0.00000000000E+00 0.  1.
          2    1    6    6  502    0  0.21050269174E+02 -0.15271129529E+03 -0.34046677931E+03  0.37373985786E+03  0.00000000000E+00 0. -1.
          3    1    5    5  503    0 -0.44719536636E+02  0.48532166626E+02 -0.34601834481E+02  0.74515066287E+02  0.00000000000E+00 0. -1.
         -4    1    5    5    0  503 -0.31482500988E+03  0.95975369773E+02 -0.14062637020E+03  0.35791316607E+03  0.00000000000E+00 0.  1.
         -1    1    6    6    0  502  0.74901553788E+02 -0.35569106487E+03 -0.55687185083E+03  0.66500574030E+03  0.00000000000E+00 0.  1.
<mgrwt>
<rscale>  0 0.14658246E+04</rscale>
<asrwt>0</asrwt>
<pdfrwt beam="1">  1        2 0.28080437E+00 0.14658246E+04</pdfrwt>
<pdfrwt beam="2">  1       -2 0.45276559E-01 0.14658246E+04</pdfrwt>
<totfact> 0.37439950E+01</totfact>
</mgrwt>
</event>
<event>
12    1  0.1477245E-007  0.1866071E+04  0.7818608E-02  0.8671932E-01
          1   -1    0    0  501    0  0.00000000000E+00  0.00000000000E+00  0.84510240166E+03  0.84510240166E+03  0.00000000000E+00 0. -1.
         -1   -1    0    0    0  501 -0.00000000000E+00 -0.00000000000E+00 -0.10301185977E+04  0.10301185977E+04  0.00000000000E+00 0.  1.
         23    2    1    2    0    0  0.19147107610E+03 -0.36837793490E+03 -0.65484003497E+03  0.78054583307E+03  0.89849041243E+02 0.  0.
        254    2    1    2    0    0 -0.19147107610E+03  0.36837793490E+03  0.46982383896E+03  0.10946751663E+04  0.89733817709E+03 0.  0.
        -24    2    4    4    0    0 -0.31772835651E+03  0.16865416025E+03  0.67672147243E+03  0.77062437083E+03  0.80712052155E+02 0.  0.
         24    2    4    4    0    0  0.12625728042E+03  0.19972377465E+03 -0.20689763347E+03  0.32405079543E+03  0.79823557076E+02 0.  0.
         13    1    3    3    0    0  0.12954574890E+03 -0.18765995271E+03 -0.41910558384E+03  0.47712456373E+03  0.00000000000E+00 0.  1.
        -13    1    3    3    0    0  0.61925327200E+02 -0.18071798219E+03 -0.23573445113E+03  0.30342126933E+03  0.00000000000E+00 0. -1.
          4    1    6    6  502    0  0.60211578582E+02  0.36782008535E+02 -0.37498221984E+02  0.79902859768E+02  0.00000000000E+00 0. -1.
          1    1    5    5  503    0 -0.22511622138E+02  0.25741369829E+02  0.30019619173E+02  0.45503503021E+02  0.00000000000E+00 0. -1.
         -2    1    5    5    0  503 -0.29521673438E+03  0.14291279042E+03  0.64670185326E+03  0.72512086780E+03  0.00000000000E+00 0.  1.
         -1    1    6    6    0  502  0.66045701833E+02  0.16294176612E+03 -0.16939941149E+03  0.24414793566E+03  0.00000000000E+00 0.  1.
<mgrwt>
<rscale>  0 0.18660715E+04</rscale>
<asrwt>0</asrwt>
<pdfrwt beam="1">  1        1 0.13001575E+00 0.18660715E+04</pdfrwt>
<pdfrwt beam="2">  1       -1 0.15847978E+00 0.18660715E+04</pdfrwt>
<totfact> 0.56943352E+00</totfact>
</mgrwt>
</event>
<event>
12    1  0.1477245E-007  0.1715522E+04  0.7818608E-02  0.8752561E-01
         -2   -1    0    0    0  501 -0.00000000000E+00  0.00000000000E+00  0.62323707916E+03  0.62323707916E+03  0.00000000000E+00 0.  1.
          2   -1    0    0  501    0  0.00000000000E+00 -0.00000000000E+00 -0.11805367139E+04  0.11805367139E+04  0.00000000000E+00 0. -1.
         23    2    1    2    0    0  0.52918626548E+03  0.27608031302E+03 -0.42594899935E+02  0.60537680579E+03  0.91696830224E+02 0.  0.
        254    2    1    2    0    0 -0.52918626548E+03 -0.27608031302E+03 -0.51470473477E+03  0.11983969872E+04  0.90276017425E+03 0.  0.
        -24    2    4    4    0    0  0.13706766426E+03 -0.37207639788E+03 -0.20186227252E+03  0.45192944668E+03  0.79142006941E+02 0.  0.
         24    2    4    4    0    0 -0.66625392975E+03  0.95996084860E+02 -0.31284246225E+03  0.74646754056E+03  0.78954643411E+02 0.  0.
         11    1    3    3    0    0  0.10356452905E+03  0.83509260084E+02  0.18201432994E+02  0.13427844339E+03  0.00000000000E+00 0.  1.
        -11    1    3    3    0    0  0.42562173644E+03  0.19257105293E+03 -0.60796332929E+02  0.47109836240E+03  0.00000000000E+00 0. -1.
          2    1    6    6  502    0 -0.65282082207E+03  0.10187167001E+03 -0.29559304877E+03  0.72382878732E+03  0.00000000000E+00 0. -1.
          1    1    5    5  503    0  0.82618218543E+02 -0.23516145198E+03 -0.16847455424E+03  0.30084938750E+03  0.00000000000E+00 0. -1.
         -2    1    5    5    0  503  0.54449445720E+02 -0.13691494590E+03 -0.33387718283E+02  0.15108005918E+03  0.00000000000E+00 0.  1.
         -1    1    6    6    0  502 -0.13433107675E+02 -0.58755851493E+01 -0.17249413484E+02  0.22638753239E+02  0.00000000000E+00 0.  1.
<mgrwt>
<rscale>  0 0.17155224E+04</rscale>
<asrwt>0</asrwt>
<pdfrwt beam="1">  1        2 0.18162103E+00 0.17155224E+04</pdfrwt>
<pdfrwt beam="2">  1       -2 0.95882628E-01 0.17155224E+04</pdfrwt>
<totfact> 0.16868452E+01</totfact>
</mgrwt>
</event>
<event>
12    1  0.1477245E-007  0.1541346E+04  0.7818608E-02  0.8857415E-01
         -1   -1    0    0    0  501 -0.00000000000E+00  0.00000000000E+00  0.10167284470E+04  0.10167284470E+04  0.00000000000E+00 0.  1.
          1   -1    0    0  501    0  0.00000000000E+00 -0.00000000000E+00 -0.58416452208E+03  0.58416452208E+03  0.00000000000E+00 0. -1.
         23    2    1    2    0    0  0.52740563791E+03  0.60149037224E+02  0.24631420605E+03  0.59233668521E+03  0.91746645556E+02 0.  0.
        254    2    1    2    0    0 -0.52740563791E+03 -0.60149037224E+02  0.18624971887E+03  0.10085562839E+04  0.83709151613E+03 0.  0.
        -24    2    4    4    0    0  0.20158125347E+03 -0.12368565900E+02  0.16551876683E+03  0.27332405298E+03  0.80756378006E+02 0.  0.
         24    2    4    4    0    0 -0.72898689138E+03 -0.47780471324E+02  0.20730952037E+02  0.73523223089E+03  0.80198501990E+02 0.  0.
         13    1    3    3    0    0  0.45347950321E+03  0.42053972770E+02  0.17454864791E+03  0.48772884571E+03  0.00000000000E+00 0.  1.
        -13    1    3    3    0    0  0.73926134703E+02  0.18095064454E+02  0.71765558140E+02  0.10460783950E+03  0.00000000000E+00 0. -1.
          2    1    6    6  502    0 -0.24741725888E+03 -0.15974039920E+01 -0.28015599422E+02  0.24900346484E+03  0.00000000000E+00 0. -1.
          1    1    5    5  503    0  0.40648023468E+02  0.13756496535E+02  0.28409514293E+01  0.43006674061E+02  0.00000000000E+00 0. -1.
         -2    1    5    5    0  503  0.16093323000E+03 -0.26125062435E+02  0.16267781540E+03  0.23031737891E+03  0.00000000000E+00 0.  1.
         -1    1    6    6    0  502 -0.48156963250E+03 -0.46183067332E+02  0.48746551459E+02  0.48622876605E+03  0.00000000000E+00 0.  1.
<mgrwt>
<rscale>  0 0.15413458E+04</rscale>
<asrwt>0</asrwt>
<pdfrwt beam="1">  1        1 0.89871465E-01 0.15413458E+04</pdfrwt>
<pdfrwt beam="2">  1       -1 0.15641976E+00 0.15413458E+04</pdfrwt>
<totfact> 0.10680435E+01</totfact>
</mgrwt>
</event>
<event>
12    1  0.1477245E-007  0.1755112E+04  0.7818608E-02  0.8730541E-01
         -1   -1    0    0    0  501 -0.00000000000E+00  0.00000000000E+00  0.37026173115E+03  0.37026173115E+03  0.00000000000E+00 0.  1.
          1   -1    0    0  501    0  0.00000000000E+00 -0.00000000000E+00 -0.20798934334E+04  0.20798934334E+04  0.00000000000E+00 0. -1.
         23    2    1    2    0    0  0.15612046361E+02  0.51409117633E+02 -0.15320699051E+04  0.15358596466E+04  0.93488109303E+02 0.  0.
        254    2    1    2    0    0 -0.15612046361E+02 -0.51409117633E+02 -0.17756179716E+03  0.91429551797E+03  0.89527731402E+03 0.  0.
        -24    2    4    4    0    0  0.35745257589E+02  0.13994240409E+03 -0.50025423977E+03  0.52680147082E+03  0.80024279765E+02 0.  0.
         24    2    4    4    0    0 -0.51357303949E+02 -0.19135152173E+03  0.32269244261E+03  0.38749404714E+03  0.82269353473E+02 0.  0.
         13    1    3    3    0    0  0.10631630659E+02 -0.14123882534E+02 -0.93779832031E+03  0.93796492749E+03  0.00000000000E+00 0. -1.
        -13    1    3    3    0    0  0.49804157012E+01  0.65533000167E+02 -0.59427158476E+03  0.59789471908E+03  0.00000000000E+00 0.  1.
          2    1    6    6  502    0 -0.28078879034E+02 -0.35601193869E+02  0.13541660293E+03  0.14280589904E+03  0.00000000000E+00 0. -1.
          3    1    5    5  503    0  0.53396676041E+00 -0.93287379246E+01 -0.13211521942E+02  0.16181927691E+02  0.00000000000E+00 0. -1.
         -4    1    5    5    0  503  0.35211290828E+02  0.14927114202E+03 -0.48704271782E+03  0.51061954313E+03  0.00000000000E+00 0.  1.
         -1    1    6    6    0  502 -0.23278424916E+02 -0.15575032786E+03  0.18727583968E+03  0.24468814810E+03  0.00000000000E+00 0.  1.
<mgrwt>
<rscale>  0 0.17551125E+04</rscale>
<asrwt>0</asrwt>
<pdfrwt beam="1">  1        1 0.31998361E+00 0.17551125E+04</pdfrwt>
<pdfrwt beam="2">  1       -1 0.56963343E-01 0.17551125E+04</pdfrwt>
<totfact> 0.77748545E+00</totfact>
</mgrwt>
</event>
<event>
12    1  0.1477245E-007  0.2295069E+04  0.7818608E-02  0.8479868E-01
         -1   -1    0    0    0  501 -0.00000000000E+00  0.00000000000E+00  0.83912389122E+03  0.83912389122E+03  0.00000000000E+00 0.  1.
          1   -1    0    0  501    0  0.00000000000E+00 -0.00000000000E+00 -0.15692981449E+04  0.15692981449E+04  0.00000000000E+00 0. -1.
         23    2    1    2    0    0  0.73585642002E+03  0.23932634638E+03  0.25349066425E+03  0.81944718205E+03  0.92056484566E+02 0.  0.
        254    2    1    2    0    0 -0.73585642002E+03 -0.23932634638E+03 -0.98366491790E+03  0.15889748540E+04  0.97902126895E+03 0.  0.
        -24    2    4    4    0    0 -0.35309312596E+03 -0.50198653303E+03 -0.92646607389E+03  0.11145196168E+04  0.84553860423E+02 0.  0.
         24    2    4    4    0    0 -0.38276329407E+03  0.26266018665E+03 -0.57198844010E+02  0.47445523718E+03  0.79611251694E+02 0.  0.
         13    1    3    3    0    0  0.70094663692E+03  0.21049758500E+03  0.25236069092E+03  0.77415847178E+03  0.00000000000E+00 0.  1.
        -13    1    3    3    0    0  0.34909783105E+02  0.28828761376E+02  0.11299733324E+01  0.45288710278E+02  0.00000000000E+00 0. -1.
          4    1    6    6  502    0 -0.23657865145E+03  0.11449047536E+03 -0.34299576407E+02  0.26505468910E+03  0.00000000000E+00 0. -1.
          1    1    5    5  503    0 -0.32659314374E+03 -0.48480480572E+03 -0.84816116197E+03  0.10300855003E+04  0.00000000000E+00 0. -1.
         -2    1    5    5    0  503 -0.26499982221E+02 -0.17181727315E+02 -0.78304911924E+02  0.84434116581E+02  0.00000000000E+00 0.  1.
         -3    1    6    6    0  502 -0.14618464262E+03  0.14816971130E+03 -0.22899267603E+02  0.20940054809E+03  0.00000000000E+00 0.  1.
<mgrwt>
<rscale>  0 0.22950691E+04</rscale>
<asrwt>0</asrwt>
<pdfrwt beam="1">  1        1 0.24143048E+00 0.22950691E+04</pdfrwt>
<pdfrwt beam="2">  1       -1 0.12909598E+00 0.22950691E+04</pdfrwt>
<totfact> 0.27343469E+00</totfact>
</mgrwt>
</event>
<event>
12    1  0.1477245E-007  0.1457943E+04  0.7818608E-02  0.8912912E-01
         -3   -1    0    0    0  501 -0.00000000000E+00  0.00000000000E+00  0.54592060041E+03  0.54592060041E+03  0.00000000000E+00 0.  1.
          3   -1    0    0  501    0  0.00000000000E+00 -0.00000000000E+00 -0.97340091049E+03  0.97340091049E+03  0.00000000000E+00 0. -1.
         23    2    1    2    0    0 -0.18967780556E+03  0.89769945133E+02  0.27567324420E+03  0.35821990988E+03  0.91046434823E+02 0.  0.
        254    2    1    2    0    0  0.18967780556E+03 -0.89769945133E+02 -0.70315355429E+03  0.11611016010E+04  0.89983092524E+03 0.  0.
        -24    2    4    4    0    0  0.40090633955E+03 -0.20142324876E+03 -0.77525166306E+03  0.89926051857E+03  0.79731555584E+02 0.  0.
         24    2    4    4    0    0 -0.21122853399E+03  0.11165330362E+03  0.72098108775E+02  0.26184108245E+03  0.79238004690E+02 0.  0.
         11    1    3    3    0    0 -0.19279021542E+03  0.86319888739E+02  0.28074860809E+03  0.35133882691E+03  0.00000000000E+00 0.  1.
        -11    1    3    3    0    0  0.31124098508E+01  0.34500563939E+01 -0.50753638896E+01  0.68810829680E+01  0.00000000000E+00 0. -1.
          2    1    6    6  502    0 -0.42978042457E+02  0.26137459991E+02  0.51491520539E+02  0.71983717851E+02  0.00000000000E+00 0. -1.
          3    1    5    5  503    0  0.12947855035E+03 -0.58411289708E+02 -0.32199016180E+03  0.35192930833E+03  0.00000000000E+00 0. -1.
         -4    1    5    5    0  503  0.27142778920E+03 -0.14301195905E+03 -0.45326150126E+03  0.54733121024E+03  0.00000000000E+00 0.  1.
         -1    1    6    6    0  502 -0.16825049153E+03  0.85515843632E+02  0.20606588236E+02  0.18985736459E+03  0.00000000000E+00 0.  1.
<mgrwt>
<rscale>  0 0.14579432E+04</rscale>
<asrwt>0</asrwt>
<pdfrwt beam="1">  1        3 0.14975398E+00 0.14579432E+04</pdfrwt>
<pdfrwt beam="2">  1       -3 0.83987785E-01 0.14579432E+04</pdfrwt>
<totfact> 0.10757555E+00</totfact>
</mgrwt>
</event>
<event>
12    1  0.1477245E-007  0.1871249E+04  0.7818608E-02  0.8669301E-01
          1   -1    0    0  501    0  0.00000000000E+00  0.00000000000E+00  0.23967232077E+04  0.23967232077E+04  0.00000000000E+00 0. -1.
         -1   -1    0    0    0  501 -0.00000000000E+00 -0.00000000000E+00 -0.36524578380E+03  0.36524578380E+03  0.00000000000E+00 0.  1.
         23    2    1    2    0    0  0.66134502149E+03 -0.28477273418E+03  0.65701052153E+03  0.97888667137E+03  0.89908522412E+02 0.  0.
        254    2    1    2    0    0 -0.66134502149E+03  0.28477273418E+03  0.13744669024E+04  0.17830823201E+04  0.87849333924E+03 0.  0.
        -24    2    4    4    0    0 -0.86122473183E+03  0.26638640154E+03  0.12137065125E+04  0.15139502108E+04  0.79322056983E+02 0.  0.
         24    2    4    4    0    0  0.19987971035E+03  0.18386332642E+02  0.16076038989E+03  0.26913210933E+03  0.79361410497E+02 0.  0.
         11    1    3    3    0    0 -0.24068370414E+00 -0.69920737668E+01  0.18369257780E+01  0.72333478086E+01  0.00000000000E+00 0. -1.
        -11    1    3    3    0    0  0.66158570519E+03 -0.27778066041E+03  0.65517359575E+03  0.97165332356E+03  0.00000000000E+00 0.  1.
          4    1    6    6  502    0  0.20590231021E+03  0.19574501065E+02  0.16217791737E+03  0.26283188414E+03  0.00000000000E+00 0. -1.
          1    1    5    5  503    0 -0.58626166078E+03  0.16484699563E+03  0.76170276543E+03  0.97522734258E+03  0.00000000000E+00 0. -1.
         -4    1    5    5    0  503 -0.27496307106E+03  0.10153940590E+03  0.45200374706E+03  0.53872286823E+03  0.00000000000E+00 0.  1.
         -3    1    6    6    0  502 -0.60225998589E+01 -0.11881684234E+01 -0.14175274726E+01  0.63002251863E+01  0.00000000000E+00 0.  1.
<mgrwt>
<rscale>  0 0.18712488E+04</rscale>
<asrwt>0</asrwt>
<pdfrwt beam="1">  1        1 0.36872664E+00 0.18712488E+04</pdfrwt>
<pdfrwt beam="2">  1       -1 0.56191661E-01 0.18712488E+04</pdfrwt>
<totfact> 0.48025588E+00</totfact>
</mgrwt>
</event>
<event>
12    1  0.1477245E-007  0.1372144E+04  0.7818608E-02  0.8974233E-01
          2   -1    0    0  501    0  0.00000000000E+00  0.00000000000E+00  0.68962929107E+03  0.68962929107E+03  0.00000000000E+00 0. -1.
         -2   -1    0    0    0  501 -0.00000000000E+00 -0.00000000000E+00 -0.68253307241E+03  0.68253307241E+03  0.00000000000E+00 0.  1.
         23    2    1    2    0    0 -0.27375442308E+03 -0.12043304962E+03 -0.23995410994E+03  0.39399315358E+03  0.90592640958E+02 0.  0.
        254    2    1    2    0    0  0.27375442308E+03  0.12043304962E+03  0.24705032860E+03  0.97816920990E+03  0.89796187822E+03 0.  0.
        -24    2    4    4    0    0  0.50691020826E+03  0.26413197116E+03 -0.32710561373E+02  0.57856523334E+03  0.83331212528E+02 0.  0.
         24    2    4    4    0    0 -0.23315578518E+03 -0.14369892153E+03  0.27976088997E+03  0.39960397656E+03  0.80038630118E+02 0.  0.
         11    1    3    3    0    0 -0.24505577556E+02 -0.44951848586E+02 -0.28963623187E+02  0.58822474367E+02  0.00000000000E+00 0. -1.
        -11    1    3    3    0    0 -0.24924884552E+03 -0.75481201036E+02 -0.21099048676E+03  0.33517067922E+03  0.00000000000E+00 0.  1.
          4    1    6    6  502    0 -0.20469221834E+03 -0.13102474600E+03  0.27672656007E+03  0.36829876101E+03  0.00000000000E+00 0. -1.
          3    1    5    5  503    0  0.33948107417E+03  0.19121517996E+03 -0.58979205671E+02  0.39406749608E+03  0.00000000000E+00 0. -1.
         -4    1    5    5    0  503  0.16742913409E+03  0.72916791194E+02  0.26268644299E+02  0.18449773726E+03  0.00000000000E+00 0.  1.
         -1    1    6    6    0  502 -0.28463566841E+02 -0.12674175535E+02  0.30343299044E+01  0.31305215552E+02  0.00000000000E+00 0.  1.
<mgrwt>
<rscale>  0 0.13721440E+04</rscale>
<asrwt>0</asrwt>
<pdfrwt beam="1">  1        2 0.10609681E+00 0.13721440E+04</pdfrwt>
<pdfrwt beam="2">  1       -2 0.10500509E+00 0.13721440E+04</pdfrwt>
<totfact> 0.29934265E+01</totfact>
</mgrwt>
</event>
<event>
12    1  0.1477245E-007  0.2327904E+04  0.7818608E-02  0.8466999E-01
          2   -1    0    0  501    0  0.00000000000E+00  0.00000000000E+00  0.10762971358E+04  0.10762971358E+04  0.00000000000E+00 0.  1.
         -2   -1    0    0    0  501 -0.00000000000E+00 -0.00000000000E+00 -0.12587460179E+04  0.12587460179E+04  0.00000000000E+00 0. -1.
         23    2    1    2    0    0 -0.76891926154E+03  0.51671318203E+03 -0.41798968837E+03  0.10203507154E+04  0.90392807062E+02 0.  0.
        254    2    1    2    0    0  0.76891926154E+03 -0.51671318203E+03  0.23554080627E+03  0.13146924383E+04  0.90261142944E+03 0.  0.
        -24    2    4    4    0    0 -0.18591809668E+03 -0.19412465224E+03  0.88935997705E+02  0.29308940012E+03  0.75775098086E+02 0.  0.
         24    2    4    4    0    0  0.95483735822E+03 -0.32258852979E+03  0.14660480857E+03  0.10216030382E+04  0.80012858021E+02 0.  0.
         11    1    3    3    0    0 -0.39604454054E+03  0.22504424857E+03 -0.23747716343E+03  0.51370380090E+03  0.00000000000E+00 0. -1.
        -11    1    3    3    0    0 -0.37287472100E+03  0.29166893347E+03 -0.18051252494E+03  0.50664691450E+03  0.00000000000E+00 0.  1.
          2    1    6    6  502    0  0.45731844951E+03 -0.19474959109E+03  0.59877021293E+02  0.50065239955E+03  0.00000000000E+00 0. -1.
          3    1    5    5  503    0 -0.13634472690E+03 -0.98949570017E+02  0.31542604824E+02  0.17139380934E+03  0.00000000000E+00 0. -1.
         -4    1    5    5    0  503 -0.49573369779E+02 -0.95175082226E+02  0.57393392881E+02  0.12169559078E+03  0.00000000000E+00 0.  1.
         -1    1    6    6    0  502  0.49751890871E+03 -0.12783893870E+03  0.86727787277E+02  0.52095063860E+03  0.00000000000E+00 0.  1.
<mgrwt>
<rscale>  0 0.23279044E+04</rscale>
<asrwt>0</asrwt>
<pdfrwt beam="1">  1        2 0.16558417E+00 0.23279044E+04</pdfrwt>
<pdfrwt beam="2">  1       -2 0.19365323E+00 0.23279044E+04</pdfrwt>
<totfact> 0.29863744E+00</totfact>
</mgrwt>
</event>
<event>
12    1  0.1477245E-007  0.1584012E+04  0.7818608E-02  0.8830431E-01
         -2   -1    0    0    0  501 -0.00000000000E+00  0.00000000000E+00  0.58846553989E+03  0.58846553989E+03  0.00000000000E+00 0.  1.
          2   -1    0    0  501    0  0.00000000000E+00 -0.00000000000E+00 -0.10659473808E+04  0.10659473808E+04  0.00000000000E+00 0. -1.
         23    2    1    2    0    0  0.38650538210E+03 -0.36447004522E+03 -0.13119268583E+03  0.55503013966E+03  0.92855322165E+02 0.  0.
        254    2    1    2    0    0 -0.38650538210E+03  0.36447004522E+03 -0.34628915510E+03  0.10993827811E+04  0.89805428348E+03 0.  0.
        -24    2    4    4    0    0  0.12678009839E+03  0.16748498106E+02 -0.44243046035E+03  0.46726210843E+03  0.78964930151E+02 0.  0.
         24    2    4    4    0    0 -0.51328548049E+03  0.34772154712E+03  0.96141305249E+02  0.63212067262E+03  0.77208389241E+02 0.  0.
         11    1    3    3    0    0  0.64772887006E+02 -0.68465864568E+02 -0.60944312812E+02  0.11223774216E+03  0.00000000000E+00 0. -1.
        -11    1    3    3    0    0  0.32173249509E+03 -0.29600418065E+03 -0.70248373023E+02  0.44279239749E+03  0.00000000000E+00 0.  1.
          4    1    6    6  502    0 -0.10477068008E+02  0.19040703402E+02 -0.65545565596E+01  0.22699769862E+02  0.00000000000E+00 0. -1.
          1    1    5    5  503    0  0.16129320295E+02 -0.25742277695E+02 -0.66992142817E+02  0.73557916184E+02  0.00000000000E+00 0. -1.
         -4    1    5    5    0  503  0.11065077809E+03  0.42490775801E+02 -0.37543831753E+03  0.39370419225E+03  0.00000000000E+00 0.  1.
         -3    1    6    6    0  502 -0.50280841248E+03  0.32868084371E+03  0.10269586181E+03  0.60942090276E+03  0.00000000000E+00 0.  1.
<mgrwt>
<rscale>  0 0.15840117E+04</rscale>
<asrwt>0</asrwt>
<pdfrwt beam="1">  1        2 0.16399190E+00 0.15840117E+04</pdfrwt>
<pdfrwt beam="2">  1       -2 0.90533161E-01 0.15840117E+04</pdfrwt>
<totfact> 0.22899871E+01</totfact>
</mgrwt>
</event>
<event>
12    1  0.1477245E-007  0.1088600E+04  0.7818608E-02  0.9216375E-01
          1   -1    0    0  501    0  0.00000000000E+00  0.00000000000E+00  0.10109265133E+03  0.10109265133E+03  0.00000000000E+00 0. -1.
         -1   -1    0    0    0  501 -0.00000000000E+00 -0.00000000000E+00 -0.29306020746E+04  0.29306020746E+04  0.00000000000E+00 0.  1.
         23    2    1    2    0    0 -0.37152810175E+02  0.95547692195E+02 -0.15647754151E+03  0.20704925926E+03  0.88738277956E+02 0.  0.
        254    2    1    2    0    0  0.37152810175E+02 -0.95547692195E+02 -0.26730318818E+04  0.28246454667E+04  0.90720057251E+03 0.  0.
        -24    2    4    4    0    0 -0.39298733097E+03 -0.14776307495E+03 -0.87945601184E+03  0.97776361227E+03  0.79409294720E+02 0.  0.
         24    2    4    4    0    0  0.43014014114E+03  0.52215382753E+02 -0.17935758699E+04  0.18468818544E+04  0.79443034968E+02 0.  0.
         11    1    3    3    0    0  0.28694994962E+02  0.23123876296E+02 -0.53592525134E+02  0.65040565351E+02  0.00000000000E+00 0. -1.
        -11    1    3    3    0    0 -0.65847805138E+02  0.72423815898E+02 -0.10288501638E+03  0.14200869391E+03  0.00000000000E+00 0.  1.
          2    1    6    6  502    0  0.28432105978E+03  0.22906432672E+02 -0.13213113648E+04  0.13517495672E+04  0.00000000000E+00 0. -1.
          1    1    5    5  503    0 -0.13402773212E+03 -0.58356915805E+02 -0.22543484694E+03  0.26868165702E+03  0.00000000000E+00 0. -1.
         -2    1    5    5    0  503 -0.25895959884E+03 -0.89406159142E+02 -0.65402116490E+03  0.70908195525E+03  0.00000000000E+00 0.  1.
         -1    1    6    6    0  502  0.14581908137E+03  0.29308950081E+02 -0.47226450513E+03  0.49513228722E+03  0.00000000000E+00 0.  1.
<mgrwt>
<rscale>  0 0.10885997E+04</rscale>
<asrwt>0</asrwt>
<pdfrwt beam="1">  1        1 0.15552716E-01 0.10885997E+04</pdfrwt>
<pdfrwt beam="2">  1       -1 0.45086186E+00 0.10885997E+04</pdfrwt>
<totfact> 0.11952736E+00</totfact>
</mgrwt>
</event>
<event>
12    1  0.1477245E-007  0.1399460E+04  0.7818608E-02  0.8954210E-01
         -2   -1    0    0    0  501 -0.00000000000E+00  0.00000000000E+00  0.22345157899E+03  0.22345157899E+03  0.00000000000E+00 0.  1.
          2   -1    0    0  501    0  0.00000000000E+00 -0.00000000000E+00 -0.21911767836E+04  0.21911767836E+04  0.00000000000E+00 0. -1.
         23    2    1    2    0    0 -0.92162554804E+02  0.16636167131E+03 -0.12011048787E+04  0.12196622454E+04  0.93557046856E+02 0.  0.
        254    2    1    2    0    0  0.92162554804E+02 -0.16636167131E+03 -0.76662032592E+03  0.11949661172E+04  0.89669791734E+03 0.  0.
        -24    2    4    4    0    0 -0.31208026725E+03 -0.32928010466E+03 -0.29206485108E+03  0.54567369509E+03  0.81476522701E+02 0.  0.
         24    2    4    4    0    0  0.40424282205E+03  0.16291843335E+03 -0.47455547484E+03  0.64929242211E+03  0.80144092785E+02 0.  0.
         11    1    3    3    0    0 -0.45880811507E+02  0.13759720303E+03 -0.10280269585E+04  0.10382087779E+04  0.00000000000E+00 0. -1.
        -11    1    3    3    0    0 -0.46281743297E+02  0.28764468286E+02 -0.17307792019E+03  0.18145346747E+03  0.00000000000E+00 0.  1.
          2    1    6    6  502    0 -0.23944518546E+01  0.22356181773E+01  0.86097719578E+00  0.33871330133E+01  0.00000000000E+00 0. -1.
          3    1    5    5  503    0 -0.45963581576E+02 -0.96300107182E+02 -0.78948572389E+02  0.13273747985E+03  0.00000000000E+00 0. -1.
         -4    1    5    5    0  503 -0.26611668567E+03 -0.23297999748E+03 -0.21311627869E+03  0.41293621524E+03  0.00000000000E+00 0.  1.
         -1    1    6    6    0  502  0.40663727391E+03  0.16068281517E+03 -0.47541645203E+03  0.64590528910E+03  0.00000000000E+00 0.  1.
<mgrwt>
<rscale>  0 0.13994598E+04</rscale>
<asrwt>0</asrwt>
<pdfrwt beam="1">  1        2 0.33710413E+00 0.13994598E+04</pdfrwt>
<pdfrwt beam="2">  1       -2 0.34377165E-01 0.13994598E+04</pdfrwt>
<totfact> 0.40368637E+01</totfact>
</mgrwt>
</event>
<event>
12    1  0.1477245E-007  0.1729254E+04  0.7818608E-02  0.8744853E-01
         -1   -1    0    0    0  501 -0.00000000000E+00  0.00000000000E+00  0.43699624088E+03  0.43699624088E+03  0.00000000000E+00 0.  1.
          1   -1    0    0  501    0  0.00000000000E+00 -0.00000000000E+00 -0.17107240738E+04  0.17107240738E+04  0.00000000000E+00 0. -1.
         23    2    1    2    0    0  0.61846048109E+03 -0.81394106799E+02 -0.47506260506E+03  0.78947948727E+03  0.92059843611E+02 0.  0.
        254    2    1    2    0    0 -0.61846048109E+03  0.81394106799E+02 -0.79866522789E+03  0.13582408274E+04  0.90434154597E+03 0.  0.
        -24    2    4    4    0    0  0.16489771187E+03  0.53211922294E+02 -0.46499372936E+03  0.50247439130E+03  0.78984691635E+02 0.  0.
         24    2    4    4    0    0 -0.78335819296E+03  0.28182184505E+02 -0.33367149853E+03  0.85576643613E+03  0.80964376630E+02 0.  0.
         11    1    3    3    0    0  0.45453371979E+03 -0.34603178836E+02 -0.38500296908E+03  0.59667878177E+03  0.00000000000E+00 0. -1.
        -11    1    3    3    0    0  0.16392676130E+03 -0.46790927963E+02 -0.90059635978E+02  0.19280070550E+03  0.00000000000E+00 0.  1.
          2    1    6    6  502    0 -0.41548818374E+03 -0.25097541851E+02 -0.18240431492E+03  0.45445753546E+03  0.00000000000E+00 0. -1.
          1    1    5    5  503    0  0.13493497322E+03  0.65396665399E+02 -0.42707693215E+03  0.45263547897E+03  0.00000000000E+00 0. -1.
         -4    1    5    5    0  503  0.29962738648E+02 -0.12184743105E+02 -0.37916797207E+02  0.49838912331E+02  0.00000000000E+00 0.  1.
         -1    1    6    6    0  502 -0.36787000922E+03  0.53279726357E+02 -0.15126718361E+03  0.40130890067E+03  0.00000000000E+00 0.  1.
<mgrwt>
<rscale>  0 0.17292542E+04</rscale>
<asrwt>0</asrwt>
<pdfrwt beam="1">  1        1 0.26318833E+00 0.17292542E+04</pdfrwt>
<pdfrwt beam="2">  1       -1 0.67230189E-01 0.17292542E+04</pdfrwt>
<totfact> 0.99689805E+00</totfact>
</mgrwt>
</event>
<event>
12    1  0.1477245E-007  0.2207250E+04  0.7818608E-02  0.8515417E-01
          2   -1    0    0  501    0  0.00000000000E+00  0.00000000000E+00  0.69339285175E+03  0.69339285175E+03  0.00000000000E+00 0. -1.
         -2   -1    0    0    0  501 -0.00000000000E+00 -0.00000000000E+00 -0.17565622533E+04  0.17565622533E+04  0.00000000000E+00 0.  1.
         23    2    1    2    0    0 -0.22262083440E+02  0.28773529954E+03 -0.14171679208E+04  0.14491707925E+04  0.91890517393E+02 0.  0.
        254    2    1    2    0    0  0.22262083440E+02 -0.28773529954E+03  0.35399851927E+03  0.10007843125E+04  0.89048699347E+03 0.  0.
        -24    2    4    4    0    0 -0.27322833904E+03 -0.34681612905E+02  0.50119865104E+03  0.57740215748E+03  0.79602915291E+02 0.  0.
         24    2    4    4    0    0  0.29549042248E+03 -0.25305368663E+03 -0.14720013177E+03  0.42338215503E+03  0.78954495142E+02 0.  0.
         11    1    3    3    0    0 -0.23874858500E+02  0.70631850891E+02 -0.21513530725E+03  0.22768853211E+03  0.00000000000E+00 0. -1.
        -11    1    3    3    0    0  0.16127750598E+01  0.21710344865E+03 -0.12020326135E+04  0.12214822604E+04  0.00000000000E+00 0.  1.
          4    1    6    6  502    0  0.17256930511E+03 -0.18193318207E+03 -0.12307772727E+03  0.27933487923E+03  0.00000000000E+00 0. -1.
          1    1    5    5  503    0 -0.21532872961E+03  0.55404093134E+00  0.41698686798E+03  0.46930247903E+03  0.00000000000E+00 0. -1.
         -2    1    5    5    0  503 -0.57899609433E+02 -0.35235653836E+02  0.84211783068E+02  0.10809967845E+03  0.00000000000E+00 0.  1.
         -3    1    6    6    0  502  0.12292111737E+03 -0.71120504560E+02 -0.24122404500E+02  0.14404727579E+03  0.00000000000E+00 0.  1.
<mgrwt>
<rscale>  0 0.22072496E+04</rscale>
<asrwt>0</asrwt>
<pdfrwt beam="1">  1        2 0.10667582E+00 0.22072496E+04</pdfrwt>
<pdfrwt beam="2">  1       -2 0.27024034E+00 0.22072496E+04</pdfrwt>
<totfact> 0.18298613E+00</totfact>
</mgrwt>
</event>
<event>
12    1  0.1477245E-007  0.2178235E+04  0.7818608E-02  0.8527542E-01
          2   -1    0    0  501    0  0.00000000000E+00  0.00000000000E+00  0.31155565222E+04  0.31155565222E+04  0.00000000000E+00 0.  1.
         -2   -1    0    0    0  501 -0.00000000000E+00 -0.00000000000E+00 -0.38072702238E+03  0.38072702238E+03  0.00000000000E+00 0. -1.
         23    2    1    2    0    0  0.85575545223E+03  0.27421399714E+03  0.12400228867E+04  0.15342804075E+04  0.94068587071E+02 0.  0.
        254    2    1    2    0    0 -0.85575545223E+03 -0.27421399714E+03  0.14948066132E+04  0.19620031371E+04  0.89860936397E+03 0.  0.
        -24    2    4    4    0    0 -0.85315800027E+03 -0.52685788842E+03  0.11593269568E+04  0.15347820732E+04  0.77840936810E+02 0.  0.
         24    2    4    4    0    0 -0.25974519647E+01  0.25264389128E+03  0.33547965639E+03  0.42722106393E+03  0.78329783962E+02 0.  0.
         13    1    3    3    0    0  0.55600583473E+03  0.14464667873E+03  0.84409111264E+03  0.10210558047E+04  0.00000000000E+00 0. -1.
        -13    1    3    3    0    0  0.29974961750E+03  0.12956731841E+03  0.39593177401E+03  0.51322460274E+03  0.00000000000E+00 0.  1.
          4    1    6    6  502    0  0.31067557983E+02  0.98740203253E+02  0.16766504767E+03  0.19704412985E+03  0.00000000000E+00 0. -1.
          3    1    5    5  503    0 -0.19862871504E+03 -0.85186911958E+02  0.24662353903E+03  0.32792277507E+03  0.00000000000E+00 0. -1.
         -4    1    5    5    0  503 -0.65452928523E+03 -0.44167097646E+03  0.91270341775E+03  0.12068592981E+04  0.00000000000E+00 0.  1.
         -3    1    6    6    0  502 -0.33665009947E+02  0.15390368803E+03  0.16781460872E+03  0.23017693408E+03  0.00000000000E+00 0.  1.
<mgrwt>
<rscale>  0 0.21782347E+04</rscale>
<asrwt>0</asrwt>
<pdfrwt beam="1">  1        2 0.47931637E+00 0.21782347E+04</pdfrwt>
<pdfrwt beam="2">  1       -2 0.58573390E-01 0.21782347E+04</pdfrwt>
<totfact> 0.36762676E+00</totfact>
</mgrwt>
</event>
<event>
12    1  0.1477245E-007  0.1439780E+04  0.7818608E-02  0.8925517E-01
         -2   -1    0    0    0  501 -0.00000000000E+00  0.00000000000E+00  0.17604305242E+03  0.17604305242E+03  0.00000000000E+00 0.  1.
          2   -1    0    0  501    0  0.00000000000E+00 -0.00000000000E+00 -0.29438330617E+04  0.29438330617E+04  0.00000000000E+00 0. -1.
         23    2    1    2    0    0 -0.33327454584E+03  0.26299048653E+03 -0.85545644613E+03  0.95932231868E+03  0.90871673179E+02 0.  0.
        254    2    1    2    0    0  0.33327454584E+03 -0.26299048653E+03 -0.19123335632E+04  0.21605537955E+04  0.91144781933E+03 0.  0.
        -24    2    4    4    0    0  0.13431839863E+03 -0.57523540986E+03 -0.90073911015E+03  0.10801227617E+04  0.79981415903E+02 0.  0.
         24    2    4    4    0    0  0.19895614720E+03  0.31224492332E+03 -0.10115944530E+04  0.10804310338E+04  0.83231247856E+02 0.  0.
         11    1    3    3    0    0 -0.54791933321E+01  0.45086411003E+01 -0.65192492693E+02  0.65577515260E+02  0.00000000000E+00 0. -1.
        -11    1    3    3    0    0 -0.32779535250E+03  0.25848184543E+03 -0.79026395343E+03  0.89374480342E+03  0.00000000000E+00 0.  1.
          2    1    6    6  502    0  0.12317611688E+03  0.23783125329E+03 -0.80060231675E+03  0.84421568950E+03  0.00000000000E+00 0. -1.
          1    1    5    5  503    0  0.97609798887E+02 -0.32765220800E+03 -0.58026795090E+03  0.67349427399E+03  0.00000000000E+00 0. -1.
         -2    1    5    5    0  503  0.36708599745E+02 -0.24758320185E+03 -0.32047115924E+03  0.40662848774E+03  0.00000000000E+00 0.  1.
         -1    1    6    6    0  502  0.75780030327E+02  0.74413670036E+02 -0.21099213630E+03  0.23621534426E+03  0.00000000000E+00 0.  1.
<mgrwt>
<rscale>  0 0.14397796E+04</rscale>
<asrwt>0</asrwt>
<pdfrwt beam="1">  1        2 0.45289741E+00 0.14397796E+04</pdfrwt>
<pdfrwt beam="2">  1       -2 0.27083545E-01 0.14397796E+04</pdfrwt>
<totfact> 0.22880117E+01</totfact>
</mgrwt>
</event>
<event>
12    1  0.1477245E-007  0.1643010E+04  0.7818608E-02  0.8794553E-01
          2   -1    0    0  501    0  0.00000000000E+00  0.00000000000E+00  0.11231115875E+04  0.11231115875E+04  0.00000000000E+00 0. -1.
         -2   -1    0    0    0  501 -0.00000000000E+00 -0.00000000000E+00 -0.60089324679E+03  0.60089324679E+03  0.00000000000E+00 0.  1.
         23    2    1    2    0    0  0.33812148349E+03  0.45015465673E+03  0.26565138291E+03  0.62903238339E+03  0.90253695465E+02 0.  0.
        254    2    1    2    0    0 -0.33812148349E+03 -0.45015465673E+03  0.25656695783E+03  0.10949724509E+04  0.90342277581E+03 0.  0.
        -24    2    4    4    0    0 -0.18702531722E+03 -0.59981232172E+03 -0.12934345153E+03  0.64644424158E+03  0.80044602832E+02 0.  0.
         24    2    4    4    0    0 -0.15109616627E+03  0.14965766499E+03  0.38591040936E+03  0.44852820934E+03  0.83804787302E+02 0.  0.
         13    1    3    3    0    0  0.15269324681E+02  0.21299986039E+02 -0.67675285791E+01  0.27067344247E+02  0.00000000000E+00 0. -1.
        -13    1    3    3    0    0  0.32285215881E+03  0.42885467069E+03  0.27241891149E+03  0.60196503915E+03  0.00000000000E+00 0.  1.
          4    1    6    6  502    0 -0.11775587888E+03  0.10770966259E+03  0.20467447248E+03  0.25953700721E+03  0.00000000000E+00 0. -1.
          1    1    5    5  503    0 -0.11137878533E+03 -0.39504361770E+03 -0.46964193038E+02  0.41312265629E+03  0.00000000000E+00 0. -1.
         -4    1    5    5    0  503 -0.75646531891E+02 -0.20476870402E+03 -0.82379258490E+02  0.23332158529E+03  0.00000000000E+00 0.  1.
         -3    1    6    6    0  502 -0.33340287386E+02  0.41948002409E+02  0.18123593688E+03  0.18899120214E+03  0.00000000000E+00 0.  1.
<mgrwt>
<rscale>  0 0.16430096E+04</rscale>
<asrwt>0</asrwt>
<pdfrwt beam="1">  1        2 0.17278640E+00 0.16430096E+04</pdfrwt>
<pdfrwt beam="2">  1       -2 0.92445115E-01 0.16430096E+04</pdfrwt>
<totfact> 0.20017805E+01</totfact>
</mgrwt>
</event>
<event>
12    1  0.1477245E-007  0.1331547E+04  0.7818608E-02  0.9004916E-01
          1   -1    0    0  501    0  0.00000000000E+00  0.00000000000E+00  0.24479799619E+04  0.24479799619E+04  0.00000000000E+00 0. -1.
         -1   -1    0    0    0  501 -0.00000000000E+00 -0.00000000000E+00 -0.18106933362E+03  0.18106933362E+03  0.00000000000E+00 0.  1.
         23    2    1    2    0    0 -0.31199429876E+03  0.17049355146E+03  0.60487031090E+03  0.70757939567E+03  0.91607939721E+02 0.  0.
        254    2    1    2    0    0  0.31199429876E+03 -0.17049355146E+03  0.16620403174E+04  0.19214698999E+04  0.89624777038E+03 0.  0.
        -24    2    4    4    0    0  0.38664760936E+03  0.27845285435E+03  0.10416522155E+04  0.11482120524E+04  0.79493480888E+02 0.  0.
         24    2    4    4    0    0 -0.74653310598E+02 -0.44894640581E+03  0.62038810193E+03  0.77325784742E+03  0.76943547472E+02 0.  0.
         13    1    3    3    0    0 -0.80263972211E+02  0.82265825255E+02  0.14404750922E+03  0.18428145905E+03  0.00000000000E+00 0.  1.
        -13    1    3    3    0    0 -0.23173032655E+03  0.88227726207E+02  0.46082280168E+03  0.52329793662E+03  0.00000000000E+00 0. -1.
          2    1    6    6  502    0 -0.10579112641E+02 -0.10922923771E+02  0.43572551869E+02  0.46149703838E+02  0.00000000000E+00 0. -1.
          3    1    5    5  503    0  0.15694894932E+02  0.27131131887E+02  0.11053782035E+03  0.11489576917E+03  0.00000000000E+00 0. -1.
         -4    1    5    5    0  503  0.37095271443E+03  0.25132172246E+03  0.93111439510E+03  0.10333162833E+04  0.00000000000E+00 0.  1.
         -1    1    6    6    0  502 -0.64074197956E+02 -0.43802348204E+03  0.57681555006E+03  0.72710814358E+03  0.00000000000E+00 0.  1.
<mgrwt>
<rscale>  0 0.13315466E+04</rscale>
<asrwt>0</asrwt>
<pdfrwt beam="1">  1        1 0.37661228E+00 0.13315466E+04</pdfrwt>
<pdfrwt beam="2">  1       -1 0.27856822E-01 0.13315466E+04</pdfrwt>
<totfact> 0.16825908E+01</totfact>
</mgrwt>
</event>
<event>
12    1  0.1477245E-007  0.1801620E+04  0.7818608E-02  0.8705438E-01
         -1   -1    0    0    0  501 -0.00000000000E+00  0.00000000000E+00  0.65372141940E+03  0.65372141940E+03  0.00000000000E+00 0.  1.
          1   -1    0    0  501    0  0.00000000000E+00 -0.00000000000E+00 -0.12412912363E+04  0.12412912363E+04  0.00000000000E+00 0. -1.
         23    2    1    2    0    0 -0.71270568678E+02 -0.60451155652E+03  0.54274056319E+02  0.61538688753E+03  0.72399117601E+02 0.  0.
        254    2    1    2    0    0  0.71270568678E+02  0.60451155652E+03 -0.64184387318E+03  0.12796257681E+04  0.92464308411E+03 0.  0.
        -24    2    4    4    0    0  0.27348633361E+03  0.12984400620E+03 -0.68700201753E+03  0.75525906015E+03  0.82402883713E+02 0.  0.
         24    2    4    4    0    0 -0.20221576493E+03  0.47466755032E+03  0.45158144350E+02  0.52436670797E+03  0.81979799415E+02 0.  0.
         11    1    3    3    0    0  0.55771201792E+01 -0.47257696410E+02 -0.11702023020E+02  0.49003382355E+02  0.00000000000E+00 0. -1.
        -11    1    3    3    0    0 -0.76847688857E+02 -0.55725386011E+03  0.65976079339E+02  0.56638350517E+03  0.00000000000E+00 0.  1.
          2    1    6    6  502    0 -0.78831015157E+02  0.14232245014E+03 -0.19993816727E+02  0.16391998497E+03  0.00000000000E+00 0. -1.
          1    1    5    5  503    0  0.25227390277E+03  0.97048590951E+02 -0.55049410375E+03  0.61327343762E+03  0.00000000000E+00 0. -1.
         -2    1    5    5    0  503  0.21212430833E+02  0.32795415244E+02 -0.13650791377E+03  0.14198562253E+03  0.00000000000E+00 0.  1.
         -1    1    6    6    0  502 -0.12338474977E+03  0.33234510018E+03  0.65151961078E+02  0.36044672300E+03  0.00000000000E+00 0.  1.
<mgrwt>
<rscale>  0 0.18016200E+04</rscale>
<asrwt>0</asrwt>
<pdfrwt beam="1">  1        1 0.19096788E+00 0.18016200E+04</pdfrwt>
<pdfrwt beam="2">  1       -1 0.10057253E+00 0.18016200E+04</pdfrwt>
<totfact> 0.88500140E+00</totfact>
</mgrwt>
</event>
<event>
12    1  0.1477245E-007  0.1506252E+04  0.7818608E-02  0.8880306E-01
         -2   -1    0    0    0  501 -0.00000000000E+00  0.00000000000E+00  0.31761933757E+03  0.31761933757E+03  0.00000000000E+00 0.  1.
          2   -1    0    0  501    0  0.00000000000E+00 -0.00000000000E+00 -0.17857806813E+04  0.17857806813E+04  0.00000000000E+00 0. -1.
         23    2    1    2    0    0  0.12600957911E+03 -0.10084342643E+03  0.15083459803E+03  0.24340829393E+03  0.10221893616E+03 0.  0.
        254    2    1    2    0    0 -0.12600957911E+03  0.10084342643E+03 -0.16189959418E+04  0.18599917249E+04  0.90131767247E+03 0.  0.
        -24    2    4    4    0    0 -0.42240481855E+03  0.32139383177E+03 -0.96661927482E+03  0.11056298919E+04  0.79654312740E+02 0.  0.
         24    2    4    4    0    0  0.29639523944E+03 -0.22055040534E+03 -0.65237666695E+03  0.75436183305E+03  0.83509522430E+02 0.  0.
         13    1    3    3    0    0  0.11547299064E+03 -0.41734491289E+02  0.65771104363E+02  0.13928968913E+03  0.00000000000E+00 0. -1.
        -13    1    3    3    0    0  0.10536588478E+02 -0.59108935138E+02  0.85063493669E+02  0.10411860480E+03  0.00000000000E+00 0.  1.
          2    1    6    6  502    0  0.18347437473E+03 -0.13707050615E+03 -0.31975882285E+03  0.39331523569E+03  0.00000000000E+00 0. -1.
          1    1    5    5  503    0 -0.26713480880E+03  0.24971948597E+03 -0.66340240938E+03  0.75751144184E+03  0.00000000000E+00 0. -1.
         -2    1    5    5    0  503 -0.15527000976E+03  0.71674345799E+02 -0.30321686544E+03  0.34811845005E+03  0.00000000000E+00 0.  1.
         -1    1    6    6    0  502  0.11292086471E+03 -0.83479899192E+02 -0.33261784409E+03  0.36104659736E+03  0.00000000000E+00 0.  1.
<mgrwt>
<rscale>  0 0.15062516E+04</rscale>
<asrwt>0</asrwt>
<pdfrwt beam="1">  1        2 0.27473550E+00 0.15062516E+04</pdfrwt>
<pdfrwt beam="2">  1       -2 0.48864512E-01 0.15062516E+04</pdfrwt>
<totfact> 0.33651519E+01</totfact>
</mgrwt>
</event>
<event>
12    1  0.1477245E-007  0.1320886E+04  0.7818608E-02  0.9013164E-01
          2   -1    0    0  501    0  0.00000000000E+00  0.00000000000E+00  0.13514616629E+04  0.13514616629E+04  0.00000000000E+00 0. -1.
         -2   -1    0    0    0  501 -0.00000000000E+00 -0.00000000000E+00 -0.32275056671E+03  0.32275056671E+03  0.00000000000E+00 0.  1.
         23    2    1    2    0    0  0.31743335763E+03 -0.43433630866E+02  0.45054275593E+03  0.56036578807E+03  0.91491118075E+02 0.  0.
        254    2    1    2    0    0 -0.31743335763E+03  0.43433630866E+02  0.57816834023E+03  0.11138464415E+04  0.89650702663E+03 0.  0.
        -24    2    4    4    0    0 -0.53766966716E+02  0.44178185757E+03  0.17912071429E+03  0.48624755424E+03  0.79311772972E+02 0.  0.
         24    2    4    4    0    0 -0.26366639091E+03 -0.39834822670E+03  0.39904762595E+03  0.62759888728E+03  0.80250109798E+02 0.  0.
         11    1    3    3    0    0  0.20124081648E+03 -0.38899812158E+02  0.35476439813E+03  0.40971800031E+03  0.00000000000E+00 0. -1.
        -11    1    3    3    0    0  0.11619254115E+03 -0.45338187074E+01  0.95778357806E+02  0.15064778775E+03  0.00000000000E+00 0.  1.
          2    1    6    6  502    0 -0.96761582920E+02 -0.14899828534E+03  0.99545324246E+02  0.20364813906E+03  0.00000000000E+00 0. -1.
          1    1    5    5  503    0 -0.13539624548E+02  0.29533147296E+02  0.34824162439E+02  0.47626153652E+02  0.00000000000E+00 0. -1.
         -2    1    5    5    0  503 -0.40227342169E+02  0.41224871027E+03  0.14429655185E+03  0.43862140059E+03  0.00000000000E+00 0.  1.
         -1    1    6    6    0  502 -0.16690480799E+03 -0.24934994136E+03  0.29950230170E+03  0.42395074821E+03  0.00000000000E+00 0.  1.
<mgrwt>
<rscale>  0 0.13208861E+04</rscale>
<asrwt>0</asrwt>
<pdfrwt beam="1">  1        2 0.20791718E+00 0.13208861E+04</pdfrwt>
<pdfrwt beam="2">  1       -2 0.49653934E-01 0.13208861E+04</pdfrwt>
<totfact> 0.57958298E+01</totfact>
</mgrwt>
</event>
<event>
12    1  0.1477245E-007  0.1481982E+04  0.7818608E-02  0.8896524E-01
          2   -1    0    0  501    0  0.00000000000E+00  0.00000000000E+00  0.84211027123E+03  0.84211027123E+03  0.00000000000E+00 0.  1.
         -2   -1    0    0    0  501 -0.00000000000E+00 -0.00000000000E+00 -0.65201354521E+03  0.65201354521E+03  0.00000000000E+00 0. -1.
         23    2    1    2    0    0 -0.16468474269E+03  0.15320878434E+03  0.51354191293E+03  0.56803126045E+03  0.91324807369E+02 0.  0.
        254    2    1    2    0    0  0.16468474269E+03 -0.15320878434E+03 -0.32344518691E+03  0.92609255598E+03  0.83811493080E+03 0.  0.
        -24    2    4    4    0    0  0.62926669094E+02 -0.10547458819E+03 -0.59969509540E+03  0.61744469180E+03  0.80740854266E+02 0.  0.
         24    2    4    4    0    0  0.10175807359E+03 -0.47734196148E+02  0.27624990848E+03  0.30864786418E+03  0.79474732486E+02 0.  0.
         13    1    3    3    0    0 -0.52399034420E+02  0.75727263494E+02  0.30689723894E+03  0.32041565585E+03  0.00000000000E+00 0. -1.
        -13    1    3    3    0    0 -0.11228570827E+03  0.77481520843E+02  0.20664467399E+03  0.24761560460E+03  0.00000000000E+00 0.  1.
          4    1    6    6  502    0  0.45349473098E+02  0.90385017562E+01  0.47453059649E+02  0.66257543678E+02  0.00000000000E+00 0. -1.
          3    1    5    5  503    0  0.12101791775E+02 -0.46777629125E+01 -0.83677637251E+01  0.15438727272E+02  0.00000000000E+00 0. -1.
         -4    1    5    5    0  503  0.50824877319E+02 -0.10079682528E+03 -0.59132733167E+03  0.60200596452E+03  0.00000000000E+00 0.  1.
         -3    1    6    6    0  502  0.56408600496E+02 -0.56772697905E+02  0.22879684883E+03  0.24239032050E+03  0.00000000000E+00 0.  1.
<mgrwt>
<rscale>  0 0.14819815E+04</rscale>
<asrwt>0</asrwt>
<pdfrwt beam="1">  1        2 0.12955543E+00 0.14819815E+04</pdfrwt>
<pdfrwt beam="2">  1       -2 0.10030978E+00 0.14819815E+04</pdfrwt>
<totfact> 0.25506563E+01</totfact>
</mgrwt>
</event>
<event>
12    1  0.1477245E-007  0.1220849E+04  0.7818608E-02  0.9094801E-01
         -2   -1    0    0    0  501 -0.00000000000E+00  0.00000000000E+00  0.12464551412E+03  0.12464551412E+03  0.00000000000E+00 0.  1.
          2   -1    0    0  501    0  0.00000000000E+00 -0.00000000000E+00 -0.29894211359E+04  0.29894211359E+04  0.00000000000E+00 0. -1.
         23    2    1    2    0    0  0.15649977785E+03 -0.10675467736E+03 -0.18081995441E+03  0.27721735363E+03  0.90911295409E+02 0.  0.
        254    2    1    2    0    0 -0.15649977785E+03  0.10675467736E+03 -0.26839556674E+04  0.28368492964E+04  0.89900342849E+03 0.  0.
        -24    2    4    4    0    0  0.47239176167E+02  0.33904394987E+03 -0.40590090419E+03  0.53646502044E+03  0.76529957729E+02 0.  0.
         24    2    4    4    0    0 -0.20373895402E+03 -0.23228927251E+03 -0.22780547632E+04  0.23003842760E+04  0.82258406712E+02 0.  0.
         13    1    3    3    0    0  0.16356759244E+03 -0.10538734384E+03 -0.15032168536E+03  0.24588098468E+03  0.00000000000E+00 0.  1.
        -13    1    3    3    0    0 -0.70678145851E+01 -0.13673335271E+01 -0.30498269047E+02  0.31336368948E+02  0.00000000000E+00 0. -1.
          4    1    6    6  502    0 -0.82349615194E+02 -0.43550404583E+02 -0.55241084571E+03  0.56021053125E+03  0.00000000000E+00 0. -1.
          1    1    5    5  503    0  0.50468412810E+02  0.14215441732E+03 -0.14178670952E+03  0.20702272834E+03  0.00000000000E+00 0. -1.
         -2    1    5    5    0  503 -0.32292366432E+01  0.19688953255E+03 -0.26411419467E+03  0.32944229210E+03  0.00000000000E+00 0.  1.
         -3    1    6    6    0  502 -0.12138933883E+03 -0.18873886792E+03 -0.17256439175E+04  0.17401737447E+04  0.00000000000E+00 0.  1.
<mgrwt>
<rscale>  0 0.12208488E+04</rscale>
<asrwt>0</asrwt>
<pdfrwt beam="1">  1        2 0.45991093E+00 0.12208488E+04</pdfrwt>
<pdfrwt beam="2">  1       -2 0.19176234E-01 0.12208488E+04</pdfrwt>
<totfact> 0.40638559E+01</totfact>
</mgrwt>
</event>
<event>
12    1  0.1477245E-007  0.3545698E+04  0.7818608E-02  0.8103045E-01
         -2   -1    0    0    0  501 -0.00000000000E+00  0.00000000000E+00  0.10462018940E+04  0.10462018940E+04  0.00000000000E+00 0.  1.
          2   -1    0    0  501    0  0.00000000000E+00 -0.00000000000E+00 -0.30041933633E+04  0.30041933633E+04  0.00000000000E+00 0. -1.
         23    2    1    2    0    0 -0.10049570866E+04 -0.45212568176E+03 -0.23289633794E+04  0.25780950032E+04  0.90260982498E+02 0.  0.
        254    2    1    2    0    0  0.10049570866E+04  0.45212568176E+03  0.37097191004E+03  0.14723002541E+04  0.90315641075E+03 0.  0.
        -24    2    4    4    0    0 -0.14616096897E+03  0.12990207943E+03  0.13474878101E+03  0.25119886677E+03  0.81890521991E+02 0.  0.
         24    2    4    4    0    0  0.11511180555E+04  0.32222360233E+03  0.23622312903E+03  0.12211013874E+04  0.79914978627E+02 0.  0.
         13    1    3    3    0    0 -0.15485750542E+03 -0.67494673944E+02 -0.43828793017E+03  0.46971553916E+03  0.00000000000E+00 0.  1.
        -13    1    3    3    0    0 -0.85009958116E+03 -0.38463100781E+03 -0.18906754492E+04  0.21083794640E+04  0.00000000000E+00 0. -1.
          2    1    6    6  502    0  0.11458563783E+04  0.31533653261E+03  0.23019128533E+03  0.12105420259E+04  0.00000000000E+00 0. -1.
          1    1    5    5  503    0 -0.15034522406E+03  0.10241069673E+03  0.10320608991E+03  0.20914859358E+03  0.00000000000E+00 0. -1.
         -2    1    5    5    0  503  0.41842550923E+01  0.27491382700E+02  0.31542691093E+02  0.42050273184E+02  0.00000000000E+00 0.  1.
         -1    1    6    6    0  502  0.52616772034E+01  0.68870697127E+01  0.60318437017E+01  0.10559361470E+02  0.00000000000E+00 0.  1.
<mgrwt>
<rscale>  0 0.35456976E+04</rscale>
<asrwt>0</asrwt>
<pdfrwt beam="1">  1        2 0.46218359E+00 0.35456976E+04</pdfrwt>
<pdfrwt beam="2">  1       -2 0.16095414E+00 0.35456976E+04</pdfrwt>
<totfact> 0.35088489E-01</totfact>
</mgrwt>
</event>
<event>
12    1  0.1477245E-007  0.1417983E+04  0.7818608E-02  0.8940903E-01
          1   -1    0    0  501    0  0.00000000000E+00  0.00000000000E+00  0.18240929409E+04  0.18240929409E+04  0.00000000000E+00 0. -1.
         -1   -1    0    0    0  501 -0.00000000000E+00 -0.00000000000E+00 -0.27557216280E+03  0.27557216280E+03  0.00000000000E+00 0.  1.
         23    2    1    2    0    0 -0.29583773166E+03  0.20104766680E+03  0.14913370230E+03  0.39734364497E+03  0.87755246204E+02 0.  0.
        254    2    1    2    0    0  0.29583773166E+03 -0.20104766680E+03  0.13993870758E+04  0.17023214588E+04  0.90092953840E+03 0.  0.
        -24    2    4    4    0    0  0.49808238649E+03 -0.41608094969E+03  0.83389658540E+03  0.10595768853E+04  0.78168025732E+02 0.  0.
         24    2    4    4    0    0 -0.20224465483E+03  0.21503328289E+03  0.56549049044E+03  0.64274457349E+03  0.78732958886E+02 0.  0.
         11    1    3    3    0    0 -0.66813082134E+02  0.80438468242E+01  0.41624519225E+02  0.79128326260E+02  0.00000000000E+00 0. -1.
        -11    1    3    3    0    0 -0.22902464953E+03  0.19300381998E+03  0.10750918308E+03  0.31821531871E+03  0.00000000000E+00 0.  1.
          4    1    6    6  502    0 -0.29736961714E+02  0.34010104565E+02  0.16085322183E+03  0.16707702738E+03  0.00000000000E+00 0. -1.
          1    1    5    5  503    0  0.32150848074E+03 -0.22978681467E+03  0.46627185576E+03  0.61121119661E+03  0.00000000000E+00 0. -1.
         -2    1    5    5    0  503  0.17657390575E+03 -0.18629413502E+03  0.36762472964E+03  0.44836568867E+03  0.00000000000E+00 0.  1.
         -3    1    6    6    0  502 -0.17250769312E+03  0.18102317833E+03  0.40463726861E+03  0.47566754611E+03  0.00000000000E+00 0.  1.
<mgrwt>
<rscale>  0 0.14179834E+04</rscale>
<asrwt>0</asrwt>
<pdfrwt beam="1">  1        1 0.28062968E+00 0.14179834E+04</pdfrwt>
<pdfrwt beam="2">  1       -1 0.42395718E-01 0.14179834E+04</pdfrwt>
<totfact> 0.20910554E+01</totfact>
</mgrwt>
</event>
<event>
12    1  0.1477245E-007  0.2797293E+04  0.7818608E-02  0.8304109E-01
          2   -1    0    0  501    0  0.00000000000E+00  0.00000000000E+00  0.25391767498E+04  0.25391767498E+04  0.00000000000E+00 0. -1.
         -2   -1    0    0    0  501 -0.00000000000E+00 -0.00000000000E+00 -0.77041169719E+03  0.77041169719E+03  0.00000000000E+00 0.  1.
         23    2    1    2    0    0  0.10021881851E+04 -0.71973850008E+03  0.54199857348E+03  0.13507733174E+04  0.91768374159E+02 0.  0.
        254    2    1    2    0    0 -0.10021881851E+04  0.71973850008E+03  0.12267664791E+04  0.19588151296E+04  0.89977555585E+03 0.  0.
        -24    2    4    4    0    0 -0.62017997418E+03  0.44959941153E+03  0.15356643761E+03  0.78539688886E+03  0.80639885070E+02 0.  0.
         24    2    4    4    0    0 -0.38200821089E+03  0.27013908855E+03  0.10732000415E+04  0.11734182407E+04  0.79035677174E+02 0.  0.
         11    1    3    3    0    0  0.87250463562E+03 -0.65423173572E+03  0.45682706464E+03  0.11823597042E+04  0.00000000000E+00 0. -1.
        -11    1    3    3    0    0  0.12968354944E+03 -0.65506764353E+02  0.85171508844E+02  0.16841361314E+03  0.00000000000E+00 0.  1.
          4    1    6    6  502    0 -0.21498626731E+03  0.10362923917E+03  0.53996519671E+03  0.59035627209E+03  0.00000000000E+00 0. -1.
          1    1    5    5  503    0 -0.55390391376E+03  0.42459965182E+03  0.15331199775E+03  0.71456208874E+03  0.00000000000E+00 0. -1.
         -2    1    5    5    0  503 -0.66276060418E+02  0.24999759703E+02  0.25443986578E+00  0.70834800129E+02  0.00000000000E+00 0.  1.
         -1    1    6    6    0  502 -0.16702194358E+03  0.16650984938E+03  0.53323484480E+03  0.58306196865E+03  0.00000000000E+00 0.  1.
<mgrwt>
<rscale>  0 0.27972926E+04</rscale>
<asrwt>0</asrwt>
<pdfrwt beam="1">  1        2 0.39064257E+00 0.27972926E+04</pdfrwt>
<pdfrwt beam="2">  1       -2 0.11852488E+00 0.27972926E+04</pdfrwt>
<totfact> 0.15738460E+00</totfact>
</mgrwt>
</event>
<event>
12    1  0.1477245E-007  0.1166370E+04  0.7818608E-02  0.9142813E-01
         -2   -1    0    0    0  501 -0.00000000000E+00  0.00000000000E+00  0.11844359216E+04  0.11844359216E+04  0.00000000000E+00 0.  1.
          2   -1    0    0  501    0  0.00000000000E+00 -0.00000000000E+00 -0.28714499710E+03  0.28714499710E+03  0.00000000000E+00 0. -1.
         23    2    1    2    0    0 -0.14312659573E+03 -0.98584621369E+02  0.41797085099E+03  0.46204004444E+03  0.92613284256E+02 0.  0.
        254    2    1    2    0    0  0.14312659573E+03  0.98584621369E+02  0.47932007347E+03  0.10095408742E+04  0.87133282614E+03 0.  0.
        -24    2    4    4    0    0  0.36222933544E+03  0.50862722391E+02 -0.96218397151E+02  0.38677156535E+03  0.80852679817E+02 0.  0.
         24    2    4    4    0    0 -0.21910273971E+03  0.47721898978E+02  0.57553847062E+03  0.62276930887E+03  0.79458735878E+02 0.  0.
         13    1    3    3    0    0  0.35816178583E-01 -0.38689335355E+02  0.54598895812E+02  0.66917153084E+02  0.00000000000E+00 0. -1.
        -13    1    3    3    0    0 -0.14316241190E+03 -0.59895286014E+02  0.36337195517E+03  0.39512289136E+03  0.00000000000E+00 0.  1.
          4    1    6    6  502    0 -0.13596627218E+03 -0.41632785834E+01  0.27778719182E+03  0.30930548653E+03  0.00000000000E+00 0. -1.
          3    1    5    5  503    0  0.32481254279E+03  0.66927580811E+02 -0.98596926007E+02  0.34598243141E+03  0.00000000000E+00 0. -1.
         -4    1    5    5    0  503  0.37416792648E+02 -0.16064858420E+02  0.23785288565E+01  0.40789133941E+02  0.00000000000E+00 0.  1.
         -3    1    6    6    0  502 -0.83136467534E+02  0.51885177561E+02  0.29775127880E+03  0.31346382234E+03  0.00000000000E+00 0.  1.
<mgrwt>
<rscale>  0 0.11663702E+04</rscale>
<asrwt>0</asrwt>
<pdfrwt beam="1">  1        2 0.44176154E-01 0.11663702E+04</pdfrwt>
<pdfrwt beam="2">  1       -2 0.18222091E+00 0.11663702E+04</pdfrwt>
<totfact> 0.19936850E+01</totfact>
</mgrwt>
</event>
<event>
12    1  0.1477245E-007  0.1189164E+04  0.7818608E-02  0.9122394E-01
          2   -1    0    0  501    0  0.00000000000E+00  0.00000000000E+00  0.12039117857E+04  0.12039117857E+04  0.00000000000E+00 0. -1.
         -2   -1    0    0    0  501 -0.00000000000E+00 -0.00000000000E+00 -0.29364942514E+03  0.29364942514E+03  0.00000000000E+00 0.  1.
         23    2    1    2    0    0  0.12376586170E+03  0.16726350057E+03  0.59364847371E+02  0.23219020451E+03  0.84220180614E+02 0.  0.
        254    2    1    2    0    0 -0.12376586170E+03 -0.16726350057E+03  0.85089751316E+03  0.12653710063E+04  0.91314957074E+03 0.  0.
        -24    2    4    4    0    0 -0.18583023741E+03 -0.47040210273E+03  0.21776317411E+03  0.55622875637E+03  0.78476837483E+02 0.  0.
         24    2    4    4    0    0  0.62064375712E+02  0.30313860216E+03  0.63313433905E+03  0.70914224994E+03  0.79237872957E+02 0.  0.
         13    1    3    3    0    0  0.21324274132E+02 -0.68584187669E+01  0.74247973037E+01  0.23598520934E+02  0.00000000000E+00 0. -1.
        -13    1    3    3    0    0  0.10244158757E+03  0.17412191934E+03  0.51940050067E+02  0.20859168358E+03  0.00000000000E+00 0.  1.
          2    1    6    6  502    0  0.71082524322E+02  0.15081724982E+03  0.33918446802E+03  0.37794797453E+03  0.00000000000E+00 0. -1.
          1    1    5    5  503    0 -0.19186598404E+03 -0.46190154601E+03  0.21843148315E+03  0.54578192245E+03  0.00000000000E+00 0. -1.
         -2    1    5    5    0  503  0.60357466283E+01 -0.85005567191E+01 -0.66830904737E+00  0.10446833917E+02  0.00000000000E+00 0.  1.
         -1    1    6    6    0  502 -0.90181486100E+01  0.15232135233E+03  0.29394987104E+03  0.33119427541E+03  0.00000000000E+00 0.  1.
<mgrwt>
<rscale>  0 0.11891644E+04</rscale>
<asrwt>0</asrwt>
<pdfrwt beam="1">  1        2 0.18521720E+00 0.11891644E+04</pdfrwt>
<pdfrwt beam="2">  1       -2 0.45176835E-01 0.11891644E+04</pdfrwt>
<totfact> 0.86395563E+01</totfact>
</mgrwt>
</event>
<event>
12    1  0.1477245E-007  0.2673413E+04  0.7818608E-02  0.8343683E-01
         -4   -1    0    0    0  501 -0.00000000000E+00  0.00000000000E+00  0.10726371251E+04  0.10726371251E+04  0.00000000000E+00 0.  1.
          4   -1    0    0  501    0  0.00000000000E+00 -0.00000000000E+00 -0.16657860598E+04  0.16657860598E+04  0.00000000000E+00 0. -1.
         23    2    1    2    0    0  0.24102093734E+03  0.16897800979E+03  0.91129475676E+03  0.96200426572E+03  0.91375125315E+02 0.  0.
        254    2    1    2    0    0 -0.24102093734E+03 -0.16897800979E+03 -0.15044436915E+04  0.17764189192E+04  0.89759049443E+03 0.  0.
        -24    2    4    4    0    0 -0.38784218229E+03 -0.46008351159E+03 -0.10241172085E+04  0.11905007241E+04  0.79859384515E+02 0.  0.
         24    2    4    4    0    0  0.14682124494E+03  0.29110550181E+03 -0.48032648299E+03  0.58591819514E+03  0.79295081758E+02 0.  0.
         13    1    3    3    0    0  0.18755312246E+03  0.12422763179E+03  0.79681594962E+03  0.82796397012E+03  0.00000000000E+00 0.  1.
        -13    1    3    3    0    0  0.53467814888E+02  0.44750377996E+02  0.11447880714E+03  0.13404029559E+03  0.00000000000E+00 0. -1.
          4    1    6    6  502    0  0.42905988941E+02  0.38104193171E+02 -0.50451875078E+02  0.76408410028E+02  0.00000000000E+00 0. -1.
          1    1    5    5  503    0 -0.12214458875E+02 -0.44585949341E+02 -0.93961853623E+02  0.10471833565E+03  0.00000000000E+00 0. -1.
         -2    1    5    5    0  503 -0.37562772341E+03 -0.41549756225E+03 -0.93015535488E+03  0.10857823884E+04  0.00000000000E+00 0.  1.
         -3    1    6    6    0  502  0.10391525600E+03  0.25300130863E+03 -0.42987460791E+03  0.50950978511E+03  0.00000000000E+00 0.  1.
<mgrwt>
<rscale>  0 0.26734128E+04</rscale>
<asrwt>0</asrwt>
<pdfrwt beam="1">  1        4 0.25627478E+00 0.26734128E+04</pdfrwt>
<pdfrwt beam="2">  1       -4 0.16502110E+00 0.26734128E+04</pdfrwt>
<totfact> 0.23225244E-02</totfact>
</mgrwt>
</event>
<event>
12    1  0.1477245E-007  0.1724963E+04  0.7818608E-02  0.8747254E-01
         -1   -1    0    0    0  501 -0.00000000000E+00  0.00000000000E+00  0.39282049211E+03  0.39282049211E+03  0.00000000000E+00 0.  1.
          1   -1    0    0  501    0  0.00000000000E+00 -0.00000000000E+00 -0.18936749941E+04  0.18936749941E+04  0.00000000000E+00 0. -1.
         23    2    1    2    0    0 -0.27840197500E+03  0.25491588088E+03  0.99289281301E+02  0.39953652851E+03  0.85330593716E+02 0.  0.
        254    2    1    2    0    0  0.27840197500E+03 -0.25491588088E+03 -0.16001437833E+04  0.18869589577E+04  0.92610162231E+03 0.  0.
        -24    2    4    4    0    0  0.12930267613E+03  0.33936691761E+03 -0.73598825435E+03  0.82454572868E+03  0.79422045541E+02 0.  0.
         24    2    4    4    0    0  0.14909929886E+03 -0.59428279849E+03 -0.86415552896E+03  0.10624132290E+04  0.80959530066E+02 0.  0.
         13    1    3    3    0    0 -0.26727961305E+03  0.25781666275E+03  0.84581307657E+02  0.38086982126E+03  0.00000000000E+00 0.  1.
        -13    1    3    3    0    0 -0.11122361951E+02 -0.29007818684E+01  0.14707973644E+02  0.18666707249E+02  0.00000000000E+00 0. -1.
          4    1    6    6  502    0 -0.99897407332E+00 -0.15976654956E+02 -0.50364812277E+02  0.52847571074E+02  0.00000000000E+00 0. -1.
          1    1    5    5  503    0  0.36017487531E+02  0.19473611850E+03 -0.43172339835E+03  0.47497842892E+03  0.00000000000E+00 0. -1.
         -2    1    5    5    0  503  0.93285188604E+02  0.14463079910E+03 -0.30426485600E+03  0.34956729976E+03  0.00000000000E+00 0.  1.
         -3    1    6    6    0  502  0.15009827294E+03 -0.57830614353E+03 -0.81379071669E+03  0.10095656580E+04  0.00000000000E+00 0.  1.
<mgrwt>
<rscale>  0 0.17249630E+04</rscale>
<asrwt>0</asrwt>
<pdfrwt beam="1">  1        1 0.29133462E+00 0.17249630E+04</pdfrwt>
<pdfrwt beam="2">  1       -1 0.60433922E-01 0.17249630E+04</pdfrwt>
<totfact> 0.92785849E+00</totfact>
</mgrwt>
</event>
<event>
12    1  0.1477245E-007  0.1733738E+04  0.7818608E-02  0.8742353E-01
          1   -1    0    0  501    0  0.00000000000E+00  0.00000000000E+00  0.17964553720E+04  0.17964553720E+04  0.00000000000E+00 0. -1.
         -1   -1    0    0    0  501 -0.00000000000E+00 -0.00000000000E+00 -0.41830235514E+03  0.41830235514E+03  0.00000000000E+00 0.  1.
         23    2    1    2    0    0  0.25320042028E+03  0.56237568987E+03  0.41617422611E+03  0.74960878641E+03  0.91298832348E+02 0.  0.
        254    2    1    2    0    0 -0.25320042028E+03 -0.56237568987E+03  0.96197879072E+03  0.14651489407E+04  0.91699583163E+03 0.  0.
        -24    2    4    4    0    0 -0.24775681267E+03  0.16037815451E+02  0.82505320912E+03  0.86527171093E+03  0.79634704068E+02 0.  0.
         24    2    4    4    0    0 -0.54436076120E+01 -0.57841350533E+03  0.13692558160E+03  0.59987722977E+03  0.80698574320E+02 0.  0.
         13    1    3    3    0    0  0.11652584866E+03  0.22322126646E+03  0.11943361550E+03  0.27869408985E+03  0.00000000000E+00 0. -1.
        -13    1    3    3    0    0  0.13667457163E+03  0.33915442341E+03  0.29674061060E+03  0.47091469655E+03  0.00000000000E+00 0.  1.
          2    1    6    6  502    0  0.27516601501E+02 -0.32905402659E+03  0.51239927521E+02  0.33415452405E+03  0.00000000000E+00 0. -1.
          3    1    5    5  503    0 -0.10857885068E+03 -0.87218359465E+01  0.24299373547E+03  0.26629193137E+03  0.00000000000E+00 0. -1.
         -4    1    5    5    0  503 -0.13917796199E+03  0.24759651398E+02  0.58205947365E+03  0.59897977955E+03  0.00000000000E+00 0.  1.
         -1    1    6    6    0  502 -0.32960209113E+02 -0.24935947874E+03  0.85685654079E+02  0.26572270572E+03  0.00000000000E+00 0.  1.
<mgrwt>
<rscale>  0 0.17337376E+04</rscale>
<asrwt>0</asrwt>
<pdfrwt beam="1">  1        1 0.27637775E+00 0.17337376E+04</pdfrwt>
<pdfrwt beam="2">  1       -1 0.64354209E-01 0.17337376E+04</pdfrwt>
<totfact> 0.95185492E+00</totfact>
</mgrwt>
</event>
<event>
12    1  0.1477245E-007  0.2450836E+04  0.7818608E-02  0.8420713E-01
          1   -1    0    0  501    0  0.00000000000E+00  0.00000000000E+00  0.16743240278E+04  0.16743240278E+04  0.00000000000E+00 0. -1.
         -1   -1    0    0    0  501 -0.00000000000E+00 -0.00000000000E+00 -0.89686902560E+03  0.89686902560E+03  0.00000000000E+00 0.  1.
         23    2    1    2    0    0  0.65452988384E+03  0.27353447134E+03 -0.44807386627E+03  0.84447114322E+03  0.95555461565E+02 0.  0.
        254    2    1    2    0    0 -0.65452988384E+03 -0.27353447134E+03  0.12255288684E+04  0.17267219102E+04  0.98813818455E+03 0.  0.
        -24    2    4    4    0    0  0.76025513413E+01 -0.48242771213E+01  0.95499883511E+03  0.95837260273E+03  0.79838575755E+02 0.  0.
         24    2    4    4    0    0 -0.66213243518E+03 -0.26871019422E+03  0.27053003334E+03  0.76834930742E+03  0.80929778699E+02 0.  0.
         11    1    3    3    0    0  0.28983277453E+03  0.11931326297E+03 -0.14247940783E+03  0.34429503854E+03  0.00000000000E+00 0.  1.
        -11    1    3    3    0    0  0.36469710932E+03  0.15422120837E+03 -0.30559445844E+03  0.50017610467E+03  0.00000000000E+00 0. -1.
          2    1    6    6  502    0 -0.14859735642E+03 -0.36655661570E+02  0.31713342229E+02  0.15630274449E+03  0.00000000000E+00 0. -1.
          1    1    5    5  503    0  0.10935778192E+02 -0.41369835070E+02  0.44374205527E+03  0.44580047792E+03  0.00000000000E+00 0. -1.
         -2    1    5    5    0  503 -0.33332268508E+01  0.36545557949E+02  0.51125677983E+03  0.51257212481E+03  0.00000000000E+00 0.  1.
         -1    1    6    6    0  502 -0.51353507876E+03 -0.23205453265E+03  0.23881669111E+03  0.61204656293E+03  0.00000000000E+00 0.  1.
<mgrwt>
<rscale>  0 0.24508361E+04</rscale>
<asrwt>0</asrwt>
<pdfrwt beam="1">  1        1 0.25758831E+00 0.24508361E+04</pdfrwt>
<pdfrwt beam="2">  1       -1 0.13797985E+00 0.24508361E+04</pdfrwt>
<totfact> 0.19275615E+00</totfact>
</mgrwt>
</event>
<event>
12    1  0.1477245E-007  0.1447288E+04  0.7818608E-02  0.8920283E-01
         -2   -1    0    0    0  501 -0.00000000000E+00  0.00000000000E+00  0.25326417558E+03  0.25326417558E+03  0.00000000000E+00 0.  1.
          2   -1    0    0  501    0  0.00000000000E+00 -0.00000000000E+00 -0.20676466422E+04  0.20676466422E+04  0.00000000000E+00 0. -1.
         23    2    1    2    0    0 -0.17626582978E+03  0.27360328463E+03 -0.10371744999E+04  0.10907808871E+04  0.90241898180E+02 0.  0.
        254    2    1    2    0    0  0.17626582978E+03 -0.27360328463E+03 -0.77720796672E+03  0.12301299308E+04  0.89623603079E+03 0.  0.
        -24    2    4    4    0    0 -0.52425652972E+02 -0.33301810833E+03 -0.89102713960E+03  0.95591150790E+03  0.78663446821E+02 0.  0.
         24    2    4    4    0    0  0.22869148276E+03  0.59414823707E+02  0.11381917287E+03  0.27421842285E+03  0.80068868838E+02 0.  0.
         13    1    3    3    0    0 -0.12454865631E+03  0.25295205070E+03 -0.85578486491E+03  0.90103542813E+03  0.00000000000E+00 0. -1.
        -13    1    3    3    0    0 -0.51717173477E+02  0.20651233927E+02 -0.18138963501E+03  0.18974545893E+03  0.00000000000E+00 0.  1.
          2    1    6    6  502    0  0.20161313621E+03  0.58611765926E+02  0.67472459786E+02  0.22053509613E+03  0.00000000000E+00 0. -1.
          3    1    5    5  503    0 -0.69672737181E+02 -0.29196758151E+03 -0.80290426317E+03  0.85717828646E+03  0.00000000000E+00 0. -1.
         -4    1    5    5    0  503  0.17247084208E+02 -0.41050526819E+02 -0.88122876430E+02  0.98733221441E+02  0.00000000000E+00 0.  1.
         -1    1    6    6    0  502  0.27078346545E+02  0.80305778146E+00  0.46346713089E+02  0.53683326718E+02  0.00000000000E+00 0.  1.
<mgrwt>
<rscale>  0 0.14472883E+04</rscale>
<asrwt>0</asrwt>
<pdfrwt beam="1">  1        2 0.31809949E+00 0.14472883E+04</pdfrwt>
<pdfrwt beam="2">  1       -2 0.38963719E-01 0.14472883E+04</pdfrwt>
<totfact> 0.37018940E+01</totfact>
</mgrwt>
</event>
<event>
12    1  0.1477245E-007  0.1473967E+04  0.7818608E-02  0.8901951E-01
          2   -1    0    0  501    0  0.00000000000E+00  0.00000000000E+00  0.34874950183E+03  0.34874950183E+03  0.00000000000E+00 0. -1.
         -2   -1    0    0    0  501 -0.00000000000E+00 -0.00000000000E+00 -0.15574071970E+04  0.15574071970E+04  0.00000000000E+00 0.  1.
         23    2    1    2    0    0  0.19249044750E+03 -0.40129656387E+03 -0.51936211797E+03  0.68949290447E+03  0.87016959164E+02 0.  0.
        254    2    1    2    0    0 -0.19249044750E+03  0.40129656387E+03 -0.68929557716E+03  0.12166637943E+04  0.89836011218E+03 0.  0.
        -24    2    4    4    0    0 -0.36074589440E+03  0.25246088728E+03 -0.82739780837E+03  0.94078476682E+03  0.81331078005E+02 0.  0.
         24    2    4    4    0    0  0.16825544691E+03  0.14883567659E+03  0.13810223121E+03  0.27587902749E+03  0.81086728283E+02 0.  0.
         11    1    3    3    0    0  0.14674454320E+03 -0.32255580501E+03 -0.35505501312E+03  0.50163758894E+03  0.00000000000E+00 0. -1.
        -11    1    3    3    0    0  0.45745904302E+02 -0.78740758861E+02 -0.16430710485E+03  0.18785531552E+03  0.00000000000E+00 0.  1.
          2    1    6    6  502    0  0.73834119469E+02  0.35223001924E+02  0.87354836298E+02  0.11967875537E+03  0.00000000000E+00 0. -1.
          3    1    5    5  503    0  0.13110990631E+01 -0.14336083039E+00  0.12867769222E+01  0.18426415626E+01  0.00000000000E+00 0. -1.
         -4    1    5    5    0  503 -0.36205699347E+03  0.25260424811E+03 -0.82868458529E+03  0.93894212526E+03  0.00000000000E+00 0.  1.
         -1    1    6    6    0  502  0.94421327436E+02  0.11361267467E+03  0.50747394915E+02  0.15620027212E+03  0.00000000000E+00 0.  1.
<mgrwt>
<rscale>  0 0.14739674E+04</rscale>
<asrwt>0</asrwt>
<pdfrwt beam="1">  1        2 0.53653770E-01 0.14739674E+04</pdfrwt>
<pdfrwt beam="2">  1       -2 0.23960111E+00 0.14739674E+04</pdfrwt>
<totfact> 0.66927702E+00</totfact>
</mgrwt>
</event>
<event>
12    1  0.1477245E-007  0.1932405E+04  0.7818608E-02  0.8638892E-01
          2   -1    0    0  501    0  0.00000000000E+00  0.00000000000E+00  0.82484795893E+03  0.82484795893E+03  0.00000000000E+00 0. -1.
         -2   -1    0    0    0  501 -0.00000000000E+00 -0.00000000000E+00 -0.11317814597E+04  0.11317814597E+04  0.00000000000E+00 0.  1.
         23    2    1    2    0    0 -0.24871159861E+03 -0.30279608703E+03 -0.76978700471E+03  0.86807810445E+03  0.86282287899E+02 0.  0.
        254    2    1    2    0    0  0.24871159861E+03  0.30279608703E+03  0.46285350396E+03  0.10885513142E+04  0.90397326722E+03 0.  0.
        -24    2    4    4    0    0  0.22141778534E+02 -0.29062494179E+03  0.49463333347E+01  0.30142057523E+03  0.76660170990E+02 0.  0.
         24    2    4    4    0    0  0.22656982008E+03  0.59342102881E+03  0.45790717062E+03  0.78713073893E+03  0.80083846395E+02 0.  0.
         13    1    3    3    0    0 -0.25312189988E+03 -0.30375010800E+03 -0.75064999241E+03  0.84841631020E+03  0.00000000000E+00 0.  1.
        -13    1    3    3    0    0  0.44103012727E+01  0.95402097540E+00 -0.19137012296E+02  0.19661794245E+02  0.00000000000E+00 0. -1.
          2    1    6    6  502    0  0.10939813408E+03  0.18132765403E+03  0.14784359442E+03  0.25827388227E+03  0.00000000000E+00 0. -1.
          1    1    5    5  503    0 -0.96531991336E+01 -0.14592680176E+03 -0.29798502890E+02  0.14925068341E+03  0.00000000000E+00 0. -1.
         -2    1    5    5    0  503  0.31794977668E+02 -0.14469814003E+03  0.34744836225E+02  0.15216989182E+03  0.00000000000E+00 0.  1.
         -1    1    6    6    0  502  0.11717168600E+03  0.41209337479E+03  0.31006357621E+03  0.52885685666E+03  0.00000000000E+00 0.  1.
<mgrwt>
<rscale>  0 0.19324054E+04</rscale>
<asrwt>0</asrwt>
<pdfrwt beam="1">  1        2 0.12689969E+00 0.19324054E+04</pdfrwt>
<pdfrwt beam="2">  1       -2 0.17412022E+00 0.19324054E+04</pdfrwt>
<totfact> 0.61521982E+00</totfact>
</mgrwt>
</event>
<event>
12    1  0.1477245E-007  0.1508477E+04  0.7818608E-02  0.8878835E-01
          1   -1    0    0  501    0  0.00000000000E+00  0.00000000000E+00  0.33999457293E+04  0.33999457293E+04  0.00000000000E+00 0. -1.
         -1   -1    0    0    0  501 -0.00000000000E+00 -0.00000000000E+00 -0.16731910482E+03  0.16731910482E+03  0.00000000000E+00 0.  1.
         23    2    1    2    0    0  0.11116212738E+03  0.33534705074E+03  0.28144256920E+03  0.46057917955E+03  0.90047753290E+02 0.  0.
        254    2    1    2    0    0 -0.11116212738E+03 -0.33534705074E+03  0.29511840553E+04  0.31066856546E+04  0.90398770186E+03 0.  0.
        -24    2    4    4    0    0 -0.10941101588E+03 -0.60312082685E+03  0.13987345857E+04  0.15292047199E+04  0.79266210929E+02 0.  0.
         24    2    4    4    0    0 -0.17511114988E+01  0.26777377611E+03  0.15524494697E+04  0.15774809347E+04  0.81491605735E+02 0.  0.
         13    1    3    3    0    0  0.24704385031E+02  0.88865135224E+01  0.13745509318E+02  0.29634705815E+02  0.00000000000E+00 0. -1.
        -13    1    3    3    0    0  0.86457742351E+02  0.32646053722E+03  0.26769705988E+03  0.43094447374E+03  0.00000000000E+00 0.  1.
          4    1    6    6  502    0  0.88111633468E+01  0.11942320204E+03  0.92104895202E+03  0.92880068357E+03  0.00000000000E+00 0. -1.
          1    1    5    5  503    0  0.64854596553E+01 -0.56622388197E+01  0.31109337266E+02  0.32278677181E+02  0.00000000000E+00 0. -1.
         -2    1    5    5    0  503 -0.11589647554E+03 -0.59745858803E+03  0.13676252484E+04  0.14969260428E+04  0.00000000000E+00 0.  1.
         -3    1    6    6    0  502 -0.10562274846E+02  0.14835057407E+03  0.63140051764E+03  0.64868025109E+03  0.00000000000E+00 0.  1.
<mgrwt>
<rscale>  0 0.15084772E+04</rscale>
<asrwt>0</asrwt>
<pdfrwt beam="1">  1        1 0.52306852E+00 0.15084772E+04</pdfrwt>
<pdfrwt beam="2">  1       -1 0.25741403E-01 0.15084772E+04</pdfrwt>
<totfact> 0.38927435E+00</totfact>
</mgrwt>
</event>
<event>
12    1  0.1477245E-007  0.1237160E+04  0.7818608E-02  0.9080938E-01
         -2   -1    0    0    0  501 -0.00000000000E+00  0.00000000000E+00  0.23244463900E+03  0.23244463900E+03  0.00000000000E+00 0.  1.
          2   -1    0    0  501    0  0.00000000000E+00 -0.00000000000E+00 -0.16461606068E+04  0.16461606068E+04  0.00000000000E+00 0. -1.
         23    2    1    2    0    0 -0.95875237755E+02  0.19998196248E+03 -0.58103165787E+03  0.62857189406E+03  0.91213990252E+02 0.  0.
        254    2    1    2    0    0  0.95875237755E+02 -0.19998196248E+03 -0.83268430996E+03  0.12500333518E+04  0.90555804561E+03 0.  0.
        -24    2    4    4    0    0 -0.32008368094E+02  0.26882625894E+03 -0.18572632600E+01  0.28418705808E+03  0.86410308583E+02 0.  0.
         24    2    4    4    0    0  0.12788360585E+03 -0.46880822141E+03 -0.83082704670E+03  0.96584629370E+03  0.80312616840E+02 0.  0.
         13    1    3    3    0    0  0.11441450984E+02  0.65176513287E+02 -0.13308930215E+03  0.14863259075E+03  0.00000000000E+00 0.  1.
        -13    1    3    3    0    0 -0.10731668874E+03  0.13480544919E+03 -0.44794235572E+03  0.47993930331E+03  0.00000000000E+00 0. -1.
          2    1    6    6  502    0  0.28909471475E+02 -0.11256899010E+03 -0.27187722036E+03  0.29567677965E+03  0.00000000000E+00 0. -1.
          1    1    5    5  503    0  0.19256626610E+02  0.11688564683E+03  0.26382225777E+02  0.12136347861E+03  0.00000000000E+00 0. -1.
         -2    1    5    5    0  503 -0.51264994704E+02  0.15194061210E+03 -0.28239489037E+02  0.16282357946E+03  0.00000000000E+00 0.  1.
         -1    1    6    6    0  502  0.98974134374E+02 -0.35623923131E+03 -0.55894982634E+03  0.67016951405E+03  0.00000000000E+00 0.  1.
<mgrwt>
<rscale>  0 0.12371600E+04</rscale>
<asrwt>0</asrwt>
<pdfrwt beam="1">  1        2 0.25325548E+00 0.12371600E+04</pdfrwt>
<pdfrwt beam="2">  1       -2 0.35760714E-01 0.12371600E+04</pdfrwt>
<totfact> 0.76017645E+01</totfact>
</mgrwt>
</event>
<event>
12    1  0.1477245E-007  0.1489371E+04  0.7818608E-02  0.8891552E-01
         -2   -1    0    0    0  501 -0.00000000000E+00  0.00000000000E+00  0.45107890559E+03  0.45107890559E+03  0.00000000000E+00 0.  1.
          2   -1    0    0  501    0  0.00000000000E+00 -0.00000000000E+00 -0.12294009838E+04  0.12294009838E+04  0.00000000000E+00 0. -1.
         23    2    1    2    0    0 -0.64388934401E+00 -0.31320362145E+03 -0.63639884298E+03  0.71511532695E+03  0.91046803390E+02 0.  0.
        254    2    1    2    0    0  0.64388934401E+00  0.31320362145E+03 -0.14192323527E+03  0.96536456248E+03  0.90204745479E+03 0.  0.
        -24    2    4    4    0    0 -0.64975503337E+02  0.83959555491E+02  0.37125110541E+03  0.39380477614E+03  0.77354996258E+02 0.  0.
         24    2    4    4    0    0  0.65619392681E+02  0.22924406596E+03 -0.51317434068E+03  0.57155978634E+03  0.80460791424E+02 0.  0.
         11    1    3    3    0    0  0.63150312555E+01 -0.25490195511E+03 -0.42412397153E+03  0.49486970969E+03  0.00000000000E+00 0. -1.
        -11    1    3    3    0    0 -0.69589205995E+01 -0.58301666337E+02 -0.21227487145E+03  0.22024561726E+03  0.00000000000E+00 0.  1.
          4    1    6    6  502    0  0.63308774161E+02  0.17609611367E+03 -0.45877636258E+03  0.49547310018E+03  0.00000000000E+00 0. -1.
          3    1    5    5  503    0 -0.56851741697E+02  0.98886633217E+02  0.31354497792E+03  0.33364822784E+03  0.00000000000E+00 0. -1.
         -4    1    5    5    0  503 -0.81237616404E+01 -0.14927077726E+02  0.57706127498E+02  0.60156548300E+02  0.00000000000E+00 0.  1.
         -3    1    6    6    0  502  0.23106185204E+01  0.53147952285E+02 -0.54397978099E+02  0.76086686164E+02  0.00000000000E+00 0.  1.
<mgrwt>
<rscale>  0 0.14893715E+04</rscale>
<asrwt>0</asrwt>
<pdfrwt beam="1">  1        2 0.18913861E+00 0.14893715E+04</pdfrwt>
<pdfrwt beam="2">  1       -2 0.69396756E-01 0.14893715E+04</pdfrwt>
<totfact> 0.33325691E+01</totfact>
</mgrwt>
</event>
<event>
12    1  0.1477245E-007  0.1158495E+04  0.7818608E-02  0.9149982E-01
         -2   -1    0    0    0  501 -0.00000000000E+00  0.00000000000E+00  0.47171101492E+03  0.47171101492E+03  0.00000000000E+00 0.  1.
          2   -1    0    0  501    0  0.00000000000E+00 -0.00000000000E+00 -0.71129880849E+03  0.71129880849E+03  0.00000000000E+00 0. -1.
         23    2    1    2    0    0  0.12119813581E+03  0.17743118717E+03 -0.10571080082E+03  0.25638245605E+03  0.91577159029E+02 0.  0.
        254    2    1    2    0    0 -0.12119813581E+03 -0.17743118717E+03 -0.13387699275E+03  0.92662736736E+03  0.89137220871E+03 0.  0.
        -24    2    4    4    0    0 -0.16265227929E+03 -0.16780247446E+03 -0.49568980860E+03  0.55385871644E+03  0.80235011237E+02 0.  0.
         24    2    4    4    0    0  0.41454143482E+02 -0.96287127077E+01  0.36181281585E+03  0.37276865093E+03  0.78973383356E+02 0.  0.
         11    1    3    3    0    0  0.77323415730E+02  0.68664060887E+02 -0.79802062330E+01  0.10371763384E+03  0.00000000000E+00 0. -1.
        -11    1    3    3    0    0  0.43874720076E+02  0.10876712628E+03 -0.97730594590E+02  0.15266482221E+03  0.00000000000E+00 0.  1.
          2    1    6    6  502    0  0.12573700228E+02  0.29706760955E+01  0.39341538184E+01  0.13505569968E+02  0.00000000000E+00 0. -1.
          1    1    5    5  503    0 -0.27737281933E+02 -0.69700321813E+02 -0.10497253645E+03  0.12902218832E+03  0.00000000000E+00 0. -1.
         -4    1    5    5    0  503 -0.13491499735E+03 -0.98102152647E+02 -0.39071727215E+03  0.42483652812E+03  0.00000000000E+00 0.  1.
         -1    1    6    6    0  502  0.28880443254E+02 -0.12599388803E+02  0.35787866203E+03  0.35926308096E+03  0.00000000000E+00 0.  1.
<mgrwt>
<rscale>  0 0.11584947E+04</rscale>
<asrwt>0</asrwt>
<pdfrwt beam="1">  1        2 0.10943059E+00 0.11584947E+04</pdfrwt>
<pdfrwt beam="2">  1       -2 0.72570925E-01 0.11584947E+04</pdfrwt>
<totfact> 0.68251667E+01</totfact>
</mgrwt>
</event>
<event>
12    1  0.1477245E-007  0.1847332E+04  0.7818608E-02  0.8681526E-01
         -1   -1    0    0    0  501 -0.00000000000E+00  0.00000000000E+00  0.23382223086E+03  0.23382223086E+03  0.00000000000E+00 0.  1.
          1   -1    0    0  501    0  0.00000000000E+00 -0.00000000000E+00 -0.36487511194E+04  0.36487511194E+04  0.00000000000E+00 0. -1.
         23    2    1    2    0    0 -0.14996753925E+03 -0.58991928472E+03 -0.17339540144E+04  0.18399263703E+04  0.90760666808E+02 0.  0.
        254    2    1    2    0    0  0.14996753925E+03  0.58991928472E+03 -0.16809748741E+04  0.20426469800E+04  0.98804611839E+03 0.  0.
        -24    2    4    4    0    0  0.21846486368E+03 -0.16359561885E+03 -0.12321114500E+03  0.30914073793E+03  0.76789233791E+02 0.  0.
         24    2    4    4    0    0 -0.68497324424E+02  0.75351490357E+03 -0.15577637291E+04  0.17335062421E+04  0.77067905824E+02 0.  0.
         11    1    3    3    0    0 -0.16090845325E+03 -0.56584965782E+03 -0.16753665567E+04  0.17756493080E+04  0.00000000000E+00 0. -1.
        -11    1    3    3    0    0  0.10940913991E+02 -0.24069626897E+02 -0.58587457692E+02  0.64277062291E+02  0.00000000000E+00 0.  1.
          4    1    6    6  502    0 -0.21128460536E+02  0.57457452642E+03 -0.11517414944E+04  0.12872803767E+04  0.00000000000E+00 0. -1.
          3    1    5    5  503    0  0.10327666528E+03 -0.12424194682E+03 -0.63968316809E+02  0.17376442817E+03  0.00000000000E+00 0. -1.
         -4    1    5    5    0  503  0.11518819839E+03 -0.39353672025E+02 -0.59242828189E+02  0.13537630976E+03  0.00000000000E+00 0.  1.
         -3    1    6    6    0  502 -0.47368863888E+02  0.17894037715E+03 -0.40602223472E+03  0.44622586537E+03  0.00000000000E+00 0.  1.
<mgrwt>
<rscale>  0 0.18473323E+04</rscale>
<asrwt>0</asrwt>
<pdfrwt beam="1">  1        1 0.56134633E+00 0.18473323E+04</pdfrwt>
<pdfrwt beam="2">  1       -1 0.35972650E-01 0.18473323E+04</pdfrwt>
<totfact> 0.13283266E+00</totfact>
</mgrwt>
</event>
<event>
12    1  0.1477245E-007  0.3152508E+04  0.7818608E-02  0.8201473E-01
         -2   -1    0    0    0  501 -0.00000000000E+00  0.00000000000E+00  0.15640502029E+04  0.15640502029E+04  0.00000000000E+00 0.  1.
          2   -1    0    0  501    0  0.00000000000E+00 -0.00000000000E+00 -0.15885532418E+04  0.15885532418E+04  0.00000000000E+00 0. -1.
         23    2    1    2    0    0  0.13347326290E+04  0.68393739119E+02  0.54010044533E+03  0.14444740132E+04  0.92778172629E+02 0.  0.
        254    2    1    2    0    0 -0.13347326290E+04 -0.68393739119E+02 -0.56460348425E+03  0.17081294315E+04  0.90152102911E+03 0.  0.
        -24    2    4    4    0    0 -0.10094499697E+03  0.34335607829E+02  0.20724455721E+03  0.24697075577E+03  0.81703251675E+02 0.  0.
         24    2    4    4    0    0 -0.12337876320E+04 -0.10272934695E+03 -0.77184804145E+03  0.14611586757E+04  0.80312122118E+02 0.  0.
         13    1    3    3    0    0  0.23368025814E+03  0.27557095359E+02  0.12996448174E+03  0.26880592081E+03  0.00000000000E+00 0.  1.
        -13    1    3    3    0    0  0.11010523708E+04  0.40836643760E+02  0.41013596359E+03  0.11756680924E+04  0.00000000000E+00 0. -1.
          2    1    6    6  502    0 -0.45013269339E+03 -0.25227897310E+00 -0.29271941928E+03  0.53693962764E+03  0.00000000000E+00 0. -1.
          1    1    5    5  503    0 -0.10516040179E+02 -0.24217940024E+02  0.46277745222E+02  0.53279690530E+02  0.00000000000E+00 0. -1.
         -2    1    5    5    0  503 -0.90428956790E+02  0.58553547853E+02  0.16096681198E+03  0.19369106524E+03  0.00000000000E+00 0.  1.
         -1    1    6    6    0  502 -0.78365493862E+03 -0.10247706797E+03 -0.47912862217E+03  0.92421904810E+03  0.00000000000E+00 0.  1.
<mgrwt>
<rscale>  0 0.31525082E+04</rscale>
<asrwt>0</asrwt>
<pdfrwt beam="1">  1        2 0.24439281E+00 0.31525082E+04</pdfrwt>
<pdfrwt beam="2">  1       -2 0.24062311E+00 0.31525082E+04</pdfrwt>
<totfact> 0.70248780E-01</totfact>
</mgrwt>
</event>
<event>
12    1  0.1477245E-007  0.2103411E+04  0.7818608E-02  0.8559742E-01
          2   -1    0    0  501    0  0.00000000000E+00  0.00000000000E+00  0.19371555481E+04  0.19371555481E+04  0.00000000000E+00 0. -1.
         -2   -1    0    0    0  501 -0.00000000000E+00 -0.00000000000E+00 -0.57098387533E+03  0.57098387533E+03  0.00000000000E+00 0.  1.
         23    2    1    2    0    0 -0.69284567597E+03  0.40656136031E+03  0.92209498544E+03  0.12268569641E+04  0.97936601046E+02 0.  0.
        254    2    1    2    0    0  0.69284567597E+03 -0.40656136031E+03  0.44407668734E+03  0.12812824593E+04  0.89395378288E+03 0.  0.
        -24    2    4    4    0    0  0.67050939561E+03 -0.21410167846E+03 -0.83354521771E+02  0.71374612810E+03  0.84042731730E+02 0.  0.
         24    2    4    4    0    0  0.22336280359E+02 -0.19245968185E+03  0.52743120911E+03  0.56753633122E+03  0.79838388990E+02 0.  0.
         11    1    3    3    0    0 -0.36309659487E+03  0.16522934751E+03  0.41555325565E+03  0.57604199740E+03  0.00000000000E+00 0. -1.
        -11    1    3    3    0    0 -0.32974908110E+03  0.24133201280E+03  0.50654172980E+03  0.65081496672E+03  0.00000000000E+00 0.  1.
          2    1    6    6  502    0 -0.23353393699E+02 -0.84501393895E+02  0.28624997100E+03  0.29937420141E+03  0.00000000000E+00 0. -1.
          3    1    5    5  503    0  0.41239336927E+03 -0.11249863178E+03 -0.13421270785E+02  0.42767319729E+03  0.00000000000E+00 0. -1.
         -4    1    5    5    0  503  0.25811602633E+03 -0.10160304669E+03 -0.69933250986E+02  0.28607293080E+03  0.00000000000E+00 0.  1.
         -1    1    6    6    0  502  0.45689674058E+02 -0.10795828796E+03  0.24118123810E+03  0.26816212982E+03  0.00000000000E+00 0.  1.
<mgrwt>
<rscale>  0 0.21034111E+04</rscale>
<asrwt>0</asrwt>
<pdfrwt beam="1">  1        2 0.29802393E+00 0.21034111E+04</pdfrwt>
<pdfrwt beam="2">  1       -2 0.87843674E-01 0.21034111E+04</pdfrwt>
<totfact> 0.74545346E+00</totfact>
</mgrwt>
</event>
<event>
12    1  0.1477245E-007  0.2219913E+04  0.7818608E-02  0.8510185E-01
          2   -1    0    0  501    0  0.00000000000E+00  0.00000000000E+00  0.13332997971E+04  0.13332997971E+04  0.00000000000E+00 0. -1.
         -2   -1    0    0    0  501 -0.00000000000E+00 -0.00000000000E+00 -0.92402560200E+03  0.92402560200E+03  0.00000000000E+00 0.  1.
         23    2    1    2    0    0 -0.47443208211E+03  0.25214574865E+03 -0.59480010114E+03  0.80641627217E+03  0.88638392374E+02 0.  0.
        254    2    1    2    0    0  0.47443208211E+03 -0.25214574865E+03  0.10040742962E+04  0.14509091269E+04  0.89905996639E+03 0.  0.
        -24    2    4    4    0    0 -0.15333293076E+03 -0.35581835237E+03  0.47733536242E+03  0.62122704131E+03  0.89198100376E+02 0.  0.
         24    2    4    4    0    0  0.62776501287E+03  0.10367260372E+03  0.52673893383E+03  0.82968208562E+03  0.77984220525E+02 0.  0.
         11    1    3    3    0    0  0.22308878309E+01 -0.21421968305E+01 -0.29531923406E+00  0.31069408145E+01  0.00000000000E+00 0. -1.
        -11    1    3    3    0    0 -0.47666296994E+03  0.25428794548E+03 -0.59450478191E+03  0.80330933135E+03  0.00000000000E+00 0.  1.
          2    1    6    6  502    0  0.55507757679E+03  0.65954915826E+02  0.45321948490E+03  0.71963120323E+03  0.00000000000E+00 0. -1.
          3    1    5    5  503    0 -0.12576009367E+03 -0.30853878499E+03  0.45035360154E+03  0.56020545287E+03  0.00000000000E+00 0. -1.
         -2    1    5    5    0  503 -0.27572837088E+02 -0.47279567377E+02  0.26981760875E+02  0.61021588446E+02  0.00000000000E+00 0.  1.
         -1    1    6    6    0  502  0.72687436078E+02  0.37717687896E+02  0.73519448930E+02  0.11005088239E+03  0.00000000000E+00 0.  1.
<mgrwt>
<rscale>  0 0.22199127E+04</rscale>
<asrwt>0</asrwt>
<pdfrwt beam="1">  1        2 0.20512305E+00 0.22199127E+04</pdfrwt>
<pdfrwt beam="2">  1       -2 0.14215778E+00 0.22199127E+04</pdfrwt>
<totfact> 0.49800160E+00</totfact>
</mgrwt>
</event>
<event>
12    1  0.1477245E-007  0.3490201E+04  0.7818608E-02  0.8116116E-01
          2   -1    0    0  501    0  0.00000000000E+00  0.00000000000E+00  0.15001020288E+04  0.15001020288E+04  0.00000000000E+00 0. -1.
         -2   -1    0    0    0  501 -0.00000000000E+00 -0.00000000000E+00 -0.20301128645E+04  0.20301128645E+04  0.00000000000E+00 0.  1.
         23    2    1    2    0    0  0.13512260775E+04  0.14287566333E+03  0.65521315687E+03  0.15112940055E+04  0.92086493673E+02 0.  0.
        254    2    1    2    0    0 -0.13512260775E+04 -0.14287566333E+03 -0.11852239926E+04  0.20189208878E+04  0.90832828347E+03 0.  0.
        -24    2    4    4    0    0  0.11375799734E+02 -0.21734204654E+03 -0.34003089107E+03  0.41183440458E+03  0.81360899091E+02 0.  0.
         24    2    4    4    0    0 -0.13626018773E+04  0.74466383209E+02 -0.84519310157E+03  0.16070864832E+04  0.78399409016E+02 0.  0.
         13    1    3    3    0    0  0.75819759507E+03  0.98024737262E+02  0.41508039683E+03  0.86992193794E+03  0.00000000000E+00 0. -1.
        -13    1    3    3    0    0  0.59302848248E+03  0.44850926066E+02  0.24013276004E+03  0.64137206756E+03  0.00000000000E+00 0.  1.
          2    1    6    6  502    0 -0.84796369792E+03  0.32225404756E+02 -0.56667911842E+03  0.10203950867E+04  0.00000000000E+00 0. -1.
          3    1    5    5  503    0  0.44842627533E+02 -0.13264930375E+03 -0.22658722247E+03  0.26636153704E+03  0.00000000000E+00 0. -1.
         -4    1    5    5    0  503 -0.33466827798E+02 -0.84692742791E+02 -0.11344366860E+03  0.14547286754E+03  0.00000000000E+00 0.  1.
         -1    1    6    6    0  502 -0.51463817936E+03  0.42240978453E+02 -0.27851398315E+03  0.58669139650E+03  0.00000000000E+00 0.  1.
<mgrwt>
<rscale>  0 0.34902014E+04</rscale>
<asrwt>0</asrwt>
<pdfrwt beam="1">  1        2 0.23078493E+00 0.34902014E+04</pdfrwt>
<pdfrwt beam="2">  1       -2 0.31232506E+00 0.34902014E+04</pdfrwt>
<totfact> 0.27864978E-01</totfact>
</mgrwt>
</event>
<event>
12    1  0.1477245E-007  0.1738012E+04  0.7818608E-02  0.8739977E-01
          1   -1    0    0  501    0  0.00000000000E+00  0.00000000000E+00  0.57306355224E+03  0.57306355224E+03  0.00000000000E+00 0. -1.
         -1   -1    0    0    0  501 -0.00000000000E+00 -0.00000000000E+00 -0.13177798808E+04  0.13177798808E+04  0.00000000000E+00 0.  1.
         23    2    1    2    0    0  0.18030026099E+03  0.60468543471E+03 -0.21722689631E+03  0.67345495432E+03  0.90561536829E+02 0.  0.
        254    2    1    2    0    0 -0.18030026099E+03 -0.60468543471E+03 -0.52748943223E+03  0.12173884787E+04  0.89757280925E+03 0.  0.
        -24    2    4    4    0    0 -0.22910829164E+03  0.11478233377E+03  0.70470653708E+02  0.27713059996E+03  0.78547202096E+02 0.  0.
         24    2    4    4    0    0  0.48808030654E+02 -0.71946776848E+03 -0.59796008593E+03  0.94025787874E+03  0.80700188461E+02 0.  0.
         13    1    3    3    0    0 -0.95394435066E+01  0.56942127453E+02 -0.21004419639E+02  0.61437712406E+02  0.00000000000E+00 0.  1.
        -13    1    3    3    0    0  0.18983970450E+03  0.54774330726E+03 -0.19622247667E+03  0.61201724192E+03  0.00000000000E+00 0. -1.
          2    1    6    6  502    0  0.16806084059E+02 -0.38680141170E+02 -0.20113903928E+02  0.46724371730E+02  0.00000000000E+00 0. -1.
          3    1    5    5  503    0 -0.96517635872E+01  0.23778753174E+02  0.23825759072E+02  0.35017887404E+02  0.00000000000E+00 0. -1.
         -4    1    5    5    0  503 -0.21945652806E+03  0.91003580596E+02  0.46644894635E+02  0.24211271256E+03  0.00000000000E+00 0.  1.
         -3    1    6    6    0  502  0.32001946595E+02 -0.68078762731E+03 -0.57784618201E+03  0.89353350701E+03  0.00000000000E+00 0.  1.
<mgrwt>
<rscale>  0 0.17380122E+04</rscale>
<asrwt>0</asrwt>
<pdfrwt beam="1">  1        1 0.88163623E-01 0.17380122E+04</pdfrwt>
<pdfrwt beam="2">  1       -1 0.20273537E+00 0.17380122E+04</pdfrwt>
<totfact> 0.50009469E+00</totfact>
</mgrwt>
</event>
<event>
12    1  0.1477245E-007  0.1802281E+04  0.7818608E-02  0.8705087E-01
          1   -1    0    0  501    0  0.00000000000E+00  0.00000000000E+00  0.12509795059E+04  0.12509795059E+04  0.00000000000E+00 0. -1.
         -1   -1    0    0    0  501 -0.00000000000E+00 -0.00000000000E+00 -0.64913475744E+03  0.64913475744E+03  0.00000000000E+00 0.  1.
         23    2    1    2    0    0  0.39872260041E+03 -0.19050745099E+03 -0.30298230737E+03  0.54372405121E+03  0.92546011940E+02 0.  0.
        254    2    1    2    0    0 -0.39872260041E+03  0.19050745099E+03  0.90482705580E+03  0.13563902121E+04  0.90874067014E+03 0.  0.
        -24    2    4    4    0    0  0.41442759879E+02 -0.19066225858E+03 -0.66755694171E+02  0.22082033701E+03  0.78966444399E+02 0.  0.
         24    2    4    4    0    0 -0.44016536029E+03  0.38116970957E+03  0.97158274997E+03  0.11355698751E+04  0.80684628240E+02 0.  0.
         11    1    3    3    0    0  0.28382983775E+02  0.68192672257E+00  0.10671792818E+00  0.28391375112E+02  0.00000000000E+00 0. -1.
        -11    1    3    3    0    0  0.37033961664E+03 -0.19118937771E+03 -0.30308902530E+03  0.51533267610E+03  0.00000000000E+00 0.  1.
          2    1    6    6  502    0 -0.11295647769E+03  0.10504727865E+03  0.32967333974E+03  0.36397610847E+03  0.00000000000E+00 0. -1.
          3    1    5    5  503    0  0.73269810948E+01 -0.44832296646E+02  0.17849261212E+02  0.48807946078E+02  0.00000000000E+00 0. -1.
         -4    1    5    5    0  503  0.34115778785E+02 -0.14582996194E+03 -0.84604955383E+02  0.17201239094E+03  0.00000000000E+00 0.  1.
         -1    1    6    6    0  502 -0.32720888260E+03  0.27612243092E+03  0.64190941023E+03  0.77159376660E+03  0.00000000000E+00 0.  1.
<mgrwt>
<rscale>  0 0.18022811E+04</rscale>
<asrwt>0</asrwt>
<pdfrwt beam="1">  1        1 0.19245839E+00 0.18022811E+04</pdfrwt>
<pdfrwt beam="2">  1       -1 0.99866886E-01 0.18022811E+04</pdfrwt>
<totfact> 0.88495849E+00</totfact>
</mgrwt>
</event>
<event>
12    1  0.1477245E-007  0.1404042E+04  0.7818608E-02  0.8950898E-01
          2   -1    0    0  501    0  0.00000000000E+00  0.00000000000E+00  0.10955446826E+04  0.10955446826E+04  0.00000000000E+00 0. -1.
         -2   -1    0    0    0  501 -0.00000000000E+00 -0.00000000000E+00 -0.44985254317E+03  0.44985254317E+03  0.00000000000E+00 0.  1.
         23    2    1    2    0    0 -0.38745037845E+03 -0.11406037305E+03  0.10811422951E+03  0.42782365941E+03  0.90646745496E+02 0.  0.
        254    2    1    2    0    0  0.38745037845E+03  0.11406037305E+03  0.53757790996E+03  0.11175735664E+04  0.89266628848E+03 0.  0.
        -24    2    4    4    0    0  0.42178044446E+03  0.44889676602E+03  0.42922107004E+03  0.75497587373E+03  0.79691863289E+02 0.  0.
         24    2    4    4    0    0 -0.34330066019E+02 -0.33483639297E+03  0.10835683992E+03  0.36259769267E+03  0.80261562903E+02 0.  0.
         13    1    3    3    0    0 -0.71422078992E+02 -0.11616284134E+02 -0.14318668785E+02  0.73763647553E+02  0.00000000000E+00 0.  1.
        -13    1    3    3    0    0 -0.31602829945E+03 -0.10244408891E+03  0.12243289830E+03  0.35406001186E+03  0.00000000000E+00 0. -1.
          2    1    6    6  502    0 -0.30636341480E+01 -0.22646041647E+03  0.37970214881E+02  0.22964198941E+03  0.00000000000E+00 0. -1.
          3    1    5    5  503    0  0.32783013810E+03  0.37320708192E+03  0.37654244035E+03  0.62333003684E+03  0.00000000000E+00 0. -1.
         -4    1    5    5    0  503  0.93950306361E+02  0.75689684100E+02  0.52678629691E+02  0.13164583689E+03  0.00000000000E+00 0.  1.
         -1    1    6    6    0  502 -0.31266431871E+02 -0.10837597650E+03  0.70386625038E+02  0.13295570326E+03  0.00000000000E+00 0.  1.
<mgrwt>
<rscale>  0 0.14040421E+04</rscale>
<asrwt>0</asrwt>
<pdfrwt beam="1">  1        2 0.16854533E+00 0.14040421E+04</pdfrwt>
<pdfrwt beam="2">  1       -2 0.69208084E-01 0.14040421E+04</pdfrwt>
<totfact> 0.40661145E+01</totfact>
</mgrwt>
</event>
<event>
12    1  0.1477245E-007  0.1116482E+04  0.7818608E-02  0.9189275E-01
          1   -1    0    0  501    0  0.00000000000E+00  0.00000000000E+00  0.57306440413E+03  0.57306440413E+03  0.00000000000E+00 0. -1.
         -1   -1    0    0    0  501 -0.00000000000E+00 -0.00000000000E+00 -0.54380065798E+03  0.54380065798E+03  0.00000000000E+00 0.  1.
         23    2    1    2    0    0 -0.32758392475E+02  0.13392502890E+03  0.11861223515E+03  0.20298063728E+03  0.90129080425E+02 0.  0.
        254    2    1    2    0    0  0.32758392475E+02 -0.13392502890E+03 -0.89348488998E+02  0.91388442483E+03  0.89899530800E+03 0.  0.
        -24    2    4    4    0    0  0.32143372768E+02  0.52457273339E+02 -0.47107578394E+03  0.48178330937E+03  0.80111179170E+02 0.  0.
         24    2    4    4    0    0  0.61501970755E+00 -0.18638230224E+03  0.38172729494E+03  0.43210111546E+03  0.79100603280E+02 0.  0.
         13    1    3    3    0    0  0.34628683610E+01  0.46056410479E+01  0.53361570951E+02  0.53671786267E+02  0.00000000000E+00 0.  1.
        -13    1    3    3    0    0 -0.36221260836E+02  0.12931938785E+03  0.65250664201E+02  0.14930885101E+03  0.00000000000E+00 0. -1.
          2    1    6    6  502    0  0.14720101976E+02 -0.13546708576E+03  0.33468005027E+03  0.36135681642E+03  0.00000000000E+00 0. -1.
          3    1    5    5  503    0 -0.83741197389E+01  0.29714820471E+02 -0.36080309252E+03  0.36212148239E+03  0.00000000000E+00 0. -1.
         -4    1    5    5    0  503  0.40517492507E+02  0.22742452868E+02 -0.11027269142E+03  0.11966182697E+03  0.00000000000E+00 0.  1.
         -1    1    6    6    0  502 -0.14105082269E+02 -0.50915216480E+02  0.47047244677E+02  0.70744299040E+02  0.00000000000E+00 0.  1.
<mgrwt>
<rscale>  0 0.11164816E+04</rscale>
<asrwt>0</asrwt>
<pdfrwt beam="1">  1        1 0.88163755E-01 0.11164816E+04</pdfrwt>
<pdfrwt beam="2">  1       -1 0.83661639E-01 0.11164816E+04</pdfrwt>
<totfact> 0.51637479E+01</totfact>
</mgrwt>
</event>
<event>
12    1  0.1477245E-007  0.1529145E+04  0.7818608E-02  0.8865300E-01
          2   -1    0    0  501    0  0.00000000000E+00  0.00000000000E+00  0.42585717048E+03  0.42585717048E+03  0.00000000000E+00 0. -1.
         -2   -1    0    0    0  501 -0.00000000000E+00 -0.00000000000E+00 -0.13726928337E+04  0.13726928337E+04  0.00000000000E+00 0.  1.
         23    2    1    2    0    0 -0.10421823789E+03  0.47546858933E+03 -0.26294486495E+03  0.56052222799E+03  0.90074111253E+02 0.  0.
        254    2    1    2    0    0  0.10421823789E+03 -0.47546858933E+03 -0.68389079825E+03  0.12380277762E+04  0.90998589554E+03 0.  0.
        -24    2    4    4    0    0 -0.25957711772E+03  0.14529931929E+03 -0.19418521991E+03  0.36396072180E+03  0.79166502716E+02 0.  0.
         24    2    4    4    0    0  0.36379535561E+03 -0.62076790862E+03 -0.48970557834E+03  0.87406705437E+03  0.80509657352E+02 0.  0.
         11    1    3    3    0    0 -0.94012817247E+02  0.41855359815E+03 -0.26205807699E+03  0.50269270936E+03  0.00000000000E+00 0.  1.
        -11    1    3    3    0    0 -0.10205420644E+02  0.56914991181E+02 -0.88678795809E+00  0.57829518626E+02  0.00000000000E+00 0. -1.
          4    1    6    6  502    0  0.32522338145E+03 -0.56493574115E+03 -0.46924386092E+03  0.80318891955E+03  0.00000000000E+00 0. -1.
          1    1    5    5  503    0 -0.23858712920E+03  0.12299875190E+03 -0.14255677562E+03  0.30393246859E+03  0.00000000000E+00 0. -1.
         -2    1    5    5    0  503 -0.20989988528E+02  0.22300567389E+02 -0.51628444289E+02  0.60028253214E+02  0.00000000000E+00 0.  1.
         -3    1    6    6    0  502  0.38571974163E+02 -0.55832167468E+02 -0.20461717418E+02  0.70878134814E+02  0.00000000000E+00 0.  1.
<mgrwt>
<rscale>  0 0.15291450E+04</rscale>
<asrwt>0</asrwt>
<pdfrwt beam="1">  1        2 0.65516488E-01 0.15291450E+04</pdfrwt>
<pdfrwt beam="2">  1       -2 0.21118351E+00 0.15291450E+04</pdfrwt>
<totfact> 0.80277863E+00</totfact>
</mgrwt>
</event>
<event>
12    1  0.1477245E-007  0.1768510E+04  0.7818608E-02  0.8723227E-01
          1   -1    0    0  501    0  0.00000000000E+00  0.00000000000E+00  0.27428312018E+04  0.27428312018E+04  0.00000000000E+00 0. -1.
         -1   -1    0    0    0  501 -0.00000000000E+00 -0.00000000000E+00 -0.28507285750E+03  0.28507285750E+03  0.00000000000E+00 0.  1.
         23    2    1    2    0    0 -0.47532888812E+03 -0.17306592766E+03  0.15985435006E+04  0.16792426166E+04  0.92871279900E+02 0.  0.
        254    2    1    2    0    0  0.47532888812E+03  0.17306592766E+03  0.85921484364E+03  0.13486614427E+04  0.90815646910E+03 0.  0.
        -24    2    4    4    0    0  0.69793451383E+03  0.27518880628E+03  0.76341930120E+03  0.10736076564E+04  0.83563782130E+02 0.  0.
         24    2    4    4    0    0 -0.22260562572E+03 -0.10212287862E+03  0.95795542445E+02  0.27505378635E+03  0.80594370131E+02 0.  0.
         11    1    3    3    0    0 -0.31213005600E+03 -0.89441764107E+02  0.11416084267E+04  0.11868844935E+04  0.00000000000E+00 0. -1.
        -11    1    3    3    0    0 -0.16319883212E+03 -0.83624163553E+02  0.45693507396E+03  0.49235812307E+03  0.00000000000E+00 0.  1.
          4    1    6    6  502    0  0.62432824814E+01  0.42586607433E+00  0.60489102400E+01  0.87034046871E+01  0.00000000000E+00 0. -1.
          1    1    5    5  503    0  0.17142237205E+03  0.35647315273E+02  0.20508846842E+03  0.26966208596E+03  0.00000000000E+00 0. -1.
         -2    1    5    5    0  503  0.52651214178E+03  0.23954149101E+03  0.55833083277E+03  0.80394557041E+03  0.00000000000E+00 0.  1.
         -3    1    6    6    0  502 -0.22884890820E+03 -0.10254874469E+03  0.89746632205E+02  0.26635038167E+03  0.00000000000E+00 0.  1.
<mgrwt>
<rscale>  0 0.17685098E+04</rscale>
<asrwt>0</asrwt>
<pdfrwt beam="1">  1        1 0.42197401E+00 0.17685098E+04</pdfrwt>
<pdfrwt beam="2">  1       -1 0.43857365E-01 0.17685098E+04</pdfrwt>
<totfact> 0.44587560E+00</totfact>
</mgrwt>
</event>
<event>
12    1  0.1477245E-007  0.1756360E+04  0.7818608E-02  0.8729857E-01
          2   -1    0    0  501    0  0.00000000000E+00  0.00000000000E+00  0.13149607790E+04  0.13149607790E+04  0.00000000000E+00 0. -1.
         -2   -1    0    0    0  501 -0.00000000000E+00 -0.00000000000E+00 -0.58648162563E+03  0.58648162563E+03  0.00000000000E+00 0.  1.
         23    2    1    2    0    0  0.62861435914E+03 -0.16930286956E+03  0.31276850629E+03  0.72814532616E+03  0.92477042146E+02 0.  0.
        254    2    1    2    0    0 -0.62861435914E+03  0.16930286956E+03  0.41571064704E+03  0.11732970784E+04  0.88317111482E+03 0.  0.
        -24    2    4    4    0    0 -0.60609736396E+03  0.17184194917E+03  0.65895652565E+03  0.91518056296E+03  0.80300000152E+02 0.  0.
         24    2    4    4    0    0 -0.22516995181E+02 -0.25390796081E+01 -0.24324587861E+03  0.25811651548E+03  0.83319362139E+02 0.  0.
         13    1    3    3    0    0  0.28611649014E+03 -0.74162475057E+02  0.91384856173E+02  0.30937664840E+03  0.00000000000E+00 0.  1.
        -13    1    3    3    0    0  0.34249786900E+03 -0.95140394506E+02  0.22138365011E+03  0.41876867776E+03  0.00000000000E+00 0. -1.
          2    1    6    6  502    0  0.13226713506E+02 -0.45987122926E+01 -0.19025974411E+01  0.14132019741E+02  0.00000000000E+00 0. -1.
          1    1    5    5  503    0 -0.41792451598E+03  0.15647581048E+03  0.45914398581E+03  0.64028023554E+03  0.00000000000E+00 0. -1.
         -2    1    5    5    0  503 -0.18817284798E+03  0.15366138694E+02  0.19981253984E+03  0.27490032742E+03  0.00000000000E+00 0.  1.
         -1    1    6    6    0  502 -0.35743708688E+02  0.20596326845E+01 -0.24134328117E+03  0.24398449574E+03  0.00000000000E+00 0.  1.
<mgrwt>
<rscale>  0 0.17563603E+04</rscale>
<asrwt>0</asrwt>
<pdfrwt beam="1">  1        2 0.20230166E+00 0.17563603E+04</pdfrwt>
<pdfrwt beam="2">  1       -2 0.90227943E-01 0.17563603E+04</pdfrwt>
<totfact> 0.16128941E+01</totfact>
</mgrwt>
</event>
<event>
12    1  0.1477245E-007  0.1617861E+04  0.7818608E-02  0.8809650E-01
          2   -1    0    0  501    0  0.00000000000E+00  0.00000000000E+00  0.37415282698E+03  0.37415282698E+03  0.00000000000E+00 0. -1.
         -2   -1    0    0    0  501 -0.00000000000E+00 -0.00000000000E+00 -0.17489342185E+04  0.17489342185E+04  0.00000000000E+00 0.  1.
         23    2    1    2    0    0  0.14678584905E+02  0.85033486495E+02 -0.12017555591E+04  0.12081618195E+04  0.89400243241E+02 0.  0.
        254    2    1    2    0    0 -0.14678584905E+02 -0.85033486495E+02 -0.17302583236E+03  0.91492522596E+03  0.89426174901E+03 0.  0.
        -24    2    4    4    0    0  0.32499634080E+03  0.22517456470E+03  0.33320118491E+02  0.40474464283E+03  0.79886103176E+02 0.  0.
         24    2    4    4    0    0 -0.33967492570E+03 -0.31020805120E+03 -0.20634595086E+03  0.51018058313E+03  0.78086399502E+02 0.  0.
         13    1    3    3    0    0  0.32543310362E+02  0.84215258435E+02 -0.11472580966E+04  0.11508051169E+04  0.00000000000E+00 0.  1.
        -13    1    3    3    0    0 -0.17864725457E+02  0.81822805960E+00 -0.54497462491E+02  0.57356702579E+02  0.00000000000E+00 0. -1.
          2    1    6    6  502    0 -0.30544410499E+03 -0.24137805744E+03 -0.18014677782E+03  0.42896658313E+03  0.00000000000E+00 0. -1.
          1    1    5    5  503    0  0.29911533016E+03  0.21737153868E+03  0.49784410498E+02  0.37309362645E+03  0.00000000000E+00 0. -1.
         -2    1    5    5    0  503  0.25881010639E+02  0.78030260196E+01 -0.16464292007E+02  0.31651016383E+02  0.00000000000E+00 0.  1.
         -1    1    6    6    0  502 -0.34230820716E+02 -0.68829993758E+02 -0.26199173032E+02  0.81213999995E+02  0.00000000000E+00 0.  1.
<mgrwt>
<rscale>  0 0.16178612E+04</rscale>
<asrwt>0</asrwt>
<pdfrwt beam="1">  1        2 0.57561972E-01 0.16178612E+04</pdfrwt>
<pdfrwt beam="2">  1       -2 0.26906681E+00 0.16178612E+04</pdfrwt>
<totfact> 0.40363345E+00</totfact>
</mgrwt>
</event>
<event>
12    1  0.1477245E-007  0.3486831E+04  0.7818608E-02  0.8116918E-01
          1   -1    0    0  501    0  0.00000000000E+00  0.00000000000E+00  0.15068268966E+04  0.15068268966E+04  0.00000000000E+00 0. -1.
         -1   -1    0    0    0  501 -0.00000000000E+00 -0.00000000000E+00 -0.20171515504E+04  0.20171515504E+04  0.00000000000E+00 0.  1.
         23    2    1    2    0    0  0.22786482218E+03  0.11108569230E+04 -0.14205704107E+04  0.18199541557E+04  0.91034919934E+02 0.  0.
        254    2    1    2    0    0 -0.22786482218E+03 -0.11108569230E+04  0.91024575686E+03  0.17040242913E+04  0.88838390738E+03 0.  0.
        -24    2    4    4    0    0  0.17403921161E+03  0.34354263637E+02  0.25961896154E+03  0.32463718093E+03  0.80730610305E+02 0.  0.
         24    2    4    4    0    0 -0.40190403379E+03 -0.11452111866E+04  0.65062679532E+03  0.13793871104E+04  0.79737438582E+02 0.  0.
         11    1    3    3    0    0  0.51341899205E+02  0.33856666573E+03 -0.36964871981E+03  0.50388843390E+03  0.00000000000E+00 0. -1.
        -11    1    3    3    0    0  0.17652292298E+03  0.77229025725E+03 -0.10509216909E+04  0.13160657218E+04  0.00000000000E+00 0.  1.
          2    1    6    6  502    0 -0.32124830067E+03 -0.96331933352E+03  0.51511466857E+03  0.11386517162E+04  0.00000000000E+00 0. -1.
          3    1    5    5  503    0  0.16974277021E+03  0.51249167133E+02  0.23996436358E+03  0.29836551570E+03  0.00000000000E+00 0. -1.
         -4    1    5    5    0  503  0.42964414042E+01 -0.16894903496E+02  0.19654597961E+02  0.26271665229E+02  0.00000000000E+00 0.  1.
         -1    1    6    6    0  502 -0.80655733124E+02 -0.18189185310E+03  0.13551212675E+03  0.24073539417E+03  0.00000000000E+00 0.  1.
<mgrwt>
<rscale>  0 0.34868313E+04</rscale>
<asrwt>0</asrwt>
<pdfrwt beam="1">  1        1 0.23181952E+00 0.34868313E+04</pdfrwt>
<pdfrwt beam="2">  1       -1 0.31033101E+00 0.34868313E+04</pdfrwt>
<totfact> 0.14951344E-01</totfact>
</mgrwt>
</event>
<event>
12    1  0.1477245E-007  0.1754867E+04  0.7818608E-02  0.8730676E-01
          2   -1    0    0  501    0  0.00000000000E+00  0.00000000000E+00  0.23455053425E+04  0.23455053425E+04  0.00000000000E+00 0. -1.
         -2   -1    0    0    0  501 -0.00000000000E+00 -0.00000000000E+00 -0.32824021419E+03  0.32824021419E+03  0.00000000000E+00 0.  1.
         23    2    1    2    0    0 -0.56820881499E+03 -0.10952683315E+03  0.33348822982E+03  0.67451194050E+03  0.94311048263E+02 0.  0.
        254    2    1    2    0    0  0.56820881499E+03  0.10952683315E+03  0.16837768985E+04  0.19992336162E+04  0.90938057140E+03 0.  0.
        -24    2    4    4    0    0  0.76938436131E+03  0.25652349570E+03  0.13198551671E+04  0.15511734014E+04  0.79778818278E+02 0.  0.
         24    2    4    4    0    0 -0.20117554632E+03 -0.14699666254E+03  0.36392173140E+03  0.44806021480E+03  0.78989304779E+02 0.  0.
         13    1    3    3    0    0 -0.46656825811E+03 -0.78206926362E+02  0.30998046506E+03  0.56558832336E+03  0.00000000000E+00 0.  1.
        -13    1    3    3    0    0 -0.10164055688E+03 -0.31319906791E+02  0.23507764763E+02  0.10892361713E+03  0.00000000000E+00 0. -1.
          2    1    6    6  502    0 -0.19709040598E+03 -0.12996345406E+03  0.29983631498E+03  0.38162408638E+03  0.00000000000E+00 0. -1.
          3    1    5    5  503    0  0.53289279015E+03  0.18380485374E+03  0.84575800214E+03  0.10163983216E+04  0.00000000000E+00 0. -1.
         -4    1    5    5    0  503  0.23649157116E+03  0.72718641957E+02  0.47409716496E+03  0.53477507977E+03  0.00000000000E+00 0.  1.
         -1    1    6    6    0  502 -0.40851403350E+01 -0.17033208483E+02  0.64085416416E+02  0.66436128425E+02  0.00000000000E+00 0.  1.
<mgrwt>
<rscale>  0 0.17548666E+04</rscale>
<asrwt>0</asrwt>
<pdfrwt beam="1">  1        2 0.36084697E+00 0.17548666E+04</pdfrwt>
<pdfrwt beam="2">  1       -2 0.50498496E-01 0.17548666E+04</pdfrwt>
<totfact> 0.15018515E+01</totfact>
</mgrwt>
</event>
<event>
12    1  0.1477245E-007  0.2379277E+04  0.7818608E-02  0.8447303E-01
          1   -1    0    0  501    0  0.00000000000E+00  0.00000000000E+00  0.14981323767E+04  0.14981323767E+04  0.00000000000E+00 0. -1.
         -1   -1    0    0    0  501 -0.00000000000E+00 -0.00000000000E+00 -0.94466946443E+03  0.94466946443E+03  0.00000000000E+00 0.  1.
         23    2    1    2    0    0  0.76528198837E+03  0.47865902584E+03 -0.24435733159E+03  0.94032081869E+03  0.98598944320E+02 0.  0.
        254    2    1    2    0    0 -0.76528198837E+03 -0.47865902584E+03  0.79782024384E+03  0.15024810224E+04  0.89786474287E+03 0.  0.
        -24    2    4    4    0    0 -0.73390423167E+03 -0.44883523884E+03  0.97544282043E+03  0.13030415996E+04  0.79750996275E+02 0.  0.
         24    2    4    4    0    0 -0.31377756708E+02 -0.29823786997E+02 -0.17762257659E+03  0.19943942284E+03  0.79701203124E+02 0.  0.
         13    1    3    3    0    0  0.73106058725E+03  0.44934992586E+03 -0.25258477858E+03  0.89451886982E+03  0.00000000000E+00 0.  1.
        -13    1    3    3    0    0  0.34221401127E+02  0.29309099975E+02  0.82274469884E+01  0.45801948871E+02  0.00000000000E+00 0. -1.
          2    1    6    6  502    0 -0.27153265164E+02 -0.25344024126E+01 -0.16799603654E+03  0.17019515651E+03  0.00000000000E+00 0. -1.
          1    1    5    5  503    0 -0.35008547208E+03 -0.18896179063E+03  0.50124210226E+03  0.63992971580E+03  0.00000000000E+00 0. -1.
         -2    1    5    5    0  503 -0.38381875959E+03 -0.25987344821E+03  0.47420071817E+03  0.66311188378E+03  0.00000000000E+00 0.  1.
         -1    1    6    6    0  502 -0.42244915441E+01 -0.27289384584E+02 -0.96265400498E+01  0.29244266329E+02  0.00000000000E+00 0.  1.
<mgrwt>
<rscale>  0 0.23792771E+04</rscale>
<asrwt>0</asrwt>
<pdfrwt beam="1">  1        1 0.23048190E+00 0.23792771E+04</pdfrwt>
<pdfrwt beam="2">  1       -1 0.14533376E+00 0.23792771E+04</pdfrwt>
<totfact> 0.22368706E+00</totfact>
</mgrwt>
</event>
<event>
12    1  0.1477245E-007  0.1388042E+04  0.7818608E-02  0.8962520E-01
          1   -1    0    0  501    0  0.00000000000E+00  0.00000000000E+00  0.25941543148E+04  0.25941543148E+04  0.00000000000E+00 0. -1.
         -1   -1    0    0    0  501 -0.00000000000E+00 -0.00000000000E+00 -0.18567323920E+03  0.18567323920E+03  0.00000000000E+00 0.  1.
         23    2    1    2    0    0  0.18621939891E+03  0.21944427127E+03  0.11654865904E+04  0.12040676891E+04  0.92663665216E+02 0.  0.
        254    2    1    2    0    0 -0.18621939891E+03 -0.21944427127E+03  0.12429944853E+04  0.15757598649E+04  0.92474342867E+03 0.  0.
        -24    2    4    4    0    0  0.27872548032E+03 -0.23794207220E+03  0.94622329711E+03  0.10179178013E+04  0.80708111033E+02 0.  0.
         24    2    4    4    0    0 -0.46494487923E+03  0.18497800928E+02  0.29677118815E+03  0.55784206361E+03  0.81232508607E+02 0.  0.
         11    1    3    3    0    0  0.28434975602E+01 -0.56503907068E+01  0.57737995028E+01  0.85644120763E+01  0.00000000000E+00 0.  1.
        -11    1    3    3    0    0  0.18337590135E+03  0.22509466197E+03  0.11597127909E+04  0.11955032770E+04  0.00000000000E+00 0. -1.
          4    1    6    6  502    0 -0.23414377097E+03  0.49916709353E+02  0.14821070302E+03  0.28156952222E+03  0.00000000000E+00 0. -1.
          1    1    5    5  503    0  0.10757234820E+03 -0.11293252085E+03  0.30482828412E+03  0.34241180932E+03  0.00000000000E+00 0. -1.
         -2    1    5    5    0  503  0.17115313212E+03 -0.12500955134E+03  0.64139501299E+03  0.67550599202E+03  0.00000000000E+00 0.  1.
         -3    1    6    6    0  502 -0.23080110826E+03 -0.31418908424E+02  0.14856048513E+03  0.27627254139E+03  0.00000000000E+00 0.  1.
<mgrwt>
<rscale>  0 0.13880418E+04</rscale>
<asrwt>0</asrwt>
<pdfrwt beam="1">  1        1 0.39910064E+00 0.13880418E+04</pdfrwt>
<pdfrwt beam="2">  1       -1 0.28565116E-01 0.13880418E+04</pdfrwt>
<totfact> 0.12694775E+01</totfact>
</mgrwt>
</event>
<event>
12    1  0.1477245E-007  0.1488460E+04  0.7818608E-02  0.8892163E-01
         -2   -1    0    0    0  501 -0.00000000000E+00  0.00000000000E+00  0.36746393254E+03  0.36746393254E+03  0.00000000000E+00 0.  1.
          2   -1    0    0  501    0  0.00000000000E+00 -0.00000000000E+00 -0.15072999917E+04  0.15072999917E+04  0.00000000000E+00 0. -1.
         23    2    1    2    0    0 -0.37637183523E+03 -0.26084279267E+03 -0.42104444413E+03  0.62985804263E+03  0.98732006396E+02 0.  0.
        254    2    1    2    0    0  0.37637183523E+03  0.26084279267E+03 -0.71879161498E+03  0.12449058816E+04  0.90743294373E+03 0.  0.
        -24    2    4    4    0    0  0.36950627373E+03 -0.10397194983E+03 -0.77360171066E+03  0.86725817030E+03  0.79574333481E+02 0.  0.
         24    2    4    4    0    0  0.68655615011E+01  0.36481474250E+03  0.54810095678E+02  0.37764771127E+03  0.80478040221E+02 0.  0.
         13    1    3    3    0    0 -0.81800155696E+02 -0.96765499645E+02 -0.15598922266E+03  0.20096632797E+03  0.00000000000E+00 0.  1.
        -13    1    3    3    0    0 -0.29457167953E+03 -0.16407729303E+03 -0.26505522148E+03  0.42889171466E+03  0.00000000000E+00 0. -1.
          4    1    6    6  502    0  0.96136640680E+01  0.36541876058E+03  0.46034952341E+02  0.36843250394E+03  0.00000000000E+00 0. -1.
          1    1    5    5  503    0  0.35722263358E+03 -0.95858002119E+02 -0.69497882807E+03  0.78726891084E+03  0.00000000000E+00 0. -1.
         -2    1    5    5    0  503  0.12283640147E+02 -0.81139477065E+01 -0.78622882587E+02  0.79989259460E+02  0.00000000000E+00 0.  1.
         -3    1    6    6    0  502 -0.27481025669E+01 -0.60401808047E+00  0.87751433367E+01  0.92152073303E+01  0.00000000000E+00 0.  1.
<mgrwt>
<rscale>  0 0.14884601E+04</rscale>
<asrwt>0</asrwt>
<pdfrwt beam="1">  1        2 0.23189230E+00 0.14884601E+04</pdfrwt>
<pdfrwt beam="2">  1       -2 0.56532914E-01 0.14884601E+04</pdfrwt>
<totfact> 0.35688948E+01</totfact>
</mgrwt>
</event>
<event>
12    1  0.1477245E-007  0.2579260E+04  0.7818608E-02  0.8375280E-01
         -2   -1    0    0    0  501 -0.00000000000E+00  0.00000000000E+00  0.65705659945E+03  0.65705659945E+03  0.00000000000E+00 0.  1.
          2   -1    0    0  501    0  0.00000000000E+00 -0.00000000000E+00 -0.25312067593E+04  0.25312067593E+04  0.00000000000E+00 0. -1.
         23    2    1    2    0    0 -0.10368442345E+03 -0.21569511453E+03 -0.21765476322E+04  0.21915658065E+04  0.91248271380E+02 0.  0.
        254    2    1    2    0    0  0.10368442345E+03  0.21569511453E+03  0.30239747234E+03  0.99669755223E+03  0.91906851608E+03 0.  0.
        -24    2    4    4    0    0  0.13890636710E+03 -0.14228411203E+03  0.52423887342E+03  0.56626617759E+03  0.79317338105E+02 0.  0.
         24    2    4    4    0    0 -0.35221943646E+02  0.35797922655E+03 -0.22184140107E+03  0.43043137464E+03  0.81656898601E+02 0.  0.
         13    1    3    3    0    0 -0.41923756213E+02 -0.11591040506E+03 -0.14873575407E+04  0.14924561224E+04  0.00000000000E+00 0. -1.
        -13    1    3    3    0    0 -0.61760667240E+02 -0.99784709464E+02 -0.68919009146E+03  0.69910968412E+03  0.00000000000E+00 0.  1.
          2    1    6    6  502    0  0.10242011456E+02  0.27442094211E+01 -0.45792350559E+01  0.11549843190E+02  0.00000000000E+00 0. -1.
          1    1    5    5  503    0  0.33596553691E+02 -0.84370649594E+02  0.17924246991E+03  0.20093530788E+03  0.00000000000E+00 0. -1.
         -2    1    5    5    0  503  0.10530981341E+03 -0.57913462434E+02  0.34499640350E+03  0.36533086971E+03  0.00000000000E+00 0.  1.
         -1    1    6    6    0  502 -0.45463955102E+02  0.35523501713E+03 -0.21726216602E+03  0.41888153145E+03  0.00000000000E+00 0.  1.
<mgrwt>
<rscale>  0 0.25792604E+04</rscale>
<asrwt>0</asrwt>
<pdfrwt beam="1">  1        2 0.38941643E+00 0.25792604E+04</pdfrwt>
<pdfrwt beam="2">  1       -2 0.10108563E+00 0.25792604E+04</pdfrwt>
<totfact> 0.23811393E+00</totfact>
</mgrwt>
</event>
<event>
12    1  0.1477245E-007  0.2148961E+04  0.7818608E-02  0.8539977E-01
         -1   -1    0    0    0  501 -0.00000000000E+00  0.00000000000E+00  0.47205291200E+03  0.47205291200E+03  0.00000000000E+00 0.  1.
          1   -1    0    0  501    0  0.00000000000E+00 -0.00000000000E+00 -0.24457185249E+04  0.24457185249E+04  0.00000000000E+00 0. -1.
         23    2    1    2    0    0  0.69560582390E+03 -0.53614273439E+03 -0.72939204908E+03  0.11453977859E+04  0.92773018253E+02 0.  0.
        254    2    1    2    0    0 -0.69560582390E+03  0.53614273439E+03 -0.12442735638E+04  0.17723736509E+04  0.90651815372E+03 0.  0.
        -24    2    4    4    0    0 -0.26622572070E+03  0.35769117561E+03 -0.12644030934E+02  0.45334451406E+03  0.80884271861E+02 0.  0.
         24    2    4    4    0    0 -0.42938010320E+03  0.17845155877E+03 -0.12316295328E+04  0.13190291368E+04  0.81940989838E+02 0.  0.
         11    1    3    3    0    0  0.44023573545E+03 -0.33883825958E+03 -0.51834154893E+03  0.75980052005E+03  0.00000000000E+00 0. -1.
        -11    1    3    3    0    0  0.25537008846E+03 -0.19730447481E+03 -0.21105050015E+03  0.38559726590E+03  0.00000000000E+00 0.  1.
          2    1    6    6  502    0 -0.51004916755E+02 -0.56042111544E+01 -0.14122882462E+03  0.15026140429E+03  0.00000000000E+00 0. -1.
          3    1    5    5  503    0 -0.76935188186E+02  0.83484411635E+02  0.30011823488E+02  0.11742818962E+03  0.00000000000E+00 0. -1.
         -4    1    5    5    0  503 -0.18929053252E+03  0.27420676398E+03 -0.42655854422E+02  0.33591632444E+03  0.00000000000E+00 0.  1.
         -1    1    6    6    0  502 -0.37837518644E+03  0.18405576993E+03 -0.10904007082E+04  0.11687677326E+04  0.00000000000E+00 0.  1.
<mgrwt>
<rscale>  0 0.21489612E+04</rscale>
<asrwt>0</asrwt>
<pdfrwt beam="1">  1        1 0.37626439E+00 0.21489612E+04</pdfrwt>
<pdfrwt beam="2">  1       -1 0.72623525E-01 0.21489612E+04</pdfrwt>
<totfact> 0.25870780E+00</totfact>
</mgrwt>
</event>
<event>
12    1  0.1477245E-007  0.1661161E+04  0.7818608E-02  0.8783831E-01
         -1   -1    0    0    0  501 -0.00000000000E+00  0.00000000000E+00  0.58908160403E+03  0.58908160403E+03  0.00000000000E+00 0.  1.
          1   -1    0    0  501    0  0.00000000000E+00 -0.00000000000E+00 -0.11710845674E+04  0.11710845674E+04  0.00000000000E+00 0. -1.
         23    2    1    2    0    0 -0.11355306531E+03 -0.22710768927E+03  0.34659138652E+03  0.43882359129E+03  0.89265636720E+02 0.  0.
        254    2    1    2    0    0  0.11355306531E+03  0.22710768927E+03 -0.92859434987E+03  0.13213425801E+04  0.90508924769E+03 0.  0.
        -24    2    4    4    0    0 -0.17641117160E+02  0.48851644447E+03 -0.88620795726E+03  0.10151743799E+04  0.79088257651E+02 0.  0.
         24    2    4    4    0    0  0.13119418247E+03 -0.26140875521E+03 -0.42386392613E+02  0.30616820026E+03  0.79974431904E+02 0.  0.
         11    1    3    3    0    0 -0.11732235093E+03 -0.23190496811E+03  0.34593992969E+03  0.43268797443E+03  0.00000000000E+00 0.  1.
        -11    1    3    3    0    0  0.37692856180E+01  0.47972788401E+01  0.65145683354E+00  0.61356168676E+01  0.00000000000E+00 0. -1.
          4    1    6    6  502    0  0.66968393443E+02 -0.14166392529E+03 -0.62704892150E+02  0.16877599636E+03  0.00000000000E+00 0. -1.
          1    1    5    5  503    0  0.43788259308E+01  0.34999289307E+03 -0.56435965197E+03  0.66409036741E+03  0.00000000000E+00 0. -1.
         -2    1    5    5    0  503 -0.22019943091E+02  0.13852355141E+03 -0.32184830528E+03  0.35108401245E+03  0.00000000000E+00 0.  1.
         -3    1    6    6    0  502  0.64225789027E+02 -0.11974482991E+03  0.20318499537E+02  0.13739220389E+03  0.00000000000E+00 0.  1.
<mgrwt>
<rscale>  0 0.16611615E+04</rscale>
<asrwt>0</asrwt>
<pdfrwt beam="1">  1        1 0.18016686E+00 0.16611615E+04</pdfrwt>
<pdfrwt beam="2">  1       -1 0.90627938E-01 0.16611615E+04</pdfrwt>
<totfact> 0.12745123E+01</totfact>
</mgrwt>
</event>
<event>
12    1  0.1477245E-007  0.1357922E+04  0.7818608E-02  0.8984852E-01
          2   -1    0    0  501    0  0.00000000000E+00  0.00000000000E+00  0.33190186123E+04  0.33190186123E+04  0.00000000000E+00 0. -1.
         -2   -1    0    0    0  501 -0.00000000000E+00 -0.00000000000E+00 -0.13889297673E+03  0.13889297673E+03  0.00000000000E+00 0.  1.
         23    2    1    2    0    0  0.12922236379E+03  0.17321109564E+03  0.16823300848E+04  0.16985135565E+04  0.89516950661E+02 0.  0.
        254    2    1    2    0    0 -0.12922236379E+03 -0.17321109564E+03  0.14977955508E+04  0.17593980325E+04  0.89743491241E+03 0.  0.
        -24    2    4    4    0    0  0.23289920127E+03  0.22737920345E+03  0.84481380138E+03  0.90886623159E+03  0.79900737250E+02 0.  0.
         24    2    4    4    0    0 -0.36212156506E+03 -0.40059029908E+03  0.65298174940E+03  0.85053180095E+03  0.73583719512E+02 0.  0.
         13    1    3    3    0    0  0.31619636962E+02  0.16141815346E+02  0.55343401110E+03  0.55457151413E+03  0.00000000000E+00 0.  1.
        -13    1    3    3    0    0  0.97602726832E+02  0.15706928029E+03  0.11288960737E+04  0.11439420424E+04  0.00000000000E+00 0. -1.
          4    1    6    6  502    0 -0.83708544841E+02 -0.50830966207E+02  0.12020911529E+03  0.15505205256E+03  0.00000000000E+00 0. -1.
          3    1    5    5  503    0  0.11980573445E+03  0.81787653694E+02  0.29058942828E+03  0.32478431325E+03  0.00000000000E+00 0. -1.
         -4    1    5    5    0  503  0.11309346681E+03  0.14559154975E+03  0.55422437310E+03  0.58408191835E+03  0.00000000000E+00 0.  1.
         -3    1    6    6    0  502 -0.27841302022E+03 -0.34975933288E+03  0.53277263411E+03  0.69547974839E+03  0.00000000000E+00 0.  1.
<mgrwt>
<rscale>  0 0.13579225E+04</rscale>
<asrwt>0</asrwt>
<pdfrwt beam="1">  1        2 0.51061819E+00 0.13579225E+04</pdfrwt>
<pdfrwt beam="2">  1       -2 0.21368153E-01 0.13579225E+04</pdfrwt>
<totfact> 0.20388796E+01</totfact>
</mgrwt>
</event>
<event>
12    1  0.1477245E-007  0.1306243E+04  0.7818608E-02  0.9024629E-01
          1   -1    0    0  501    0  0.00000000000E+00  0.00000000000E+00  0.39760904902E+03  0.39760904902E+03  0.00000000000E+00 0. -1.
         -1   -1    0    0    0  501 -0.00000000000E+00 -0.00000000000E+00 -0.10728321428E+04  0.10728321428E+04  0.00000000000E+00 0.  1.
         23    2    1    2    0    0  0.30913622868E+03  0.11526898037E+03 -0.24583275625E+03  0.42129722041E+03  0.90583984027E+02 0.  0.
        254    2    1    2    0    0 -0.30913622868E+03 -0.11526898037E+03 -0.42939033757E+03  0.10491439715E+04  0.89859605225E+03 0.  0.
        -24    2    4    4    0    0 -0.25796318680E+03  0.29793193688E+03 -0.47497194176E+03  0.62270116692E+03  0.82764443241E+02 0.  0.
         24    2    4    4    0    0 -0.51173041876E+02 -0.41320091725E+03  0.45581604190E+02  0.42644280453E+03  0.80138035033E+02 0.  0.
         11    1    3    3    0    0  0.99869462975E+02  0.12903405997E+02 -0.33603774517E+02  0.10615847203E+03  0.00000000000E+00 0. -1.
        -11    1    3    3    0    0  0.20926676570E+03  0.10236557438E+03 -0.21222898173E+03  0.31513874838E+03  0.00000000000E+00 0.  1.
          2    1    6    6  502    0 -0.54236410130E+02 -0.24928409209E+03  0.59323139900E+02  0.26192247266E+03  0.00000000000E+00 0. -1.
          1    1    5    5  503    0 -0.94347003684E+02  0.82043986823E+02 -0.20592758312E+03  0.24091231261E+03  0.00000000000E+00 0. -1.
         -2    1    5    5    0  503 -0.16361618312E+03  0.21588795006E+03 -0.26904435864E+03  0.38178885431E+03  0.00000000000E+00 0.  1.
         -1    1    6    6    0  502  0.30633682533E+01 -0.16391682516E+03 -0.13741535710E+02  0.16452033187E+03  0.00000000000E+00 0.  1.
<mgrwt>
<rscale>  0 0.13062431E+04</rscale>
<asrwt>0</asrwt>
<pdfrwt beam="1">  1        1 0.61170622E-01 0.13062431E+04</pdfrwt>
<pdfrwt beam="2">  1       -1 0.16505110E+00 0.13062431E+04</pdfrwt>
<totfact> 0.15902142E+01</totfact>
</mgrwt>
</event>
<event>
12    1  0.1477245E-007  0.2248266E+04  0.7818608E-02  0.8498603E-01
          1   -1    0    0  501    0  0.00000000000E+00  0.00000000000E+00  0.16604115002E+04  0.16604115002E+04  0.00000000000E+00 0. -1.
         -1   -1    0    0    0  501 -0.00000000000E+00 -0.00000000000E+00 -0.76106118065E+03  0.76106118065E+03  0.00000000000E+00 0.  1.
         23    2    1    2    0    0 -0.52202913385E+03  0.60333325374E+03 -0.19879952298E+03  0.82717177684E+03  0.90368503404E+02 0.  0.
        254    2    1    2    0    0  0.52202913385E+03 -0.60333325374E+03  0.10981498425E+04  0.15943009040E+04  0.83626363322E+03 0.  0.
        -24    2    4    4    0    0 -0.13876614701E+03 -0.13959770045E+03 -0.19188779833E+02  0.21345967495E+03  0.80332197969E+02 0.  0.
         24    2    4    4    0    0  0.66079528086E+03 -0.46373555329E+03  0.11173386224E+04  0.13808412291E+04  0.81091530246E+02 0.  0.
         11    1    3    3    0    0 -0.93076088240E+02  0.60510749808E+02 -0.30989735372E+02  0.11526088991E+03  0.00000000000E+00 0. -1.
        -11    1    3    3    0    0 -0.42895304561E+03  0.54282250393E+03 -0.16780978761E+03  0.71191088693E+03  0.00000000000E+00 0.  1.
          4    1    6    6  502    0  0.41252974751E+03 -0.24133112597E+03  0.66847514154E+03  0.82175453744E+03  0.00000000000E+00 0. -1.
          1    1    5    5  503    0 -0.41634465059E+02 -0.97963969579E+02 -0.16743028714E+02  0.10775294440E+03  0.00000000000E+00 0. -1.
         -2    1    5    5    0  503 -0.97131681950E+02 -0.41633730875E+02 -0.24457511189E+01  0.10570673055E+03  0.00000000000E+00 0.  1.
         -3    1    6    6    0  502  0.24826553334E+03 -0.22240442732E+03  0.44886348084E+03  0.55908669164E+03  0.00000000000E+00 0.  1.
<mgrwt>
<rscale>  0 0.22482658E+04</rscale>
<asrwt>0</asrwt>
<pdfrwt beam="1">  1        1 0.25544792E+00 0.22482658E+04</pdfrwt>
<pdfrwt beam="2">  1       -1 0.11708634E+00 0.22482658E+04</pdfrwt>
<totfact> 0.30268767E+00</totfact>
</mgrwt>
</event>
<event>
12    1  0.1477245E-007  0.1171582E+04  0.7818608E-02  0.9138101E-01
         -2   -1    0    0    0  501 -0.00000000000E+00  0.00000000000E+00  0.83324268225E+03  0.83324268225E+03  0.00000000000E+00 0.  1.
          2   -1    0    0  501    0  0.00000000000E+00 -0.00000000000E+00 -0.41182608182E+03  0.41182608182E+03  0.00000000000E+00 0. -1.
         23    2    1    2    0    0 -0.19241457466E+03 -0.84433854739E+02  0.43337174242E+01  0.23365602143E+03  0.10209755567E+03 0.  0.
        254    2    1    2    0    0  0.19241457466E+03  0.84433854739E+02  0.41708288301E+03  0.10114127426E+04  0.89713162932E+03 0.  0.
        -24    2    4    4    0    0  0.50553796552E+03 -0.11785223190E+03  0.32951819368E+03  0.62006835166E+03  0.80279123139E+02 0.  0.
         24    2    4    4    0    0 -0.31312339087E+03  0.20228608664E+03  0.87564689329E+02  0.39134439099E+03  0.80727559020E+02 0.  0.
         11    1    3    3    0    0 -0.11679008369E+03 -0.39143614342E+02 -0.46780338482E+02  0.13175942570E+03  0.00000000000E+00 0. -1.
        -11    1    3    3    0    0 -0.75624490968E+02 -0.45290240397E+02  0.51114055906E+02  0.10189659573E+03  0.00000000000E+00 0.  1.
          4    1    6    6  502    0 -0.13318198448E+03  0.66155692483E+02 -0.16413350262E+01  0.14871688075E+03  0.00000000000E+00 0. -1.
          1    1    5    5  503    0  0.11630085902E+03  0.48857723021E+01  0.59785898409E+02  0.13085913888E+03  0.00000000000E+00 0. -1.
         -2    1    5    5    0  503  0.38923710651E+03 -0.12273800420E+03  0.26973229527E+03  0.48920921278E+03  0.00000000000E+00 0.  1.
         -3    1    6    6    0  502 -0.17994140639E+03  0.13613039416E+03  0.89206024356E+02  0.24262751024E+03  0.00000000000E+00 0.  1.
<mgrwt>
<rscale>  0 0.11715820E+04</rscale>
<asrwt>0</asrwt>
<pdfrwt beam="1">  1        2 0.63357859E-01 0.11715820E+04</pdfrwt>
<pdfrwt beam="2">  1       -2 0.12819118E+00 0.11715820E+04</pdfrwt>
<totfact> 0.34203664E+01</totfact>
</mgrwt>
</event>
<event>
12    1  0.1477245E-007  0.1440684E+04  0.7818608E-02  0.8924885E-01
         -2   -1    0    0    0  501 -0.00000000000E+00  0.00000000000E+00  0.40962359730E+03  0.40962359730E+03  0.00000000000E+00 0.  1.
          2   -1    0    0  501    0  0.00000000000E+00 -0.00000000000E+00 -0.12667550724E+04  0.12667550724E+04  0.00000000000E+00 0. -1.
         23    2    1    2    0    0 -0.28249787857E+02 -0.20333522283E+03  0.17930959709E+03  0.28754990993E+03  0.91595609788E+02 0.  0.
        254    2    1    2    0    0  0.28249787857E+02  0.20333522283E+03 -0.10364410722E+04  0.13888287598E+04  0.90138336157E+03 0.  0.
        -24    2    4    4    0    0  0.29732996701E+03 -0.19689315146E+03 -0.19170008522E+03  0.41286171254E+03  0.80832225177E+02 0.  0.
         24    2    4    4    0    0 -0.26908017916E+03  0.40022837429E+03 -0.84474098701E+03  0.97596704728E+03  0.79608088970E+02 0.  0.
         11    1    3    3    0    0  0.30934252858E+01  0.30287204018E+01  0.31470900852E+02  0.31767279199E+02  0.00000000000E+00 0. -1.
        -11    1    3    3    0    0 -0.31343213143E+02 -0.20636394323E+03  0.14783869624E+03  0.25578263073E+03  0.00000000000E+00 0.  1.
          2    1    6    6  502    0 -0.21938636140E+03  0.28651416416E+03 -0.57194611224E+03  0.67627146705E+03  0.00000000000E+00 0. -1.
          1    1    5    5  503    0  0.26026258939E+03 -0.13810681488E+03 -0.16946299906E+03  0.33989383019E+03  0.00000000000E+00 0. -1.
         -2    1    5    5    0  503  0.37067377624E+02 -0.58786336582E+02 -0.22237086156E+02  0.72967882341E+02  0.00000000000E+00 0.  1.
         -1    1    6    6    0  502 -0.49693817761E+02  0.11371421013E+03 -0.27279487477E+03  0.29969558023E+03  0.00000000000E+00 0.  1.
<mgrwt>
<rscale>  0 0.14406842E+04</rscale>
<asrwt>0</asrwt>
<pdfrwt beam="1">  1        2 0.19488540E+00 0.14406842E+04</pdfrwt>
<pdfrwt beam="2">  1       -2 0.63019015E-01 0.14406842E+04</pdfrwt>
<totfact> 0.39145379E+01</totfact>
</mgrwt>
</event>
<event>
12    1  0.1477245E-007  0.1940382E+04  0.7818608E-02  0.8635013E-01
         -2   -1    0    0    0  501 -0.00000000000E+00  0.00000000000E+00  0.98711288063E+03  0.98711288063E+03  0.00000000000E+00 0. -1.
          2   -1    0    0  501    0  0.00000000000E+00 -0.00000000000E+00 -0.95355919961E+03  0.95355919961E+03  0.00000000000E+00 0.  1.
         23    2    1    2    0    0  0.45144980510E+03  0.27605177047E+03  0.55387662683E+03  0.77149924468E+03  0.91761976264E+02 0.  0.
        254    2    1    2    0    0 -0.45144980510E+03 -0.27605177047E+03 -0.52032294581E+03  0.11691728356E+04  0.90344764373E+03 0.  0.
        -24    2    4    4    0    0  0.11519713938E+01 -0.28380066687E+03  0.17022749440E+03  0.33943397208E+03  0.75457776251E+02 0.  0.
         24    2    4    4    0    0 -0.45260177649E+03  0.77488964059E+01 -0.69055044021E+03  0.82973886348E+03  0.81842883674E+02 0.  0.
         13    1    3    3    0    0  0.43382923009E+03  0.26679434620E+03  0.55267862697E+03  0.75155883918E+03  0.00000000000E+00 0. -1.
        -13    1    3    3    0    0  0.17620575005E+02  0.92574242701E+01  0.11979998617E+01  0.19940405495E+02  0.00000000000E+00 0.  1.
          4    1    6    6  502    0 -0.39751857193E+03  0.94858210794E+01 -0.64732938739E+03  0.75970147532E+03  0.00000000000E+00 0. -1.
          3    1    5    5  503    0 -0.28345884819E+02 -0.18515478389E+03  0.84651908551E+02  0.20555225323E+03  0.00000000000E+00 0. -1.
         -4    1    5    5    0  503  0.29497856213E+02 -0.98645882979E+02  0.85575585850E+02  0.13388171885E+03  0.00000000000E+00 0.  1.
         -3    1    6    6    0  502 -0.55083204563E+02 -0.17369246735E+01 -0.43221052820E+02  0.70037388152E+02  0.00000000000E+00 0.  1.
<mgrwt>
<rscale>  0 0.19403820E+04</rscale>
<asrwt>0</asrwt>
<pdfrwt beam="1">  1        2 0.14670142E+00 0.19403820E+04</pdfrwt>
<pdfrwt beam="2">  1       -2 0.15186352E+00 0.19403820E+04</pdfrwt>
<totfact> 0.73078460E+00</totfact>
</mgrwt>
</event>
<event>
12    1  0.1477245E-007  0.2057025E+04  0.7818608E-02  0.8580414E-01
          2   -1    0    0  501    0  0.00000000000E+00  0.00000000000E+00  0.11576099340E+04  0.11576099340E+04  0.00000000000E+00 0. -1.
         -2   -1    0    0    0  501 -0.00000000000E+00 -0.00000000000E+00 -0.91381211784E+03  0.91381211784E+03  0.00000000000E+00 0.  1.
         23    2    1    2    0    0 -0.57296358522E+03 -0.49666386507E+03  0.43765086390E+03  0.88059738445E+03  0.94610834294E+02 0.  0.
        254    2    1    2    0    0  0.57296358522E+03  0.49666386507E+03 -0.19385304777E+03  0.11908246674E+04  0.89750884085E+03 0.  0.
        -24    2    4    4    0    0  0.54315114899E+03  0.48032365606E+03 -0.49204355200E+03  0.88041622775E+03  0.85451107646E+02 0.  0.
         24    2    4    4    0    0  0.29812436233E+02  0.16340209018E+02  0.29819050423E+03  0.31040843961E+03  0.79246695718E+02 0.  0.
         13    1    3    3    0    0 -0.51590404034E+03 -0.47084315339E+03  0.42197684427E+03  0.81603597411E+03  0.00000000000E+00 0. -1.
        -13    1    3    3    0    0 -0.57059544885E+02 -0.25820711680E+02  0.15674019628E+02  0.64561410343E+02  0.00000000000E+00 0.  1.
          2    1    6    6  502    0  0.52098943956E+02  0.26935314558E+02  0.24256868323E+03  0.24955836435E+03  0.00000000000E+00 0. -1.
          3    1    5    5  503    0  0.12845270574E+03  0.14262029829E+03 -0.16814585734E+03  0.25517381613E+03  0.00000000000E+00 0. -1.
         -4    1    5    5    0  503  0.41469844325E+03  0.33770335777E+03 -0.32389769465E+03  0.62524241162E+03  0.00000000000E+00 0.  1.
         -1    1    6    6    0  502 -0.22286507723E+02 -0.10595105540E+02  0.55621820999E+02  0.60850075260E+02  0.00000000000E+00 0.  1.
<mgrwt>
<rscale>  0 0.20570250E+04</rscale>
<asrwt>0</asrwt>
<pdfrwt beam="1">  1        2 0.17809384E+00 0.20570250E+04</pdfrwt>
<pdfrwt beam="2">  1       -2 0.14058648E+00 0.20570250E+04</pdfrwt>
<totfact> 0.66003293E+00</totfact>
</mgrwt>
</event>
<event>
12    1  0.1477245E-007  0.1567777E+04  0.7818608E-02  0.8840592E-01
          1   -1    0    0  501    0  0.00000000000E+00  0.00000000000E+00  0.10427228403E+04  0.10427228403E+04  0.00000000000E+00 0. -1.
         -1   -1    0    0    0  501 -0.00000000000E+00 -0.00000000000E+00 -0.58930417866E+03  0.58930417866E+03  0.00000000000E+00 0.  1.
         23    2    1    2    0    0 -0.39962792349E+03  0.27165872978E+03 -0.41032203717E+02  0.49397675869E+03  0.93959851407E+02 0.  0.
        254    2    1    2    0    0  0.39962792349E+03 -0.27165872978E+03  0.49445086538E+03  0.11380502603E+04  0.90397776189E+03 0.  0.
        -24    2    4    4    0    0 -0.64036144095E+02 -0.26522068153E+02 -0.22236563110E+03  0.24627274114E+03  0.79998383019E+02 0.  0.
         24    2    4    4    0    0  0.46366406759E+03 -0.24513666163E+03  0.71681649648E+03  0.89177751916E+03  0.79780345923E+02 0.  0.
         13    1    3    3    0    0 -0.11927843677E+03  0.93699821918E+02 -0.55716949778E+02  0.16159016244E+03  0.00000000000E+00 0. -1.
        -13    1    3    3    0    0 -0.28034948673E+03  0.17795890787E+03  0.14684746062E+02  0.33238659625E+03  0.00000000000E+00 0.  1.
          4    1    6    6  502    0  0.42421927909E+03 -0.21948869620E+03  0.60763038709E+03  0.77288548429E+03  0.00000000000E+00 0. -1.
          3    1    5    5  503    0 -0.27842830586E+02  0.12502333899E+02 -0.18760468791E+02  0.35825783414E+02  0.00000000000E+00 0. -1.
         -4    1    5    5    0  503 -0.36193313509E+02 -0.39024402051E+02 -0.20360516231E+03  0.21044695773E+03  0.00000000000E+00 0.  1.
         -3    1    6    6    0  502  0.39444788497E+02 -0.25647965433E+02  0.10918610939E+03  0.11889203487E+03  0.00000000000E+00 0.  1.
<mgrwt>
<rscale>  0 0.15677767E+04</rscale>
<asrwt>0</asrwt>
<pdfrwt beam="1">  1        1 0.16041890E+00 0.15677767E+04</pdfrwt>
<pdfrwt beam="2">  1       -1 0.90662182E-01 0.15677767E+04</pdfrwt>
<totfact> 0.16032460E+01</totfact>
</mgrwt>
</event>
<event>
12    1  0.1477245E-007  0.1336069E+04  0.7818608E-02  0.9001441E-01
         -2   -1    0    0    0  501 -0.00000000000E+00  0.00000000000E+00  0.12361364155E+04  0.12361364155E+04  0.00000000000E+00 0.  1.
          2   -1    0    0  501    0  0.00000000000E+00 -0.00000000000E+00 -0.36102028686E+03  0.36102028686E+03  0.00000000000E+00 0. -1.
         23    2    1    2    0    0 -0.19505345273E+03  0.11832852750E+03  0.58291382620E+03  0.63228568757E+03  0.89158129702E+02 0.  0.
        254    2    1    2    0    0  0.19505345273E+03 -0.11832852750E+03  0.29220230240E+03  0.96487101474E+03  0.89081221350E+03 0.  0.
        -24    2    4    4    0    0  0.21962037874E+03 -0.37567477421E+03 -0.13242381507E+03  0.46161313072E+03  0.78650930844E+02 0.  0.
         24    2    4    4    0    0 -0.24566926006E+02  0.25734624671E+03  0.42462611747E+03  0.50325788402E+03  0.78297724418E+02 0.  0.
         11    1    3    3    0    0 -0.20390865080E+03  0.11590088967E+03  0.54597078167E+03  0.59421868747E+03  0.00000000000E+00 0.  1.
        -11    1    3    3    0    0  0.88551980615E+01  0.24276378298E+01  0.36943044528E+02  0.38067000106E+02  0.00000000000E+00 0. -1.
          2    1    6    6  502    0  0.27804761503E+01  0.10062577637E+03  0.10076399381E+03  0.14243124786E+03  0.00000000000E+00 0. -1.
          1    1    5    5  503    0  0.63009135320E+02 -0.52337272044E+02 -0.12509145728E+02  0.82860243214E+02  0.00000000000E+00 0. -1.
         -2    1    5    5    0  503  0.15661124342E+03 -0.32333750217E+03 -0.11991466934E+03  0.37875288751E+03  0.00000000000E+00 0.  1.
         -1    1    6    6    0  502 -0.27347402156E+02  0.15672047033E+03  0.32386212365E+03  0.36082663616E+03  0.00000000000E+00 0.  1.
<mgrwt>
<rscale>  0 0.13360693E+04</rscale>
<asrwt>0</asrwt>
<pdfrwt beam="1">  1        2 0.55541583E-01 0.13360693E+04</pdfrwt>
<pdfrwt beam="2">  1       -2 0.19017483E+00 0.13360693E+04</pdfrwt>
<totfact> 0.13474639E+01</totfact>
</mgrwt>
</event>
<event>
12    1  0.1477245E-007  0.1532825E+04  0.7818608E-02  0.8862913E-01
         -2   -1    0    0    0  501 -0.00000000000E+00  0.00000000000E+00  0.69505820349E+03  0.69505820349E+03  0.00000000000E+00 0.  1.
          2   -1    0    0  501    0  0.00000000000E+00 -0.00000000000E+00 -0.84509219736E+03  0.84509219736E+03  0.00000000000E+00 0. -1.
         23    2    1    2    0    0  0.13972823962E+03 -0.10296733621E+03  0.41859104514E+03  0.46206142808E+03  0.90310835344E+02 0.  0.
        254    2    1    2    0    0 -0.13972823962E+03  0.10296733621E+03 -0.56862503901E+03  0.10780889728E+04  0.89934150630E+03 0.  0.
        -24    2    4    4    0    0 -0.23046142632E+03  0.18908017543E+03 -0.76858569306E+03  0.82879318884E+03  0.85500880235E+02 0.  0.
         24    2    4    4    0    0  0.90733186707E+02 -0.86112839223E+02  0.19996065406E+03  0.24929578393E+03  0.80722936425E+02 0.  0.
         13    1    3    3    0    0  0.13004248221E+03 -0.11941638226E+03  0.37598224702E+03  0.41537208573E+03  0.00000000000E+00 0.  1.
        -13    1    3    3    0    0  0.96857574100E+01  0.16449046044E+02  0.42608798113E+02  0.46689342349E+02  0.00000000000E+00 0. -1.
          4    1    6    6  502    0  0.94165683715E+02 -0.90183041089E+02  0.20434506710E+03  0.24239856299E+03  0.00000000000E+00 0. -1.
          3    1    5    5  503    0 -0.99543825643E+02  0.13648297496E+03 -0.40810746283E+03  0.44168798591E+03  0.00000000000E+00 0. -1.
         -4    1    5    5    0  503 -0.13091760068E+03  0.52597200477E+02 -0.36047823023E+03  0.38710520293E+03  0.00000000000E+00 0.  1.
         -3    1    6    6    0  502 -0.34324970073E+01  0.40702018662E+01 -0.43844130468E+01  0.68972209404E+01  0.00000000000E+00 0.  1.
<mgrwt>
<rscale>  0 0.15328252E+04</rscale>
<asrwt>0</asrwt>
<pdfrwt beam="1">  1        2 0.13001418E+00 0.15328252E+04</pdfrwt>
<pdfrwt beam="2">  1       -2 0.10693203E+00 0.15328252E+04</pdfrwt>
<totfact> 0.21694942E+01</totfact>
</mgrwt>
</event>
<event>
12    1  0.1477245E-007  0.3934335E+04  0.7818608E-02  0.8017926E-01
          1   -1    0    0  501    0  0.00000000000E+00  0.00000000000E+00  0.13821339220E+04  0.13821339220E+04  0.00000000000E+00 0. -1.
         -1   -1    0    0    0  501 -0.00000000000E+00 -0.00000000000E+00 -0.27998360135E+04  0.27998360135E+04  0.00000000000E+00 0.  1.
         23    2    1    2    0    0  0.36235625630E+03  0.10388758643E+04 -0.22734347482E+04  0.25272730200E+04  0.89656264908E+02 0.  0.
        254    2    1    2    0    0 -0.36235625630E+03 -0.10388758643E+04  0.85573265667E+03  0.16546969155E+04  0.89172775255E+03 0.  0.
        -24    2    4    4    0    0  0.13841666951E+03 -0.17790882264E+03 -0.11137309531E+03  0.26413550588E+03  0.80949833450E+02 0.  0.
         24    2    4    4    0    0 -0.50077292581E+03 -0.86096704164E+03  0.96710575198E+03  0.13905614096E+04  0.79559590489E+02 0.  0.
         11    1    3    3    0    0  0.83400523708E+02  0.21063497601E+03 -0.39182067319E+03  0.45259935972E+03  0.00000000000E+00 0. -1.
        -11    1    3    3    0    0  0.27895573259E+03  0.82824088828E+03 -0.18816140750E+04  0.20746736603E+04  0.00000000000E+00 0.  1.
          2    1    6    6  502    0 -0.34828364178E+03 -0.66566701011E+03  0.71756902184E+03  0.10389029621E+04  0.00000000000E+00 0. -1.
          1    1    5    5  503    0  0.12437547346E+02 -0.61760162937E+01 -0.35365012007E+02  0.37993681520E+02  0.00000000000E+00 0. -1.
         -2    1    5    5    0  503  0.12597912216E+03 -0.17173280635E+03 -0.76008083307E+02  0.22614182436E+03  0.00000000000E+00 0.  1.
         -1    1    6    6    0  502 -0.15248928403E+03 -0.19530003153E+03  0.24953673014E+03  0.35165844757E+03  0.00000000000E+00 0.  1.
<mgrwt>
<rscale>  0 0.39343352E+04</rscale>
<asrwt>0</asrwt>
<pdfrwt beam="1">  1        1 0.21263599E+00 0.39343352E+04</pdfrwt>
<pdfrwt beam="2">  1       -1 0.43074400E+00 0.39343352E+04</pdfrwt>
<totfact> 0.27337586E-02</totfact>
</mgrwt>
</event>
<event>
12    1  0.1477245E-007  0.1387081E+04  0.7818608E-02  0.8963224E-01
          2   -1    0    0  501    0  0.00000000000E+00  0.00000000000E+00  0.12123408174E+04  0.12123408174E+04  0.00000000000E+00 0. -1.
         -2   -1    0    0    0  501 -0.00000000000E+00 -0.00000000000E+00 -0.39675160908E+03  0.39675160908E+03  0.00000000000E+00 0.  1.
         23    2    1    2    0    0  0.21606723729E+03  0.33823611450E+03  0.27900335529E+03  0.49739201687E+03  0.92017530994E+02 0.  0.
        254    2    1    2    0    0 -0.21606723729E+03 -0.33823611450E+03  0.53658585299E+03  0.11117004096E+04  0.88705394584E+03 0.  0.
        -24    2    4    4    0    0 -0.92689699328E+02  0.29115917836E+03  0.96081564136E+02  0.32973158720E+03  0.78270078107E+02 0.  0.
         24    2    4    4    0    0 -0.12337753796E+03 -0.62939529285E+03  0.44050428886E+03  0.78196882237E+03  0.77915076320E+02 0.  0.
         13    1    3    3    0    0  0.35604979193E+02  0.12418889056E+03  0.62728078447E+02  0.14361548282E+03  0.00000000000E+00 0. -1.
        -13    1    3    3    0    0  0.18046225809E+03  0.21404722394E+03  0.21627527684E+03  0.35377653405E+03  0.00000000000E+00 0.  1.
          4    1    6    6  502    0 -0.57406115688E+02 -0.36606858700E+03  0.21045288066E+03  0.42613623113E+03  0.00000000000E+00 0. -1.
          1    1    5    5  503    0 -0.65219484216E+02  0.26176562686E+03  0.61522261832E+02  0.27669444018E+03  0.00000000000E+00 0. -1.
         -2    1    5    5    0  503 -0.27470215112E+02  0.29393551497E+02  0.34559302305E+02  0.53037147017E+02  0.00000000000E+00 0.  1.
         -3    1    6    6    0  502 -0.65971422269E+02 -0.26332670585E+03  0.23005140820E+03  0.35583259123E+03  0.00000000000E+00 0.  1.
<mgrwt>
<rscale>  0 0.13870806E+04</rscale>
<asrwt>0</asrwt>
<pdfrwt beam="1">  1        2 0.18651397E+00 0.13870806E+04</pdfrwt>
<pdfrwt beam="2">  1       -2 0.61038710E-01 0.13870806E+04</pdfrwt>
<totfact> 0.45306016E+01</totfact>
</mgrwt>
</event>
<event>
12    1  0.1477245E-007  0.2387077E+04  0.7818608E-02  0.8444358E-01
          1   -1    0    0  501    0  0.00000000000E+00  0.00000000000E+00  0.14934769807E+04  0.14934769807E+04  0.00000000000E+00 0. -1.
         -1   -1    0    0    0  501 -0.00000000000E+00 -0.00000000000E+00 -0.95383703103E+03  0.95383703103E+03  0.00000000000E+00 0.  1.
         23    2    1    2    0    0  0.45802145302E+03  0.48807469220E+02  0.11664730342E+04  0.12573567792E+04  0.90116092874E+02 0.  0.
        254    2    1    2    0    0 -0.45802145302E+03 -0.48807469220E+02 -0.62683308446E+03  0.11899572326E+04  0.90050690124E+03 0.  0.
        -24    2    4    4    0    0  0.18107778302E+03 -0.87802245015E+02  0.81610911352E+02  0.23174422222E+03  0.80911346223E+02 0.  0.
         24    2    4    4    0    0 -0.63909923603E+03  0.38994775794E+02 -0.70844399582E+03  0.95821301039E+03  0.79440871311E+02 0.  0.
         13    1    3    3    0    0  0.44937716109E+03  0.33754684788E+02  0.11384036746E+04  0.12243537634E+04  0.00000000000E+00 0. -1.
        -13    1    3    3    0    0  0.86442919264E+01  0.15052784432E+02  0.28069359626E+02  0.33003015800E+02  0.00000000000E+00 0.  1.
          2    1    6    6  502    0 -0.14591836138E+03  0.32016142523E+02 -0.13000247488E+03  0.19803495915E+03  0.00000000000E+00 0. -1.
          1    1    5    5  503    0  0.71947837033E+02 -0.21781175653E+02 -0.83921315291E+01  0.75639531583E+02  0.00000000000E+00 0. -1.
         -2    1    5    5    0  503  0.10912994598E+03 -0.66021069361E+02  0.90003042881E+02  0.15610469063E+03  0.00000000000E+00 0.  1.
         -1    1    6    6    0  502 -0.49318087465E+03  0.69786332713E+01 -0.57844152094E+03  0.76017805124E+03  0.00000000000E+00 0.  1.
<mgrwt>
<rscale>  0 0.23870766E+04</rscale>
<asrwt>0</asrwt>
<pdfrwt beam="1">  1        1 0.22976569E+00 0.23870766E+04</pdfrwt>
<pdfrwt beam="2">  1       -1 0.14674416E+00 0.23870766E+04</pdfrwt>
<totfact> 0.21947811E+00</totfact>
</mgrwt>
</event>
<event>
12    1  0.1477245E-007  0.1535582E+04  0.7818608E-02  0.8861130E-01
         -1   -1    0    0    0  501 -0.00000000000E+00  0.00000000000E+00  0.31036513798E+03  0.31036513798E+03  0.00000000000E+00 0.  1.
          1   -1    0    0  501    0  0.00000000000E+00 -0.00000000000E+00 -0.18993864319E+04  0.18993864319E+04  0.00000000000E+00 0. -1.
         23    2    1    2    0    0 -0.34096696000E+03 -0.35803852918E+03 -0.77189333902E+03  0.92121843018E+03  0.91509633845E+02 0.  0.
        254    2    1    2    0    0  0.34096696000E+03  0.35803852918E+03 -0.81712795493E+03  0.12885331397E+04  0.86496791923E+03 0.  0.
        -24    2    4    4    0    0  0.57067157879E+03  0.40554540757E+03 -0.42567271258E+03  0.82357359074E+03  0.83325102411E+02 0.  0.
         24    2    4    4    0    0 -0.22970461879E+03 -0.47506878391E+02 -0.39145524235E+03  0.46495954900E+03  0.89045269691E+02 0.  0.
         11    1    3    3    0    0 -0.30965841571E+03 -0.29982919283E+03 -0.71043183621E+03  0.83096285910E+03  0.00000000000E+00 0. -1.
        -11    1    3    3    0    0 -0.31308544286E+02 -0.58209336352E+02 -0.61461502812E+02  0.90255571084E+02  0.00000000000E+00 0.  1.
          2    1    6    6  502    0 -0.26620737864E+01 -0.13145725574E+02 -0.61625373970E+02  0.63068085865E+02  0.00000000000E+00 0. -1.
          3    1    5    5  503    0  0.12797297793E+02 -0.14363672054E+00  0.40164578583E+00  0.12804404776E+02  0.00000000000E+00 0. -1.
         -2    1    5    5    0  503  0.55787428100E+03  0.40568904429E+03 -0.42607435837E+03  0.81076918597E+03  0.00000000000E+00 0.  1.
         -1    1    6    6    0  502 -0.22704254500E+03 -0.34361152816E+02 -0.32982986838E+03  0.40189146313E+03  0.00000000000E+00 0.  1.
<mgrwt>
<rscale>  0 0.15355824E+04</rscale>
<asrwt>0</asrwt>
<pdfrwt beam="1">  1        1 0.29221330E+00 0.15355824E+04</pdfrwt>
<pdfrwt beam="2">  1       -1 0.47748482E-01 0.15355824E+04</pdfrwt>
<totfact> 0.14741405E+01</totfact>
</mgrwt>
</event>
<event>
12    1  0.1477245E-007  0.1397928E+04  0.7818608E-02  0.8955320E-01
         -2   -1    0    0    0  501 -0.00000000000E+00  0.00000000000E+00  0.56884449606E+03  0.56884449606E+03  0.00000000000E+00 0.  1.
          2   -1    0    0  501    0  0.00000000000E+00 -0.00000000000E+00 -0.85884776859E+03  0.85884776859E+03  0.00000000000E+00 0. -1.
         23    2    1    2    0    0 -0.12950648277E+03  0.29751687434E+03  0.15648774867E+03  0.37180743755E+03  0.92000736590E+02 0.  0.
        254    2    1    2    0    0  0.12950648277E+03 -0.29751687434E+03 -0.44649102120E+03  0.10558848271E+04  0.90013905397E+03 0.  0.
        -24    2    4    4    0    0 -0.29637003700E+03  0.13749931280E+03 -0.21738968883E+03  0.40059523679E+03  0.80479855095E+02 0.  0.
         24    2    4    4    0    0  0.42587651976E+03 -0.43501618715E+03 -0.22910133238E+03  0.65528959031E+03  0.79417463485E+02 0.  0.
         13    1    3    3    0    0 -0.19180403645E+02  0.20072492614E+02 -0.10530237808E+02  0.29693075826E+02  0.00000000000E+00 0. -1.
        -13    1    3    3    0    0 -0.11032607912E+03  0.27744438173E+03  0.16701798648E+03  0.34211436172E+03  0.00000000000E+00 0.  1.
          2    1    6    6  502    0  0.69893893239E+02 -0.36113167998E+02 -0.19727768756E+02  0.81107965546E+02  0.00000000000E+00 0. -1.
          3    1    5    5  503    0 -0.23556911786E+03  0.14246129926E+03 -0.17283313578E+03  0.32505280171E+03  0.00000000000E+00 0. -1.
         -4    1    5    5    0  503 -0.60800919139E+02 -0.49619864580E+01 -0.44556553051E+02  0.75542435078E+02  0.00000000000E+00 0.  1.
         -1    1    6    6    0  502  0.35598262652E+03 -0.39890301915E+03 -0.20937356362E+03  0.57418162476E+03  0.00000000000E+00 0.  1.
<mgrwt>
<rscale>  0 0.13979282E+04</rscale>
<asrwt>0</asrwt>
<pdfrwt beam="1">  1        2 0.13213043E+00 0.13979282E+04</pdfrwt>
<pdfrwt beam="2">  1       -2 0.87514538E-01 0.13979282E+04</pdfrwt>
<totfact> 0.34345940E+01</totfact>
</mgrwt>
</event>
<event>
12    1  0.1747207E-007  0.1802366E+04  0.7818608E-02  0.8705042E-01
          2   -1    0    0  501    0  0.00000000000E+00  0.00000000000E+00  0.11740884957E+04  0.11740884957E+04  0.00000000000E+00 0. -1.
         -2   -1    0    0    0  501 -0.00000000000E+00 -0.00000000000E+00 -0.69171201698E+03  0.69171201698E+03  0.00000000000E+00 0.  1.
         23    2    1    2    0    0 -0.50915833145E+02 -0.15162197607E+03 -0.49256089501E+03  0.53196186836E+03  0.12159584038E+03 0.  0.
        254    2    1    2    0    0  0.50915833145E+02  0.15162197607E+03  0.97493737375E+03  0.13338386443E+04  0.89612554963E+03 0.  0.
        -24    2    4    4    0    0  0.35459374304E+01  0.50700512770E+03  0.39779868318E+03  0.64941894722E+03  0.80214733547E+02 0.  0.
         24    2    4    4    0    0  0.47369895715E+02 -0.35538315164E+03  0.57713869057E+03  0.68441969712E+03  0.82463095771E+02 0.  0.
         11    1    3    3    0    0 -0.56372137239E+02 -0.16306736144E+03 -0.36447916407E+03  0.40325406788E+03  0.00000000000E+00 0. -1.
        -11    1    3    3    0    0  0.54563040941E+01  0.11445385376E+02 -0.12808173095E+03  0.12870780047E+03  0.00000000000E+00 0.  1.
          4    1    6    6  502    0 -0.27298530966E+01 -0.73457762898E+02  0.18329566888E+03  0.19748619511E+03  0.00000000000E+00 0. -1.
          1    1    5    5  503    0 -0.31318439715E+01  0.27808063803E+01  0.17035743632E+02  0.17543029723E+02  0.00000000000E+00 0. -1.
         -2    1    5    5    0  503  0.66777814019E+01  0.50422432132E+03  0.38076293955E+03  0.63187591750E+03  0.00000000000E+00 0.  1.
         -3    1    6    6    0  502  0.50099748811E+02 -0.28192538874E+03  0.39384302168E+03  0.48693350200E+03  0.00000000000E+00 0.  1.
<mgrwt>
<rscale>  0 0.18023664E+04</rscale>
<asrwt>0</asrwt>
<pdfrwt beam="1">  1        2 0.18062900E+00 0.18023664E+04</pdfrwt>
<pdfrwt beam="2">  1       -2 0.10641723E+00 0.18023664E+04</pdfrwt>
<totfact> 0.13191471E+01</totfact>
</mgrwt>
</event>
<event>
12    1  0.1477245E-007  0.1884272E+04  0.7818608E-02  0.8662725E-01
          2   -1    0    0  501    0  0.00000000000E+00  0.00000000000E+00  0.97581276649E+03  0.97581276649E+03  0.00000000000E+00 0. -1.
         -2   -1    0    0    0  501 -0.00000000000E+00 -0.00000000000E+00 -0.90962108187E+03  0.90962108187E+03  0.00000000000E+00 0.  1.
         23    2    1    2    0    0  0.48087390250E+03 -0.22843041437E+03  0.56296356675E+03  0.78004593510E+03  0.90130566758E+02 0.  0.
        254    2    1    2    0    0 -0.48087390250E+03  0.22843041437E+03 -0.49677188213E+03  0.11053879133E+04  0.83167299561E+03 0.  0.
        -24    2    4    4    0    0 -0.56481332929E+03  0.30359322435E+03 -0.63697652105E+03  0.90744197707E+03  0.80801674257E+02 0.  0.
         24    2    4    4    0    0  0.83939426790E+02 -0.75162809981E+02  0.14020463892E+03  0.19794593620E+03  0.82643677985E+02 0.  0.
         13    1    3    3    0    0  0.46784360297E+02 -0.19016609954E+02  0.20767077727E+02  0.54604755653E+02  0.00000000000E+00 0.  1.
        -13    1    3    3    0    0  0.43408954220E+03 -0.20941380441E+03  0.54219648902E+03  0.72544117944E+03  0.00000000000E+00 0. -1.
          2    1    6    6  502    0  0.32680227931E+02  0.13043727940E+02  0.20725876443E+02  0.40837459403E+02  0.00000000000E+00 0. -1.
          1    1    5    5  503    0  0.20314127029E+01  0.54062343333E+01 -0.66857890122E+01  0.88348051450E+01  0.00000000000E+00 0. -1.
         -2    1    5    5    0  503 -0.56684474199E+03  0.29818699001E+03 -0.63029073204E+03  0.89860717192E+03  0.00000000000E+00 0.  1.
         -1    1    6    6    0  502  0.51259198859E+02 -0.88206537920E+02  0.11947876248E+03  0.15710847680E+03  0.00000000000E+00 0.  1.
<mgrwt>
<rscale>  0 0.18842716E+04</rscale>
<asrwt>0</asrwt>
<pdfrwt beam="1">  1        2 0.15012504E+00 0.18842716E+04</pdfrwt>
<pdfrwt beam="2">  1       -2 0.13994171E+00 0.18842716E+04</pdfrwt>
<totfact> 0.88036981E+00</totfact>
</mgrwt>
</event>
<event>
12    1  0.1477245E-007  0.1371591E+04  0.7818608E-02  0.8974643E-01
          2   -1    0    0  501    0  0.00000000000E+00  0.00000000000E+00  0.95437635919E+03  0.95437635919E+03  0.00000000000E+00 0. -1.
         -2   -1    0    0    0  501 -0.00000000000E+00 -0.00000000000E+00 -0.49279860942E+03  0.49279860942E+03  0.00000000000E+00 0.  1.
         23    2    1    2    0    0 -0.25951990371E+02  0.33886121973E+03  0.32613463616E+03  0.47962280729E+03  0.90409094272E+02 0.  0.
        254    2    1    2    0    0  0.25951990371E+02 -0.33886121973E+03  0.13544311361E+03  0.96755216132E+03  0.89571865885E+03 0.  0.
        -24    2    4    4    0    0  0.33635956695E+03 -0.31490652053E+03  0.34719591104E+03  0.58266403648E+03  0.81538357912E+02 0.  0.
         24    2    4    4    0    0 -0.31040757658E+03 -0.23954699205E+02 -0.21175279743E+03  0.38488812484E+03  0.79830634534E+02 0.  0.
         13    1    3    3    0    0 -0.57670840257E-01  0.15153785957E+03  0.86943156308E+02  0.17470786656E+03  0.00000000000E+00 0.  1.
        -13    1    3    3    0    0 -0.25894319530E+02  0.18732336016E+03  0.23919147985E+03  0.30491494073E+03  0.00000000000E+00 0. -1.
          4    1    6    6  502    0 -0.13014517828E+03  0.19461389925E+01 -0.13419019310E+03  0.18694534712E+03  0.00000000000E+00 0. -1.
          1    1    5    5  503    0  0.31078000003E+03 -0.30910876982E+03  0.30886401771E+03  0.53621769966E+03  0.00000000000E+00 0. -1.
         -2    1    5    5    0  503  0.25579566923E+02 -0.57977507109E+01  0.38331893331E+02  0.46446336816E+02  0.00000000000E+00 0.  1.
         -3    1    6    6    0  502 -0.18026239830E+03 -0.25900838198E+02 -0.77562604335E+02  0.19794277772E+03  0.00000000000E+00 0.  1.
<mgrwt>
<rscale>  0 0.13715908E+04</rscale>
<asrwt>0</asrwt>
<pdfrwt beam="1">  1        2 0.14682713E+00 0.13715908E+04</pdfrwt>
<pdfrwt beam="2">  1       -2 0.75815171E-01 0.13715908E+04</pdfrwt>
<totfact> 0.41017176E+01</totfact>
</mgrwt>
</event>
<event>
12    1  0.1477245E-007  0.2176730E+04  0.7818608E-02  0.8528176E-01
         -1   -1    0    0    0  501 -0.00000000000E+00  0.00000000000E+00  0.10857983042E+04  0.10857983042E+04  0.00000000000E+00 0.  1.
          1   -1    0    0  501    0  0.00000000000E+00 -0.00000000000E+00 -0.10909382089E+04  0.10909382089E+04  0.00000000000E+00 0. -1.
         23    2    1    2    0    0 -0.16480006751E+03 -0.53201269599E+03  0.70150126470E+03  0.90009327588E+03  0.88697857739E+02 0.  0.
        254    2    1    2    0    0  0.16480006751E+03  0.53201269599E+03 -0.70664116937E+03  0.12766432373E+04  0.90569290715E+03 0.  0.
        -24    2    4    4    0    0  0.37308817872E+03  0.66483876535E+03 -0.36826995922E+03  0.85038973419E+03  0.79589975135E+02 0.  0.
         24    2    4    4    0    0 -0.20828811122E+03 -0.13282606936E+03 -0.33837121016E+03  0.42625350308E+03  0.78551072854E+02 0.  0.
         11    1    3    3    0    0 -0.12256544992E+01 -0.62085614571E+01 -0.20633229847E+01  0.66562576616E+01  0.00000000000E+00 0. -1.
        -11    1    3    3    0    0 -0.16357441301E+03 -0.52580413453E+03  0.70356458769E+03  0.89343701822E+03  0.00000000000E+00 0.  1.
          4    1    6    6  502    0 -0.68684190340E+01 -0.14716775656E+02 -0.63751245133E+02  0.65787384215E+02  0.00000000000E+00 0. -1.
          1    1    5    5  503    0  0.13098244415E+03  0.29339881504E+03 -0.12592192998E+03  0.34510230047E+03  0.00000000000E+00 0. -1.
         -2    1    5    5    0  503  0.24210573457E+03  0.37143995031E+03 -0.24234802923E+03  0.50528743372E+03  0.00000000000E+00 0.  1.
         -3    1    6    6    0  502 -0.20141969218E+03 -0.11810929371E+03 -0.27461996502E+03  0.36046611886E+03  0.00000000000E+00 0.  1.
<mgrwt>
<rscale>  0 0.21767304E+04</rscale>
<asrwt>0</asrwt>
<pdfrwt beam="1">  1        1 0.16783665E+00 0.21767304E+04</pdfrwt>
<pdfrwt beam="2">  1       -1 0.16704589E+00 0.21767304E+04</pdfrwt>
<totfact> 0.30448617E+00</totfact>
</mgrwt>
</event>
<event>
12    1  0.1477245E-007  0.1748053E+04  0.7818608E-02  0.8734423E-01
          2   -1    0    0  501    0  0.00000000000E+00  0.00000000000E+00  0.12231198051E+04  0.12231198051E+04  0.00000000000E+00 0. -1.
         -2   -1    0    0    0  501 -0.00000000000E+00 -0.00000000000E+00 -0.62456859439E+03  0.62456859439E+03  0.00000000000E+00 0.  1.
         23    2    1    2    0    0 -0.61559897135E+03 -0.13479836221E+03  0.17337803963E+03  0.66216680514E+03  0.10617081153E+03 0.  0.
        254    2    1    2    0    0  0.61559897135E+03  0.13479836221E+03  0.42517317109E+03  0.11855215944E+04  0.90970134292E+03 0.  0.
        -24    2    4    4    0    0 -0.13845124717E+03  0.28955361360E+03  0.95433770267E+02  0.34423685707E+03  0.79883454273E+02 0.  0.
         24    2    4    4    0    0  0.75405021852E+03 -0.15475525139E+03  0.32973940083E+03  0.84128473729E+03  0.80566847164E+02 0.  0.
         11    1    3    3    0    0 -0.60740782649E+02  0.18362322392E+02  0.17559749711E+02  0.65840431122E+02  0.00000000000E+00 0.  1.
        -11    1    3    3    0    0 -0.55485818870E+03 -0.15316068460E+03  0.15581828992E+03  0.59632637401E+03  0.00000000000E+00 0. -1.
          4    1    6    6  502    0  0.30247492861E+03 -0.10159528353E+03  0.14533211245E+03  0.35061960439E+03  0.00000000000E+00 0. -1.
          1    1    5    5  503    0 -0.12692022083E+03  0.23230704189E+03  0.48068146909E+02  0.26904618732E+03  0.00000000000E+00 0. -1.
         -2    1    5    5    0  503 -0.11531026349E+02  0.57246571712E+02  0.47365623358E+02  0.75190669751E+02  0.00000000000E+00 0.  1.
         -3    1    6    6    0  502  0.45157528991E+03 -0.53159967857E+02  0.18440728838E+03  0.49066513291E+03  0.00000000000E+00 0.  1.
<mgrwt>
<rscale>  0 0.17480529E+04</rscale>
<asrwt>0</asrwt>
<pdfrwt beam="1">  1        2 0.18817228E+00 0.17480529E+04</pdfrwt>
<pdfrwt beam="2">  1       -2 0.96087476E-01 0.17480529E+04</pdfrwt>
<totfact> 0.15787352E+01</totfact>
</mgrwt>
</event>
<event>
12    1  0.1477245E-007  0.1905960E+04  0.7818608E-02  0.8651895E-01
          1   -1    0    0  501    0  0.00000000000E+00  0.00000000000E+00  0.36724172087E+04  0.36724172087E+04  0.00000000000E+00 0. -1.
         -1   -1    0    0    0  501 -0.00000000000E+00 -0.00000000000E+00 -0.24729518979E+03  0.24729518979E+03  0.00000000000E+00 0.  1.
         23    2    1    2    0    0  0.45257245733E+03 -0.57753499266E+03  0.11958563386E+04  0.14059504013E+04  0.90860614943E+02 0.  0.
        254    2    1    2    0    0 -0.45257245733E+03  0.57753499266E+03  0.22292656803E+04  0.25137619972E+04  0.90055838704E+03 0.  0.
        -24    2    4    4    0    0 -0.61710585392E+03  0.68622416069E+03  0.15939538983E+04  0.18434983691E+04  0.77935698864E+02 0.  0.
         24    2    4    4    0    0  0.16453339658E+03 -0.10868916803E+03  0.63531178200E+03  0.67026362818E+03  0.82144367227E+02 0.  0.
         13    1    3    3    0    0  0.13879767258E+02 -0.12170919336E+02  0.66069567683E+02  0.68600050951E+02  0.00000000000E+00 0.  1.
        -13    1    3    3    0    0  0.43869269008E+03 -0.56536407332E+03  0.11297867709E+04  0.13373503503E+04  0.00000000000E+00 0. -1.
          4    1    6    6  502    0  0.30989495359E+02 -0.64851659125E+02  0.18269218647E+03  0.19632249364E+03  0.00000000000E+00 0. -1.
          3    1    5    5  503    0 -0.15753499664E+03  0.22712707344E+03  0.49179690084E+03  0.56415261617E+03  0.00000000000E+00 0. -1.
         -4    1    5    5    0  503 -0.45957085728E+03  0.45909708725E+03  0.11021569975E+04  0.12793457529E+04  0.00000000000E+00 0.  1.
         -3    1    6    6    0  502  0.13354390122E+03 -0.43837508907E+02  0.45261959554E+03  0.47394113453E+03  0.00000000000E+00 0.  1.
<mgrwt>
<rscale>  0 0.19059602E+04</rscale>
<asrwt>0</asrwt>
<pdfrwt beam="1">  1        1 0.56498722E+00 0.19059602E+04</pdfrwt>
<pdfrwt beam="2">  1       -1 0.38045416E-01 0.19059602E+04</pdfrwt>
<totfact> 0.11418609E+00</totfact>
</mgrwt>
</event>
<event>
12    1  0.1477245E-007  0.1074062E+04  0.7818608E-02  0.9230848E-01
         -1   -1    0    0    0  501 -0.00000000000E+00  0.00000000000E+00  0.30442263571E+03  0.30442263571E+03  0.00000000000E+00 0.  1.
          1   -1    0    0  501    0  0.00000000000E+00 -0.00000000000E+00 -0.94737405285E+03  0.94737405285E+03  0.00000000000E+00 0. -1.
         23    2    1    2    0    0 -0.18630054293E+02 -0.11472658053E+03 -0.16012684270E+03  0.21875903682E+03  0.93304036550E+02 0.  0.
        254    2    1    2    0    0  0.18630054293E+02  0.11472658053E+03 -0.48282457444E+03  0.10330376517E+04  0.90583549998E+03 0.  0.
        -24    2    4    4    0    0 -0.12418375706E+03 -0.98403318074E+02 -0.67706302571E+03  0.69995891477E+03  0.80145636592E+02 0.  0.
         24    2    4    4    0    0  0.14281381135E+03  0.21312989860E+03  0.19423845127E+03  0.33307873697E+03  0.85980990209E+02 0.  0.
         11    1    3    3    0    0 -0.46493460330E+02 -0.10004790149E+03 -0.14891555878E+03  0.18532962012E+03  0.00000000000E+00 0. -1.
        -11    1    3    3    0    0  0.27863406037E+02 -0.14678679037E+02 -0.11211283922E+02  0.33429416708E+02  0.00000000000E+00 0.  1.
          4    1    6    6  502    0  0.70482998017E+02  0.16450624208E+03  0.10122441364E+03  0.20561259351E+03  0.00000000000E+00 0. -1.
          1    1    5    5  503    0 -0.86187183985E+02 -0.98856804672E+02 -0.59833196805E+03  0.61253738050E+03  0.00000000000E+00 0. -1.
         -2    1    5    5    0  503 -0.37996573077E+02  0.45348659842E+00 -0.78731057653E+02  0.87421534274E+02  0.00000000000E+00 0.  1.
         -3    1    6    6    0  502  0.72330813338E+02  0.48623656516E+02  0.93014037630E+02  0.12746614346E+03  0.00000000000E+00 0.  1.
<mgrwt>
<rscale>  0 0.10740616E+04</rscale>
<asrwt>0</asrwt>
<pdfrwt beam="1">  1        1 0.14574985E+00 0.10740616E+04</pdfrwt>
<pdfrwt beam="2">  1       -1 0.46834253E-01 0.10740616E+04</pdfrwt>
<totfact> 0.75495695E+01</totfact>
</mgrwt>
</event>
<event>
12    1  0.1477245E-007  0.1725512E+04  0.7818608E-02  0.8746946E-01
          2   -1    0    0  501    0  0.00000000000E+00  0.00000000000E+00  0.10096378985E+04  0.10096378985E+04  0.00000000000E+00 0. -1.
         -2   -1    0    0    0  501 -0.00000000000E+00 -0.00000000000E+00 -0.73724221828E+03  0.73724221828E+03  0.00000000000E+00 0.  1.
         23    2    1    2    0    0  0.44204652883E+03  0.13421931214E+03  0.51833430970E+03  0.70014293539E+03  0.90053961369E+02 0.  0.
        254    2    1    2    0    0 -0.44204652883E+03 -0.13421931214E+03 -0.24593862943E+03  0.10467371814E+04  0.90650590741E+03 0.  0.
        -24    2    4    4    0    0 -0.25576047355E+03 -0.51294287639E+03 -0.20961113867E+03  0.61549945116E+03  0.79868208044E+02 0.  0.
         24    2    4    4    0    0 -0.18628605528E+03  0.37872356425E+03 -0.36327490767E+02  0.43123773028E+03  0.80698580699E+02 0.  0.
         11    1    3    3    0    0  0.26450480482E+03  0.10684589521E+03  0.36982658269E+03  0.46706588225E+03  0.00000000000E+00 0. -1.
        -11    1    3    3    0    0  0.17754172400E+03  0.27373416933E+02  0.14850772701E+03  0.23307705314E+03  0.00000000000E+00 0.  1.
          4    1    6    6  502    0 -0.33826607080E+02  0.11864132970E+03  0.18712542134E+02  0.12478046199E+03  0.00000000000E+00 0. -1.
          1    1    5    5  503    0 -0.29437919438E+02 -0.90393871871E+02 -0.63723006532E+02  0.11444765063E+03  0.00000000000E+00 0. -1.
         -2    1    5    5    0  503 -0.22632255411E+03 -0.42254900452E+03 -0.14588813213E+03  0.50105180053E+03  0.00000000000E+00 0.  1.
         -3    1    6    6    0  502 -0.15245944820E+03  0.26008223454E+03 -0.55040032901E+02  0.30645726829E+03  0.00000000000E+00 0.  1.
<mgrwt>
<rscale>  0 0.17255117E+04</rscale>
<asrwt>0</asrwt>
<pdfrwt beam="1">  1        2 0.15532891E+00 0.17255117E+04</pdfrwt>
<pdfrwt beam="2">  1       -2 0.11342188E+00 0.17255117E+04</pdfrwt>
<totfact> 0.14383500E+01</totfact>
</mgrwt>
</event>
<event>
12    1  0.1477245E-007  0.1272404E+04  0.7818608E-02  0.9051740E-01
          1   -1    0    0  501    0  0.00000000000E+00  0.00000000000E+00  0.70827720371E+03  0.70827720371E+03  0.00000000000E+00 0. -1.
         -1   -1    0    0    0  501 -0.00000000000E+00 -0.00000000000E+00 -0.57146158635E+03  0.57146158635E+03  0.00000000000E+00 0.  1.
         23    2    1    2    0    0 -0.24682368007E+03  0.11263544497E+02  0.19280368686E+03  0.32970736340E+03  0.10239573885E+03 0.  0.
        254    2    1    2    0    0  0.24682368007E+03 -0.11263544497E+02 -0.55988069508E+02  0.95003142666E+03  0.91562888292E+03 0.  0.
        -24    2    4    4    0    0  0.32471131782E+03  0.33393556322E+02  0.37367678030E+03  0.50382059938E+03  0.87454506473E+02 0.  0.
         24    2    4    4    0    0 -0.77887637749E+02 -0.44657100819E+02 -0.42966484980E+03  0.44621082728E+03  0.80196499054E+02 0.  0.
         13    1    3    3    0    0 -0.16987308877E+03  0.12602668979E+02  0.18635488087E+03  0.25247541500E+03  0.00000000000E+00 0. -1.
        -13    1    3    3    0    0 -0.76950591299E+02 -0.13391244815E+01  0.64488059955E+01  0.77231948405E+02  0.00000000000E+00 0.  1.
          2    1    6    6  502    0 -0.25463299721E+02  0.23312112317E+02 -0.11933902714E+03  0.12423219234E+03  0.00000000000E+00 0. -1.
          1    1    5    5  503    0 -0.40813354367E+01  0.66908349441E+01  0.11684942420E+02  0.14069912955E+02  0.00000000000E+00 0. -1.
         -2    1    5    5    0  503  0.32879265325E+03  0.26702721378E+02  0.36199183787E+03  0.48975068642E+03  0.00000000000E+00 0.  1.
         -1    1    6    6    0  502 -0.52424338027E+02 -0.67969213137E+02 -0.31032582266E+03  0.32197863495E+03  0.00000000000E+00 0.  1.
<mgrwt>
<rscale>  0 0.12724044E+04</rscale>
<asrwt>0</asrwt>
<pdfrwt beam="1">  1        1 0.10896572E+00 0.12724044E+04</pdfrwt>
<pdfrwt beam="2">  1       -1 0.87917167E-01 0.12724044E+04</pdfrwt>
<totfact> 0.33525079E+01</totfact>
</mgrwt>
</event>
<event>
12    1  0.1477245E-007  0.2224020E+04  0.7818608E-02  0.8508496E-01
          2   -1    0    0  501    0  0.00000000000E+00  0.00000000000E+00  0.15685900114E+04  0.15685900114E+04  0.00000000000E+00 0. -1.
         -2   -1    0    0    0  501 -0.00000000000E+00 -0.00000000000E+00 -0.78833004793E+03  0.78833004793E+03  0.00000000000E+00 0.  1.
         23    2    1    2    0    0  0.26756359901E+03  0.14325578272E+03  0.12549152361E+04  0.12941973889E+04  0.89566360557E+02 0.  0.
        254    2    1    2    0    0 -0.26756359901E+03 -0.14325578272E+03 -0.47465527260E+03  0.10627226704E+04  0.90109341781E+03 0.  0.
        -24    2    4    4    0    0 -0.40258734972E+02 -0.53996332780E+02  0.26226496576E+03  0.28206601648E+03  0.79006048459E+02 0.  0.
         24    2    4    4    0    0 -0.22730486404E+03 -0.89259449943E+02 -0.73692023836E+03  0.78065665394E+03  0.82089116367E+02 0.  0.
         11    1    3    3    0    0  0.42705470069E+02  0.60009036167E+02  0.37703491241E+03  0.38416164146E+03  0.00000000000E+00 0.  1.
        -11    1    3    3    0    0  0.22485812894E+03  0.83246746557E+02  0.87788032366E+03  0.91003574745E+03  0.00000000000E+00 0. -1.
          4    1    6    6  502    0 -0.10853834297E+03 -0.68081738818E+01 -0.38837861126E+03  0.40331733017E+03  0.00000000000E+00 0. -1.
          1    1    5    5  503    0 -0.35126065663E+02 -0.60691899491E+02  0.11593252030E+03  0.13549057685E+03  0.00000000000E+00 0. -1.
         -2    1    5    5    0  503 -0.51326693086E+01  0.66955667112E+01  0.14633244546E+03  0.14657543963E+03  0.00000000000E+00 0.  1.
         -3    1    6    6    0  502 -0.11876652107E+03 -0.82451276062E+02 -0.34854162710E+03  0.37733932378E+03  0.00000000000E+00 0.  1.
<mgrwt>
<rscale>  0 0.22240204E+04</rscale>
<asrwt>0</asrwt>
<pdfrwt beam="1">  1        2 0.24132154E+00 0.22240204E+04</pdfrwt>
<pdfrwt beam="2">  1       -2 0.12128155E+00 0.22240204E+04</pdfrwt>
<totfact> 0.54794786E+00</totfact>
</mgrwt>
</event>
<event>
12    1  0.1477245E-007  0.1970124E+04  0.7818608E-02  0.8620717E-01
          1   -1    0    0  501    0  0.00000000000E+00  0.00000000000E+00  0.14088598346E+04  0.14088598346E+04  0.00000000000E+00 0. -1.
         -1   -1    0    0    0  501 -0.00000000000E+00 -0.00000000000E+00 -0.68874637383E+03  0.68874637383E+03  0.00000000000E+00 0.  1.
         23    2    1    2    0    0 -0.22066106302E+02 -0.47113606451E+03  0.93991339836E+03  0.10555423894E+04  0.90974914906E+02 0.  0.
        254    2    1    2    0    0  0.22066106302E+02  0.47113606451E+03 -0.21979993761E+03  0.10420638190E+04  0.90284488474E+03 0.  0.
        -24    2    4    4    0    0  0.32602902817E+03  0.16779855413E+03  0.20900845310E+03  0.42957095563E+03  0.79971185283E+02 0.  0.
         24    2    4    4    0    0 -0.30396292187E+03  0.30333751038E+03 -0.42880839071E+03  0.61249286334E+03  0.82847864332E+02 0.  0.
         13    1    3    3    0    0  0.15071869418E+02 -0.29386825756E+03  0.65313558905E+03  0.71636011317E+03  0.00000000000E+00 0. -1.
        -13    1    3    3    0    0 -0.37137975721E+02 -0.17726780695E+03  0.28677780931E+03  0.33918227627E+03  0.00000000000E+00 0.  1.
          2    1    6    6  502    0 -0.74461674287E+02  0.29985511462E+02 -0.72566049801E+02  0.10821045892E+03  0.00000000000E+00 0. -1.
          1    1    5    5  503    0  0.11696525460E+03  0.79525424088E+02  0.41159367704E+02  0.14730667809E+03  0.00000000000E+00 0. -1.
         -2    1    5    5    0  503  0.20906377357E+03  0.88273130043E+02  0.16784908540E+03  0.28226427754E+03  0.00000000000E+00 0.  1.
         -1    1    6    6    0  502 -0.22950124758E+03  0.27335199892E+03 -0.35624234091E+03  0.50428240443E+03  0.00000000000E+00 0.  1.
<mgrwt>
<rscale>  0 0.19701240E+04</rscale>
<asrwt>0</asrwt>
<pdfrwt beam="1">  1        1 0.21674767E+00 0.19701240E+04</pdfrwt>
<pdfrwt beam="2">  1       -1 0.10596098E+00 0.19701240E+04</pdfrwt>
<totfact> 0.58703783E+00</totfact>
</mgrwt>
</event>
<event>
12    1  0.1477245E-007  0.1467741E+04  0.7818608E-02  0.8906193E-01
          2   -1    0    0  501    0  0.00000000000E+00  0.00000000000E+00  0.61387566239E+03  0.61387566239E+03  0.00000000000E+00 0. -1.
         -2   -1    0    0    0  501 -0.00000000000E+00 -0.00000000000E+00 -0.87732052097E+03  0.87732052097E+03  0.00000000000E+00 0.  1.
         23    2    1    2    0    0  0.13045831340E+03 -0.64997396968E+02 -0.51006200766E+03  0.53772853332E+03  0.88003924576E+02 0.  0.
        254    2    1    2    0    0 -0.13045831340E+03  0.64997396968E+02  0.24661714908E+03  0.95346765004E+03  0.90941547617E+03 0.  0.
        -24    2    4    4    0    0  0.28721491323E+03 -0.25132724047E+03  0.12456493512E+03  0.40993506529E+03  0.82900823364E+02 0.  0.
         24    2    4    4    0    0 -0.41767322662E+03  0.31632463744E+03  0.12205221396E+03  0.54353258474E+03  0.77580456666E+02 0.  0.
         13    1    3    3    0    0  0.81778541868E+02  0.52704745661E+01 -0.29862989935E+03  0.30966970242E+03  0.00000000000E+00 0.  1.
        -13    1    3    3    0    0  0.48679771529E+02 -0.70267871534E+02 -0.21143210831E+03  0.22805883090E+03  0.00000000000E+00 0. -1.
          2    1    6    6  502    0 -0.22201866323E+03  0.21372446139E+03  0.58802839149E+02  0.31373269850E+03  0.00000000000E+00 0. -1.
          1    1    5    5  503    0  0.18963483069E+03 -0.19589036886E+03  0.11924840307E+03  0.29758122800E+03  0.00000000000E+00 0. -1.
         -2    1    5    5    0  503  0.97580082536E+02 -0.55436871611E+02  0.53165320472E+01  0.11235383729E+03  0.00000000000E+00 0.  1.
         -3    1    6    6    0  502 -0.19565456339E+03  0.10260017605E+03  0.63249374812E+02  0.22979988624E+03  0.00000000000E+00 0.  1.
<mgrwt>
<rscale>  0 0.14677407E+04</rscale>
<asrwt>0</asrwt>
<pdfrwt beam="1">  1        2 0.94442410E-01 0.14677407E+04</pdfrwt>
<pdfrwt beam="2">  1       -2 0.13497239E+00 0.14677407E+04</pdfrwt>
<totfact> 0.18431480E+01</totfact>
</mgrwt>
</event>
<event>
12    1  0.1477245E-007  0.2227721E+04  0.7818608E-02  0.8506978E-01
         -2   -1    0    0    0  501 -0.00000000000E+00  0.00000000000E+00  0.11699145049E+04  0.11699145049E+04  0.00000000000E+00 0.  1.
          2   -1    0    0  501    0  0.00000000000E+00 -0.00000000000E+00 -0.10604920523E+04  0.10604920523E+04  0.00000000000E+00 0. -1.
         23    2    1    2    0    0  0.27800389256E+01  0.83541056112E+03  0.42806592213E+03  0.94344587451E+03  0.94504762783E+02 0.  0.
        254    2    1    2    0    0 -0.27800389256E+01 -0.83541056112E+03 -0.31864346960E+03  0.12869606827E+04  0.92564334596E+03 0.  0.
        -24    2    4    4    0    0  0.14176081174E+03 -0.86296466364E+03  0.53231520796E+02  0.87958217843E+03  0.77634240888E+02 0.  0.
         24    2    4    4    0    0 -0.14454085066E+03  0.27554102526E+02 -0.37187499039E+03  0.40737850430E+03  0.77556116512E+02 0.  0.
         11    1    3    3    0    0 -0.14031949477E+02  0.11460741348E+03  0.27680584183E+02  0.11873487091E+03  0.00000000000E+00 0. -1.
        -11    1    3    3    0    0  0.16811988402E+02  0.72080314764E+03  0.40038533795E+03  0.82471100359E+03  0.00000000000E+00 0.  1.
          2    1    6    6  502    0 -0.74648617563E+02 -0.11504457242E+02 -0.25316193750E+03  0.26418882497E+03  0.00000000000E+00 0. -1.
          1    1    5    5  503    0  0.70185641089E+02 -0.48543479729E+03  0.67252578914E+02  0.49507158675E+03  0.00000000000E+00 0. -1.
         -2    1    5    5    0  503  0.71575170648E+02 -0.37752986636E+03 -0.14021058118E+02  0.38451059168E+03  0.00000000000E+00 0.  1.
         -1    1    6    6    0  502 -0.69892233100E+02  0.39058559767E+02 -0.11871305289E+03  0.14318967932E+03  0.00000000000E+00 0.  1.
<mgrwt>
<rscale>  0 0.22277208E+04</rscale>
<asrwt>0</asrwt>
<pdfrwt beam="1">  1        2 0.16315262E+00 0.22277208E+04</pdfrwt>
<pdfrwt beam="2">  1       -2 0.17998685E+00 0.22277208E+04</pdfrwt>
<totfact> 0.38128790E+00</totfact>
</mgrwt>
</event>
<event>
12    1  0.1477245E-007  0.1447058E+04  0.7818608E-02  0.8920442E-01
          1   -1    0    0  501    0  0.00000000000E+00  0.00000000000E+00  0.89227931286E+03  0.89227931286E+03  0.00000000000E+00 0. -1.
         -1   -1    0    0    0  501 -0.00000000000E+00 -0.00000000000E+00 -0.58669354089E+03  0.58669354089E+03  0.00000000000E+00 0.  1.
         23    2    1    2    0    0 -0.57774259489E+02  0.28119148175E+03  0.42782912128E+03  0.52312175927E+03  0.90620657388E+02 0.  0.
        254    2    1    2    0    0  0.57774259489E+02 -0.28119148175E+03 -0.12224334931E+03  0.95585109448E+03  0.90349397558E+03 0.  0.
        -24    2    4    4    0    0  0.84511221553E+02  0.45888547324E+02 -0.46097937260E+03  0.47751476795E+03  0.79186275987E+02 0.  0.
         24    2    4    4    0    0 -0.26736962064E+02 -0.32708002907E+03  0.33873602329E+03  0.47833632653E+03  0.79795596648E+02 0.  0.
         13    1    3    3    0    0  0.12028163080E+02  0.10883134194E+01  0.22019292934E+02  0.25113948206E+02  0.00000000000E+00 0.  1.
        -13    1    3    3    0    0 -0.69802422569E+02  0.28010316833E+03  0.40580982834E+03  0.49800781107E+03  0.00000000000E+00 0. -1.
          4    1    6    6  502    0  0.63807995393E+01 -0.17355238272E+03  0.12912746075E+03  0.21641405978E+03  0.00000000000E+00 0. -1.
          3    1    5    5  503    0 -0.13759894780E+02  0.17335267422E+02 -0.74719409227E+02  0.77928405066E+02  0.00000000000E+00 0. -1.
         -4    1    5    5    0  503  0.98271116333E+02  0.28553279902E+02 -0.38625996337E+03  0.39958636289E+03  0.00000000000E+00 0.  1.
         -3    1    6    6    0  502 -0.33117761603E+02 -0.15352764635E+03  0.20960856254E+03  0.26192226675E+03  0.00000000000E+00 0.  1.
<mgrwt>
<rscale>  0 0.14470584E+04</rscale>
<asrwt>0</asrwt>
<pdfrwt beam="1">  1        1 0.13727374E+00 0.14470584E+04</pdfrwt>
<pdfrwt beam="2">  1       -1 0.90260545E-01 0.14470584E+04</pdfrwt>
<totfact> 0.21537098E+01</totfact>
</mgrwt>
</event>
<event>
12    1  0.1477245E-007  0.2723094E+04  0.7818608E-02  0.8327551E-01
          1   -1    0    0  501    0  0.00000000000E+00  0.00000000000E+00  0.16025283795E+04  0.16025283795E+04  0.00000000000E+00 0. -1.
         -1   -1    0    0    0  501 -0.00000000000E+00 -0.00000000000E+00 -0.11568030874E+04  0.11568030874E+04  0.00000000000E+00 0.  1.
         23    2    1    2    0    0  0.19794884157E+03 -0.90993859789E+03 -0.58296969356E+03  0.11023462177E+04  0.90230395937E+02 0.  0.
        254    2    1    2    0    0 -0.19794884157E+03  0.90993859789E+03  0.10286949856E+04  0.16569852492E+04  0.90565708014E+03 0.  0.
        -24    2    4    4    0    0 -0.96207981230E+02  0.25456223981E+03  0.94172878302E+03  0.98362842714E+03  0.81325717554E+02 0.  0.
         24    2    4    4    0    0 -0.10174086034E+03  0.65537635808E+03  0.86966202578E+02  0.67335682204E+03  0.77310516785E+02 0.  0.
         13    1    3    3    0    0  0.63507968676E+02 -0.36267911744E+03 -0.27974973054E+03  0.46241682069E+03  0.00000000000E+00 0.  1.
        -13    1    3    3    0    0  0.13444087290E+03 -0.54725948044E+03 -0.30321996301E+03  0.63992939705E+03  0.00000000000E+00 0. -1.
          2    1    6    6  502    0 -0.19625392919E+02  0.99450846645E+02  0.41594860711E+02  0.10957079622E+03  0.00000000000E+00 0. -1.
          1    1    5    5  503    0 -0.44155818579E+02  0.29985830755E+02  0.18861547704E+03  0.19602215319E+03  0.00000000000E+00 0. -1.
         -2    1    5    5    0  503 -0.52052162651E+02  0.22457640906E+03  0.75311330597E+03  0.78760627396E+03  0.00000000000E+00 0.  1.
         -1    1    6    6    0  502 -0.82115467425E+02  0.55592551143E+03  0.45371341867E+02  0.56378602582E+03  0.00000000000E+00 0.  1.
<mgrwt>
<rscale>  0 0.27230937E+04</rscale>
<asrwt>0</asrwt>
<pdfrwt beam="1">  1        1 0.24654283E+00 0.27230937E+04</pdfrwt>
<pdfrwt beam="2">  1       -1 0.17796971E+00 0.27230937E+04</pdfrwt>
<totfact> 0.10425329E+00</totfact>
</mgrwt>
</event>
<event>
12    1  0.1477245E-007  0.3071677E+04  0.7818608E-02  0.8223554E-01
          2   -1    0    0  501    0  0.00000000000E+00  0.00000000000E+00  0.25175647629E+04  0.25175647629E+04  0.00000000000E+00 0. -1.
         -2   -1    0    0    0  501 -0.00000000000E+00 -0.00000000000E+00 -0.93693698417E+03  0.93693698417E+03  0.00000000000E+00 0.  1.
         23    2    1    2    0    0  0.28572203122E+03 -0.13710002342E+04  0.54902647673E+03  0.15069768315E+04  0.90941614298E+02 0.  0.
        254    2    1    2    0    0 -0.28572203122E+03  0.13710002342E+04  0.10316013020E+04  0.19475249156E+04  0.87599847564E+03 0.  0.
        -24    2    4    4    0    0  0.30197401210E+03  0.34716282483E+03  0.33686596324E+03  0.57543282266E+03  0.77031975658E+02 0.  0.
         24    2    4    4    0    0 -0.58769604333E+03  0.10238374093E+04  0.69473533874E+03  0.13720920929E+04  0.79685886169E+02 0.  0.
         13    1    3    3    0    0  0.23460149739E+03 -0.10538645242E+04  0.38465795494E+03  0.11461370076E+04  0.00000000000E+00 0. -1.
        -13    1    3    3    0    0  0.51120533835E+02 -0.31713570999E+03  0.16436852179E+03  0.36083982386E+03  0.00000000000E+00 0.  1.
          2    1    6    6  502    0 -0.29661111781E+02  0.46260162281E+02  0.53139699658E+02  0.76443520629E+02  0.00000000000E+00 0. -1.
          1    1    5    5  503    0  0.96815540580E+02  0.80296087725E+02  0.12706798593E+03  0.17879313088E+03  0.00000000000E+00 0. -1.
         -2    1    5    5    0  503  0.20515847152E+03  0.26686673710E+03  0.20979797731E+03  0.39663969178E+03  0.00000000000E+00 0.  1.
         -1    1    6    6    0  502 -0.55803493154E+03  0.97757724706E+03  0.64159563908E+03  0.12956485723E+04  0.00000000000E+00 0.  1.
<mgrwt>
<rscale>  0 0.30716768E+04</rscale>
<asrwt>0</asrwt>
<pdfrwt beam="1">  1        2 0.38731765E+00 0.30716768E+04</pdfrwt>
<pdfrwt beam="2">  1       -2 0.14414415E+00 0.30716768E+04</pdfrwt>
<totfact> 0.96281919E-01</totfact>
</mgrwt>
</event>
<event>
12    1  0.1477245E-007  0.1673751E+04  0.7818608E-02  0.8776478E-01
          2   -1    0    0  501    0  0.00000000000E+00  0.00000000000E+00  0.27513658077E+04  0.27513658077E+04  0.00000000000E+00 0. -1.
         -2   -1    0    0    0  501 -0.00000000000E+00 -0.00000000000E+00 -0.25455030434E+03  0.25455030434E+03  0.00000000000E+00 0.  1.
         23    2    1    2    0    0  0.37623110522E+03 -0.30167387494E+03  0.30332415683E+03  0.57690135193E+03  0.90844121337E+02 0.  0.
        254    2    1    2    0    0 -0.37623110522E+03  0.30167387494E+03  0.21934913465E+04  0.24290147601E+04  0.92528452176E+03 0.  0.
        -24    2    4    4    0    0  0.11859338141E+03  0.15409368735E+03  0.42651920471E+02  0.21554708670E+03  0.82656552478E+02 0.  0.
         24    2    4    4    0    0 -0.49482448663E+03  0.14758018759E+03  0.21508394261E+04  0.22134676734E+04  0.81839600699E+02 0.  0.
         13    1    3    3    0    0  0.13458772231E+03 -0.11839949656E+03  0.16472965510E+03  0.24345051869E+03  0.00000000000E+00 0.  1.
        -13    1    3    3    0    0  0.24164338291E+03 -0.18327437838E+03  0.13859450173E+03  0.33345083324E+03  0.00000000000E+00 0. -1.
          2    1    6    6  502    0 -0.11545749961E+03  0.61077146456E+02  0.44245969437E+03  0.46133657256E+03  0.00000000000E+00 0. -1.
          3    1    5    5  503    0  0.34478521546E+02  0.44034808108E+01  0.25252173756E+02  0.42963139674E+02  0.00000000000E+00 0. -1.
         -4    1    5    5    0  503  0.84114859865E+02  0.14969020654E+03  0.17399746715E+02  0.17258394702E+03  0.00000000000E+00 0.  1.
         -1    1    6    6    0  502 -0.37936698702E+03  0.86503041135E+02  0.17083797317E+04  0.17521311009E+04  0.00000000000E+00 0.  1.
<mgrwt>
<rscale>  0 0.16737515E+04</rscale>
<asrwt>0</asrwt>
<pdfrwt beam="1">  1        2 0.42328703E+00 0.16737515E+04</pdfrwt>
<pdfrwt beam="2">  1       -2 0.39161587E-01 0.16737515E+04</pdfrwt>
<totfact> 0.14589147E+01</totfact>
</mgrwt>
</event>
<event>
12    1  0.1477245E-007  0.2560829E+04  0.7818608E-02  0.8381630E-01
         -1   -1    0    0    0  501 -0.00000000000E+00  0.00000000000E+00  0.21778370106E+04  0.21778370106E+04  0.00000000000E+00 0.  1.
          1   -1    0    0  501    0  0.00000000000E+00 -0.00000000000E+00 -0.75279332423E+03  0.75279332423E+03  0.00000000000E+00 0. -1.
         23    2    1    2    0    0  0.94840059849E+03  0.57172540167E+03  0.83010180921E+03  0.13871987535E+04  0.94433775702E+02 0.  0.
        254    2    1    2    0    0 -0.94840059849E+03 -0.57172540167E+03  0.59494187716E+03  0.15434315813E+04  0.89548399141E+03 0.  0.
        -24    2    4    4    0    0 -0.16280341808E+03  0.20556079172E+03  0.27990629794E+03  0.39145135804E+03  0.78271566097E+02 0.  0.
         24    2    4    4    0    0 -0.78559718041E+03 -0.77728619339E+03  0.31503557922E+03  0.11519802233E+04  0.80462800791E+02 0.  0.
         11    1    3    3    0    0  0.74384568524E+03  0.42596829000E+03  0.59757062716E+03  0.10449143706E+04  0.00000000000E+00 0. -1.
        -11    1    3    3    0    0  0.20455491325E+03  0.14575711167E+03  0.23253118205E+03  0.34228438288E+03  0.00000000000E+00 0.  1.
          2    1    6    6  502    0 -0.57894072282E+03 -0.59651535005E+03  0.26812731494E+03  0.87343871016E+03  0.00000000000E+00 0. -1.
          1    1    5    5  503    0 -0.14179313030E+03  0.20543518558E+03  0.27153001506E+03  0.36883255870E+03  0.00000000000E+00 0. -1.
         -2    1    5    5    0  503 -0.21010287771E+02  0.12560614398E+00  0.83762828759E+01  0.22618799348E+02  0.00000000000E+00 0.  1.
         -1    1    6    6    0  502 -0.20665645760E+03 -0.18077084334E+03  0.46908264289E+02  0.27854151311E+03  0.00000000000E+00 0.  1.
<mgrwt>
<rscale>  0 0.25608289E+04</rscale>
<asrwt>0</asrwt>
<pdfrwt beam="1">  1        1 0.11581436E+00 0.25608289E+04</pdfrwt>
<pdfrwt beam="2">  1       -1 0.33505185E+00 0.25608289E+04</pdfrwt>
<totfact> 0.41976758E-01</totfact>
</mgrwt>
</event>
<event>
12    1  0.1477245E-007  0.1539504E+04  0.7818608E-02  0.8858600E-01
         -2   -1    0    0    0  501 -0.00000000000E+00  0.00000000000E+00  0.75574146882E+03  0.75574146882E+03  0.00000000000E+00 0.  1.
          2   -1    0    0  501    0  0.00000000000E+00 -0.00000000000E+00 -0.78402184356E+03  0.78402184356E+03  0.00000000000E+00 0. -1.
         23    2    1    2    0    0  0.43654809329E+03  0.22930392854E+03  0.75110851737E+02  0.50726127158E+03  0.92292080899E+02 0.  0.
        254    2    1    2    0    0 -0.43654809329E+03 -0.22930392854E+03 -0.10339122648E+03  0.10325020408E+04  0.90123037517E+03 0.  0.
        -24    2    4    4    0    0  0.14205345855E+03 -0.40556458505E+02  0.26707469153E+03  0.31565385851E+03  0.80526120749E+02 0.  0.
         24    2    4    4    0    0 -0.57860155184E+03 -0.18874747004E+03 -0.37046591801E+03  0.71684818228E+03  0.78873042283E+02 0.  0.
         13    1    3    3    0    0  0.64569111054E+02  0.38473110290E+01  0.25271489444E+02  0.69445086818E+02  0.00000000000E+00 0.  1.
        -13    1    3    3    0    0  0.37197898224E+03  0.22545661751E+03  0.49839362292E+02  0.43781618476E+03  0.00000000000E+00 0. -1.
          2    1    6    6  502    0 -0.52193853552E+03 -0.19209895662E+03 -0.32534929034E+03  0.64433997604E+03  0.00000000000E+00 0. -1.
          1    1    5    5  503    0  0.71769947815E+02 -0.76841961221E+01  0.20158980341E+03  0.21412244422E+03  0.00000000000E+00 0. -1.
         -2    1    5    5    0  503  0.70283510734E+02 -0.32872262383E+02  0.65484888119E+02  0.10153141429E+03  0.00000000000E+00 0.  1.
         -1    1    6    6    0  502 -0.56663016318E+02  0.33514865796E+01 -0.45116627673E+02  0.72508206247E+02  0.00000000000E+00 0.  1.
<mgrwt>
<rscale>  0 0.15395036E+04</rscale>
<asrwt>0</asrwt>
<pdfrwt beam="1">  1        2 0.12061874E+00 0.15395036E+04</pdfrwt>
<pdfrwt beam="2">  1       -2 0.11626792E+00 0.15395036E+04</pdfrwt>
<totfact> 0.19565452E+01</totfact>
</mgrwt>
</event>
<event>
12    1  0.1477245E-007  0.2380691E+04  0.7818608E-02  0.8446768E-01
          2   -1    0    0  501    0  0.00000000000E+00  0.00000000000E+00  0.20282337136E+04  0.20282337136E+04  0.00000000000E+00 0. -1.
         -2   -1    0    0    0  501 -0.00000000000E+00 -0.00000000000E+00 -0.69859915696E+03  0.69859915696E+03  0.00000000000E+00 0.  1.
         23    2    1    2    0    0 -0.88094346617E+03  0.45591218774E+03  0.30548149344E+03  0.10419126236E+04  0.91354578030E+02 0.  0.
        254    2    1    2    0    0  0.88094346617E+03 -0.45591218774E+03  0.10241530632E+04  0.16849202469E+04  0.89785824497E+03 0.  0.
        -24    2    4    4    0    0  0.26652590060E+03  0.27048394198E+02  0.83069827608E+03  0.87601094793E+03  0.74618253043E+02 0.  0.
         24    2    4    4    0    0  0.61441756557E+03 -0.48296058194E+03  0.19345478711E+03  0.80890929897E+03  0.78419581266E+02 0.  0.
         11    1    3    3    0    0 -0.83875105175E+03  0.45355208921E+03  0.29791193696E+03  0.99898165480E+03  0.00000000000E+00 0.  1.
        -11    1    3    3    0    0 -0.42192414418E+02  0.23600985347E+01  0.75695564711E+01  0.42930968830E+02  0.00000000000E+00 0. -1.
          2    1    6    6  502    0  0.39447065161E+03 -0.31514347775E+03  0.86276712329E+02  0.51221692440E+03  0.00000000000E+00 0. -1.
          3    1    5    5  503    0  0.24709183474E+03  0.73726344274E+01  0.69854987962E+03  0.74099977385E+03  0.00000000000E+00 0. -1.
         -4    1    5    5    0  503  0.19434065869E+02  0.19675759770E+02  0.13214839646E+03  0.13501117408E+03  0.00000000000E+00 0.  1.
         -1    1    6    6    0  502  0.21994691396E+03 -0.16781710420E+03  0.10717807478E+03  0.29669237458E+03  0.00000000000E+00 0.  1.
<mgrwt>
<rscale>  0 0.23806910E+04</rscale>
<asrwt>0</asrwt>
<pdfrwt beam="1">  1        2 0.31203595E+00 0.23806910E+04</pdfrwt>
<pdfrwt beam="2">  1       -2 0.10747679E+00 0.23806910E+04</pdfrwt>
<totfact> 0.40329158E+00</totfact>
</mgrwt>
</event>
<event>
12    1  0.1477245E-007  0.2044185E+04  0.7818608E-02  0.8586237E-01
          2   -1    0    0  501    0  0.00000000000E+00  0.00000000000E+00  0.32753981224E+04  0.32753981224E+04  0.00000000000E+00 0. -1.
         -2   -1    0    0    0  501 -0.00000000000E+00 -0.00000000000E+00 -0.31894537896E+03  0.31894537896E+03  0.00000000000E+00 0.  1.
         23    2    1    2    0    0 -0.26638800005E+03 -0.75366166609E+03  0.90249724466E+03  0.12091183313E+04  0.92181283552E+02 0.  0.
        254    2    1    2    0    0  0.26638800005E+03  0.75366166609E+03  0.20539554988E+04  0.23852251701E+04  0.91191964957E+03 0.  0.
        -24    2    4    4    0    0  0.14839241543E+03  0.94537625485E+03  0.17781493509E+04  0.20209283214E+04  0.81114694727E+02 0.  0.
         24    2    4    4    0    0  0.11799558462E+03 -0.19171458877E+03  0.27580614786E+03  0.36429684867E+03  0.77238081395E+02 0.  0.
         11    1    3    3    0    0 -0.26631852255E+03 -0.70425957654E+03  0.86690737792E+03  0.11482314699E+04  0.00000000000E+00 0.  1.
        -11    1    3    3    0    0 -0.69477497609E-01 -0.49402089552E+02  0.35589866746E+02  0.60886861425E+02  0.00000000000E+00 0. -1.
          2    1    6    6  502    0  0.81999691497E+02 -0.10864997519E+03  0.21760835469E+03  0.25667520828E+03  0.00000000000E+00 0. -1.
          1    1    5    5  503    0  0.35370484021E+02  0.78707516474E+02  0.16765629225E+03  0.18855921250E+03  0.00000000000E+00 0. -1.
         -2    1    5    5    0  503  0.11302193141E+03  0.86666873838E+03  0.16104930587E+04  0.18323691089E+04  0.00000000000E+00 0.  1.
         -1    1    6    6    0  502  0.35995893119E+02 -0.83064613575E+02  0.58197793168E+02  0.10762164039E+03  0.00000000000E+00 0.  1.
<mgrwt>
<rscale>  0 0.20441850E+04</rscale>
<asrwt>0</asrwt>
<pdfrwt beam="1">  1        2 0.50390738E+00 0.20441850E+04</pdfrwt>
<pdfrwt beam="2">  1       -2 0.49068522E-01 0.20441850E+04</pdfrwt>
<totfact> 0.42257330E+00</totfact>
</mgrwt>
</event>
<event>
12    1  0.1477245E-007  0.2527108E+04  0.7818608E-02  0.8393391E-01
          2   -1    0    0  501    0  0.00000000000E+00  0.00000000000E+00  0.12896674299E+04  0.12896674299E+04  0.00000000000E+00 0.  1.
         -2   -1    0    0    0  501 -0.00000000000E+00 -0.00000000000E+00 -0.12379696198E+04  0.12379696198E+04  0.00000000000E+00 0. -1.
         23    2    1    2    0    0 -0.14560051465E+03 -0.10082573899E+04 -0.52463020388E+03  0.11492150337E+04  0.87612035609E+02 0.  0.
        254    2    1    2    0    0  0.14560051465E+03  0.10082573899E+04  0.57632801404E+03  0.13784220160E+04  0.72808708302E+03 0.  0.
        -24    2    4    4    0    0  0.42997935123E+03  0.51714232914E+03  0.34925548775E+03  0.76203564509E+03  0.80003109836E+02 0.  0.
         24    2    4    4    0    0 -0.28437883658E+03  0.49111506071E+03  0.22707252628E+03  0.61638637095E+03  0.79403403838E+02 0.  0.
         13    1    3    3    0    0 -0.46164442804E+02 -0.44114758055E+03 -0.18374965823E+03  0.48011069610E+03  0.00000000000E+00 0.  1.
        -13    1    3    3    0    0 -0.99436071849E+02 -0.56710980931E+03 -0.34088054564E+03  0.66910433760E+03  0.00000000000E+00 0. -1.
          4    1    6    6  502    0 -0.26240858480E+03  0.43151804587E+03  0.22484316958E+03  0.55282957609E+03  0.00000000000E+00 0. -1.
          1    1    5    5  503    0  0.30579057151E+03  0.31053110041E+03  0.21215586616E+03  0.48471388416E+03  0.00000000000E+00 0. -1.
         -2    1    5    5    0  503  0.12418877973E+03  0.20661122873E+03  0.13709962159E+03  0.27732176093E+03  0.00000000000E+00 0.  1.
         -3    1    6    6    0  502 -0.21970251782E+02  0.59597014841E+02  0.22293566996E+01  0.63556794858E+02  0.00000000000E+00 0.  1.
<mgrwt>
<rscale>  0 0.25271083E+04</rscale>
<asrwt>0</asrwt>
<pdfrwt beam="1">  1        2 0.19841037E+00 0.25271083E+04</pdfrwt>
<pdfrwt beam="2">  1       -2 0.19045686E+00 0.25271083E+04</pdfrwt>
<totfact> 0.22960086E+00</totfact>
</mgrwt>
</event>
<event>
12    1  0.1477245E-007  0.1611092E+04  0.7818608E-02  0.8813763E-01
          2   -1    0    0  501    0  0.00000000000E+00  0.00000000000E+00  0.95184582398E+03  0.95184582398E+03  0.00000000000E+00 0. -1.
         -2   -1    0    0    0  501 -0.00000000000E+00 -0.00000000000E+00 -0.68173271020E+03  0.68173271020E+03  0.00000000000E+00 0.  1.
         23    2    1    2    0    0  0.19566047713E+03 -0.36177592062E+03 -0.25595411397E+03  0.49310879211E+03  0.92081123744E+02 0.  0.
        254    2    1    2    0    0 -0.19566047713E+03  0.36177592062E+03  0.52606722775E+03  0.11404697421E+04  0.92453213325E+03 0.  0.
        -24    2    4    4    0    0  0.17094885569E+03  0.36545313075E+03 -0.88181234469E+02  0.42069636747E+03  0.80187289835E+02 0.  0.
         24    2    4    4    0    0 -0.36660933282E+03 -0.36772101361E+01  0.61424846222E+03  0.71977337460E+03  0.79728367970E+02 0.  0.
         11    1    3    3    0    0  0.19184685178E+03 -0.36374469132E+03 -0.23904985150E+03  0.47566821053E+03  0.00000000000E+00 0.  1.
        -11    1    3    3    0    0  0.38136253582E+01  0.19687707084E+01 -0.16904262465E+02  0.17440581583E+02  0.00000000000E+00 0. -1.
          2    1    6    6  502    0 -0.17901178871E+03 -0.12387901655E+02  0.22671983299E+03  0.28913761996E+03  0.00000000000E+00 0. -1.
          1    1    5    5  503    0  0.86109703283E+02  0.22006392611E+03 -0.88569042997E+02  0.25236380080E+03  0.00000000000E+00 0. -1.
         -2    1    5    5    0  503  0.84839152405E+02  0.14538920464E+03  0.38780852854E+00  0.16833256667E+03  0.00000000000E+00 0.  1.
         -1    1    6    6    0  502 -0.18759754411E+03  0.87106915192E+01  0.38752862922E+03  0.43063575464E+03  0.00000000000E+00 0.  1.
<mgrwt>
<rscale>  0 0.16110921E+04</rscale>
<asrwt>0</asrwt>
<pdfrwt beam="1">  1        2 0.14643782E+00 0.16110921E+04</pdfrwt>
<pdfrwt beam="2">  1       -2 0.10488196E+00 0.16110921E+04</pdfrwt>
<totfact> 0.19122859E+01</totfact>
</mgrwt>
</event>
<event>
12    1  0.1477245E-007  0.1015664E+04  0.7818608E-02  0.9291530E-01
          1   -1    0    0  501    0  0.00000000000E+00  0.00000000000E+00  0.18195101570E+04  0.18195101570E+04  0.00000000000E+00 0. -1.
         -1   -1    0    0    0  501 -0.00000000000E+00 -0.00000000000E+00 -0.14173766813E+03  0.14173766813E+03  0.00000000000E+00 0.  1.
         23    2    1    2    0    0 -0.12537320339E+03  0.22684727036E+02  0.15674479417E+03  0.22284274961E+03  0.94111229860E+02 0.  0.
        254    2    1    2    0    0  0.12537320339E+03 -0.22684727036E+02  0.15210276947E+04  0.17384050755E+04  0.83204201910E+03 0.  0.
        -24    2    4    4    0    0 -0.29137660437E+03 -0.13492390219E+02  0.23076925402E+03  0.38016043173E+03  0.78645629782E+02 0.  0.
         24    2    4    4    0    0  0.41674980775E+03 -0.91923368173E+01  0.12902584406E+04  0.13582446437E+04  0.79352172698E+02 0.  0.
         11    1    3    3    0    0 -0.47819603485E+02  0.12749220468E+02  0.20746853774E+01  0.49533437388E+02  0.00000000000E+00 0.  1.
        -11    1    3    3    0    0 -0.77553599903E+02  0.99355065680E+01  0.15467010880E+03  0.17330931223E+03  0.00000000000E+00 0. -1.
          2    1    6    6  502    0  0.30471263590E+03 -0.41898579111E+02  0.94397145257E+03  0.99281790106E+03  0.00000000000E+00 0. -1.
          1    1    5    5  503    0 -0.24300806274E+03  0.13487469540E+02  0.16433436016E+03  0.29366752003E+03  0.00000000000E+00 0. -1.
         -2    1    5    5    0  503 -0.48368541630E+02 -0.26979859759E+02  0.66434893863E+02  0.86492911701E+02  0.00000000000E+00 0.  1.
         -1    1    6    6    0  502  0.11203717185E+03  0.32706242294E+02  0.34628698806E+03  0.36542674268E+03  0.00000000000E+00 0.  1.
<mgrwt>
<rscale>  0 0.10156636E+04</rscale>
<asrwt>0</asrwt>
<pdfrwt beam="1">  1        1 0.27992462E+00 0.10156636E+04</pdfrwt>
<pdfrwt beam="2">  1       -1 0.21805796E-01 0.10156636E+04</pdfrwt>
<totfact> 0.70162654E+01</totfact>
</mgrwt>
</event>
<event>
12    1  0.1477245E-007  0.3271708E+04  0.7818608E-02  0.8170132E-01
         -1   -1    0    0    0  501 -0.00000000000E+00  0.00000000000E+00  0.29795032612E+04  0.29795032612E+04  0.00000000000E+00 0.  1.
          1   -1    0    0  501    0  0.00000000000E+00 -0.00000000000E+00 -0.89814249180E+03  0.89814249180E+03  0.00000000000E+00 0. -1.
         23    2    1    2    0    0  0.15072313838E+04 -0.82166025890E+02  0.10113724449E+04  0.18184697007E+04  0.73892693001E+02 0.  0.
        254    2    1    2    0    0 -0.15072313838E+04  0.82166025890E+02  0.10699883245E+04  0.20591760523E+04  0.90378830477E+03 0.  0.
        -24    2    4    4    0    0 -0.97182623569E+03  0.19906125833E+03  0.11250549741E+04  0.15020000814E+04  0.78637985885E+02 0.  0.
         24    2    4    4    0    0 -0.53540514807E+03 -0.11689523244E+03 -0.55066649637E+02  0.55717597089E+03  0.84199517154E+02 0.  0.
         11    1    3    3    0    0  0.13773229157E+04 -0.62105901561E+02  0.94237090506E+03  0.16700115209E+04  0.00000000000E+00 0.  1.
        -11    1    3    3    0    0  0.12990846806E+03 -0.20060124330E+02  0.69001539872E+02  0.14845817986E+03  0.00000000000E+00 0. -1.
          4    1    6    6  502    0 -0.44181553818E+03 -0.12845795106E+03 -0.43324053009E+02  0.46214650117E+03  0.00000000000E+00 0. -1.
          1    1    5    5  503    0 -0.35847228079E+03  0.11155001642E+03  0.41309067865E+03  0.55820219548E+03  0.00000000000E+00 0. -1.
         -2    1    5    5    0  503 -0.61335395491E+03  0.87511241911E+02  0.71196429547E+03  0.94379788593E+03  0.00000000000E+00 0.  1.
         -3    1    6    6    0  502 -0.93589609885E+02  0.11562718620E+02 -0.11742596628E+02  0.95029469723E+02  0.00000000000E+00 0.  1.
<mgrwt>
<rscale>  0 0.32717081E+04</rscale>
<asrwt>0</asrwt>
<pdfrwt beam="1">  1        1 0.13817577E+00 0.32717081E+04</pdfrwt>
<pdfrwt beam="2">  1       -1 0.45838511E+00 0.32717081E+04</pdfrwt>
<totfact> 0.42974326E-02</totfact>
</mgrwt>
</event>
<event>
12    1  0.1477245E-007  0.5945847E+04  0.7818608E-02  0.7697153E-01
          1   -1    0    0  501    0  0.00000000000E+00  0.00000000000E+00  0.28275988938E+04  0.28275988938E+04  0.00000000000E+00 0. -1.
         -1   -1    0    0    0  501 -0.00000000000E+00 -0.00000000000E+00 -0.31257170756E+04  0.31257170756E+04  0.00000000000E+00 0.  1.
         23    2    1    2    0    0  0.74288613720E+03  0.28028220902E+04 -0.26705561834E+03  0.29133307874E+04  0.92119982921E+02 0.  0.
        254    2    1    2    0    0 -0.74288613720E+03 -0.28028220902E+04 -0.31062563446E+02  0.30399851819E+04  0.91260809848E+03 0.  0.
        -24    2    4    4    0    0  0.44853697013E+02 -0.13901413063E+04 -0.21801671161E+03  0.14099081602E+04  0.76190733504E+02 0.  0.
         24    2    4    4    0    0 -0.78773983421E+03 -0.14126807839E+04  0.18695414817E+03  0.16300770218E+04  0.77448046290E+02 0.  0.
         13    1    3    3    0    0  0.14992018948E+03  0.46890732434E+03 -0.21149757010E+02  0.49274481657E+03  0.00000000000E+00 0. -1.
        -13    1    3    3    0    0  0.59296594772E+03  0.23339147659E+04 -0.24590586133E+03  0.24205859708E+04  0.00000000000E+00 0.  1.
          4    1    6    6  502    0 -0.31201564272E+03 -0.48857961153E+03  0.80597024249E+02  0.58528598003E+03  0.00000000000E+00 0. -1.
          1    1    5    5  503    0  0.58578755883E+02 -0.87819734576E+03 -0.15893070411E+03  0.89438303733E+03  0.00000000000E+00 0. -1.
         -2    1    5    5    0  503 -0.13725058870E+02 -0.51194396055E+03 -0.59086007502E+02  0.51552512283E+03  0.00000000000E+00 0.  1.
         -3    1    6    6    0  502 -0.47572419149E+03 -0.92410117236E+03  0.10635712392E+03  0.10447910418E+04  0.00000000000E+00 0.  1.
<mgrwt>
<rscale>  0 0.59458470E+04</rscale>
<asrwt>0</asrwt>
<pdfrwt beam="1">  1        1 0.43501522E+00 0.59458470E+04</pdfrwt>
<pdfrwt beam="2">  1       -1 0.48087955E+00 0.59458470E+04</pdfrwt>
<totfact> 0.10721702E-03</totfact>
</mgrwt>
</event>
<event>
12    1  0.1477245E-007  0.1803319E+04  0.7818608E-02  0.8704536E-01
         -1   -1    0    0    0  501 -0.00000000000E+00  0.00000000000E+00  0.50282143454E+03  0.50282143454E+03  0.00000000000E+00 0.  1.
          1   -1    0    0  501    0  0.00000000000E+00 -0.00000000000E+00 -0.16168566110E+04  0.16168566110E+04  0.00000000000E+00 0. -1.
         23    2    1    2    0    0 -0.62849656806E+03  0.43490622731E+01 -0.68382908478E+03  0.93288597969E+03  0.87333747813E+02 0.  0.
        254    2    1    2    0    0  0.62849656806E+03 -0.43490622731E+01 -0.43020609165E+03  0.11867920658E+04  0.91014904044E+03 0.  0.
        -24    2    4    4    0    0  0.25328992709E+03 -0.71926881076E+02  0.27023324086E+03  0.38548369396E+03  0.79008926444E+02 0.  0.
         24    2    4    4    0    0  0.37520664097E+03  0.67577818803E+02 -0.70043933250E+03  0.80130837187E+03  0.78313876696E+02 0.  0.
         11    1    3    3    0    0 -0.50655324861E+03 -0.26159799942E+02 -0.57358396729E+03  0.76568864191E+03  0.00000000000E+00 0. -1.
        -11    1    3    3    0    0 -0.12194331945E+03  0.30508862215E+02 -0.11024511749E+03  0.16719733779E+03  0.00000000000E+00 0.  1.
          2    1    6    6  502    0  0.87574054048E+02  0.19873744296E+02 -0.24075515243E+03  0.25695763089E+03  0.00000000000E+00 0. -1.
          1    1    5    5  503    0  0.19437231338E+03 -0.47185631434E+02  0.15248360314E+03  0.25151208569E+03  0.00000000000E+00 0. -1.
         -2    1    5    5    0  503  0.58917613710E+02 -0.24741249641E+02  0.11774963772E+03  0.13397160827E+03  0.00000000000E+00 0.  1.
         -1    1    6    6    0  502  0.28763258693E+03  0.47704074506E+02 -0.45968418008E+03  0.54435074097E+03  0.00000000000E+00 0.  1.
<mgrwt>
<rscale>  0 0.18033193E+04</rscale>
<asrwt>0</asrwt>
<pdfrwt beam="1">  1        1 0.24874717E+00 0.18033193E+04</pdfrwt>
<pdfrwt beam="2">  1       -1 0.77357145E-01 0.18033193E+04</pdfrwt>
<totfact> 0.85856397E+00</totfact>
</mgrwt>
</event>
<event>
12    1  0.1477245E-007  0.1573586E+04  0.7818608E-02  0.8836942E-01
         -2   -1    0    0    0  501 -0.00000000000E+00  0.00000000000E+00  0.20007784127E+03  0.20007784127E+03  0.00000000000E+00 0.  1.
          2   -1    0    0  501    0  0.00000000000E+00 -0.00000000000E+00 -0.30940107663E+04  0.30940107663E+04  0.00000000000E+00 0. -1.
         23    2    1    2    0    0 -0.50338510747E+03  0.41780958697E+02 -0.68878370489E+03  0.85912406958E+03  0.92352367972E+02 0.  0.
        254    2    1    2    0    0  0.50338510747E+03 -0.41780958697E+02 -0.22051492201E+04  0.24349645380E+04  0.90068141052E+03 0.  0.
        -24    2    4    4    0    0 -0.22489923937E+03 -0.15703290370E+03 -0.49801294423E+03  0.57399025801E+03  0.78796719157E+02 0.  0.
         24    2    4    4    0    0  0.72828434684E+03  0.11525194500E+03 -0.17071362759E+04  0.18609742800E+04  0.72318085976E+02 0.  0.
         13    1    3    3    0    0 -0.10706645941E+03  0.10800234013E+02 -0.89424974466E+02  0.13991675326E+03  0.00000000000E+00 0. -1.
        -13    1    3    3    0    0 -0.39631864806E+03  0.30980724684E+02 -0.59935873042E+03  0.71920731631E+03  0.00000000000E+00 0.  1.
          4    1    6    6  502    0  0.72054368911E+03  0.12173657695E+03 -0.16858107087E+04  0.18373787709E+04  0.00000000000E+00 0. -1.
          1    1    5    5  503    0 -0.14525429525E+03 -0.53581301107E+02 -0.26772370733E+03  0.30926647019E+03  0.00000000000E+00 0. -1.
         -2    1    5    5    0  503 -0.79644944117E+02 -0.10345160259E+03 -0.23028923690E+03  0.26472378782E+03  0.00000000000E+00 0.  1.
         -3    1    6    6    0  502  0.77406577280E+01 -0.64846319403E+01 -0.21325567213E+02  0.23595509115E+02  0.00000000000E+00 0.  1.
<mgrwt>
<rscale>  0 0.15735857E+04</rscale>
<asrwt>0</asrwt>
<pdfrwt beam="1">  1        2 0.47600162E+00 0.15735857E+04</pdfrwt>
<pdfrwt beam="2">  1       -2 0.30781209E-01 0.15735857E+04</pdfrwt>
<totfact> 0.14360180E+01</totfact>
</mgrwt>
</event>
<event>
12    1  0.1477245E-007  0.1274089E+04  0.7818608E-02  0.9050369E-01
          2   -1    0    0  501    0  0.00000000000E+00  0.00000000000E+00  0.22570217275E+04  0.22570217275E+04  0.00000000000E+00 0. -1.
         -2   -1    0    0    0  501 -0.00000000000E+00 -0.00000000000E+00 -0.17980581635E+03  0.17980581635E+03  0.00000000000E+00 0.  1.
         23    2    1    2    0    0  0.30530185801E+03  0.48918665274E+02  0.50471223729E+03  0.59956110594E+03  0.95586698683E+02 0.  0.
        254    2    1    2    0    0 -0.30530185801E+03 -0.48918665274E+02  0.15725036738E+04  0.18372664379E+04  0.89843079824E+03 0.  0.
        -24    2    4    4    0    0 -0.30494565642E+03  0.31334296768E+03  0.36843754020E+03  0.57739522163E+03  0.80394976020E+02 0.  0.
         24    2    4    4    0    0 -0.35620159074E+00 -0.36226163296E+03  0.12040661336E+04  0.12598712163E+04  0.79161921204E+02 0.  0.
         11    1    3    3    0    0  0.25287921062E+03  0.72315106685E+02  0.37855695862E+03  0.46095850219E+03  0.00000000000E+00 0.  1.
        -11    1    3    3    0    0  0.52422647393E+02 -0.23396441411E+02  0.12615527867E+03  0.13860260375E+03  0.00000000000E+00 0. -1.
          4    1    6    6  502    0  0.26877677625E+02 -0.28672171469E+03  0.99779619330E+03  0.10385225056E+04  0.00000000000E+00 0. -1.
          3    1    5    5  503    0 -0.24349870112E+03  0.20571105055E+03  0.24084641445E+03  0.39951927253E+03  0.00000000000E+00 0. -1.
         -4    1    5    5    0  503 -0.61446955304E+02  0.10763191713E+03  0.12759112574E+03  0.17787594910E+03  0.00000000000E+00 0.  1.
         -3    1    6    6    0  502 -0.27233879216E+02 -0.75539918267E+02  0.20626994035E+03  0.22134871069E+03  0.00000000000E+00 0.  1.
<mgrwt>
<rscale>  0 0.12740889E+04</rscale>
<asrwt>0</asrwt>
<pdfrwt beam="1">  1        2 0.34723409E+00 0.12740889E+04</pdfrwt>
<pdfrwt beam="2">  1       -2 0.27662435E-01 0.12740889E+04</pdfrwt>
<totfact> 0.56282746E+01</totfact>
</mgrwt>
</event>
<event>
12    1  0.1477245E-007  0.2191295E+04  0.7818608E-02  0.8522060E-01
          1   -1    0    0  501    0  0.00000000000E+00  0.00000000000E+00  0.19543768418E+04  0.19543768418E+04  0.00000000000E+00 0. -1.
         -1   -1    0    0    0  501 -0.00000000000E+00 -0.00000000000E+00 -0.61423316283E+03  0.61423316283E+03  0.00000000000E+00 0.  1.
         23    2    1    2    0    0 -0.51475386692E+03  0.59567745701E+03  0.32954395088E+02  0.79303915592E+03  0.89565251959E+02 0.  0.
        254    2    1    2    0    0  0.51475386692E+03 -0.59567745701E+03  0.13071892839E+04  0.17755708488E+04  0.90780220237E+03 0.  0.
        -24    2    4    4    0    0  0.45291896255E+03  0.11707292180E+03  0.61448554397E+03  0.77644079634E+03  0.80163400719E+02 0.  0.
         24    2    4    4    0    0  0.61834904379E+02 -0.71275037881E+03  0.69270373996E+03  0.99913005242E+03  0.81152525589E+02 0.  0.
         13    1    3    3    0    0 -0.86856157469E+02  0.10884635828E+03  0.39875679319E+02  0.14485023853E+03  0.00000000000E+00 0. -1.
        -13    1    3    3    0    0 -0.42789770946E+03  0.48683109873E+03 -0.69212842309E+01  0.64818891739E+03  0.00000000000E+00 0.  1.
          2    1    6    6  502    0  0.25851988608E+02 -0.65329707995E+02  0.50617512970E+02  0.86593467888E+02  0.00000000000E+00 0. -1.
          3    1    5    5  503    0  0.18438577018E+03  0.73607372987E+01  0.24143653760E+03  0.30388138210E+03  0.00000000000E+00 0. -1.
         -4    1    5    5    0  503  0.26853319236E+03  0.10971218450E+03  0.37304900637E+03  0.47255941424E+03  0.00000000000E+00 0.  1.
         -1    1    6    6    0  502  0.35982915771E+02 -0.64742067081E+03  0.64208622699E+03  0.91253658454E+03  0.00000000000E+00 0.  1.
<mgrwt>
<rscale>  0 0.21912947E+04</rscale>
<asrwt>0</asrwt>
<pdfrwt beam="1">  1        1 0.30067336E+00 0.21912947E+04</pdfrwt>
<pdfrwt beam="2">  1       -1 0.94497411E-01 0.21912947E+04</pdfrwt>
<totfact> 0.31635360E+00</totfact>
</mgrwt>
</event>
<event>
12    1  0.1477245E-007  0.1058157E+04  0.7818608E-02  0.9246963E-01
         -2   -1    0    0    0  501 -0.00000000000E+00  0.00000000000E+00  0.22967878989E+03  0.22967878989E+03  0.00000000000E+00 0.  1.
          2   -1    0    0  501    0  0.00000000000E+00 -0.00000000000E+00 -0.12187621003E+04  0.12187621003E+04  0.00000000000E+00 0. -1.
         23    2    1    2    0    0  0.39433493275E+02  0.19096724683E+02 -0.32183959927E+03  0.33799924343E+03  0.93504414940E+02 0.  0.
        254    2    1    2    0    0 -0.39433493275E+02 -0.19096724683E+02 -0.66724371117E+03  0.11104416468E+04  0.88653640397E+03 0.  0.
        -24    2    4    4    0    0 -0.46205656498E+02 -0.68582934837E+02 -0.87454939306E+03  0.88224763890E+03  0.81765969712E+02 0.  0.
         24    2    4    4    0    0  0.67721632231E+01  0.49486210154E+02  0.20730568188E+03  0.22819400790E+03  0.81253383385E+02 0.  0.
         13    1    3    3    0    0  0.61335504752E+02  0.66377837621E+01 -0.29419493815E+03  0.30059402181E+03  0.00000000000E+00 0. -1.
        -13    1    3    3    0    0 -0.21902011478E+02  0.12458940921E+02 -0.27644661124E+02  0.37405221618E+02  0.00000000000E+00 0.  1.
          2    1    6    6  502    0  0.20808732081E+02  0.64508618970E+02  0.11381771677E+03  0.13247202687E+03  0.00000000000E+00 0. -1.
          3    1    5    5  503    0 -0.34794477896E+02 -0.86394495553E+02 -0.76729956008E+03  0.77293161370E+03  0.00000000000E+00 0. -1.
         -4    1    5    5    0  503 -0.11411178602E+02  0.17811560716E+02 -0.10724983297E+03  0.10931602520E+03  0.00000000000E+00 0.  1.
         -1    1    6    6    0  502 -0.14036568858E+02 -0.15022408816E+02  0.93487965112E+02  0.95721981032E+02  0.00000000000E+00 0.  1.
<mgrwt>
<rscale>  0 0.10581565E+04</rscale>
<asrwt>0</asrwt>
<pdfrwt beam="1">  1        2 0.18750186E+00 0.10581565E+04</pdfrwt>
<pdfrwt beam="2">  1       -2 0.35335198E-01 0.10581565E+04</pdfrwt>
<totfact> 0.13803648E+02</totfact>
</mgrwt>
</event>
<event>
12    1  0.1477245E-007  0.2062047E+04  0.7818608E-02  0.8578149E-01
         -2   -1    0    0    0  501 -0.00000000000E+00  0.00000000000E+00  0.62183897035E+03  0.62183897035E+03  0.00000000000E+00 0.  1.
          2   -1    0    0  501    0  0.00000000000E+00 -0.00000000000E+00 -0.17094615764E+04  0.17094615764E+04  0.00000000000E+00 0. -1.
         23    2    1    2    0    0  0.45742220645E+03  0.45978948272E+03  0.16166612492E+03  0.67317604855E+03  0.79928799742E+02 0.  0.
        254    2    1    2    0    0 -0.45742220645E+03 -0.45978948272E+03 -0.12492887310E+04  0.16581244982E+04  0.87636355177E+03 0.  0.
        -24    2    4    4    0    0 -0.25469639872E+03  0.42286163905E+02 -0.10357006810E+04  0.10705618357E+04  0.82270093316E+02 0.  0.
         24    2    4    4    0    0 -0.20272580773E+03 -0.50207564662E+03 -0.21358805003E+03  0.58756266257E+03  0.80201741092E+02 0.  0.
         13    1    3    3    0    0  0.28721649868E+03  0.25309695356E+03  0.12619325412E+03  0.40308326981E+03  0.00000000000E+00 0.  1.
        -13    1    3    3    0    0  0.17020570777E+03  0.20669252915E+03  0.35472870802E+02  0.27009277874E+03  0.00000000000E+00 0. -1.
          2    1    6    6  502    0 -0.52364193982E+02 -0.15154590758E+03 -0.25720704494E+02  0.16238757820E+03  0.00000000000E+00 0. -1.
          3    1    5    5  503    0 -0.15503925235E+03 -0.24443196249E+01 -0.48684441702E+03  0.51094092697E+03  0.00000000000E+00 0. -1.
         -4    1    5    5    0  503 -0.99657146369E+02  0.44730483530E+02 -0.54885626395E+03  0.55962090870E+03  0.00000000000E+00 0.  1.
         -1    1    6    6    0  502 -0.15036161374E+03 -0.35052973905E+03 -0.18786734554E+03  0.42517508436E+03  0.00000000000E+00 0.  1.
<mgrwt>
<rscale>  0 0.20620474E+04</rscale>
<asrwt>0</asrwt>
<pdfrwt beam="1">  1        2 0.26299409E+00 0.20620474E+04</pdfrwt>
<pdfrwt beam="2">  1       -2 0.95667534E-01 0.20620474E+04</pdfrwt>
<totfact> 0.82117279E+00</totfact>
</mgrwt>
</event>
<event>
12    1  0.1477245E-007  0.1510980E+04  0.7818608E-02  0.8877184E-01
          2   -1    0    0  501    0  0.00000000000E+00  0.00000000000E+00  0.96657164199E+03  0.96657164199E+03  0.00000000000E+00 0. -1.
         -2   -1    0    0    0  501 -0.00000000000E+00 -0.00000000000E+00 -0.59050472460E+03  0.59050472460E+03  0.00000000000E+00 0.  1.
         23    2    1    2    0    0 -0.45814418128E+03 -0.14634726014E+03  0.50027869591E+02  0.49179978252E+03  0.89725286049E+02 0.  0.
        254    2    1    2    0    0  0.45814418128E+03  0.14634726014E+03  0.32603904780E+03  0.10652765841E+04  0.89286008339E+03 0.  0.
        -24    2    4    4    0    0  0.13680071903E+03 -0.11072125036E+03  0.55344111193E+03  0.58695751606E+03  0.85137707697E+02 0.  0.
         24    2    4    4    0    0  0.32134346225E+03  0.25706851050E+03 -0.22740206414E+03  0.47831906802E+03  0.87929473060E+02 0.  0.
         13    1    3    3    0    0 -0.22037318420E+03 -0.88103565783E+02  0.66419084927E+02  0.24645095549E+03  0.00000000000E+00 0. -1.
        -13    1    3    3    0    0 -0.23777099708E+03 -0.58243694362E+02 -0.16391215336E+02  0.24534882703E+03  0.00000000000E+00 0.  1.
          2    1    6    6  502    0 -0.18184655543E+01  0.18616606435E+02 -0.55864597628E+01  0.19521613273E+02  0.00000000000E+00 0. -1.
          3    1    5    5  503    0  0.51276073518E+02  0.48572403405E+01  0.15848648725E+03  0.16664571744E+03  0.00000000000E+00 0. -1.
         -4    1    5    5    0  503  0.85524645509E+02 -0.11557849070E+03  0.39495462468E+03  0.42031179862E+03  0.00000000000E+00 0.  1.
         -1    1    6    6    0  502  0.32316192781E+03  0.23845190407E+03 -0.22181560438E+03  0.45879745475E+03  0.00000000000E+00 0.  1.
<mgrwt>
<rscale>  0 0.15109800E+04</rscale>
<asrwt>0</asrwt>
<pdfrwt beam="1">  1        2 0.14870333E+00 0.15109800E+04</pdfrwt>
<pdfrwt beam="2">  1       -2 0.90846881E-01 0.15109800E+04</pdfrwt>
<totfact> 0.26441953E+01</totfact>
</mgrwt>
</event>
<event>
12    1  0.1477245E-007  0.1482796E+04  0.7818608E-02  0.8895975E-01
          2   -1    0    0  501    0  0.00000000000E+00  0.00000000000E+00  0.28235489229E+04  0.28235489229E+04  0.00000000000E+00 0. -1.
         -2   -1    0    0    0  501 -0.00000000000E+00 -0.00000000000E+00 -0.19467368073E+03  0.19467368073E+03  0.00000000000E+00 0.  1.
         23    2    1    2    0    0 -0.28604941421E+03 -0.35701057465E+03  0.71090025463E+03  0.85008818491E+03  0.89386421229E+02 0.  0.
        254    2    1    2    0    0  0.28604941421E+03  0.35701057465E+03  0.19179749875E+04  0.21681344187E+04  0.90160855531E+03 0.  0.
        -24    2    4    4    0    0  0.32826384687E+03 -0.13539689719E+03  0.14033974784E+04  0.14498076275E+04  0.79549993848E+02 0.  0.
         24    2    4    4    0    0 -0.42214432655E+02  0.49240747184E+03  0.51457750913E+03  0.71832679118E+03  0.83403773149E+02 0.  0.
         11    1    3    3    0    0 -0.14058402164E+03 -0.16046720533E+03  0.41160385415E+03  0.46360686349E+03  0.00000000000E+00 0. -1.
        -11    1    3    3    0    0 -0.14546539258E+03 -0.19654336933E+03  0.29929640048E+03  0.38648132142E+03  0.00000000000E+00 0.  1.
          2    1    6    6  502    0 -0.10772914743E+02  0.19674091243E+02  0.49890143894E+02  0.54700566872E+02  0.00000000000E+00 0. -1.
          3    1    5    5  503    0  0.12659526651E+03 -0.48858579919E+02  0.39035547826E+03  0.41326858306E+03  0.00000000000E+00 0. -1.
         -4    1    5    5    0  503  0.20166858036E+03 -0.86538317269E+02  0.10130420002E+04  0.10365390445E+04  0.00000000000E+00 0.  1.
         -1    1    6    6    0  502 -0.31441517912E+02  0.47273338060E+03  0.46468736524E+03  0.66362622431E+03  0.00000000000E+00 0.  1.
<mgrwt>
<rscale>  0 0.14827956E+04</rscale>
<asrwt>0</asrwt>
<pdfrwt beam="1">  1        2 0.43439211E+00 0.14827956E+04</pdfrwt>
<pdfrwt beam="2">  1       -2 0.29949799E-01 0.14827956E+04</pdfrwt>
<totfact> 0.22395081E+01</totfact>
</mgrwt>
</event>
<event>
12    1  0.1477245E-007  0.2306741E+04  0.7818608E-02  0.8475268E-01
          2   -1    0    0  501    0  0.00000000000E+00  0.00000000000E+00  0.11258217870E+04  0.11258217870E+04  0.00000000000E+00 0. -1.
         -2   -1    0    0    0  501 -0.00000000000E+00 -0.00000000000E+00 -0.11815930700E+04  0.11815930700E+04  0.00000000000E+00 0.  1.
         23    2    1    2    0    0  0.85074380569E+03 -0.47467468414E+03 -0.82495468546E+02  0.98246122111E+03  0.96661626165E+02 0.  0.
        254    2    1    2    0    0 -0.85074380569E+03  0.47467468414E+03  0.26724185528E+02  0.13249536360E+04  0.89761176277E+03 0.  0.
        -24    2    4    4    0    0  0.11761553271E+01 -0.16296724835E+03  0.16899895801E+03  0.24813427746E+03  0.80313538515E+02 0.  0.
         24    2    4    4    0    0 -0.85191996102E+03  0.63764193249E+03 -0.14227477248E+03  0.10768193585E+04  0.83324461534E+02 0.  0.
         11    1    3    3    0    0  0.83065500395E+03 -0.47203979741E+03 -0.68553402289E+02  0.95786683568E+03  0.00000000000E+00 0. -1.
        -11    1    3    3    0    0  0.20088801734E+02 -0.26348867370E+01 -0.13942066257E+02  0.24594385431E+02  0.00000000000E+00 0.  1.
          2    1    6    6  502    0 -0.21571994307E+03  0.14402863922E+03 -0.15969825526E+01  0.25938753460E+03  0.00000000000E+00 0. -1.
          1    1    5    5  503    0  0.25716134970E+02 -0.14872143503E+03  0.12596421705E+03  0.19658679714E+03  0.00000000000E+00 0. -1.
         -2    1    5    5    0  503 -0.24539979643E+02 -0.14245813323E+02  0.43034740956E+02  0.51547480319E+02  0.00000000000E+00 0.  1.
         -1    1    6    6    0  502 -0.63620001794E+03  0.49361329328E+03 -0.14067778993E+03  0.81743182389E+03  0.00000000000E+00 0.  1.
<mgrwt>
<rscale>  0 0.23067407E+04</rscale>
<asrwt>0</asrwt>
<pdfrwt beam="1">  1        2 0.17320335E+00 0.23067407E+04</pdfrwt>
<pdfrwt beam="2">  1       -2 0.18178355E+00 0.23067407E+04</pdfrwt>
<totfact> 0.33543894E+00</totfact>
</mgrwt>
</event>
<event>
12    1  0.1477245E-007  0.1336112E+04  0.7818608E-02  0.9001408E-01
          1   -1    0    0  501    0  0.00000000000E+00  0.00000000000E+00  0.28358155771E+03  0.28358155771E+03  0.00000000000E+00 0. -1.
         -1   -1    0    0    0  501 -0.00000000000E+00 -0.00000000000E+00 -0.15737929680E+04  0.15737929680E+04  0.00000000000E+00 0.  1.
         23    2    1    2    0    0  0.11392998016E+03  0.21868917145E+02 -0.82677158549E+03  0.83980179116E+03  0.90870809121E+02 0.  0.
        254    2    1    2    0    0 -0.11392998016E+03 -0.21868917145E+02 -0.46343982484E+03  0.10175727346E+04  0.89845395487E+03 0.  0.
        -24    2    4    4    0    0 -0.48454990955E+03  0.26652256581E+02 -0.39090961236E+03  0.62846712375E+03  0.81618888610E+02 0.  0.
         24    2    4    4    0    0  0.37061992939E+03 -0.48521173726E+02 -0.72530212482E+02  0.38910561084E+03  0.80181720523E+02 0.  0.
         11    1    3    3    0    0  0.10006586483E+03  0.33534715767E+02 -0.43527869032E+03  0.44788982207E+03  0.00000000000E+00 0.  1.
        -11    1    3    3    0    0  0.13864115334E+02 -0.11665798623E+02 -0.39149289517E+03  0.39191196910E+03  0.00000000000E+00 0. -1.
          4    1    6    6  502    0  0.20318079609E+03  0.72257224370E+01 -0.60958332059E+02  0.21225118424E+03  0.00000000000E+00 0. -1.
          1    1    5    5  503    0 -0.45389521049E+03  0.30157504818E+02 -0.38723351024E+03  0.59739444980E+03  0.00000000000E+00 0. -1.
         -2    1    5    5    0  503 -0.30654699061E+02 -0.35052482365E+01 -0.36761021204E+01  0.31072673951E+02  0.00000000000E+00 0.  1.
         -3    1    6    6    0  502  0.16743913330E+03 -0.55746896163E+02 -0.11571880423E+02  0.17685442660E+03  0.00000000000E+00 0.  1.
<mgrwt>
<rscale>  0 0.13361118E+04</rscale>
<asrwt>0</asrwt>
<pdfrwt beam="1">  1        1 0.43627932E-01 0.13361118E+04</pdfrwt>
<pdfrwt beam="2">  1       -1 0.24212199E+00 0.13361118E+04</pdfrwt>
<totfact> 0.72668387E+00</totfact>
</mgrwt>
</event>
<event>
12    1  0.1477245E-007  0.1931741E+04  0.7818608E-02  0.8639216E-01
          1   -1    0    0  501    0  0.00000000000E+00  0.00000000000E+00  0.72142201206E+03  0.72142201206E+03  0.00000000000E+00 0. -1.
         -1   -1    0    0    0  501 -0.00000000000E+00 -0.00000000000E+00 -0.12931485624E+04  0.12931485624E+04  0.00000000000E+00 0.  1.
         23    2    1    2    0    0  0.23915938687E+02 -0.48762313136E+03  0.39559611546E+03  0.63483117558E+03  0.90366169324E+02 0.  0.
        254    2    1    2    0    0 -0.23915938687E+02  0.48762313136E+03 -0.96732266575E+03  0.13797393988E+04  0.85417760371E+03 0.  0.
        -24    2    4    4    0    0  0.22106381166E+01  0.29255025878E+03  0.77695924578E+02  0.31333209374E+03  0.80930855897E+02 0.  0.
         24    2    4    4    0    0 -0.26126576804E+02  0.19507287257E+03 -0.10450185903E+04  0.10664073051E+04  0.80153993100E+02 0.  0.
         11    1    3    3    0    0 -0.13297830388E+02 -0.36804526625E+02  0.98894778458E+01  0.40363439461E+02  0.00000000000E+00 0.  1.
        -11    1    3    3    0    0  0.37213769075E+02 -0.45081860473E+03  0.38570663761E+03  0.59446773612E+03  0.00000000000E+00 0. -1.
          4    1    6    6  502    0  0.19941059828E+01  0.64578827374E+02 -0.54722534965E+03  0.55102630128E+03  0.00000000000E+00 0. -1.
          1    1    5    5  503    0 -0.30793171917E+01  0.10865267823E+03 -0.10704222075E+02  0.10922209965E+03  0.00000000000E+00 0. -1.
         -2    1    5    5    0  503  0.52899553083E+01  0.18389758055E+03  0.88400146653E+02  0.20410999409E+03  0.00000000000E+00 0.  1.
         -3    1    6    6    0  502 -0.28120682786E+02  0.13049404520E+03 -0.49779324068E+03  0.51538100382E+03  0.00000000000E+00 0.  1.
<mgrwt>
<rscale>  0 0.19317410E+04</rscale>
<asrwt>0</asrwt>
<pdfrwt beam="1">  1        1 0.11098800E+00 0.19317410E+04</pdfrwt>
<pdfrwt beam="2">  1       -1 0.19894593E+00 0.19317410E+04</pdfrwt>
<totfact> 0.37146213E+00</totfact>
</mgrwt>
</event>
<event>
12    1  0.1477245E-007  0.1326073E+04  0.7818608E-02  0.9009141E-01
          1   -1    0    0  501    0  0.00000000000E+00  0.00000000000E+00  0.12291638154E+04  0.12291638154E+04  0.00000000000E+00 0. -1.
         -1   -1    0    0    0  501 -0.00000000000E+00 -0.00000000000E+00 -0.35765576363E+03  0.35765576363E+03  0.00000000000E+00 0.  1.
         23    2    1    2    0    0  0.76812031635E+02  0.17539899052E+03  0.59273947157E+03  0.62900774788E+03  0.87440103264E+02 0.  0.
        254    2    1    2    0    0 -0.76812031635E+02 -0.17539899052E+03  0.27876858023E+03  0.95781183118E+03  0.89611756402E+03 0.  0.
        -24    2    4    4    0    0  0.12844309224E+03 -0.48233816963E+03  0.28629309247E+03  0.58011105048E+03  0.73602705584E+02 0.  0.
         24    2    4    4    0    0 -0.20525512387E+03  0.30693917912E+03 -0.75245122439E+01  0.37770078069E+03  0.79119756687E+02 0.  0.
         13    1    3    3    0    0  0.44628637371E+01  0.34825395046E+01 -0.17657125543E+01  0.59298376842E+01  0.00000000000E+00 0.  1.
        -13    1    3    3    0    0  0.72349167898E+02  0.17191645101E+03  0.59450518413E+03  0.62307791020E+03  0.00000000000E+00 0. -1.
          4    1    6    6  502    0 -0.93899545084E+02  0.10762058208E+03  0.31016420848E+02  0.14615516623E+03  0.00000000000E+00 0. -1.
          1    1    5    5  503    0  0.67975856733E+02 -0.13120045491E+03  0.95483779598E+02  0.17593018113E+03  0.00000000000E+00 0. -1.
         -2    1    5    5    0  503  0.60467235504E+02 -0.35113771473E+03  0.19080931287E+03  0.40418086935E+03  0.00000000000E+00 0.  1.
         -3    1    6    6    0  502 -0.11135557879E+03  0.19931859704E+03 -0.38540933092E+02  0.23154561446E+03  0.00000000000E+00 0.  1.
<mgrwt>
<rscale>  0 0.13260732E+04</rscale>
<asrwt>0</asrwt>
<pdfrwt beam="1">  1        1 0.18910212E+00 0.13260732E+04</pdfrwt>
<pdfrwt beam="2">  1       -1 0.55023964E-01 0.13260732E+04</pdfrwt>
<totfact> 0.33302974E+01</totfact>
</mgrwt>
</event>
<event>
12    1  0.1477245E-007  0.2199634E+04  0.7818608E-02  0.8518580E-01
          1   -1    0    0  501    0  0.00000000000E+00  0.00000000000E+00  0.15404697946E+04  0.15404697946E+04  0.00000000000E+00 0. -1.
         -1   -1    0    0    0  501 -0.00000000000E+00 -0.00000000000E+00 -0.78521348816E+03  0.78521348816E+03  0.00000000000E+00 0.  1.
         23    2    1    2    0    0 -0.84363810773E+03 -0.31791945010E+03  0.79177687469E+02  0.90947867173E+03  0.89912816500E+02 0.  0.
        254    2    1    2    0    0  0.84363810773E+03  0.31791945010E+03  0.67607861895E+03  0.14162046110E+04  0.85776171964E+03 0.  0.
        -24    2    4    4    0    0  0.64073015924E+03 -0.66278240911E+02  0.52217939353E+02  0.65158135812E+03  0.83087970767E+02 0.  0.
         24    2    4    4    0    0  0.20290794850E+03  0.38419769101E+03  0.62386067959E+03  0.76462325289E+03  0.81652127810E+02 0.  0.
         11    1    3    3    0    0 -0.18844198937E+03 -0.11000874116E+03  0.71083897549E+01  0.21831819827E+03  0.00000000000E+00 0. -1.
        -11    1    3    3    0    0 -0.65519611836E+03 -0.20791070895E+03  0.72069297715E+02  0.69116047346E+03  0.00000000000E+00 0.  1.
          2    1    6    6  502    0  0.92478914782E+02  0.20903058275E+03  0.39186739499E+03  0.45365867065E+03  0.00000000000E+00 0. -1.
          3    1    5    5  503    0  0.59747398850E+03 -0.44990171467E+02  0.62077518105E+02  0.60237272574E+03  0.00000000000E+00 0. -1.
         -4    1    5    5    0  503  0.43256170736E+02 -0.21288069445E+02 -0.98595787516E+01  0.49208632378E+02  0.00000000000E+00 0.  1.
         -1    1    6    6    0  502  0.11042903371E+03  0.17516710826E+03  0.23199328460E+03  0.31096458224E+03  0.00000000000E+00 0.  1.
<mgrwt>
<rscale>  0 0.21996342E+04</rscale>
<asrwt>0</asrwt>
<pdfrwt beam="1">  1        1 0.23699535E+00 0.21996342E+04</pdfrwt>
<pdfrwt beam="2">  1       -1 0.12080208E+00 0.21996342E+04</pdfrwt>
<totfact> 0.34054460E+00</totfact>
</mgrwt>
</event>
<event>
12    1  0.1477245E-007  0.1623934E+04  0.7818608E-02  0.8805978E-01
         -2   -1    0    0    0  501 -0.00000000000E+00  0.00000000000E+00  0.20640089531E+03  0.20640089531E+03  0.00000000000E+00 0.  1.
          2   -1    0    0  501    0  0.00000000000E+00 -0.00000000000E+00 -0.31942235489E+04  0.31942235489E+04  0.00000000000E+00 0. -1.
         23    2    1    2    0    0 -0.55676663185E+03 -0.60064640406E+01 -0.96304622154E+03  0.11159694301E+04  0.88907728883E+02 0.  0.
        254    2    1    2    0    0  0.55676663185E+03  0.60064640406E+01 -0.20247764320E+04  0.22846550140E+04  0.89994653926E+03 0.  0.
        -24    2    4    4    0    0  0.54158240855E+03 -0.36635179151E+03 -0.14785919945E+04  0.16186452278E+04  0.79075577355E+02 0.  0.
         24    2    4    4    0    0  0.15184223296E+02  0.37235825555E+03 -0.54618443750E+03  0.66600978620E+03  0.79814562763E+02 0.  0.
         13    1    3    3    0    0 -0.47079292321E+03 -0.15283822903E+02 -0.86726311638E+03  0.98692699062E+03  0.00000000000E+00 0.  1.
        -13    1    3    3    0    0 -0.85973708641E+02  0.92773588626E+01 -0.95783105156E+02  0.12904243952E+03  0.00000000000E+00 0. -1.
          2    1    6    6  502    0 -0.16579686370E+02  0.31485398439E+03 -0.44518623969E+03  0.54552608141E+03  0.00000000000E+00 0. -1.
          3    1    5    5  503    0  0.36011845987E+03 -0.20955983845E+03 -0.10000265103E+04  0.10833529676E+04  0.00000000000E+00 0. -1.
         -4    1    5    5    0  503  0.18146394868E+03 -0.15679195306E+03 -0.47856548420E+03  0.53529226025E+03  0.00000000000E+00 0.  1.
         -1    1    6    6    0  502  0.31763909666E+02  0.57504271162E+02 -0.10099819781E+03  0.12048370479E+03  0.00000000000E+00 0.  1.
<mgrwt>
<rscale>  0 0.16239342E+04</rscale>
<asrwt>0</asrwt>
<pdfrwt beam="1">  1        2 0.49141894E+00 0.16239342E+04</pdfrwt>
<pdfrwt beam="2">  1       -2 0.31753988E-01 0.16239342E+04</pdfrwt>
<totfact> 0.11629151E+01</totfact>
</mgrwt>
</event>
<event>
12    1  0.1477245E-007  0.1564689E+04  0.7818608E-02  0.8842539E-01
         -1   -1    0    0    0  501 -0.00000000000E+00  0.00000000000E+00  0.93646606305E+03  0.93646606305E+03  0.00000000000E+00 0.  1.
          1   -1    0    0  501    0  0.00000000000E+00 -0.00000000000E+00 -0.65358787189E+03  0.65358787189E+03  0.00000000000E+00 0. -1.
         23    2    1    2    0    0 -0.43558307773E+03  0.21743851762E+03 -0.69594400660E+02  0.50035128987E+03  0.92173239745E+02 0.  0.
        254    2    1    2    0    0  0.43558307773E+03 -0.21743851762E+03  0.35247259182E+03  0.10897026451E+04  0.90895698476E+03 0.  0.
        -24    2    4    4    0    0 -0.19044190911E+03  0.45385460756E+02 -0.13437709744E+03  0.25113444308E+03  0.81751717974E+02 0.  0.
         24    2    4    4    0    0  0.62602498683E+03 -0.26282397837E+03  0.48684968927E+03  0.83856820199E+03  0.72043609774E+02 0.  0.
         11    1    3    3    0    0 -0.15702931887E+02 -0.64919652023E+01 -0.12462728626E+02  0.21072429543E+02  0.00000000000E+00 0. -1.
        -11    1    3    3    0    0 -0.41988014584E+03  0.22393048282E+03 -0.57131672033E+02  0.47927886033E+03  0.00000000000E+00 0.  1.
          2    1    6    6  502    0  0.29765432340E+03 -0.15238269404E+03  0.20763410504E+03  0.39361212285E+03  0.00000000000E+00 0. -1.
          3    1    5    5  503    0 -0.17396639038E+03  0.29831333915E+02 -0.14272232313E+03  0.22698871114E+03  0.00000000000E+00 0. -1.
         -4    1    5    5    0  503 -0.16475518726E+02  0.15554126841E+02  0.83452256890E+01  0.24145731939E+02  0.00000000000E+00 0.  1.
         -1    1    6    6    0  502  0.32837066343E+03 -0.11044128433E+03  0.27921558423E+03  0.44495607914E+03  0.00000000000E+00 0.  1.
<mgrwt>
<rscale>  0 0.15646889E+04</rscale>
<asrwt>0</asrwt>
<pdfrwt beam="1">  1        1 0.10055198E+00 0.15646889E+04</pdfrwt>
<pdfrwt beam="2">  1       -1 0.14407170E+00 0.15646889E+04</pdfrwt>
<totfact> 0.11299368E+01</totfact>
</mgrwt>
</event>
<event>
12    1  0.1477245E-007  0.2073145E+04  0.7818608E-02  0.8573166E-01
         -1   -1    0    0    0  501 -0.00000000000E+00  0.00000000000E+00  0.79149220099E+03  0.79149220099E+03  0.00000000000E+00 0.  1.
          1   -1    0    0  501    0  0.00000000000E+00 -0.00000000000E+00 -0.13575405035E+04  0.13575405035E+04  0.00000000000E+00 0. -1.
         23    2    1    2    0    0  0.30919825499E+03 -0.77061924728E+03 -0.10222281834E+03  0.84149093484E+03  0.90553319454E+02 0.  0.
        254    2    1    2    0    0 -0.30919825499E+03  0.77061924728E+03 -0.46382548421E+03  0.13075417697E+04  0.89725905652E+03 0.  0.
        -24    2    4    4    0    0 -0.18792183343E+03 -0.12894606968E+03  0.70078517965E+02  0.25161300898E+03  0.80351746972E+02 0.  0.
         24    2    4    4    0    0 -0.12127642156E+03  0.89956531696E+03 -0.53390400217E+03  0.10559287607E+04  0.77500543563E+02 0.  0.
         11    1    3    3    0    0  0.13434976951E+02 -0.10221062378E+03  0.24124013241E+01  0.10311803867E+03  0.00000000000E+00 0. -1.
        -11    1    3    3    0    0  0.29576327804E+03 -0.66840862350E+03 -0.10463521967E+03  0.73837289617E+03  0.00000000000E+00 0.  1.
          2    1    6    6  502    0 -0.14366122755E+02  0.36682379820E+03 -0.23313419641E+03  0.43487657783E+03  0.00000000000E+00 0. -1.
          3    1    5    5  503    0 -0.19222621435E+03 -0.12832128668E+03  0.76851241002E+02  0.24356392044E+03  0.00000000000E+00 0. -1.
         -4    1    5    5    0  503  0.43043809208E+01 -0.62478300153E+00 -0.67727230365E+01  0.80490885347E+01  0.00000000000E+00 0.  1.
         -1    1    6    6    0  502 -0.10691029880E+03  0.53274151875E+03 -0.30076980576E+03  0.62105218288E+03  0.00000000000E+00 0.  1.
<mgrwt>
<rscale>  0 0.20731452E+04</rscale>
<asrwt>0</asrwt>
<pdfrwt beam="1">  1        1 0.20885238E+00 0.20731452E+04</pdfrwt>
<pdfrwt beam="2">  1       -1 0.12176803E+00 0.20731452E+04</pdfrwt>
<totfact> 0.45317118E+00</totfact>
</mgrwt>
</event>
<event>
12    1  0.1477245E-007  0.1297124E+04  0.7818608E-02  0.9031849E-01
          1   -1    0    0  501    0  0.00000000000E+00  0.00000000000E+00  0.12751569652E+04  0.12751569652E+04  0.00000000000E+00 0. -1.
         -1   -1    0    0    0  501 -0.00000000000E+00 -0.00000000000E+00 -0.32986711600E+03  0.32986711600E+03  0.00000000000E+00 0.  1.
         23    2    1    2    0    0 -0.20744620010E+03  0.22355328456E+03  0.45388292535E+03  0.55448198257E+03  0.91818092430E+02 0.  0.
        254    2    1    2    0    0  0.20744620010E+03 -0.22355328456E+03  0.49140692389E+03  0.10505420987E+04  0.87701079768E+03 0.  0.
        -24    2    4    4    0    0 -0.18998442645E+03  0.22682548069E+03  0.26327438570E+03  0.40311244004E+03  0.75115618651E+02 0.  0.
         24    2    4    4    0    0  0.39743062654E+03 -0.45037876524E+03  0.22813253819E+03  0.64742965863E+03  0.79552327405E+02 0.  0.
         11    1    3    3    0    0 -0.59380014250E+02  0.10110801638E+03  0.11113809468E+03  0.16155647049E+03  0.00000000000E+00 0.  1.
        -11    1    3    3    0    0 -0.14806618585E+03  0.12244526818E+03  0.34274483067E+03  0.39292551208E+03  0.00000000000E+00 0. -1.
          4    1    6    6  502    0  0.29987959650E+03 -0.30597464099E+03  0.13143645391E+03  0.44813367955E+03  0.00000000000E+00 0. -1.
          1    1    5    5  503    0 -0.16195511841E+03  0.16689914224E+03  0.16705166078E+03  0.28634077850E+03  0.00000000000E+00 0. -1.
         -2    1    5    5    0  503 -0.28029308041E+02  0.59926338447E+02  0.96222724918E+02  0.11677166154E+03  0.00000000000E+00 0.  1.
         -3    1    6    6    0  502  0.97551030040E+02 -0.14440412425E+03  0.96696084282E+02  0.19929597908E+03  0.00000000000E+00 0.  1.
<mgrwt>
<rscale>  0 0.12971235E+04</rscale>
<asrwt>0</asrwt>
<pdfrwt beam="1">  1        1 0.19617799E+00 0.12971235E+04</pdfrwt>
<pdfrwt beam="2">  1       -1 0.50748788E-01 0.12971235E+04</pdfrwt>
<totfact> 0.36128517E+01</totfact>
</mgrwt>
</event>
<event>
12    1  0.1477245E-007  0.1466690E+04  0.7818608E-02  0.8906911E-01
          2   -1    0    0  501    0  0.00000000000E+00  0.00000000000E+00  0.19439299500E+03  0.19439299500E+03  0.00000000000E+00 0. -1.
         -2   -1    0    0    0  501 -0.00000000000E+00 -0.00000000000E+00 -0.27665341885E+04  0.27665341885E+04  0.00000000000E+00 0.  1.
         23    2    1    2    0    0  0.73230453483E+02  0.12154572239E+03 -0.16822483889E+04  0.16911575712E+04  0.99590294477E+02 0.  0.
        254    2    1    2    0    0 -0.73230453483E+02 -0.12154572239E+03 -0.88989280453E+03  0.12697696122E+04  0.89457789074E+03 0.  0.
        -24    2    4    4    0    0  0.27349311308E+03 -0.36806440398E+03 -0.38055467964E+03  0.60105113670E+03  0.78553907356E+02 0.  0.
         24    2    4    4    0    0 -0.34672356656E+03  0.24651868159E+03 -0.50933812489E+03  0.66871847551E+03  0.82282331272E+02 0.  0.
         13    1    3    3    0    0  0.31439004421E+02  0.21136052628E+02 -0.13864566511E+03  0.14372809111E+03  0.00000000000E+00 0. -1.
        -13    1    3    3    0    0  0.41791449062E+02  0.10040966976E+03 -0.15436027238E+04  0.15474294801E+04  0.00000000000E+00 0.  1.
          2    1    6    6  502    0 -0.21674029273E+03  0.10765015992E+03 -0.30866051459E+03  0.39221961283E+03  0.00000000000E+00 0. -1.
          3    1    5    5  503    0  0.90078718909E+02 -0.10320803257E+03 -0.71111544209E+02  0.15434676967E+03  0.00000000000E+00 0. -1.
         -4    1    5    5    0  503  0.18341439417E+03 -0.26485637140E+03 -0.30944313543E+03  0.44670436703E+03  0.00000000000E+00 0.  1.
         -1    1    6    6    0  502 -0.12998327383E+03  0.13886852166E+03 -0.20067761030E+03  0.27649886268E+03  0.00000000000E+00 0.  1.
<mgrwt>
<rscale>  0 0.14666900E+04</rscale>
<asrwt>0</asrwt>
<pdfrwt beam="1">  1        2 0.29906614E-01 0.14666900E+04</pdfrwt>
<pdfrwt beam="2">  1       -2 0.42562065E+00 0.14666900E+04</pdfrwt>
<totfact> 0.88048667E-01</totfact>
</mgrwt>
</event>
<event>
12    1  0.1477245E-007  0.1407378E+04  0.7818608E-02  0.8948495E-01
         -2   -1    0    0    0  501 -0.00000000000E+00  0.00000000000E+00  0.36147567650E+03  0.36147567650E+03  0.00000000000E+00 0.  1.
          2   -1    0    0  501    0  0.00000000000E+00 -0.00000000000E+00 -0.13698796383E+04  0.13698796383E+04  0.00000000000E+00 0. -1.
         23    2    1    2    0    0 -0.56645578083E+02  0.13170385835E+03  0.16790037676E+03  0.23965327826E+03  0.93212281622E+02 0.  0.
        254    2    1    2    0    0  0.56645578083E+02 -0.13170385835E+03 -0.11763043386E+04  0.14917020366E+04  0.90605101461E+03 0.  0.
        -24    2    4    4    0    0 -0.34903079466E+03  0.89603706868E+02 -0.83108495585E+03  0.90937051463E+03  0.80007556670E+02 0.  0.
         24    2    4    4    0    0  0.40567637274E+03 -0.22130756522E+03 -0.34521938274E+03  0.58233152193E+03  0.79895064898E+02 0.  0.
         13    1    3    3    0    0  0.11192804388E+02  0.78711823160E+02  0.11073012371E+03  0.13631577411E+03  0.00000000000E+00 0.  1.
        -13    1    3    3    0    0 -0.67838382472E+02  0.52992035189E+02  0.57170253049E+02  0.10333750415E+03  0.00000000000E+00 0. -1.
          4    1    6    6  502    0  0.36298292891E+02 -0.39821676000E+02 -0.18882613958E+02  0.57095403108E+02  0.00000000000E+00 0. -1.
          1    1    5    5  503    0 -0.14214456904E+03  0.33725363616E+02 -0.43720309398E+03  0.46096531762E+03  0.00000000000E+00 0. -1.
         -2    1    5    5    0  503 -0.20688622562E+03  0.55878343252E+02 -0.39388186187E+03  0.44840519701E+03  0.00000000000E+00 0.  1.
         -3    1    6    6    0  502  0.36937807985E+03 -0.18148588922E+03 -0.32633676878E+03  0.52523611882E+03  0.00000000000E+00 0.  1.
<mgrwt>
<rscale>  0 0.14073779E+04</rscale>
<asrwt>0</asrwt>
<pdfrwt beam="1">  1        2 0.21075072E+00 0.14073779E+04</pdfrwt>
<pdfrwt beam="2">  1       -2 0.55611642E-01 0.14073779E+04</pdfrwt>
<totfact> 0.44499347E+01</totfact>
</mgrwt>
</event>
<event>
12    1  0.1477245E-007  0.1811287E+04  0.7818608E-02  0.8700320E-01
          2   -1    0    0  501    0  0.00000000000E+00  0.00000000000E+00  0.28378902243E+04  0.28378902243E+04  0.00000000000E+00 0. -1.
         -2   -1    0    0    0  501 -0.00000000000E+00 -0.00000000000E+00 -0.28901399808E+03  0.28901399808E+03  0.00000000000E+00 0.  1.
         23    2    1    2    0    0 -0.29564082836E+03 -0.41135742711E+03  0.18420679128E+03  0.54413033703E+03  0.74345473953E+02 0.  0.
        254    2    1    2    0    0  0.29564082836E+03  0.41135742711E+03  0.23646694350E+04  0.25827738854E+04  0.90688531473E+03 0.  0.
        -24    2    4    4    0    0  0.67942532369E+02  0.36963859980E+03  0.22955756607E+04  0.23275006143E+04  0.79640524061E+02 0.  0.
         24    2    4    4    0    0  0.22769829599E+03  0.41718827302E+02  0.69093774213E+02  0.25527327109E+03  0.82483445305E+02 0.  0.
         13    1    3    3    0    0 -0.14935281287E+03 -0.14742158865E+03  0.85901247560E+02  0.22675628292E+03  0.00000000000E+00 0.  1.
        -13    1    3    3    0    0 -0.14628801549E+03 -0.26393583845E+03  0.98305543716E+02  0.31737405411E+03  0.00000000000E+00 0. -1.
          2    1    6    6  502    0  0.85733709662E+02 -0.14780484700E+02 -0.13804145116E+01  0.87009408943E+02  0.00000000000E+00 0. -1.
          1    1    5    5  503    0  0.13975663657E+02  0.26450554079E+03  0.15024775001E+04  0.15256464658E+04  0.00000000000E+00 0. -1.
         -2    1    5    5    0  503  0.53966868712E+02  0.10513305901E+03  0.79309816066E+03  0.80185414849E+03  0.00000000000E+00 0.  1.
         -1    1    6    6    0  502  0.14196458633E+03  0.56499312002E+02  0.70474188725E+02  0.16826386215E+03  0.00000000000E+00 0.  1.
<mgrwt>
<rscale>  0 0.18112868E+04</rscale>
<asrwt>0</asrwt>
<pdfrwt beam="1">  1        2 0.43659848E+00 0.18112868E+04</pdfrwt>
<pdfrwt beam="2">  1       -2 0.44463694E-01 0.18112868E+04</pdfrwt>
<totfact> 0.99496185E+00</totfact>
</mgrwt>
</event>
<event>
12    1  0.1477245E-007  0.1347966E+04  0.7818608E-02  0.8992369E-01
          2   -1    0    0  501    0  0.00000000000E+00  0.00000000000E+00  0.40989277903E+04  0.40989277903E+04  0.00000000000E+00 0.  1.
         -2   -1    0    0    0  501 -0.00000000000E+00 -0.00000000000E+00 -0.11082241688E+03  0.11082241688E+03  0.00000000000E+00 0. -1.
         23    2    1    2    0    0  0.28496662702E+03 -0.70308889702E+02  0.43768639282E+03  0.53517016232E+03  0.93211617807E+02 0.  0.
        254    2    1    2    0    0 -0.28496662702E+03  0.70308889702E+02  0.35504189806E+04  0.36745800448E+04  0.90050777326E+03 0.  0.
        -24    2    4    4    0    0 -0.45860531891E+03 -0.16637486087E+03  0.30393176121E+04  0.30792928435E+04  0.81199974616E+02 0.  0.
         24    2    4    4    0    0  0.17363869189E+03  0.23668375058E+03  0.51110136848E+03  0.59528720134E+03  0.83502395818E+02 0.  0.
         13    1    3    3    0    0  0.18754523225E+03 -0.34496006281E+02  0.20279859669E+03  0.27837108221E+03  0.00000000000E+00 0. -1.
        -13    1    3    3    0    0  0.97421394768E+02 -0.35812883420E+02  0.23488779613E+03  0.25679908011E+03  0.00000000000E+00 0.  1.
          4    1    6    6  502    0  0.10484384399E+03  0.85375602706E+02  0.18350738706E+03  0.22793899681E+03  0.00000000000E+00 0. -1.
          3    1    5    5  503    0 -0.73004410082E+02 -0.38761025239E+02  0.71400361096E+03  0.71877202048E+03  0.00000000000E+00 0. -1.
         -4    1    5    5    0  503 -0.38560090883E+03 -0.12761383564E+03  0.23253140011E+04  0.23605208230E+04  0.00000000000E+00 0.  1.
         -3    1    6    6    0  502  0.68794847904E+02  0.15130814787E+03  0.32759398143E+03  0.36734820454E+03  0.00000000000E+00 0.  1.
<mgrwt>
<rscale>  0 0.13479660E+04</rscale>
<asrwt>0</asrwt>
<pdfrwt beam="1">  1        2 0.63060416E+00 0.13479660E+04</pdfrwt>
<pdfrwt beam="2">  1       -2 0.17049606E-01 0.13479660E+04</pdfrwt>
<totfact> 0.80836287E+00</totfact>
</mgrwt>
</event>
<event>
12    1  0.1477245E-007  0.1614654E+04  0.7818608E-02  0.8811596E-01
          1   -1    0    0  501    0  0.00000000000E+00  0.00000000000E+00  0.17762595216E+04  0.17762595216E+04  0.00000000000E+00 0. -1.
         -1   -1    0    0    0  501 -0.00000000000E+00 -0.00000000000E+00 -0.36693778388E+03  0.36693778388E+03  0.00000000000E+00 0.  1.
         23    2    1    2    0    0 -0.41221180600E+03  0.30320868453E+03  0.76942537617E+03  0.92867224631E+03  0.92534600014E+02 0.  0.
        254    2    1    2    0    0  0.41221180600E+03 -0.30320868453E+03  0.63989636157E+03  0.12145250592E+04  0.89652087899E+03 0.  0.
        -24    2    4    4    0    0 -0.18842028094E+03  0.14379161207E+03  0.29422401057E+03  0.38597672560E+03  0.78943234891E+02 0.  0.
         24    2    4    4    0    0  0.60063208694E+03 -0.44700029660E+03  0.34567235101E+03  0.82854833359E+03  0.80217191580E+02 0.  0.
         13    1    3    3    0    0 -0.10485347183E+03  0.35093134301E+02  0.19510710563E+03  0.22426003053E+03  0.00000000000E+00 0. -1.
        -13    1    3    3    0    0 -0.30735833417E+03  0.26811555023E+03  0.57431827054E+03  0.70441221578E+03  0.00000000000E+00 0.  1.
          4    1    6    6  502    0  0.41076362848E+03 -0.33567016873E+03  0.27409852005E+03  0.59710235249E+03  0.00000000000E+00 0. -1.
          3    1    5    5  503    0 -0.15842801254E+03  0.13902843878E+03  0.21479622789E+03  0.30094145853E+03  0.00000000000E+00 0. -1.
         -4    1    5    5    0  503 -0.29992268410E+02  0.47631732899E+01  0.79427782683E+02  0.85035267073E+02  0.00000000000E+00 0.  1.
         -3    1    6    6    0  502  0.18986845846E+03 -0.11133012787E+03  0.71573830958E+02  0.23144598110E+03  0.00000000000E+00 0.  1.
<mgrwt>
<rscale>  0 0.16146538E+04</rscale>
<asrwt>0</asrwt>
<pdfrwt beam="1">  1        1 0.27327069E+00 0.16146538E+04</pdfrwt>
<pdfrwt beam="2">  1       -1 0.56451968E-01 0.16146538E+04</pdfrwt>
<totfact> 0.12869963E+01</totfact>
</mgrwt>
</event>
<event>
12    1  0.1477245E-007  0.9763988E+03  0.7818608E-02  0.9334816E-01
         -1   -1    0    0    0  501 -0.00000000000E+00  0.00000000000E+00  0.23691659126E+03  0.23691659126E+03  0.00000000000E+00 0.  1.
          1   -1    0    0  501    0  0.00000000000E+00 -0.00000000000E+00 -0.10060023701E+04  0.10060023701E+04  0.00000000000E+00 0. -1.
         23    2    1    2    0    0 -0.58587433860E+02  0.67832335106E+02 -0.81994362715E+02  0.15323227665E+03  0.93398832964E+02 0.  0.
        254    2    1    2    0    0  0.58587433860E+02 -0.67832335106E+02 -0.68709141616E+03  0.10896866847E+04  0.84100460381E+03 0.  0.
        -24    2    4    4    0    0 -0.28105156676E+03  0.89482573770E+02 -0.63361283031E+03  0.70343090795E+03  0.79703885352E+02 0.  0.
         24    2    4    4    0    0  0.33963900062E+03 -0.15731490888E+03 -0.53478585846E+02  0.38625577677E+03  0.78936269534E+02 0.  0.
         11    1    3    3    0    0 -0.28574669788E+02  0.40067312267E+02 -0.97731053232E+02  0.10942239273E+03  0.00000000000E+00 0. -1.
        -11    1    3    3    0    0 -0.30012764072E+02  0.27765022840E+02  0.15736690518E+02  0.43809883919E+02  0.00000000000E+00 0.  1.
          4    1    6    6  502    0  0.30260722007E+03 -0.16336647964E+03 -0.39234031656E+02  0.34611998722E+03  0.00000000000E+00 0. -1.
          3    1    5    5  503    0 -0.10054402698E+03  0.26887935817E+02 -0.14246245370E+03  0.17643019347E+03  0.00000000000E+00 0. -1.
         -4    1    5    5    0  503 -0.18050753978E+03  0.62594637953E+02 -0.49115037661E+03  0.52700071448E+03  0.00000000000E+00 0.  1.
         -3    1    6    6    0  502  0.37031780551E+02  0.60515707625E+01 -0.14244554190E+02  0.40135789559E+02  0.00000000000E+00 0.  1.
<mgrwt>
<rscale>  0 0.97639880E+03</rscale>
<asrwt>0</asrwt>
<pdfrwt beam="1">  1        1 0.15476960E+00 0.97639880E+03</pdfrwt>
<pdfrwt beam="2">  1       -1 0.36448705E-01 0.97639880E+03</pdfrwt>
<totfact> 0.10827081E+02</totfact>
</mgrwt>
</event>
<event>
12    1  0.1477245E-007  0.1718876E+04  0.7818608E-02  0.8750671E-01
          2   -1    0    0  501    0  0.00000000000E+00  0.00000000000E+00  0.71285212376E+03  0.71285212376E+03  0.00000000000E+00 0. -1.
         -2   -1    0    0    0  501 -0.00000000000E+00 -0.00000000000E+00 -0.10361666774E+04  0.10361666774E+04  0.00000000000E+00 0.  1.
         23    2    1    2    0    0  0.17200013696E+02  0.51453822560E+03  0.22793481847E+03  0.57491093068E+03  0.11628787842E+03 0.  0.
        254    2    1    2    0    0 -0.17200013696E+02 -0.51453822560E+03 -0.55124937207E+03  0.11741078704E+04  0.89978219315E+03 0.  0.
        -24    2    4    4    0    0  0.38681777608E+03 -0.26148089817E+03 -0.47388256035E+02  0.47565760522E+03  0.77487151147E+02 0.  0.
         24    2    4    4    0    0 -0.40401778978E+03 -0.25305732744E+03 -0.50386111603E+03  0.69845026520E+03  0.81782414305E+02 0.  0.
         13    1    3    3    0    0  0.58548339559E+01  0.39724850550E+03  0.22596629483E+03  0.45705734936E+03  0.00000000000E+00 0. -1.
        -13    1    3    3    0    0  0.11345179740E+02  0.11728972011E+03  0.19685236383E+01  0.11785358132E+03  0.00000000000E+00 0.  1.
          4    1    6    6  502    0 -0.21376165050E+03 -0.13205653204E+03 -0.20624918125E+03  0.32507183152E+03  0.00000000000E+00 0. -1.
          1    1    5    5  503    0  0.13495804769E+03 -0.10913358641E+03 -0.52280169106E+02  0.18126508323E+03  0.00000000000E+00 0. -1.
         -2    1    5    5    0  503  0.25185972840E+03 -0.15234731176E+03  0.48919130706E+01  0.29439252199E+03  0.00000000000E+00 0.  1.
         -3    1    6    6    0  502 -0.19025613928E+03 -0.12100079539E+03 -0.29761193478E+03  0.37337843369E+03  0.00000000000E+00 0.  1.
<mgrwt>
<rscale>  0 0.17188759E+04</rscale>
<asrwt>0</asrwt>
<pdfrwt beam="1">  1        2 0.10966956E+00 0.17188759E+04</pdfrwt>
<pdfrwt beam="2">  1       -2 0.15941026E+00 0.17188759E+04</pdfrwt>
<totfact> 0.96727107E+00</totfact>
</mgrwt>
</event>
<event>
12    1  0.1477245E-007  0.1686464E+04  0.7818608E-02  0.8769122E-01
         -2   -1    0    0    0  501 -0.00000000000E+00  0.00000000000E+00  0.54475273757E+03  0.54475273757E+03  0.00000000000E+00 0.  1.
          2   -1    0    0  501    0  0.00000000000E+00 -0.00000000000E+00 -0.13052537217E+04  0.13052537217E+04  0.00000000000E+00 0. -1.
         23    2    1    2    0    0 -0.35775727823E+03 -0.61058085338E+02 -0.78742303014E+03  0.87160572886E+03  0.89124397786E+02 0.  0.
        254    2    1    2    0    0  0.35775727823E+03  0.61058085338E+02  0.26922046003E+02  0.97840073042E+03  0.90819867475E+03 0.  0.
        -24    2    4    4    0    0  0.99305877439E+02  0.49648646339E+02 -0.42794277346E+03  0.44915925298E+03  0.79261414345E+02 0.  0.
         24    2    4    4    0    0  0.25845140079E+03  0.11409438999E+02  0.45486481946E+03  0.52924147744E+03  0.79165873934E+02 0.  0.
         11    1    3    3    0    0 -0.24853720899E+03 -0.72480635226E+02 -0.61385749013E+03  0.66621708543E+03  0.00000000000E+00 0. -1.
        -11    1    3    3    0    0 -0.10922006924E+03  0.11422549888E+02 -0.17356554001E+03  0.20538864343E+03  0.00000000000E+00 0.  1.
          2    1    6    6  502    0  0.45148525026E+02  0.29362088614E+02  0.12373895068E+03  0.13495128557E+03  0.00000000000E+00 0. -1.
          1    1    5    5  503    0  0.11131890789E+02 -0.40084781650E+01 -0.34883228234E+01  0.12335124071E+02  0.00000000000E+00 0. -1.
         -2    1    5    5    0  503  0.88173986650E+02  0.53657124504E+02 -0.42445445063E+03  0.43682412890E+03  0.00000000000E+00 0.  1.
         -1    1    6    6    0  502  0.21330287576E+03 -0.17952649615E+02  0.33112586877E+03  0.39429019187E+03  0.00000000000E+00 0.  1.
<mgrwt>
<rscale>  0 0.16864644E+04</rscale>
<asrwt>0</asrwt>
<pdfrwt beam="1">  1        2 0.20080826E+00 0.16864644E+04</pdfrwt>
<pdfrwt beam="2">  1       -2 0.83808114E-01 0.16864644E+04</pdfrwt>
<totfact> 0.19457506E+01</totfact>
</mgrwt>
</event>
<event>
12    1  0.1477245E-007  0.1771176E+04  0.7818608E-02  0.8721780E-01
         -2   -1    0    0    0  501 -0.00000000000E+00  0.00000000000E+00  0.82273852338E+03  0.82273852338E+03  0.00000000000E+00 0.  1.
          2   -1    0    0  501    0  0.00000000000E+00 -0.00000000000E+00 -0.95323863829E+03  0.95323863829E+03  0.00000000000E+00 0. -1.
         23    2    1    2    0    0  0.50112593138E+03 -0.20140803191E+03 -0.41176675230E+03  0.68522473411E+03  0.91042207300E+02 0.  0.
        254    2    1    2    0    0 -0.50112593138E+03  0.20140803191E+03  0.28126663740E+03  0.10907524276E+04  0.90495167965E+03 0.  0.
        -24    2    4    4    0    0 -0.69954553606E+03  0.34521704381E+03  0.28147915098E+03  0.83325642794E+03  0.80913521220E+02 0.  0.
         24    2    4    4    0    0  0.19841960468E+03 -0.14380901189E+03 -0.21251357823E+00  0.25749599962E+03  0.79074479024E+02 0.  0.
         11    1    3    3    0    0  0.43936597955E+03 -0.14131503679E+03 -0.34756766609E+03  0.57776784795E+03  0.00000000000E+00 0. -1.
        -11    1    3    3    0    0  0.61759951827E+02 -0.60092995123E+02 -0.64199086213E+02  0.10745688616E+03  0.00000000000E+00 0.  1.
          4    1    6    6  502    0  0.15040024220E+03 -0.66630664879E+02  0.15586670677E+02  0.16523565795E+03  0.00000000000E+00 0. -1.
          1    1    5    5  503    0 -0.41593562337E+03  0.17355854213E+03  0.13219618797E+03  0.46968163946E+03  0.00000000000E+00 0. -1.
         -2    1    5    5    0  503 -0.28360991269E+03  0.17165850168E+03  0.14928296300E+03  0.36357478848E+03  0.00000000000E+00 0.  1.
         -3    1    6    6    0  502  0.48019362484E+02 -0.77178347015E+02 -0.15799184256E+02  0.92260341667E+02  0.00000000000E+00 0.  1.
<mgrwt>
<rscale>  0 0.17711760E+04</rscale>
<asrwt>0</asrwt>
<pdfrwt beam="1">  1        2 0.14665210E+00 0.17711760E+04</pdfrwt>
<pdfrwt beam="2">  1       -2 0.12657516E+00 0.17711760E+04</pdfrwt>
<totfact> 0.11877321E+01</totfact>
</mgrwt>
</event>
<event>
12    1  0.1477245E-007  0.1898876E+04  0.7818608E-02  0.8655416E-01
         -2   -1    0    0    0  501 -0.00000000000E+00  0.00000000000E+00  0.17197111837E+04  0.17197111837E+04  0.00000000000E+00 0.  1.
          2   -1    0    0  501    0  0.00000000000E+00 -0.00000000000E+00 -0.52417692414E+03  0.52417692414E+03  0.00000000000E+00 0. -1.
         23    2    1    2    0    0 -0.40159863765E+03 -0.28707325057E+03 -0.17788812366E+03  0.53283501844E+03  0.92609153868E+02 0.  0.
        254    2    1    2    0    0  0.40159863765E+03  0.28707325057E+03  0.13734223832E+04  0.17110530894E+04  0.89315234705E+03 0.  0.
        -24    2    4    4    0    0  0.77647346717E+02 -0.16686766193E+03 -0.26509375257E+02  0.20195886911E+03  0.78808062965E+02 0.  0.
         24    2    4    4    0    0  0.32395129093E+03  0.45394091250E+03  0.13999317584E+04  0.15090942202E+04  0.80929885505E+02 0.  0.
         13    1    3    3    0    0 -0.59920980480E+02 -0.83704896287E+02 -0.19195559935E+02  0.10471629809E+03  0.00000000000E+00 0.  1.
        -13    1    3    3    0    0 -0.34167765717E+03 -0.20336835428E+03 -0.15869256372E+03  0.42811872035E+03  0.00000000000E+00 0. -1.
          4    1    6    6  502    0  0.25711545200E+03  0.40807489817E+03  0.12100907744E+04  0.13026715474E+04  0.00000000000E+00 0. -1.
          3    1    5    5  503    0  0.93157114291E+02 -0.15433553166E+03 -0.23953894231E+02  0.18185569368E+03  0.00000000000E+00 0. -1.
         -4    1    5    5    0  503 -0.15509767574E+02 -0.12532130271E+02 -0.25554810255E+01  0.20103175436E+02  0.00000000000E+00 0.  1.
         -3    1    6    6    0  502  0.66835838937E+02  0.45866014323E+02  0.18984098404E+03  0.20642267283E+03  0.00000000000E+00 0.  1.
<mgrwt>
<rscale>  0 0.18988764E+04</rscale>
<asrwt>0</asrwt>
<pdfrwt beam="1">  1        2 0.80642604E-01 0.18988764E+04</pdfrwt>
<pdfrwt beam="2">  1       -2 0.26457095E+00 0.18988764E+04</pdfrwt>
<totfact> 0.28558590E+00</totfact>
</mgrwt>
</event>
<event>
12    1  0.1477245E-007  0.1471898E+04  0.7818608E-02  0.8903358E-01
         -1   -1    0    0    0  501 -0.00000000000E+00  0.00000000000E+00  0.47421969531E+03  0.47421969531E+03  0.00000000000E+00 0.  1.
          1   -1    0    0  501    0  0.00000000000E+00 -0.00000000000E+00 -0.11421315679E+04  0.11421315679E+04  0.00000000000E+00 0. -1.
         23    2    1    2    0    0  0.19600762023E+02  0.18136765826E+03 -0.66879491033E+03  0.69871282402E+03  0.87375975107E+02 0.  0.
        254    2    1    2    0    0 -0.19600762023E+02 -0.18136765826E+03  0.88303769245E+00  0.91763843923E+03  0.89932258287E+03 0.  0.
        -24    2    4    4    0    0 -0.86378015482E+02 -0.24145719538E+03  0.40988465815E+03  0.49051073316E+03  0.82659588676E+02 0.  0.
         24    2    4    4    0    0  0.66777253459E+02  0.60089537115E+02 -0.40900162046E+03  0.42712770607E+03  0.84177180404E+02 0.  0.
         11    1    3    3    0    0 -0.27681680765E+02  0.41714177274E+02 -0.11112722271E+03  0.12188358242E+03  0.00000000000E+00 0.  1.
        -11    1    3    3    0    0  0.47282442788E+02  0.13965348099E+03 -0.55766768762E+03  0.57682924160E+03  0.00000000000E+00 0. -1.
          2    1    6    6  502    0 -0.14436626424E+02 -0.77316520107E+01 -0.75001926929E+02  0.76769028054E+02  0.00000000000E+00 0. -1.
          3    1    5    5  503    0 -0.50472618074E+02 -0.57162774029E+02  0.77281136157E+02  0.10856998626E+03  0.00000000000E+00 0. -1.
         -4    1    5    5    0  503 -0.35905397408E+02 -0.18429442135E+03  0.33260352200E+03  0.38194074691E+03  0.00000000000E+00 0.  1.
         -1    1    6    6    0  502  0.81213879883E+02  0.67821189125E+02 -0.33399969353E+03  0.35035867801E+03  0.00000000000E+00 0.  1.
<mgrwt>
<rscale>  0 0.14718985E+04</rscale>
<asrwt>0</asrwt>
<pdfrwt beam="1">  1        1 0.17571255E+00 0.14718985E+04</pdfrwt>
<pdfrwt beam="2">  1       -1 0.72956876E-01 0.14718985E+04</pdfrwt>
<totfact> 0.21652392E+01</totfact>
</mgrwt>
</event>
<event>
12    1  0.1762392E-007  0.3892589E+04  0.7818608E-02  0.8026572E-01
          1   -1    0    0  501    0  0.00000000000E+00  0.00000000000E+00  0.23059023071E+04  0.23059023071E+04  0.00000000000E+00 0. -1.
         -1   -1    0    0    0  501 -0.00000000000E+00 -0.00000000000E+00 -0.16427680185E+04  0.16427680185E+04  0.00000000000E+00 0.  1.
         23    2    1    2    0    0 -0.81294671796E+03  0.16528252431E+04  0.26991565873E+03  0.18637933458E+04  0.90319004209E+02 0.  0.
        254    2    1    2    0    0  0.81294671796E+03 -0.16528252431E+04  0.39321862989E+03  0.20848769797E+04  0.89407912351E+03 0.  0.
        -24    2    4    4    0    0  0.68918337767E+02 -0.50382116852E+03 -0.24782830312E+03  0.57126262098E+03  0.79602808836E+02 0.  0.
         24    2    4    4    0    0  0.74402838019E+03 -0.11490040746E+04  0.64104693300E+03  0.15136143587E+04  0.79364114432E+02 0.  0.
         13    1    3    3    0    0 -0.23456636235E+03  0.53133158648E+03  0.50382428416E+02  0.58298629678E+03  0.00000000000E+00 0.  1.
        -13    1    3    3    0    0 -0.57838035561E+03  0.11214936567E+04  0.21953323032E+03  0.12808070491E+04  0.00000000000E+00 0. -1.
          4    1    6    6  502    0  0.18204150288E+02 -0.32350130496E+02  0.41742524295E+01  0.37354335949E+02  0.00000000000E+00 0. -1.
          3    1    5    5  503    0  0.10561921874E+02 -0.26229784323E+02  0.33971665947E+01  0.28479756322E+02  0.00000000000E+00 0. -1.
         -4    1    5    5    0  503  0.58356415893E+02 -0.47759138419E+03 -0.25122546971E+03  0.54278286466E+03  0.00000000000E+00 0.  1.
         -3    1    6    6    0  502  0.72582422990E+03 -0.11166539441E+04  0.63687268057E+03  0.14762600228E+04  0.00000000000E+00 0.  1.
<mgrwt>
<rscale>  0 0.38925891E+04</rscale>
<asrwt>0</asrwt>
<pdfrwt beam="1">  1        1 0.35475420E+00 0.38925891E+04</pdfrwt>
<pdfrwt beam="2">  1       -1 0.25273354E+00 0.38925891E+04</pdfrwt>
<totfact> 0.97419494E-02</totfact>
</mgrwt>
</event>
<event>
12    1  0.1477245E-007  0.1337478E+04  0.7818608E-02  0.9000362E-01
          2   -1    0    0  501    0  0.00000000000E+00  0.00000000000E+00  0.12232045155E+04  0.12232045155E+04  0.00000000000E+00 0. -1.
         -2   -1    0    0    0  501 -0.00000000000E+00 -0.00000000000E+00 -0.36560650936E+03  0.36560650936E+03  0.00000000000E+00 0.  1.
         23    2    1    2    0    0 -0.34183964459E+03  0.35805912053E+01  0.12248462862E+03  0.37546589322E+03  0.95420068523E+02 0.  0.
        254    2    1    2    0    0  0.34183964459E+03 -0.35805912053E+01  0.73511337753E+03  0.12133451317E+04  0.90274446409E+03 0.  0.
        -24    2    4    4    0    0 -0.11841227068E+03  0.10009012834E+03 -0.13579780448E+03  0.21976883670E+03  0.76274492749E+02 0.  0.
         24    2    4    4    0    0  0.46025191527E+03 -0.10367071954E+03  0.87091118201E+03  0.99357629496E+03  0.78282331036E+02 0.  0.
         11    1    3    3    0    0 -0.29611812430E+03 -0.15469641299E+02  0.72839245370E+02  0.30533720541E+03  0.00000000000E+00 0. -1.
        -11    1    3    3    0    0 -0.45721520292E+02  0.19050232504E+02  0.49645383253E+02  0.70128687815E+02  0.00000000000E+00 0.  1.
          2    1    6    6  502    0  0.35168529238E+03 -0.81594560399E+02  0.72938060469E+03  0.81384045344E+03  0.00000000000E+00 0. -1.
          3    1    5    5  503    0 -0.22909525471E+02  0.10143851618E+02 -0.67214631147E+02  0.71732494193E+02  0.00000000000E+00 0. -1.
         -4    1    5    5    0  503 -0.95502745205E+02  0.89946276720E+02 -0.68583173335E+02  0.14803634250E+03  0.00000000000E+00 0.  1.
         -1    1    6    6    0  502  0.10856662289E+03 -0.22076159145E+02  0.14153057732E+03  0.17973584152E+03  0.00000000000E+00 0.  1.
<mgrwt>
<rscale>  0 0.13374775E+04</rscale>
<asrwt>0</asrwt>
<pdfrwt beam="1">  1        2 0.18818531E+00 0.13374775E+04</pdfrwt>
<pdfrwt beam="2">  1       -2 0.56247156E-01 0.13374775E+04</pdfrwt>
<totfact> 0.53209719E+01</totfact>
</mgrwt>
</event>
<event>
12    1  0.1477245E-007  0.2148317E+04  0.7818608E-02  0.8540253E-01
          3   -1    0    0  501    0  0.00000000000E+00  0.00000000000E+00  0.86719651360E+03  0.86719651360E+03  0.00000000000E+00 0. -1.
         -3   -1    0    0    0  501 -0.00000000000E+00 -0.00000000000E+00 -0.13305127768E+04  0.13305127768E+04  0.00000000000E+00 0.  1.
         23    2    1    2    0    0 -0.95997880898E+02 -0.64703178161E+03 -0.81944682526E+03  0.10524637186E+04  0.91219843893E+02 0.  0.
        254    2    1    2    0    0  0.95997880898E+02  0.64703178161E+03  0.35613056203E+03  0.11452455719E+04  0.86999581788E+03 0.  0.
        -24    2    4    4    0    0  0.17948938742E+03  0.10035908094E+03 -0.24140219948E+03  0.32724457644E+03  0.80781220439E+02 0.  0.
         24    2    4    4    0    0 -0.83491506518E+02  0.54667270067E+03  0.59753276151E+03  0.81800099542E+03  0.79109760001E+02 0.  0.
         11    1    3    3    0    0 -0.81862618418E+02 -0.39079024207E+03 -0.55775389388E+03  0.68593578979E+03  0.00000000000E+00 0. -1.
        -11    1    3    3    0    0 -0.14135262480E+02 -0.25624153954E+03 -0.26169293139E+03  0.36652792877E+03  0.00000000000E+00 0.  1.
          4    1    6    6  502    0 -0.90034694580E+02  0.33653913190E+03  0.37684450068E+03  0.51320231023E+03  0.00000000000E+00 0. -1.
          3    1    5    5  503    0  0.33471769099E+02  0.36832561794E+02 -0.18052985932E+02  0.52942489892E+02  0.00000000000E+00 0. -1.
         -4    1    5    5    0  503  0.14601761832E+03  0.63526519146E+02 -0.22334921355E+03  0.27430208655E+03  0.00000000000E+00 0.  1.
         -3    1    6    6    0  502  0.65431880618E+01  0.21013356876E+03  0.22068826083E+03  0.30479868520E+03  0.00000000000E+00 0.  1.
<mgrwt>
<rscale>  0 0.21483166E+04</rscale>
<asrwt>0</asrwt>
<pdfrwt beam="1">  1        3 0.13341485E+00 0.21483166E+04</pdfrwt>
<pdfrwt beam="2">  1       -3 0.20469427E+00 0.21483166E+04</pdfrwt>
<totfact> 0.14292069E-01</totfact>
</mgrwt>
</event>
<event>
12    1  0.1477245E-007  0.1424077E+04  0.7818608E-02  0.8936572E-01
          1   -1    0    0  501    0  0.00000000000E+00  0.00000000000E+00  0.43880868399E+03  0.43880868399E+03  0.00000000000E+00 0. -1.
         -1   -1    0    0    0  501 -0.00000000000E+00 -0.00000000000E+00 -0.11553990043E+04  0.11553990043E+04  0.00000000000E+00 0.  1.
         23    2    1    2    0    0 -0.17309559940E+02  0.42179958076E+03 -0.10273311073E+03  0.44396672408E+03  0.91311843990E+02 0.  0.
        254    2    1    2    0    0  0.17309559940E+02 -0.42179958076E+03 -0.61385720954E+03  0.11502409642E+04  0.87636698635E+03 0.  0.
        -24    2    4    4    0    0 -0.15932144393E+03  0.15338324379E+03 -0.46989547312E+03  0.52604225385E+03  0.83719503127E+02 0.  0.
         24    2    4    4    0    0  0.17663100387E+03 -0.57518282455E+03 -0.14396173642E+03  0.62419871033E+03  0.82856835785E+02 0.  0.
         11    1    3    3    0    0 -0.25774612676E+02  0.17101410572E+03 -0.32553262840E+00  0.17294583252E+03  0.00000000000E+00 0.  1.
        -11    1    3    3    0    0  0.84650527360E+01  0.25078547504E+03 -0.10240757810E+03  0.27102089156E+03  0.00000000000E+00 0. -1.
          2    1    6    6  502    0  0.27387194092E+02 -0.58444433540E+02 -0.41311619187E+02  0.76631978259E+02  0.00000000000E+00 0. -1.
          1    1    5    5  503    0 -0.70711480042E+02  0.34467408982E+02 -0.97986160461E+02  0.12565589255E+03  0.00000000000E+00 0. -1.
         -2    1    5    5    0  503 -0.88609963890E+02  0.11891583481E+03 -0.37190931266E+03  0.40038636130E+03  0.00000000000E+00 0.  1.
         -1    1    6    6    0  502  0.14924380978E+03 -0.51673839101E+03 -0.10265011723E+03  0.54756673207E+03  0.00000000000E+00 0.  1.
<mgrwt>
<rscale>  0 0.14240774E+04</rscale>
<asrwt>0</asrwt>
<pdfrwt beam="1">  1        1 0.67509028E-01 0.14240774E+04</pdfrwt>
<pdfrwt beam="2">  1       -1 0.17775369E+00 0.14240774E+04</pdfrwt>
<totfact> 0.11136948E+01</totfact>
</mgrwt>
</event>
<event>
12    1  0.1477245E-007  0.2312267E+04  0.7818608E-02  0.8473100E-01
         -2   -1    0    0    0  501 -0.00000000000E+00  0.00000000000E+00  0.89429780046E+03  0.89429780046E+03  0.00000000000E+00 0.  1.
          2   -1    0    0  501    0  0.00000000000E+00 -0.00000000000E+00 -0.14946308357E+04  0.14946308357E+04  0.00000000000E+00 0. -1.
         23    2    1    2    0    0 -0.57967882402E+02  0.85056321957E+03  0.23852485557E+03  0.89001932672E+03  0.91772704795E+02 0.  0.
        254    2    1    2    0    0  0.57967882402E+02 -0.85056321957E+03 -0.83885789086E+03  0.14989093095E+04  0.90345364636E+03 0.  0.
        -24    2    4    4    0    0  0.33992402330E+03 -0.57795854916E+03 -0.13576449149E+03  0.68987203045E+03  0.88921285959E+02 0.  0.
         24    2    4    4    0    0 -0.28195614089E+03 -0.27260467041E+03 -0.70309339937E+03  0.80903727903E+03  0.79927585355E+02 0.  0.
         13    1    3    3    0    0 -0.26758196142E+02  0.71442172367E+03  0.17204677600E+03  0.73533291334E+03  0.00000000000E+00 0. -1.
        -13    1    3    3    0    0 -0.31209686260E+02  0.13614149590E+03  0.66478079568E+02  0.15468641338E+03  0.00000000000E+00 0.  1.
          2    1    6    6  502    0 -0.11241083765E+03 -0.93647112352E+02 -0.34024676418E+03  0.37036986730E+03  0.00000000000E+00 0. -1.
          1    1    5    5  503    0  0.31506554483E+03 -0.47321552810E+03 -0.10764245809E+03  0.57860706214E+03  0.00000000000E+00 0. -1.
         -4    1    5    5    0  503  0.24858478468E+02 -0.10474302105E+03 -0.28122033405E+02  0.11126496831E+03  0.00000000000E+00 0.  1.
         -1    1    6    6    0  502 -0.16954530324E+03 -0.17895755806E+03 -0.36284663519E+03  0.43866741172E+03  0.00000000000E+00 0.  1.
<mgrwt>
<rscale>  0 0.23122673E+04</rscale>
<asrwt>0</asrwt>
<pdfrwt beam="1">  1        2 0.22994320E+00 0.23122673E+04</pdfrwt>
<pdfrwt beam="2">  1       -2 0.13758428E+00 0.23122673E+04</pdfrwt>
<totfact> 0.43510447E+00</totfact>
</mgrwt>
</event>
<event>
12    1  0.1477245E-007  0.1866792E+04  0.7818608E-02  0.8671565E-01
          1   -1    0    0  501    0  0.00000000000E+00  0.00000000000E+00  0.12853832369E+04  0.12853832369E+04  0.00000000000E+00 0. -1.
         -1   -1    0    0    0  501 -0.00000000000E+00 -0.00000000000E+00 -0.67779636856E+03  0.67779636856E+03  0.00000000000E+00 0.  1.
         23    2    1    2    0    0 -0.25541862616E+03 -0.35625278968E+03  0.82477403570E+03  0.93850992341E+03  0.91618456767E+02 0.  0.
        254    2    1    2    0    0  0.25541862616E+03  0.35625278968E+03 -0.21718716738E+03  0.10246696820E+04  0.90034602618E+03 0.  0.
        -24    2    4    4    0    0  0.47961880404E+03  0.46715843482E+03 -0.31553504275E+03  0.74437769656E+03  0.79149172605E+02 0.  0.
         24    2    4    4    0    0 -0.22420017788E+03 -0.11090564513E+03  0.98347875370E+02  0.28029198547E+03  0.79533078948E+02 0.  0.
         11    1    3    3    0    0 -0.73819957928E+02 -0.15800733971E+03  0.26088646706E+03  0.31381117617E+03  0.00000000000E+00 0. -1.
        -11    1    3    3    0    0 -0.18159866823E+03 -0.19824544997E+03  0.56388756864E+03  0.62469874725E+03  0.00000000000E+00 0.  1.
          4    1    6    6  502    0 -0.12481252923E+03 -0.63418959547E+02  0.96664317582E+02  0.17012972162E+03  0.00000000000E+00 0. -1.
          3    1    5    5  503    0  0.15222907783E+03  0.17777869119E+03 -0.14502217197E+03  0.27533685831E+03  0.00000000000E+00 0. -1.
         -2    1    5    5    0  503  0.32738972621E+03  0.28937974362E+03 -0.17051287078E+03  0.46904083825E+03  0.00000000000E+00 0.  1.
         -3    1    6    6    0  502 -0.99387648643E+02 -0.47486685587E+02  0.16835577889E+01  0.11016226386E+03  0.00000000000E+00 0.  1.
<mgrwt>
<rscale>  0 0.18667920E+04</rscale>
<asrwt>0</asrwt>
<pdfrwt beam="1">  1        1 0.19775127E+00 0.18667920E+04</pdfrwt>
<pdfrwt beam="2">  1       -1 0.10427636E+00 0.18667920E+04</pdfrwt>
<totfact> 0.75227697E+00</totfact>
</mgrwt>
</event>
<event>
12    1  0.1477245E-007  0.1824306E+04  0.7818608E-02  0.8693479E-01
          2   -1    0    0  501    0  0.00000000000E+00  0.00000000000E+00  0.68541507814E+03  0.68541507814E+03  0.00000000000E+00 0. -1.
         -2   -1    0    0    0  501 -0.00000000000E+00 -0.00000000000E+00 -0.12138972715E+04  0.12138972715E+04  0.00000000000E+00 0.  1.
         23    2    1    2    0    0 -0.42332367520E+02  0.34895198131E+03  0.40835487003E+03  0.54522130439E+03  0.83384988372E+02 0.  0.
        254    2    1    2    0    0  0.42332367520E+02 -0.34895198131E+03 -0.93683706338E+03  0.13540910452E+04  0.91232634559E+03 0.  0.
        -24    2    4    4    0    0 -0.38292795710E+03 -0.36965879376E+03 -0.44208519266E+03  0.69652463273E+03  0.80161102151E+02 0.  0.
         24    2    4    4    0    0  0.42526032462E+03  0.20706812454E+02 -0.49475187072E+03  0.65756641250E+03  0.79618198234E+02 0.  0.
         13    1    3    3    0    0  0.11096895205E+02  0.15835642318E+03  0.13929979641E+03  0.21119737481E+03  0.00000000000E+00 0. -1.
        -13    1    3    3    0    0 -0.53429262725E+02  0.19059555813E+03  0.26905507363E+03  0.33402392959E+03  0.00000000000E+00 0.  1.
          4    1    6    6  502    0  0.66143190200E+02 -0.97542537587E+01 -0.42303222020E+02  0.79117821440E+02  0.00000000000E+00 0. -1.
          1    1    5    5  503    0 -0.74481908145E+02 -0.11929216055E+03 -0.12661204856E+03  0.18923209307E+03  0.00000000000E+00 0. -1.
         -4    1    5    5    0  503 -0.30844604896E+03 -0.25036663322E+03 -0.31547314410E+03  0.50729253966E+03  0.00000000000E+00 0.  1.
         -3    1    6    6    0  502  0.35911713442E+03  0.30461066213E+02 -0.45244864870E+03  0.57844859106E+03  0.00000000000E+00 0.  1.
<mgrwt>
<rscale>  0 0.18243064E+04</rscale>
<asrwt>0</asrwt>
<pdfrwt beam="1">  1        2 0.10544848E+00 0.18243064E+04</pdfrwt>
<pdfrwt beam="2">  1       -2 0.18675342E+00 0.18243064E+04</pdfrwt>
<totfact> 0.64585115E+00</totfact>
</mgrwt>
</event>
<event>
12    1  0.1477245E-007  0.3039298E+04  0.7818608E-02  0.8232597E-01
          2   -1    0    0  501    0  0.00000000000E+00  0.00000000000E+00  0.13075748457E+04  0.13075748457E+04  0.00000000000E+00 0. -1.
         -2   -1    0    0    0  501 -0.00000000000E+00 -0.00000000000E+00 -0.17661186750E+04  0.17661186750E+04  0.00000000000E+00 0.  1.
         23    2    1    2    0    0 -0.11432431634E+04  0.45202425643E+03  0.43171141218E+03  0.13062843433E+04  0.93129925593E+02 0.  0.
        254    2    1    2    0    0  0.11432431634E+04 -0.45202425643E+03 -0.89025524143E+03  0.17674091774E+04  0.90545565677E+03 0.  0.
        -24    2    4    4    0    0  0.19267125962E+03  0.26022220250E+03 -0.15401009541E+03  0.36751550937E+03  0.80689101987E+02 0.  0.
         24    2    4    4    0    0  0.95057190379E+03 -0.71224645893E+03 -0.73624514603E+03  0.13998936680E+04  0.82239918700E+02 0.  0.
         13    1    3    3    0    0 -0.10367433712E+04  0.39139136599E+03  0.36483509596E+03  0.11666741903E+04  0.00000000000E+00 0. -1.
        -13    1    3    3    0    0 -0.10649979221E+03  0.60632890441E+02  0.66876316221E+02  0.13961015298E+03  0.00000000000E+00 0.  1.
          2    1    6    6  502    0  0.83440496626E+03 -0.62304742570E+03 -0.61232045273E+03  0.12080381117E+04  0.00000000000E+00 0. -1.
          1    1    5    5  503    0  0.18382838032E+03  0.19848809005E+03 -0.11506866223E+03  0.29399182357E+03  0.00000000000E+00 0. -1.
         -2    1    5    5    0  503  0.88428793054E+01  0.61734112449E+02 -0.38941433183E+02  0.73523685793E+02  0.00000000000E+00 0.  1.
         -1    1    6    6    0  502  0.11616693753E+03 -0.89199033232E+02 -0.12392469329E+03  0.19185555637E+03  0.00000000000E+00 0.  1.
<mgrwt>
<rscale>  0 0.30392975E+04</rscale>
<asrwt>0</asrwt>
<pdfrwt beam="1">  1        2 0.20116536E+00 0.30392975E+04</pdfrwt>
<pdfrwt beam="2">  1       -2 0.27171056E+00 0.30392975E+04</pdfrwt>
<totfact> 0.66063331E-01</totfact>
</mgrwt>
</event>
<event>
12    1  0.1477245E-007  0.1470327E+04  0.7818608E-02  0.8904428E-01
          2   -1    0    0  501    0  0.00000000000E+00  0.00000000000E+00  0.68511334748E+03  0.68511334748E+03  0.00000000000E+00 0. -1.
         -2   -1    0    0    0  501 -0.00000000000E+00 -0.00000000000E+00 -0.78887049421E+03  0.78887049421E+03  0.00000000000E+00 0.  1.
         23    2    1    2    0    0  0.26373568058E+03 -0.70613556723E+01  0.33774787360E+03  0.43780498374E+03  0.89404729840E+02 0.  0.
        254    2    1    2    0    0 -0.26373568058E+03  0.70613556723E+01 -0.44150502034E+03  0.10361788579E+04  0.89951852161E+03 0.  0.
        -24    2    4    4    0    0 -0.15575515347E+03 -0.37116481031E+03  0.36893713109E+02  0.41201015544E+03  0.79801239763E+02 0.  0.
         24    2    4    4    0    0 -0.10798052710E+03  0.37822616599E+03 -0.47839873345E+03  0.62416870251E+03  0.77500930048E+02 0.  0.
         13    1    3    3    0    0  0.81372803176E+02  0.37007194838E+02  0.88000892965E+02  0.12544011611E+03  0.00000000000E+00 0.  1.
        -13    1    3    3    0    0  0.18236287740E+03 -0.44068550510E+02  0.24974698064E+03  0.31236486764E+03  0.00000000000E+00 0. -1.
          2    1    6    6  502    0 -0.48550790757E+02  0.80513150913E+02 -0.81147753641E+02  0.12419542936E+03  0.00000000000E+00 0. -1.
          3    1    5    5  503    0 -0.21804414555E+02 -0.12756576768E+03 -0.11131438351E+02  0.12989367382E+03  0.00000000000E+00 0. -1.
         -4    1    5    5    0  503 -0.13395073892E+03 -0.24359904263E+03  0.48025151460E+02  0.28211648162E+03  0.00000000000E+00 0.  1.
         -1    1    6    6    0  502 -0.59429736345E+02  0.29771301507E+03 -0.39725097980E+03  0.49997327315E+03  0.00000000000E+00 0.  1.
<mgrwt>
<rscale>  0 0.14703275E+04</rscale>
<asrwt>0</asrwt>
<pdfrwt beam="1">  1        2 0.10540205E+00 0.14703275E+04</pdfrwt>
<pdfrwt beam="2">  1       -2 0.12136469E+00 0.14703275E+04</pdfrwt>
<totfact> 0.21043143E+01</totfact>
</mgrwt>
</event>
<event>
12    1  0.1477245E-007  0.2062070E+04  0.7818608E-02  0.8578138E-01
          2   -1    0    0  501    0  0.00000000000E+00  0.00000000000E+00  0.21242813518E+04  0.21242813518E+04  0.00000000000E+00 0. -1.
         -2   -1    0    0    0  501 -0.00000000000E+00 -0.00000000000E+00 -0.50042030604E+03  0.50042030604E+03  0.00000000000E+00 0.  1.
         23    2    1    2    0    0 -0.22064268351E+03 -0.27497288746E+03  0.16347526139E+04  0.16748062331E+04  0.90920445311E+02 0.  0.
        254    2    1    2    0    0  0.22064268351E+03  0.27497288746E+03 -0.10891568128E+02  0.94989542469E+03  0.88198039035E+03 0.  0.
        -24    2    4    4    0    0  0.44717643237E+03 -0.46254873626E+02  0.19939337544E+03  0.49773577562E+03  0.76661001596E+02 0.  0.
         24    2    4    4    0    0 -0.22653374886E+03  0.32122776109E+03 -0.21028494357E+03  0.45215964907E+03  0.75655646756E+02 0.  0.
         13    1    3    3    0    0 -0.19863113363E+03 -0.23858463579E+03  0.15395222248E+04  0.15705112659E+04  0.00000000000E+00 0. -1.
        -13    1    3    3    0    0 -0.22011549883E+02 -0.36388251675E+02  0.95230389104E+02  0.10429496727E+03  0.00000000000E+00 0.  1.
          2    1    6    6  502    0 -0.17830226687E+02  0.28472589678E+02  0.36504346921E+01  0.33792469873E+02  0.00000000000E+00 0. -1.
          3    1    5    5  503    0  0.16925235272E+03  0.75558076070E+01  0.45047866251E+02  0.17530761359E+03  0.00000000000E+00 0. -1.
         -4    1    5    5    0  503  0.27792407965E+03 -0.53810681233E+02  0.15434550919E+03  0.32242816203E+03  0.00000000000E+00 0.  1.
         -1    1    6    6    0  502 -0.20870352217E+03  0.29275517141E+03 -0.21393537826E+03  0.41836717919E+03  0.00000000000E+00 0.  1.
<mgrwt>
<rscale>  0 0.20620703E+04</rscale>
<asrwt>0</asrwt>
<pdfrwt beam="1">  1        2 0.32681251E+00 0.20620703E+04</pdfrwt>
<pdfrwt beam="2">  1       -2 0.76987740E-01 0.20620703E+04</pdfrwt>
<totfact> 0.79301107E+00</totfact>
</mgrwt>
</event>
<event>
12    1  0.1477245E-007  0.1279021E+04  0.7818608E-02  0.9046369E-01
         -1   -1    0    0    0  501 -0.00000000000E+00  0.00000000000E+00  0.42140569591E+03  0.42140569591E+03  0.00000000000E+00 0.  1.
          1   -1    0    0  501    0  0.00000000000E+00 -0.00000000000E+00 -0.97049821219E+03  0.97049821219E+03  0.00000000000E+00 0. -1.
         23    2    1    2    0    0 -0.13432127501E+03 -0.14877732184E+03  0.12561872031E+03  0.25353067151E+03  0.91218649894E+02 0.  0.
        254    2    1    2    0    0  0.13432127501E+03  0.14877732184E+03 -0.67471123659E+03  0.11383732366E+04  0.89469630410E+03 0.  0.
        -24    2    4    4    0    0  0.16103244279E+03  0.41616105491E+03 -0.53355895736E+02  0.45652960266E+03  0.80317838870E+02 0.  0.
         24    2    4    4    0    0 -0.26711167778E+02 -0.26738373307E+03 -0.62135534085E+03  0.68184363392E+03  0.81367894866E+02 0.  0.
         11    1    3    3    0    0 -0.33450163925E+02 -0.17934022146E+02 -0.10596145302E+02  0.39405848705E+02  0.00000000000E+00 0. -1.
        -11    1    3    3    0    0 -0.10087111109E+03 -0.13084329970E+03  0.13621486561E+03  0.21412482281E+03  0.00000000000E+00 0.  1.
          2    1    6    6  502    0 -0.58793524860E+01 -0.20023524328E+03 -0.52981151959E+03  0.56641766014E+03  0.00000000000E+00 0. -1.
          1    1    5    5  503    0  0.85229439873E+02  0.31426535296E+03 -0.26281635801E+02  0.32667643605E+03  0.00000000000E+00 0. -1.
         -2    1    5    5    0  503  0.75803002918E+02  0.10189570196E+03 -0.27074259936E+02  0.12985316661E+03  0.00000000000E+00 0.  1.
         -1    1    6    6    0  502 -0.20831815292E+02 -0.67148489794E+02 -0.91543821264E+02  0.11542597377E+03  0.00000000000E+00 0.  1.
<mgrwt>
<rscale>  0 0.12790207E+04</rscale>
<asrwt>0</asrwt>
<pdfrwt beam="1">  1        1 0.14930741E+00 0.12790207E+04</pdfrwt>
<pdfrwt beam="2">  1       -1 0.64831647E-01 0.12790207E+04</pdfrwt>
<totfact> 0.37897542E+01</totfact>
</mgrwt>
</event>
<event>
12    1  0.3224457E-007  0.2891750E+04  0.7818608E-02  0.8275336E-01
          2   -1    0    0  501    0  0.00000000000E+00  0.00000000000E+00  0.19467614885E+04  0.19467614885E+04  0.00000000000E+00 0. -1.
         -2   -1    0    0    0  501 -0.00000000000E+00 -0.00000000000E+00 -0.10738627059E+04  0.10738627059E+04  0.00000000000E+00 0.  1.
         23    2    1    2    0    0  0.11913029796E+04  0.28680196805E+01 -0.15763460715E+03  0.12052120937E+04  0.92067945808E+02 0.  0.
        254    2    1    2    0    0 -0.11913029796E+04 -0.28680196805E+01  0.10305333898E+04  0.18154121008E+04  0.90250263919E+03 0.  0.
        -24    2    4    4    0    0 -0.92391767585E+03  0.37505453365E+03  0.84739025704E+03  0.13109693851E+04  0.79250904838E+02 0.  0.
         24    2    4    4    0    0 -0.26738530372E+03 -0.37792255333E+03  0.18314313272E+03  0.50444271576E+03  0.81244627216E+02 0.  0.
         11    1    3    3    0    0  0.35636981922E+01 -0.34884641903E+01  0.41503318151E+01  0.64880337073E+01  0.00000000000E+00 0. -1.
        -11    1    3    3    0    0  0.11877392814E+04  0.63564838707E+01 -0.16178493896E+03  0.11987240599E+04  0.00000000000E+00 0.  1.
          2    1    6    6  502    0 -0.38759481762E+02 -0.16034188315E+02  0.15021219905E+02  0.44553671777E+02  0.00000000000E+00 0. -1.
          3    1    5    5  503    0 -0.16286483838E+02 -0.11508410062E+01  0.24167373065E+02  0.29165663230E+02  0.00000000000E+00 0. -1.
         -4    1    5    5    0  503 -0.90763119201E+03  0.37620537466E+03  0.82322288398E+03  0.12818037218E+04  0.00000000000E+00 0.  1.
         -1    1    6    6    0  502 -0.22862582196E+03 -0.36188836502E+03  0.16812191282E+03  0.45988904398E+03  0.00000000000E+00 0.  1.
<mgrwt>
<rscale>  0 0.28917500E+04</rscale>
<asrwt>0</asrwt>
<pdfrwt beam="1">  1        2 0.29950177E+00 0.28917500E+04</pdfrwt>
<pdfrwt beam="2">  1       -2 0.16520965E+00 0.28917500E+04</pdfrwt>
<totfact> 0.14253072E+00</totfact>
</mgrwt>
</event>
<event>
12    1  0.1477245E-007  0.1537737E+04  0.7818608E-02  0.8859739E-01
         -1   -1    0    0    0  501 -0.00000000000E+00  0.00000000000E+00  0.77396987107E+03  0.77396987107E+03  0.00000000000E+00 0.  1.
          1   -1    0    0  501    0  0.00000000000E+00 -0.00000000000E+00 -0.76380046090E+03  0.76380046090E+03  0.00000000000E+00 0. -1.
         23    2    1    2    0    0  0.20572104348E+03 -0.45024644218E+03  0.10648799017E+03  0.51449595027E+03  0.91232583941E+02 0.  0.
        254    2    1    2    0    0 -0.20572104348E+03  0.45024644218E+03 -0.96318580008E+02  0.10232743817E+04  0.89037642880E+03 0.  0.
        -24    2    4    4    0    0  0.27655402015E+03  0.42950408237E+03  0.27079909133E+02  0.51892218700E+03  0.87126527787E+02 0.  0.
         24    2    4    4    0    0 -0.48227506363E+03  0.20742359806E+02 -0.12339848914E+03  0.50435219470E+03  0.78258971920E+02 0.  0.
         11    1    3    3    0    0  0.19760586902E+02 -0.27328572888E+02 -0.14822607600E+02  0.36838042658E+02  0.00000000000E+00 0.  1.
        -11    1    3    3    0    0  0.18596045658E+03 -0.42291786929E+03  0.12131059777E+03  0.47765790762E+03  0.00000000000E+00 0. -1.
          4    1    6    6  502    0 -0.14868467417E+03  0.34537177913E+02 -0.62626104493E+02  0.16499084204E+03  0.00000000000E+00 0. -1.
          3    1    5    5  503    0  0.94169785896E+02  0.22049378460E+03 -0.39569472044E+01  0.23979390120E+03  0.00000000000E+00 0. -1.
         -4    1    5    5    0  503  0.18238423425E+03  0.20901029777E+03  0.31036856337E+02  0.27912828579E+03  0.00000000000E+00 0.  1.
         -3    1    6    6    0  502 -0.33359038946E+03 -0.13794818108E+02 -0.60772384647E+02  0.33936135266E+03  0.00000000000E+00 0.  1.
<mgrwt>
<rscale>  0 0.15377367E+04</rscale>
<asrwt>0</asrwt>
<pdfrwt beam="1">  1        1 0.11750776E+00 0.15377367E+04</pdfrwt>
<pdfrwt beam="2">  1       -1 0.11907229E+00 0.15377367E+04</pdfrwt>
<totfact> 0.14487739E+01</totfact>
</mgrwt>
</event>
<event>
12    1  0.1477245E-007  0.1646274E+04  0.7818608E-02  0.8792614E-01
          2   -1    0    0  501    0  0.00000000000E+00  0.00000000000E+00  0.24166813556E+04  0.24166813556E+04  0.00000000000E+00 0. -1.
         -2   -1    0    0    0  501 -0.00000000000E+00 -0.00000000000E+00 -0.28036582042E+03  0.28036582042E+03  0.00000000000E+00 0.  1.
         23    2    1    2    0    0  0.76379101632E+02 -0.55311711084E+03  0.96814711016E+03  0.11211617788E+04  0.89008999114E+02 0.  0.
        254    2    1    2    0    0 -0.76379101632E+02  0.55311711084E+03  0.11681684250E+04  0.15758853972E+04  0.89834570761E+03 0.  0.
        -24    2    4    4    0    0 -0.40539321908E+03  0.12169955527E+02  0.37654994862E+03  0.55904782206E+03  0.79074861038E+02 0.  0.
         24    2    4    4    0    0  0.32901411745E+03  0.54094715532E+03  0.79161847639E+03  0.10168375751E+04  0.80154399145E+02 0.  0.
         13    1    3    3    0    0  0.51514313452E+02 -0.52247743616E+03  0.91568071434E+03  0.10555129400E+04  0.00000000000E+00 0. -1.
        -13    1    3    3    0    0  0.24864788180E+02 -0.30639674683E+02  0.52466395820E+02  0.65648838880E+02  0.00000000000E+00 0.  1.
          4    1    6    6  502    0  0.12950140331E+03  0.28652856584E+03  0.37126974671E+03  0.48652898919E+03  0.00000000000E+00 0. -1.
          3    1    5    5  503    0 -0.75065163211E+02 -0.28601270327E+02  0.69848514556E+02  0.10645011216E+03  0.00000000000E+00 0. -1.
         -4    1    5    5    0  503 -0.33032805587E+03  0.40771225854E+02  0.30670143407E+03  0.45259770990E+03  0.00000000000E+00 0.  1.
         -3    1    6    6    0  502  0.19951271413E+03  0.25441858948E+03  0.42034872968E+03  0.53030858593E+03  0.00000000000E+00 0.  1.
<mgrwt>
<rscale>  0 0.16462744E+04</rscale>
<asrwt>0</asrwt>
<pdfrwt beam="1">  1        2 0.37179712E+00 0.16462744E+04</pdfrwt>
<pdfrwt beam="2">  1       -2 0.43133205E-01 0.16462744E+04</pdfrwt>
<totfact> 0.18965335E+01</totfact>
</mgrwt>
</event>
<event>
12    1  0.1477245E-007  0.1753301E+04  0.7818608E-02  0.8731536E-01
          2   -1    0    0  501    0  0.00000000000E+00  0.00000000000E+00  0.44583819265E+04  0.44583819265E+04  0.00000000000E+00 0.  1.
         -2   -1    0    0    0  501 -0.00000000000E+00 -0.00000000000E+00 -0.17237551003E+03  0.17237551003E+03  0.00000000000E+00 0. -1.
         23    2    1    2    0    0  0.40968226508E+03 -0.48879205077E+02  0.29346464241E+03  0.51444508196E+03  0.91123602882E+02 0.  0.
        254    2    1    2    0    0 -0.40968226508E+03  0.48879205077E+02  0.39925417741E+04  0.41163123546E+04  0.91291228920E+03 0.  0.
        -24    2    4    4    0    0 -0.82553544047E+02  0.11512398211E+03  0.35627120641E+04  0.35663465322E+04  0.76431128136E+02 0.  0.
         24    2    4    4    0    0 -0.32712872103E+03 -0.66244777030E+02  0.42982970999E+03  0.54996582237E+03  0.79418232065E+02 0.  0.
         13    1    3    3    0    0  0.68116724411E+02 -0.43615379921E+02  0.59015017381E+02  0.10012473114E+03  0.00000000000E+00 0.  1.
        -13    1    3    3    0    0  0.34156554066E+03 -0.52638251557E+01  0.23444962503E+03  0.41432035082E+03  0.00000000000E+00 0. -1.
          2    1    6    6  502    0 -0.49614980286E+01 -0.30488529861E+01  0.39486505315E+02  0.39913607570E+02  0.00000000000E+00 0. -1.
          3    1    5    5  503    0 -0.14428770644E+02 -0.74292333083E+01  0.71547788087E+03  0.71566191805E+03  0.00000000000E+00 0. -1.
         -4    1    5    5    0  503 -0.68124773404E+02  0.12255321542E+03  0.28472341832E+04  0.28506846142E+04  0.00000000000E+00 0.  1.
         -1    1    6    6    0  502 -0.32216722300E+03 -0.63195924044E+02  0.39034320467E+03  0.51005221480E+03  0.00000000000E+00 0.  1.
<mgrwt>
<rscale>  0 0.17533007E+04</rscale>
<asrwt>0</asrwt>
<pdfrwt beam="1">  1        2 0.68590482E+00 0.17533007E+04</pdfrwt>
<pdfrwt beam="2">  1       -2 0.26519313E-01 0.17533007E+04</pdfrwt>
<totfact> 0.16881802E+00</totfact>
</mgrwt>
</event>
<event>
12    1  0.1477245E-007  0.2115970E+04  0.7818608E-02  0.8554241E-01
         -1   -1    0    0    0  501 -0.00000000000E+00  0.00000000000E+00  0.10085416804E+04  0.10085416804E+04  0.00000000000E+00 0.  1.
          1   -1    0    0  501    0  0.00000000000E+00 -0.00000000000E+00 -0.11098527147E+04  0.11098527147E+04  0.00000000000E+00 0. -1.
         23    2    1    2    0    0 -0.54498753294E+03  0.16988483557E+03 -0.69226087783E+03  0.90199753831E+03  0.92207199967E+02 0.  0.
        254    2    1    2    0    0  0.54498753294E+03 -0.16988483557E+03  0.59094984353E+03  0.12163968569E+04  0.89695447341E+03 0.  0.
        -24    2    4    4    0    0  0.60155097196E+03 -0.37819240527E+03  0.16723444527E+03  0.73427982490E+03  0.79413061226E+02 0.  0.
         24    2    4    4    0    0 -0.56563439019E+02  0.20830756970E+03  0.42371539826E+03  0.48211703195E+03  0.79439458368E+02 0.  0.
         11    1    3    3    0    0 -0.50080259334E+03  0.12808480381E+03 -0.63048436157E+03  0.81530330837E+03  0.00000000000E+00 0. -1.
        -11    1    3    3    0    0 -0.44184939602E+02  0.41800031762E+02 -0.61776516262E+02  0.86694229937E+02  0.00000000000E+00 0.  1.
          2    1    6    6  502    0 -0.25705089427E+02  0.14504633310E+03  0.35224707549E+03  0.38180779531E+03  0.00000000000E+00 0. -1.
          1    1    5    5  503    0  0.49300304274E+03 -0.31667734815E+03  0.16783274963E+03  0.60951158711E+03  0.00000000000E+00 0. -1.
         -2    1    5    5    0  503  0.10854792923E+03 -0.61515057121E+02 -0.59830435221E+00  0.12476823779E+03  0.00000000000E+00 0.  1.
         -1    1    6    6    0  502 -0.30858349592E+02  0.63261236604E+02  0.71468322773E+02  0.10030923664E+03  0.00000000000E+00 0.  1.
<mgrwt>
<rscale>  0 0.21159704E+04</rscale>
<asrwt>0</asrwt>
<pdfrwt beam="1">  1        1 0.17074657E+00 0.21159704E+04</pdfrwt>
<pdfrwt beam="2">  1       -1 0.15516026E+00 0.21159704E+04</pdfrwt>
<totfact> 0.36429725E+00</totfact>
</mgrwt>
</event>
<event>
12    1  0.1477245E-007  0.1965829E+04  0.7818608E-02  0.8622765E-01
          2   -1    0    0  501    0  0.00000000000E+00  0.00000000000E+00  0.27075640378E+04  0.27075640378E+04  0.00000000000E+00 0. -1.
         -2   -1    0    0    0  501 -0.00000000000E+00 -0.00000000000E+00 -0.35682300889E+03  0.35682300889E+03  0.00000000000E+00 0.  1.
         23    2    1    2    0    0  0.38162732049E+03  0.54873100057E+03  0.32267584646E+03  0.74794225963E+03  0.92481344700E+02 0.  0.
        254    2    1    2    0    0 -0.38162732049E+03 -0.54873100057E+03  0.20280651824E+04  0.23164447870E+04  0.89784349665E+03 0.  0.
        -24    2    4    4    0    0 -0.12333637313E+03  0.27344021881E+02 -0.38133671585E+02  0.15452031131E+03  0.80391499740E+02 0.  0.
         24    2    4    4    0    0 -0.25829094736E+03 -0.57607502245E+03  0.20661988540E+04  0.21619244757E+04  0.78505346485E+02 0.  0.
         11    1    3    3    0    0  0.33000419617E+03  0.41105410688E+03  0.23923788581E+03  0.57888082909E+03  0.00000000000E+00 0.  1.
        -11    1    3    3    0    0  0.51623124319E+02  0.13767689368E+03  0.83437960643E+02  0.16906143054E+03  0.00000000000E+00 0. -1.
          2    1    6    6  502    0 -0.21948800152E+03 -0.40474144407E+03  0.14787651798E+04  0.15487856780E+04  0.00000000000E+00 0. -1.
          3    1    5    5  503    0 -0.28462948247E+02  0.39902773831E+02 -0.32180929187E+02  0.58634315769E+02  0.00000000000E+00 0. -1.
         -4    1    5    5    0  503 -0.94873424883E+02 -0.12558751950E+02 -0.59527423974E+01  0.95885995544E+02  0.00000000000E+00 0.  1.
         -1    1    6    6    0  502 -0.38802945846E+02 -0.17133357838E+03  0.58743367416E+03  0.61313879769E+03  0.00000000000E+00 0.  1.
<mgrwt>
<rscale>  0 0.19658292E+04</rscale>
<asrwt>0</asrwt>
<pdfrwt beam="1">  1        2 0.41654830E+00 0.19658292E+04</pdfrwt>
<pdfrwt beam="2">  1       -2 0.54895849E-01 0.19658292E+04</pdfrwt>
<totfact> 0.76519975E+00</totfact>
</mgrwt>
</event>
<event>
12    1  0.1477245E-007  0.1280312E+04  0.7818608E-02  0.9045325E-01
          2   -1    0    0  501    0  0.00000000000E+00  0.00000000000E+00  0.21418134371E+04  0.21418134371E+04  0.00000000000E+00 0. -1.
         -2   -1    0    0    0  501 -0.00000000000E+00 -0.00000000000E+00 -0.19133309286E+03  0.19133309286E+03  0.00000000000E+00 0.  1.
         23    2    1    2    0    0  0.13837223581E+03 -0.11884846495E+03  0.93514403149E+03  0.95729776720E+03  0.93020547133E+02 0.  0.
        254    2    1    2    0    0 -0.13837223581E+03  0.11884846495E+03  0.10153363128E+04  0.13758487628E+04  0.91037363581E+03 0.  0.
        -24    2    4    4    0    0 -0.31557341182E+03  0.11053904889E+03  0.14575524682E+01  0.34364685197E+03  0.79281617221E+02 0.  0.
         24    2    4    4    0    0  0.17720117601E+03  0.83094160661E+01  0.10138787603E+04  0.10322019108E+04  0.77597299842E+02 0.  0.
         13    1    3    3    0    0  0.10509533424E+02  0.14621982143E+02  0.12804493889E+03  0.12930490721E+03  0.00000000000E+00 0.  1.
        -13    1    3    3    0    0  0.12786270238E+03 -0.13347044710E+03  0.80709909261E+03  0.82799285999E+03  0.00000000000E+00 0. -1.
          2    1    6    6  502    0  0.25409497131E+02  0.18457692426E+02  0.78785754612E+02  0.84814645457E+02  0.00000000000E+00 0. -1.
          1    1    5    5  503    0 -0.47759879946E+02  0.33240796644E+02  0.26179878849E+02  0.63807074455E+02  0.00000000000E+00 0. -1.
         -2    1    5    5    0  503 -0.26781353188E+03  0.77298252241E+02 -0.24722326380E+02  0.27983977751E+03  0.00000000000E+00 0.  1.
         -1    1    6    6    0  502  0.15179167888E+03 -0.10148276360E+02  0.93509300570E+03  0.94738726538E+03  0.00000000000E+00 0.  1.
<mgrwt>
<rscale>  0 0.12803121E+04</rscale>
<asrwt>0</asrwt>
<pdfrwt beam="1">  1        2 0.32950974E+00 0.12803121E+04</pdfrwt>
<pdfrwt beam="2">  1       -2 0.29435862E-01 0.12803121E+04</pdfrwt>
<totfact> 0.58160965E+01</totfact>
</mgrwt>
</event>
<event>
12    1  0.1477245E-007  0.1176247E+04  0.7818608E-02  0.9133905E-01
          1   -1    0    0  501    0  0.00000000000E+00  0.00000000000E+00  0.12790414873E+04  0.12790414873E+04  0.00000000000E+00 0. -1.
         -1   -1    0    0    0  501 -0.00000000000E+00 -0.00000000000E+00 -0.27042868928E+03  0.27042868928E+03  0.00000000000E+00 0.  1.
         23    2    1    2    0    0 -0.10960182956E+03 -0.91240891105E+02 -0.25935645443E+02  0.17051604605E+03  0.89808702269E+02 0.  0.
        254    2    1    2    0    0  0.10960182956E+03  0.91240891105E+02  0.10345484435E+04  0.13789541306E+04  0.90049239363E+03 0.  0.
        -24    2    4    4    0    0  0.36261378179E+03  0.37178684119E+03  0.59674419819E+03  0.79515265159E+03  0.80311214854E+02 0.  0.
         24    2    4    4    0    0 -0.25301195223E+03 -0.28054595008E+03  0.43780424532E+03  0.58380147898E+03  0.80190595193E+02 0.  0.
         13    1    3    3    0    0 -0.97536982414E+02 -0.83233866372E+02 -0.53847655593E+02  0.13907159833E+03  0.00000000000E+00 0.  1.
        -13    1    3    3    0    0 -0.12064847150E+02 -0.80070247329E+01  0.27912010150E+02  0.31444447720E+02  0.00000000000E+00 0. -1.
          2    1    6    6  502    0 -0.38748269725E+02 -0.58204649816E+02  0.13112897585E+03  0.14860692439E+03  0.00000000000E+00 0. -1.
          3    1    5    5  503    0  0.43648392753E+02  0.59564280557E+02  0.49197459152E+02  0.88732607847E+02  0.00000000000E+00 0. -1.
         -4    1    5    5    0  503  0.31896538904E+03  0.31222256063E+03  0.54754673904E+03  0.70642004374E+03  0.00000000000E+00 0.  1.
         -1    1    6    6    0  502 -0.21426368251E+03 -0.22234130026E+03  0.30667526947E+03  0.43519455459E+03  0.00000000000E+00 0.  1.
<mgrwt>
<rscale>  0 0.11762474E+04</rscale>
<asrwt>0</asrwt>
<pdfrwt beam="1">  1        1 0.19677561E+00 0.11762474E+04</pdfrwt>
<pdfrwt beam="2">  1       -1 0.41604414E-01 0.11762474E+04</pdfrwt>
<totfact> 0.52573615E+01</totfact>
</mgrwt>
</event>
<event>
12    1  0.1477245E-007  0.1103468E+04  0.7818608E-02  0.9201818E-01
         -2   -1    0    0    0  501 -0.00000000000E+00  0.00000000000E+00  0.14899076209E+03  0.14899076209E+03  0.00000000000E+00 0.  1.
          2   -1    0    0  501    0  0.00000000000E+00 -0.00000000000E+00 -0.20431489202E+04  0.20431489202E+04  0.00000000000E+00 0. -1.
         23    2    1    2    0    0 -0.81804293730E+02  0.14764329795E+03 -0.36565289301E+03  0.41338207099E+03  0.93232036031E+02 0.  0.
        254    2    1    2    0    0  0.81804293730E+02 -0.14764329795E+03 -0.15285052651E+04  0.17787576113E+04  0.89395738626E+03 0.  0.
        -24    2    4    4    0    0  0.98123905315E+02  0.30444719771E+03 -0.11075975993E+04  0.11555550167E+04  0.78857831654E+02 0.  0.
         24    2    4    4    0    0 -0.16319611585E+02 -0.45209049566E+03 -0.42090766582E+03  0.62320259465E+03  0.81031258439E+02 0.  0.
         11    1    3    3    0    0 -0.36911364015E+02  0.60358434653E+02 -0.25877356453E+03  0.26827103297E+03  0.00000000000E+00 0. -1.
        -11    1    3    3    0    0 -0.44892929715E+02  0.87284863298E+02 -0.10687932848E+03  0.14511103802E+03  0.00000000000E+00 0.  1.
          2    1    6    6  502    0 -0.27069527373E+02 -0.37266504917E+03 -0.30522317097E+03  0.48246573172E+03  0.00000000000E+00 0. -1.
          1    1    5    5  503    0  0.77620964256E+02  0.26995421067E+03 -0.10368047341E+04  0.10741807793E+04  0.00000000000E+00 0. -1.
         -2    1    5    5    0  503  0.20502941059E+02  0.34492987040E+02 -0.70792865185E+02  0.81374237374E+02  0.00000000000E+00 0.  1.
         -3    1    6    6    0  502  0.10749915788E+02 -0.79425446493E+02 -0.11568449485E+03  0.14073686293E+03  0.00000000000E+00 0.  1.
<mgrwt>
<rscale>  0 0.11034678E+04</rscale>
<asrwt>0</asrwt>
<pdfrwt beam="1">  1        2 0.31433059E+00 0.11034678E+04</pdfrwt>
<pdfrwt beam="2">  1       -2 0.22921657E-01 0.11034678E+04</pdfrwt>
<totfact> 0.10555527E+02</totfact>
</mgrwt>
</event>
<event>
12    1  0.1477245E-007  0.1784197E+04  0.7818608E-02  0.8714749E-01
         -1   -1    0    0    0  501 -0.00000000000E+00  0.00000000000E+00  0.46928150566E+03  0.46928150566E+03  0.00000000000E+00 0.  1.
          1   -1    0    0  501    0  0.00000000000E+00 -0.00000000000E+00 -0.16958690931E+04  0.16958690931E+04  0.00000000000E+00 0. -1.
         23    2    1    2    0    0  0.20517395800E+03  0.21923396959E+03  0.25690384498E+03  0.40570555910E+03  0.91856021344E+02 0.  0.
        254    2    1    2    0    0 -0.20517395800E+03 -0.21923396959E+03 -0.14834914325E+04  0.17594450397E+04  0.89707309126E+03 0.  0.
        -24    2    4    4    0    0  0.71581632213E+02 -0.48652340915E+03 -0.52588697372E+03  0.72437269459E+03  0.79559624307E+02 0.  0.
         24    2    4    4    0    0 -0.27675559021E+03  0.26728943955E+03 -0.95760445875E+03  0.10350723451E+04  0.79568580415E+02 0.  0.
         11    1    3    3    0    0  0.19096017332E+03  0.16360297140E+03  0.23523140141E+03  0.34433346084E+03  0.00000000000E+00 0.  1.
        -11    1    3    3    0    0  0.14213784679E+02  0.55630998197E+02  0.21672443576E+02  0.61372098268E+02  0.00000000000E+00 0. -1.
          4    1    6    6  502    0 -0.11254741399E+03  0.14737764714E+03 -0.53198920704E+03  0.56338229266E+03  0.00000000000E+00 0. -1.
          1    1    5    5  503    0  0.17657832213E+02 -0.32187346272E+02 -0.18309611828E+02  0.41025189625E+02  0.00000000000E+00 0. -1.
         -2    1    5    5    0  503  0.53923799999E+02 -0.45433606288E+03 -0.50757736189E+03  0.68334750497E+03  0.00000000000E+00 0.  1.
         -3    1    6    6    0  502 -0.16420817622E+03  0.11991179241E+03 -0.42561525170E+03  0.47169005245E+03  0.00000000000E+00 0.  1.
<mgrwt>
<rscale>  0 0.17841973E+04</rscale>
<asrwt>0</asrwt>
<pdfrwt beam="1">  1        1 0.26090294E+00 0.17841973E+04</pdfrwt>
<pdfrwt beam="2">  1       -1 0.72197155E-01 0.17841973E+04</pdfrwt>
<totfact> 0.87729684E+00</totfact>
</mgrwt>
</event>
<event>
12    1  0.1477245E-007  0.1619053E+04  0.7818608E-02  0.8808928E-01
         -2   -1    0    0    0  501 -0.00000000000E+00  0.00000000000E+00  0.75234214493E+03  0.75234214493E+03  0.00000000000E+00 0. -1.
          2   -1    0    0  501    0  0.00000000000E+00 -0.00000000000E+00 -0.87105693102E+03  0.87105693102E+03  0.00000000000E+00 0.  1.
         23    2    1    2    0    0  0.38438927067E+03  0.40596152436E+03 -0.65789275596E+02  0.56956255892E+03  0.86679923108E+02 0.  0.
        254    2    1    2    0    0 -0.38438927067E+03 -0.40596152436E+03 -0.52925510490E+02  0.10538365170E+04  0.89174571729E+03 0.  0.
        -24    2    4    4    0    0 -0.43915911077E+03 -0.28378131618E+03 -0.40738109213E+03  0.66752538056E+03  0.78982399823E+02 0.  0.
         24    2    4    4    0    0  0.54769840101E+02 -0.12218020817E+03  0.35445558164E+03  0.38631113647E+03  0.75298048809E+02 0.  0.
         11    1    3    3    0    0  0.14160665324E+03  0.95595358519E+02 -0.34300359595E+02  0.17426253608E+03  0.00000000000E+00 0. -1.
        -11    1    3    3    0    0  0.24278261743E+03  0.31036616584E+03 -0.31488916001E+02  0.39530002283E+03  0.00000000000E+00 0.  1.
          4    1    6    6  502    0 -0.16898069856E+02 -0.86383155812E+01  0.53368029649E+02  0.56641961915E+02  0.00000000000E+00 0. -1.
          1    1    5    5  503    0 -0.61158960889E+02 -0.14752418226E+02 -0.31220929647E+02  0.70233886327E+02  0.00000000000E+00 0. -1.
         -2    1    5    5    0  503 -0.37800014988E+03 -0.26902889796E+03 -0.37616016248E+03  0.59729149423E+03  0.00000000000E+00 0.  1.
         -3    1    6    6    0  502  0.71667909957E+02 -0.11354189259E+03  0.30108755199E+03  0.32966917456E+03  0.00000000000E+00 0.  1.
<mgrwt>
<rscale>  0 0.16190526E+04</rscale>
<asrwt>0</asrwt>
<pdfrwt beam="1">  1        2 0.13400876E+00 0.16190526E+04</pdfrwt>
<pdfrwt beam="2">  1       -2 0.11574494E+00 0.16190526E+04</pdfrwt>
<totfact> 0.17056017E+01</totfact>
</mgrwt>
</event>
<event>
12    1  0.1477245E-007  0.1865264E+04  0.7818608E-02  0.8672342E-01
          2   -1    0    0  501    0  0.00000000000E+00  0.00000000000E+00  0.93549137138E+03  0.93549137138E+03  0.00000000000E+00 0. -1.
         -2   -1    0    0    0  501 -0.00000000000E+00 -0.00000000000E+00 -0.92978183662E+03  0.92978183662E+03  0.00000000000E+00 0.  1.
         23    2    1    2    0    0  0.96484022765E+02 -0.49082666884E+03  0.50703623784E+03  0.71793016380E+03  0.90099878607E+02 0.  0.
        254    2    1    2    0    0 -0.96484022765E+02  0.49082666884E+03 -0.50132670308E+03  0.11473430442E+04  0.90268910060E+03 0.  0.
        -24    2    4    4    0    0  0.29883462220E+03 -0.81960936654E+02 -0.23955026194E+03  0.39957371626E+03  0.79089191209E+02 0.  0.
         24    2    4    4    0    0 -0.39531864497E+03  0.57278760550E+03 -0.26177644114E+03  0.74776932794E+03  0.79180746361E+02 0.  0.
         11    1    3    3    0    0  0.70181052433E+02 -0.37879654225E+03  0.33259844807E+03  0.50895375841E+03  0.00000000000E+00 0. -1.
        -11    1    3    3    0    0  0.26302970333E+02 -0.11203012659E+03  0.17443778977E+03  0.20897640540E+03  0.00000000000E+00 0.  1.
          4    1    6    6  502    0 -0.15024504715E+02  0.50953200859E+02 -0.68453159234E+01  0.53561392530E+02  0.00000000000E+00 0. -1.
          3    1    5    5  503    0  0.17099629870E+03 -0.84289027939E+02 -0.16085774454E+03  0.24943854629E+03  0.00000000000E+00 0. -1.
         -4    1    5    5    0  503  0.12783832351E+03  0.23280912843E+01 -0.78692517397E+02  0.15013516997E+03  0.00000000000E+00 0.  1.
         -3    1    6    6    0  502 -0.38029414025E+03  0.52183440464E+03 -0.25493112522E+03  0.69420793541E+03  0.00000000000E+00 0.  1.
<mgrwt>
<rscale>  0 0.18652645E+04</rscale>
<asrwt>0</asrwt>
<pdfrwt beam="1">  1        2 0.14392175E+00 0.18652645E+04</pdfrwt>
<pdfrwt beam="2">  1       -2 0.14304336E+00 0.18652645E+04</pdfrwt>
<totfact> 0.88505717E+00</totfact>
</mgrwt>
</event>
<event>
12    1  0.1477245E-007  0.1452086E+04  0.7818608E-02  0.8916955E-01
          2   -1    0    0  501    0  0.00000000000E+00  0.00000000000E+00  0.62348534978E+03  0.62348534978E+03  0.00000000000E+00 0. -1.
         -2   -1    0    0    0  501 -0.00000000000E+00 -0.00000000000E+00 -0.84547081783E+03  0.84547081783E+03  0.00000000000E+00 0.  1.
         23    2    1    2    0    0  0.11770507038E+03 -0.33616120106E+03 -0.33197857673E+03  0.49511418003E+03  0.89830057189E+02 0.  0.
        254    2    1    2    0    0 -0.11770507038E+03  0.33616120106E+03  0.10999310867E+03  0.97384198758E+03  0.89967266054E+03 0.  0.
        -24    2    4    4    0    0  0.14750389049E+03  0.22719169280E+02 -0.32823160647E+03  0.36923658699E+03  0.79536855136E+02 0.  0.
         24    2    4    4    0    0 -0.26520896087E+03  0.31344203178E+03  0.43822471514E+03  0.60460540059E+03  0.70178980089E+02 0.  0.
         13    1    3    3    0    0  0.11175298343E+03 -0.32617130749E+03 -0.33729110259E+03  0.48232949218E+03  0.00000000000E+00 0.  1.
        -13    1    3    3    0    0  0.59520869478E+01 -0.99898935657E+01  0.53125258650E+01  0.12784687855E+02  0.00000000000E+00 0. -1.
          4    1    6    6  502    0 -0.21004749194E+01  0.21624332385E+02  0.37827324495E+02  0.43622588466E+02  0.00000000000E+00 0. -1.
          1    1    5    5  503    0  0.35995883755E+01  0.22814172507E+02 -0.68705699935E+02  0.72483906539E+02  0.00000000000E+00 0. -1.
         -2    1    5    5    0  503  0.14390430212E+03 -0.95003226298E-01 -0.25952590653E+03  0.29675268045E+03  0.00000000000E+00 0.  1.
         -3    1    6    6    0  502 -0.26310848595E+03  0.29181769939E+03  0.40039739065E+03  0.56098281212E+03  0.00000000000E+00 0.  1.
<mgrwt>
<rscale>  0 0.14520863E+04</rscale>
<asrwt>0</asrwt>
<pdfrwt beam="1">  1        2 0.95920823E-01 0.14520863E+04</pdfrwt>
<pdfrwt beam="2">  1       -2 0.13007243E+00 0.14520863E+04</pdfrwt>
<totfact> 0.19895297E+01</totfact>
</mgrwt>
</event>
<event>
12    1  0.1477245E-007  0.1960567E+04  0.7818608E-02  0.8625282E-01
          1   -1    0    0  501    0  0.00000000000E+00  0.00000000000E+00  0.32286819484E+03  0.32286819484E+03  0.00000000000E+00 0. -1.
         -1   -1    0    0    0  501 -0.00000000000E+00 -0.00000000000E+00 -0.29763086191E+04  0.29763086191E+04  0.00000000000E+00 0.  1.
         23    2    1    2    0    0 -0.21818125397E+03  0.68388563834E+03 -0.57657851546E+03  0.92571551859E+03  0.95936494361E+02 0.  0.
        254    2    1    2    0    0  0.21818125397E+03 -0.68388563834E+03 -0.20768619088E+04  0.23734612954E+04  0.89702870994E+03 0.  0.
        -24    2    4    4    0    0  0.20831143487E+03 -0.48417485784E+03 -0.20908816764E+04  0.21578099847E+04  0.80862837985E+02 0.  0.
         24    2    4    4    0    0  0.98698191068E+01 -0.19971078051E+03  0.14019767550E+02  0.21565131070E+03  0.79543225629E+02 0.  0.
         11    1    3    3    0    0 -0.52142747962E+02  0.78626005521E+02 -0.10141033248E+03  0.13850982074E+03  0.00000000000E+00 0.  1.
        -11    1    3    3    0    0 -0.16603850601E+03  0.60525963282E+03 -0.47516818298E+03  0.78720569785E+03  0.00000000000E+00 0. -1.
          4    1    6    6  502    0 -0.34451821930E+02 -0.10746873576E+03  0.69498954929E+01  0.11306970526E+03  0.00000000000E+00 0. -1.
          3    1    5    5  503    0  0.21785646457E+02 -0.31107268885E+02 -0.87537569890E+02  0.95420661868E+02  0.00000000000E+00 0. -1.
         -4    1    5    5    0  503  0.18652578841E+03 -0.45306758895E+03 -0.20033441065E+04  0.20623893228E+04  0.00000000000E+00 0.  1.
         -3    1    6    6    0  502  0.44321641037E+02 -0.92242044745E+02  0.70698720569E+01  0.10258160544E+03  0.00000000000E+00 0.  1.
<mgrwt>
<rscale>  0 0.19605666E+04</rscale>
<asrwt>0</asrwt>
<pdfrwt beam="1">  1        1 0.49672029E-01 0.19605666E+04</pdfrwt>
<pdfrwt beam="2">  1       -1 0.45789364E+00 0.19605666E+04</pdfrwt>
<totfact> 0.21173414E-01</totfact>
</mgrwt>
</event>
<event>
12    1  0.1477245E-007  0.2004108E+04  0.7818608E-02  0.8604703E-01
         -2   -1    0    0    0  501 -0.00000000000E+00  0.00000000000E+00  0.86197029461E+03  0.86197029461E+03  0.00000000000E+00 0.  1.
          2   -1    0    0  501    0  0.00000000000E+00 -0.00000000000E+00 -0.11649031809E+04  0.11649031809E+04  0.00000000000E+00 0. -1.
         23    2    1    2    0    0  0.16661631848E+03  0.44859437388E+03 -0.76652426430E+03  0.90866536880E+03  0.95474576951E+02 0.  0.
        254    2    1    2    0    0 -0.16661631848E+03 -0.44859437388E+03  0.46359137805E+03  0.11182081067E+04  0.89803924978E+03 0.  0.
        -24    2    4    4    0    0 -0.29161773722E+03  0.17059812167E+03  0.30483511512E+02  0.34843949698E+03  0.79600344227E+02 0.  0.
         24    2    4    4    0    0  0.12500141875E+03 -0.61919249555E+03  0.43310786653E+03  0.76976860968E+03  0.77049251470E+02 0.  0.
         11    1    3    3    0    0  0.16660545703E+03  0.39089941039E+03 -0.62434603030E+03  0.75522691485E+03  0.00000000000E+00 0. -1.
        -11    1    3    3    0    0  0.10861446468E-01  0.57694963492E+02 -0.14217823400E+03  0.15343845396E+03  0.00000000000E+00 0.  1.
          2    1    6    6  502    0  0.10723886122E+03 -0.49162465500E+03  0.30661715917E+03  0.58924447987E+03  0.00000000000E+00 0. -1.
          1    1    5    5  503    0 -0.15480356376E+03  0.93542911101E+02 -0.23513827127E+02  0.18239331029E+03  0.00000000000E+00 0. -1.
         -2    1    5    5    0  503 -0.13681417346E+03  0.77055210573E+02  0.53997338639E+02  0.16604618670E+03  0.00000000000E+00 0.  1.
         -1    1    6    6    0  502  0.17762557525E+02 -0.12756784056E+03  0.12649070736E+03  0.18052412981E+03  0.00000000000E+00 0.  1.
<mgrwt>
<rscale>  0 0.20041077E+04</rscale>
<asrwt>0</asrwt>
<pdfrwt beam="1">  1        2 0.17921587E+00 0.20041077E+04</pdfrwt>
<pdfrwt beam="2">  1       -2 0.13261082E+00 0.20041077E+04</pdfrwt>
<totfact> 0.76263310E+00</totfact>
</mgrwt>
</event>
<event>
12    1  0.1477245E-007  0.2183942E+04  0.7818608E-02  0.8525142E-01
         -2   -1    0    0    0  501 -0.00000000000E+00  0.00000000000E+00  0.95531737754E+03  0.95531737754E+03  0.00000000000E+00 0. -1.
          2   -1    0    0  501    0  0.00000000000E+00 -0.00000000000E+00 -0.12481721105E+04  0.12481721105E+04  0.00000000000E+00 0.  1.
         23    2    1    2    0    0  0.44212194684E+03  0.78893843497E+03 -0.83035557859E+02  0.91262209028E+03  0.89936120303E+02 0.  0.
        254    2    1    2    0    0 -0.44212194684E+03 -0.78893843497E+03 -0.20981917511E+03  0.12908673978E+04  0.89689401958E+03 0.  0.
        -24    2    4    4    0    0 -0.69746789921E+02 -0.65292123565E+03 -0.46851432581E+03  0.81038933813E+03  0.77810354044E+02 0.  0.
         24    2    4    4    0    0 -0.37237515692E+03 -0.13601719932E+03  0.25869515070E+03  0.48047805965E+03  0.82292459014E+02 0.  0.
         13    1    3    3    0    0  0.22891928576E+03  0.36758609309E+03 -0.80132522858E+02  0.44039163985E+03  0.00000000000E+00 0.  1.
        -13    1    3    3    0    0  0.21320266108E+03  0.42135234188E+03 -0.29030350013E+01  0.47223045043E+03  0.00000000000E+00 0. -1.
          2    1    6    6  502    0 -0.18180702980E+02 -0.30151284340E+02  0.23122266054E+02  0.42122168696E+02  0.00000000000E+00 0. -1.
          1    1    5    5  503    0 -0.39177714858E+02 -0.99857655478E+02 -0.72210521026E+02  0.12930894805E+03  0.00000000000E+00 0. -1.
         -2    1    5    5    0  503 -0.30569075063E+02 -0.55306358017E+03 -0.39630380478E+03  0.68108039008E+03  0.00000000000E+00 0.  1.
         -1    1    6    6    0  502 -0.35419445394E+03 -0.10586591498E+03  0.23557288464E+03  0.43835589096E+03  0.00000000000E+00 0.  1.
<mgrwt>
<rscale>  0 0.21839419E+04</rscale>
<asrwt>0</asrwt>
<pdfrwt beam="1">  1        2 0.19202648E+00 0.21839419E+04</pdfrwt>
<pdfrwt beam="2">  1       -2 0.14697190E+00 0.21839419E+04</pdfrwt>
<totfact> 0.51326626E+00</totfact>
</mgrwt>
</event>
<event>
12    1  0.1477245E-007  0.2115307E+04  0.7818608E-02  0.8554531E-01
          2   -1    0    0  501    0  0.00000000000E+00  0.00000000000E+00  0.12153185562E+04  0.12153185562E+04  0.00000000000E+00 0.  1.
         -2   -1    0    0    0  501 -0.00000000000E+00 -0.00000000000E+00 -0.92044213143E+03  0.92044213143E+03  0.00000000000E+00 0. -1.
         23    2    1    2    0    0  0.47552675182E+03  0.87326461459E+02  0.83886569180E+03  0.97251363408E+03  0.91299052756E+02 0.  0.
        254    2    1    2    0    0 -0.47552675182E+03 -0.87326461459E+02 -0.54398926701E+03  0.11632470536E+04  0.90745125624E+03 0.  0.
        -24    2    4    4    0    0 -0.42804293966E+03  0.48113425140E+02  0.14007628621E+03  0.45980748381E+03  0.79157414919E+02 0.  0.
         24    2    4    4    0    0 -0.47483812155E+02 -0.13543988660E+03 -0.68406555322E+03  0.70343956976E+03  0.79264568987E+02 0.  0.
         11    1    3    3    0    0  0.26003239232E+02 -0.13070068954E+02  0.76007604373E+02  0.81388887912E+02  0.00000000000E+00 0. -1.
        -11    1    3    3    0    0  0.44952351259E+03  0.10039653041E+03  0.76285808743E+03  0.89112474617E+03  0.00000000000E+00 0.  1.
          2    1    6    6  502    0 -0.69934597555E+02 -0.10279146723E+03 -0.51587893619E+03  0.53064866953E+03  0.00000000000E+00 0. -1.
          3    1    5    5  503    0 -0.23289039762E+03  0.16539694727E+02  0.11584791349E+03  0.26063813586E+03  0.00000000000E+00 0. -1.
         -4    1    5    5    0  503 -0.19515254205E+03  0.31573730412E+02  0.24228372718E+02  0.19916934795E+03  0.00000000000E+00 0.  1.
         -1    1    6    6    0  502  0.22450785400E+02 -0.32648419369E+02 -0.16818661703E+03  0.17279090023E+03  0.00000000000E+00 0.  1.
<mgrwt>
<rscale>  0 0.21153065E+04</rscale>
<asrwt>0</asrwt>
<pdfrwt beam="1">  1        2 0.18697209E+00 0.21153065E+04</pdfrwt>
<pdfrwt beam="2">  1       -2 0.14160648E+00 0.21153065E+04</pdfrwt>
<totfact> 0.59518805E+00</totfact>
</mgrwt>
</event>
<event>
12    1  0.1477245E-007  0.1086047E+04  0.7818608E-02  0.9218899E-01
         -1   -1    0    0    0  501 -0.00000000000E+00  0.00000000000E+00  0.20923303230E+03  0.20923303230E+03  0.00000000000E+00 0.  1.
          1   -1    0    0  501    0  0.00000000000E+00 -0.00000000000E+00 -0.14093122135E+04  0.14093122135E+04  0.00000000000E+00 0. -1.
         23    2    1    2    0    0  0.13972477320E+02 -0.12092837710E+03 -0.63322651820E+02  0.16505275612E+03  0.91726504132E+02 0.  0.
        254    2    1    2    0    0 -0.13972477320E+02  0.12092837710E+03 -0.11367565294E+04  0.14534924897E+04  0.89755562945E+03 0.  0.
        -24    2    4    4    0    0 -0.40030344397E+03  0.54281105594E+02 -0.89697564740E+03  0.98702934949E+03  0.80450848674E+02 0.  0.
         24    2    4    4    0    0  0.38633096665E+03  0.66647271501E+02 -0.23978088197E+03  0.46646314018E+03  0.79996969940E+02 0.  0.
         13    1    3    3    0    0 -0.13106738231E+02 -0.73693239505E+02  0.80525108103E+01  0.75281625023E+02  0.00000000000E+00 0.  1.
        -13    1    3    3    0    0  0.27079215551E+02 -0.47235137590E+02 -0.71375162630E+02  0.89771131097E+02  0.00000000000E+00 0. -1.
          2    1    6    6  502    0  0.34976691663E+03  0.83596171759E+02 -0.21993018200E+03  0.42153825550E+03  0.00000000000E+00 0. -1.
          3    1    5    5  503    0 -0.23875432654E+03  0.71601555230E+02 -0.52927618278E+03  0.58503306643E+03  0.00000000000E+00 0. -1.
         -4    1    5    5    0  503 -0.16154911743E+03 -0.17320449636E+02 -0.36769946462E+03  0.40199628306E+03  0.00000000000E+00 0.  1.
         -1    1    6    6    0  502  0.36564050025E+02 -0.16948900258E+02 -0.19850699972E+02  0.44924884681E+02  0.00000000000E+00 0.  1.
<mgrwt>
<rscale>  0 0.10860473E+04</rscale>
<asrwt>0</asrwt>
<pdfrwt beam="1">  1        1 0.21681727E+00 0.10860473E+04</pdfrwt>
<pdfrwt beam="2">  1       -1 0.32189697E-01 0.10860473E+04</pdfrwt>
<totfact> 0.67974050E+01</totfact>
</mgrwt>
</event>
<event>
12    1  0.1477245E-007  0.2733212E+04  0.7818608E-02  0.8324309E-01
         -2   -1    0    0    0  501 -0.00000000000E+00  0.00000000000E+00  0.85929704270E+03  0.85929704270E+03  0.00000000000E+00 0.  1.
          2   -1    0    0  501    0  0.00000000000E+00 -0.00000000000E+00 -0.21734176610E+04  0.21734176610E+04  0.00000000000E+00 0. -1.
         23    2    1    2    0    0 -0.12155197354E+04 -0.44315685946E+02 -0.49474113312E+03  0.13163880033E+04  0.93040202261E+02 0.  0.
        254    2    1    2    0    0  0.12155197354E+04  0.44315685946E+02 -0.81937948522E+03  0.17163267004E+04  0.89159547694E+03 0.  0.
        -24    2    4    4    0    0  0.67776591995E+03  0.46015163808E+03 -0.44384067089E+03  0.93566630956E+03  0.85852952409E+02 0.  0.
         24    2    4    4    0    0  0.53775381549E+03 -0.41583595214E+03 -0.37553881433E+03  0.78066039086E+03  0.79388535819E+02 0.  0.
         11    1    3    3    0    0 -0.43958854757E+02 -0.41713300473E+01 -0.38160002425E+02  0.58360660474E+02  0.00000000000E+00 0.  1.
        -11    1    3    3    0    0 -0.11715608807E+04 -0.40144355899E+02 -0.45658113069E+03  0.12580273429E+04  0.00000000000E+00 0. -1.
          2    1    6    6  502    0  0.36384388556E+03 -0.31860467383E+03 -0.28934521976E+03  0.56357072976E+03  0.00000000000E+00 0. -1.
          1    1    5    5  503    0  0.28348106888E+03  0.14462317985E+03 -0.15637137362E+03  0.35458339929E+03  0.00000000000E+00 0. -1.
         -2    1    5    5    0  503  0.39428485107E+03  0.31552845824E+03 -0.28746929727E+03  0.58108291027E+03  0.00000000000E+00 0.  1.
         -3    1    6    6    0  502  0.17390992993E+03 -0.97231278306E+02 -0.86193594569E+02  0.21708966109E+03  0.00000000000E+00 0.  1.
<mgrwt>
<rscale>  0 0.27332116E+04</rscale>
<asrwt>0</asrwt>
<pdfrwt beam="1">  1        2 0.33437194E+00 0.27332116E+04</pdfrwt>
<pdfrwt beam="2">  1       -2 0.13219955E+00 0.27332116E+04</pdfrwt>
<totfact> 0.19460576E+00</totfact>
</mgrwt>
</event>
<event>
12    1  0.1477245E-007  0.1544308E+04  0.7818608E-02  0.8855512E-01
          2   -1    0    0  501    0  0.00000000000E+00  0.00000000000E+00  0.74107176715E+03  0.74107176715E+03  0.00000000000E+00 0. -1.
         -2   -1    0    0    0  501 -0.00000000000E+00 -0.00000000000E+00 -0.80453978414E+03  0.80453978414E+03  0.00000000000E+00 0.  1.
         23    2    1    2    0    0 -0.33437986570E+03  0.34104969089E+03 -0.12373643546E+03  0.50213328759E+03  0.93286369854E+02 0.  0.
        254    2    1    2    0    0  0.33437986570E+03 -0.34104969089E+03  0.60268418476E+02  0.10434782637E+04  0.92579145508E+03 0.  0.
        -24    2    4    4    0    0 -0.28451613079E+03 -0.20204062522E+03  0.16737964301E+03  0.39530006300E+03  0.80475785138E+02 0.  0.
         24    2    4    4    0    0  0.61889599649E+03 -0.13900906568E+03 -0.10711122454E+03  0.64817820070E+03  0.79412786275E+02 0.  0.
         11    1    3    3    0    0 -0.32993236677E+03  0.34611762853E+03 -0.12683611591E+03  0.49471221910E+03  0.00000000000E+00 0.  1.
        -11    1    3    3    0    0 -0.44474989295E+01 -0.50679376400E+01  0.30996804525E+01  0.74210684917E+01  0.00000000000E+00 0. -1.
          4    1    6    6  502    0  0.96408023552E+02 -0.41096885559E+02  0.49228772112E+01  0.10491756635E+03  0.00000000000E+00 0. -1.
          3    1    5    5  503    0 -0.48374533300E+02 -0.69723509736E+01  0.64307335303E+01  0.49295674088E+02  0.00000000000E+00 0. -1.
         -4    1    5    5    0  503 -0.23614159749E+03 -0.19506827424E+03  0.16094890948E+03  0.34600438891E+03  0.00000000000E+00 0.  1.
         -3    1    6    6    0  502  0.52248797294E+03 -0.97912180118E+02 -0.11203410175E+03  0.54326063435E+03  0.00000000000E+00 0.  1.
<mgrwt>
<rscale>  0 0.15443079E+04</rscale>
<asrwt>0</asrwt>
<pdfrwt beam="1">  1        2 0.11401104E+00 0.15443079E+04</pdfrwt>
<pdfrwt beam="2">  1       -2 0.12377535E+00 0.15443079E+04</pdfrwt>
<totfact> 0.18023098E+01</totfact>
</mgrwt>
</event>
<event>
12    1  0.1477245E-007  0.1514543E+04  0.7818608E-02  0.8874839E-01
          2   -1    0    0  501    0  0.00000000000E+00  0.00000000000E+00  0.22501073491E+04  0.22501073491E+04  0.00000000000E+00 0. -1.
         -2   -1    0    0    0  501 -0.00000000000E+00 -0.00000000000E+00 -0.25485891602E+03  0.25485891602E+03  0.00000000000E+00 0.  1.
         23    2    1    2    0    0 -0.11668249519E+03  0.53603491918E+02 -0.12057807371E+03  0.19940579659E+03  0.93463687184E+02 0.  0.
        254    2    1    2    0    0  0.11668249519E+03 -0.53603491918E+02  0.21158265068E+04  0.23055604685E+04  0.90686224325E+03 0.  0.
        -24    2    4    4    0    0 -0.26054065850E+03 -0.27203914806E+03  0.14887358909E+04  0.15377464968E+04  0.80268316737E+02 0.  0.
         24    2    4    4    0    0  0.37722315369E+03  0.21843565614E+03  0.62709061585E+03  0.76781397173E+03  0.79273016477E+02 0.  0.
         13    1    3    3    0    0 -0.11212839582E+03  0.46995307153E+02 -0.13575464008E+03  0.18223791688E+03  0.00000000000E+00 0.  1.
        -13    1    3    3    0    0 -0.45540993725E+01  0.66081847650E+01  0.15176566370E+02  0.17167879710E+02  0.00000000000E+00 0. -1.
          4    1    6    6  502    0  0.21690639035E+03  0.94826219682E+02  0.38819038959E+03  0.45467809787E+03  0.00000000000E+00 0. -1.
          1    1    5    5  503    0 -0.10837361718E+03 -0.59369052364E+02  0.49090325191E+03  0.50621687844E+03  0.00000000000E+00 0. -1.
         -2    1    5    5    0  503 -0.15216704132E+03 -0.21267009569E+03  0.99783263904E+03  0.10315296184E+04  0.00000000000E+00 0.  1.
         -3    1    6    6    0  502  0.16031676334E+03  0.12360943646E+03  0.23890022626E+03  0.31313587386E+03  0.00000000000E+00 0.  1.
<mgrwt>
<rscale>  0 0.15145427E+04</rscale>
<asrwt>0</asrwt>
<pdfrwt beam="1">  1        2 0.34617035E+00 0.15145427E+04</pdfrwt>
<pdfrwt beam="2">  1       -2 0.39209066E-01 0.15145427E+04</pdfrwt>
<totfact> 0.28755179E+01</totfact>
</mgrwt>
</event>
<event>
12    1  0.1477245E-007  0.1773346E+04  0.7818608E-02  0.8720603E-01
         -2   -1    0    0    0  501 -0.00000000000E+00  0.00000000000E+00  0.10409399082E+04  0.10409399082E+04  0.00000000000E+00 0.  1.
          2   -1    0    0  501    0  0.00000000000E+00 -0.00000000000E+00 -0.75526867789E+03  0.75526867789E+03  0.00000000000E+00 0. -1.
         23    2    1    2    0    0  0.49863284102E+03 -0.24185184605E+03  0.45575645438E+03  0.72346476843E+03  0.92521888585E+02 0.  0.
        254    2    1    2    0    0 -0.49863284102E+03  0.24185184605E+03 -0.17008522403E+03  0.10727438177E+04  0.90262023542E+03 0.  0.
        -24    2    4    4    0    0  0.12537218925E+03 -0.84172694332E+02  0.20840932577E+03  0.26927676494E+03  0.79197858324E+02 0.  0.
         24    2    4    4    0    0 -0.62400503027E+03  0.32602454038E+03 -0.37849454979E+03  0.80346705276E+03  0.81405785455E+02 0.  0.
         13    1    3    3    0    0  0.65059118876E+02 -0.37155801987E+02  0.10679597429E+03  0.13045544333E+03  0.00000000000E+00 0. -1.
        -13    1    3    3    0    0  0.43357372214E+03 -0.20469604407E+03  0.34896048009E+03  0.59300932510E+03  0.00000000000E+00 0.  1.
          4    1    6    6  502    0 -0.38166544838E+03  0.16989816416E+03 -0.25802345122E+03  0.49102953277E+03  0.00000000000E+00 0. -1.
          3    1    5    5  503    0  0.85330521037E+02 -0.95953186592E+01  0.10511733718E+03  0.13573143533E+03  0.00000000000E+00 0. -1.
         -4    1    5    5    0  503  0.40041668214E+02 -0.74577375673E+02  0.10329198858E+03  0.13354532961E+03  0.00000000000E+00 0.  1.
         -3    1    6    6    0  502 -0.24233958189E+03  0.15612637622E+03 -0.12047109857E+03  0.31243751999E+03  0.00000000000E+00 0.  1.
<mgrwt>
<rscale>  0 0.17733463E+04</rscale>
<asrwt>0</asrwt>
<pdfrwt beam="1">  1        2 0.11619518E+00 0.17733463E+04</pdfrwt>
<pdfrwt beam="2">  1       -2 0.16014460E+00 0.17733463E+04</pdfrwt>
<totfact> 0.88289402E+00</totfact>
</mgrwt>
</event>
<event>
12    1  0.1477245E-007  0.2065313E+04  0.7818608E-02  0.8576679E-01
         -2   -1    0    0    0  501 -0.00000000000E+00  0.00000000000E+00  0.38759194699E+03  0.38759194699E+03  0.00000000000E+00 0.  1.
          2   -1    0    0  501    0  0.00000000000E+00 -0.00000000000E+00 -0.27512950278E+04  0.27512950278E+04  0.00000000000E+00 0. -1.
         23    2    1    2    0    0  0.71823680477E+03  0.33410390746E+03 -0.14779102261E+04  0.16793381408E+04  0.92024051413E+02 0.  0.
        254    2    1    2    0    0 -0.71823680477E+03 -0.33410390746E+03 -0.88579285475E+03  0.14595488340E+04  0.84744574379E+03 0.  0.
        -24    2    4    4    0    0  0.11339916095E+03 -0.27599667706E+03 -0.14442833318E+03  0.34093673913E+03  0.79654134937E+02 0.  0.
         24    2    4    4    0    0 -0.83163596572E+03 -0.58107230404E+02 -0.74136452157E+03  0.11186120949E+04  0.81711904271E+02 0.  0.
         13    1    3    3    0    0  0.15074405274E+02 -0.47833553985E+01 -0.18848025107E+02  0.24604191384E+02  0.00000000000E+00 0. -1.
        -13    1    3    3    0    0  0.70316239950E+03  0.33888726286E+03 -0.14590622010E+04  0.16547339494E+04  0.00000000000E+00 0.  1.
          4    1    6    6  502    0 -0.82283291201E+03 -0.48299178000E+02 -0.73277574558E+03  0.11028812742E+04  0.00000000000E+00 0. -1.
          1    1    5    5  503    0  0.38591738071E+01 -0.45459486385E+02  0.37967529115E+01  0.45780710540E+02  0.00000000000E+00 0. -1.
         -2    1    5    5    0  503  0.10953998714E+03 -0.23053719068E+03 -0.14822508609E+03  0.29515602859E+03  0.00000000000E+00 0.  1.
         -3    1    6    6    0  502 -0.88030537098E+01 -0.98080524034E+01 -0.85887759870E+01  0.15730820688E+02  0.00000000000E+00 0.  1.
<mgrwt>
<rscale>  0 0.20653133E+04</rscale>
<asrwt>0</asrwt>
<pdfrwt beam="1">  1        2 0.42327616E+00 0.20653133E+04</pdfrwt>
<pdfrwt beam="2">  1       -2 0.59629530E-01 0.20653133E+04</pdfrwt>
<totfact> 0.60065703E+00</totfact>
</mgrwt>
</event>
<event>
12    1  0.1477245E-007  0.1641561E+04  0.7818608E-02  0.8795414E-01
         -1   -1    0    0    0  501 -0.00000000000E+00  0.00000000000E+00  0.70972623833E+03  0.70972623833E+03  0.00000000000E+00 0. -1.
          1   -1    0    0  501    0  0.00000000000E+00 -0.00000000000E+00 -0.94921232820E+03  0.94921232820E+03  0.00000000000E+00 0.  1.
         23    2    1    2    0    0  0.22927090554E+03  0.31787121251E+03 -0.50267802814E+03  0.64495486978E+03  0.98358162838E+02 0.  0.
        254    2    1    2    0    0 -0.22927090554E+03 -0.31787121251E+03  0.26319193827E+03  0.10139836967E+04  0.89737711417E+03 0.  0.
        -24    2    4    4    0    0  0.19076325856E+02  0.29566045352E+03  0.13099319812E+03  0.33423661403E+03  0.82315771410E+02 0.  0.
         24    2    4    4    0    0 -0.24834723140E+03 -0.61353166603E+03  0.13219874015E+03  0.67974708272E+03  0.80511719626E+02 0.  0.
         13    1    3    3    0    0  0.98035772694E+02  0.20167149959E+03 -0.32938803388E+03  0.39847068065E+03  0.00000000000E+00 0.  1.
        -13    1    3    3    0    0  0.13123513285E+03  0.11619971292E+03 -0.17328999427E+03  0.24648418913E+03  0.00000000000E+00 0. -1.
          4    1    6    6  502    0 -0.17168517316E+03 -0.39743572976E+03  0.12386730112E+03  0.45030441510E+03  0.00000000000E+00 0. -1.
          3    1    5    5  503    0 -0.96941070250E+01  0.25983249584E+03  0.98892423378E+02  0.27818449455E+03  0.00000000000E+00 0. -1.
         -4    1    5    5    0  503  0.28770432881E+02  0.35827957680E+02  0.32100774743E+02  0.56052119485E+02  0.00000000000E+00 0.  1.
         -3    1    6    6    0  502 -0.76662058237E+02 -0.21609593627E+03  0.83314390346E+01  0.22944266761E+03  0.00000000000E+00 0.  1.
<mgrwt>
<rscale>  0 0.16415613E+04</rscale>
<asrwt>0</asrwt>
<pdfrwt beam="1">  1        1 0.14603267E+00 0.16415613E+04</pdfrwt>
<pdfrwt beam="2">  1       -1 0.10918865E+00 0.16415613E+04</pdfrwt>
<totfact> 0.12330721E+01</totfact>
</mgrwt>
</event>
<event>
12    1  0.1477245E-007  0.1332378E+04  0.7818608E-02  0.9004276E-01
          2   -1    0    0  501    0  0.00000000000E+00  0.00000000000E+00  0.19088366884E+04  0.19088366884E+04  0.00000000000E+00 0.  1.
         -2   -1    0    0    0  501 -0.00000000000E+00 -0.00000000000E+00 -0.23250177595E+03  0.23250177595E+03  0.00000000000E+00 0. -1.
         23    2    1    2    0    0 -0.33969402801E+03 -0.62124979112E+02  0.47093662104E+03  0.59090039111E+03  0.90168872040E+02 0.  0.
        254    2    1    2    0    0  0.33969402801E+03  0.62124979112E+02  0.12053982914E+04  0.15504380733E+04  0.91193290999E+03 0.  0.
        -24    2    4    4    0    0 -0.62988273308E+02 -0.34906825686E+03  0.28541321959E+03  0.46227449513E+03  0.80130096771E+02 0.  0.
         24    2    4    4    0    0  0.40268230132E+03  0.41119323597E+03  0.91998507185E+03  0.10881635781E+04  0.80588629756E+02 0.  0.
         11    1    3    3    0    0 -0.20099799837E+03 -0.69580635270E+02  0.33310899438E+03  0.39522558405E+03  0.00000000000E+00 0.  1.
        -11    1    3    3    0    0 -0.13869602965E+03  0.74556561584E+01  0.13782762666E+03  0.19567480706E+03  0.00000000000E+00 0. -1.
          4    1    6    6  502    0  0.27228047901E+03  0.32464589845E+03  0.69836837148E+03  0.81685372064E+03  0.00000000000E+00 0. -1.
          1    1    5    5  503    0 -0.21253488857E+02 -0.19108906388E+03  0.10578953634E+03  0.21944969155E+03  0.00000000000E+00 0. -1.
         -2    1    5    5    0  503 -0.41734784451E+02 -0.15797919298E+03  0.17962368325E+03  0.24282480358E+03  0.00000000000E+00 0.  1.
         -3    1    6    6    0  502  0.13040182231E+03  0.86547337521E+02  0.22161670036E+03  0.27130985749E+03  0.00000000000E+00 0.  1.
<mgrwt>
<rscale>  0 0.13323782E+04</rscale>
<asrwt>0</asrwt>
<pdfrwt beam="1">  1        2 0.29366717E+00 0.13323782E+04</pdfrwt>
<pdfrwt beam="2">  1       -2 0.35769505E-01 0.13323782E+04</pdfrwt>
<totfact> 0.53974927E+01</totfact>
</mgrwt>
</event>
<event>
12    1  0.1687311E-007  0.1909341E+04  0.7818608E-02  0.8650220E-01
         -1   -1    0    0    0  501 -0.00000000000E+00  0.00000000000E+00  0.51435177298E+03  0.51435177298E+03  0.00000000000E+00 0.  1.
          1   -1    0    0  501    0  0.00000000000E+00 -0.00000000000E+00 -0.17719316063E+04  0.17719316063E+04  0.00000000000E+00 0. -1.
         23    2    1    2    0    0  0.74005662012E+03 -0.29915030480E+02 -0.49212952881E+03  0.89392681650E+03  0.91296057403E+02 0.  0.
        254    2    1    2    0    0 -0.74005662012E+03  0.29915030480E+02 -0.76545030452E+03  0.13923565628E+04  0.89675187161E+03 0.  0.
        -24    2    4    4    0    0  0.49950438170E+01  0.47628319489E+02  0.16832003367E+03  0.19469936304E+03  0.85339328284E+02 0.  0.
         24    2    4    4    0    0 -0.74505166394E+03 -0.17713289010E+02 -0.93377033819E+03  0.11976571998E+04  0.83904595232E+02 0.  0.
         11    1    3    3    0    0  0.10394363433E+03  0.12486761530E+02 -0.10389070210E+03  0.14749059738E+03  0.00000000000E+00 0. -1.
        -11    1    3    3    0    0  0.63611298579E+03 -0.42401792009E+02 -0.38823882672E+03  0.74643621912E+03  0.00000000000E+00 0.  1.
          2    1    6    6  502    0 -0.21163442585E+02  0.64499235194E+01 -0.52289502857E+02  0.56777503683E+02  0.00000000000E+00 0. -1.
          3    1    5    5  503    0 -0.30359831352E+02 -0.28334775555E+01  0.27791211923E+02  0.41256507547E+02  0.00000000000E+00 0. -1.
         -2    1    5    5    0  503  0.35354875169E+02  0.50461797045E+02  0.14052882175E+03  0.15344285549E+03  0.00000000000E+00 0.  1.
         -1    1    6    6    0  502 -0.72388822135E+03 -0.24163212529E+02 -0.88148083534E+03  0.11408796961E+04  0.00000000000E+00 0.  1.
<mgrwt>
<rscale>  0 0.19093414E+04</rscale>
<asrwt>0</asrwt>
<pdfrwt beam="1">  1        1 0.27260486E+00 0.19093414E+04</pdfrwt>
<pdfrwt beam="2">  1       -1 0.79131043E-01 0.19093414E+04</pdfrwt>
<totfact> 0.63537603E+00</totfact>
</mgrwt>
</event>
<event>
12    1  0.1477245E-007  0.1407452E+04  0.7818608E-02  0.8948442E-01
         -1   -1    0    0    0  501 -0.00000000000E+00  0.00000000000E+00  0.15818124912E+03  0.15818124912E+03  0.00000000000E+00 0.  1.
          1   -1    0    0  501    0  0.00000000000E+00 -0.00000000000E+00 -0.31307752299E+04  0.31307752299E+04  0.00000000000E+00 0. -1.
         23    2    1    2    0    0 -0.54622145153E+02 -0.30012543998E+03 -0.26911067296E+03  0.41733964948E+03  0.93236099579E+02 0.  0.
        254    2    1    2    0    0  0.54622145153E+02  0.30012543998E+03 -0.27034833078E+04  0.28716168295E+04  0.91885927192E+03 0.  0.
        -24    2    4    4    0    0  0.25638869052E+03  0.52920096886E+03 -0.21884695715E+04  0.22675173451E+04  0.80293330334E+02 0.  0.
         24    2    4    4    0    0 -0.20176654537E+03 -0.22907552888E+03 -0.51501373630E+03  0.60409948442E+03  0.80695115941E+02 0.  0.
         11    1    3    3    0    0 -0.19769832224E+02 -0.32116524850E+01 -0.16374121013E+02  0.25870307629E+02  0.00000000000E+00 0. -1.
        -11    1    3    3    0    0 -0.34852312929E+02 -0.29691378750E+03 -0.25273655195E+03  0.39146934186E+03  0.00000000000E+00 0.  1.
          4    1    6    6  502    0 -0.19717639202E+03 -0.22464913615E+03 -0.51719680291E+03  0.59735943692E+03  0.00000000000E+00 0. -1.
          3    1    5    5  503    0  0.70143219527E+02  0.21556680706E+03 -0.93183114354E+03  0.95900907171E+03  0.00000000000E+00 0. -1.
         -4    1    5    5    0  503  0.18624547099E+03  0.31363416180E+03 -0.12566384280E+04  0.13085082734E+04  0.00000000000E+00 0.  1.
         -3    1    6    6    0  502 -0.45901533527E+01 -0.44263927308E+01  0.21830666113E+01  0.67400474953E+01  0.00000000000E+00 0.  1.
<mgrwt>
<rscale>  0 0.14074515E+04</rscale>
<asrwt>0</asrwt>
<pdfrwt beam="1">  1        1 0.48165769E+00 0.14074515E+04</pdfrwt>
<pdfrwt beam="2">  1       -1 0.24335579E-01 0.14074515E+04</pdfrwt>
<totfact> 0.69086733E+00</totfact>
</mgrwt>
</event>
<event>
12    1  0.1477245E-007  0.1867150E+04  0.7818608E-02  0.8671383E-01
         -4   -1    0    0    0  501 -0.00000000000E+00  0.00000000000E+00  0.99300617887E+03  0.99300617887E+03  0.00000000000E+00 0.  1.
          4   -1    0    0  501    0  0.00000000000E+00 -0.00000000000E+00 -0.87770031125E+03  0.87770031125E+03  0.00000000000E+00 0. -1.
         23    2    1    2    0    0  0.48136100337E+03 -0.29579497356E+03  0.43114974719E+03  0.71654078228E+03  0.91309945891E+02 0.  0.
        254    2    1    2    0    0 -0.48136100337E+03  0.29579497356E+03 -0.31584387957E+03  0.11541657078E+04  0.95558256731E+03 0.  0.
        -24    2    4    4    0    0 -0.11747340215E+03 -0.31868020534E+03 -0.25642273720E+03  0.43315904349E+03  0.80728330329E+02 0.  0.
         24    2    4    4    0    0 -0.36388760122E+03  0.61447517890E+03 -0.59421142364E+02  0.72100666435E+03  0.79534936173E+02 0.  0.
         11    1    3    3    0    0  0.35985780058E+03 -0.24546060809E+03  0.28827874887E+03  0.52235350464E+03  0.00000000000E+00 0.  1.
        -11    1    3    3    0    0  0.12150320279E+03 -0.50334365470E+02  0.14287099831E+03  0.19418727763E+03  0.00000000000E+00 0. -1.
          2    1    6    6  502    0 -0.12192164932E+03  0.28271422606E+03 -0.29478502649E+02  0.30929145528E+03  0.00000000000E+00 0. -1.
          1    1    5    5  503    0 -0.27618411069E+02 -0.19737247999E+02 -0.44041252315E+02  0.55605462807E+02  0.00000000000E+00 0. -1.
         -2    1    5    5    0  503 -0.89854991082E+02 -0.29894295734E+03 -0.21238148489E+03  0.37755358069E+03  0.00000000000E+00 0.  1.
         -1    1    6    6    0  502 -0.24196595190E+03  0.33176095284E+03 -0.29942639715E+02  0.41171520907E+03  0.00000000000E+00 0.  1.
<mgrwt>
<rscale>  0 0.18671495E+04</rscale>
<asrwt>0</asrwt>
<pdfrwt beam="1">  1        4 0.13503082E+00 0.18671495E+04</pdfrwt>
<pdfrwt beam="2">  1       -4 0.15277018E+00 0.18671495E+04</pdfrwt>
<totfact> 0.20919943E-01</totfact>
</mgrwt>
</event>
<event>
12    1  0.1477245E-007  0.1353281E+04  0.7818608E-02  0.8988348E-01
          2   -1    0    0  501    0  0.00000000000E+00  0.00000000000E+00  0.94788318169E+03  0.94788318169E+03  0.00000000000E+00 0. -1.
         -2   -1    0    0    0  501 -0.00000000000E+00 -0.00000000000E+00 -0.48301563077E+03  0.48301563077E+03  0.00000000000E+00 0.  1.
         23    2    1    2    0    0  0.29619554288E+03  0.11517100505E+03  0.39223302591E+03  0.51325375205E+03  0.92663408928E+02 0.  0.
        254    2    1    2    0    0 -0.29619554288E+03 -0.11517100505E+03  0.72634525009E+02  0.91764506041E+03  0.85778815721E+03 0.  0.
        -24    2    4    4    0    0 -0.48995610821E+03 -0.34205985514E+03  0.81388523149E+02  0.60818409671E+03  0.78751960778E+02 0.  0.
         24    2    4    4    0    0  0.19376056533E+03  0.22688885008E+03 -0.87539981404E+01  0.30946096370E+03  0.81656283296E+02 0.  0.
         11    1    3    3    0    0  0.20037949574E+02  0.27347811721E+02  0.13781445735E+02  0.36597137533E+02  0.00000000000E+00 0.  1.
        -11    1    3    3    0    0  0.27615759331E+03  0.87823193331E+02  0.37845158017E+03  0.47665661452E+03  0.00000000000E+00 0. -1.
          2    1    6    6  502    0  0.46549296052E+02  0.92405706113E+02  0.26898461350E+02  0.10690733702E+03  0.00000000000E+00 0. -1.
          3    1    5    5  503    0 -0.20934742191E+03 -0.12563144125E+03 -0.18733058143E+01  0.24415796396E+03  0.00000000000E+00 0. -1.
         -4    1    5    5    0  503 -0.28060868630E+03 -0.21642841389E+03  0.83261828963E+02  0.36402613276E+03  0.00000000000E+00 0.  1.
         -1    1    6    6    0  502  0.14721126928E+03  0.13448314397E+03 -0.35652459491E+02  0.20255362668E+03  0.00000000000E+00 0.  1.
<mgrwt>
<rscale>  0 0.13532810E+04</rscale>
<asrwt>0</asrwt>
<pdfrwt beam="1">  1        2 0.14582818E+00 0.13532810E+04</pdfrwt>
<pdfrwt beam="2">  1       -2 0.74310097E-01 0.13532810E+04</pdfrwt>
<totfact> 0.43365180E+01</totfact>
</mgrwt>
</event>
<event>
12    1  0.1477245E-007  0.2747791E+04  0.7818608E-02  0.8319663E-01
         -1   -1    0    0    0  501 -0.00000000000E+00  0.00000000000E+00  0.22198490507E+04  0.22198490507E+04  0.00000000000E+00 0.  1.
          1   -1    0    0  501    0  0.00000000000E+00 -0.00000000000E+00 -0.85032283484E+03  0.85032283484E+03  0.00000000000E+00 0. -1.
         23    2    1    2    0    0 -0.49889528916E+02  0.11652955785E+03 -0.74928612415E+03  0.76531538005E+03  0.90608124048E+02 0.  0.
        254    2    1    2    0    0  0.49889528916E+02 -0.11652955785E+03  0.21188123400E+04  0.23048565055E+04  0.89829264487E+03 0.  0.
        -24    2    4    4    0    0  0.35298935059E+03 -0.34719093487E+03  0.96993742111E+03  0.10918995670E+04  0.79517524345E+02 0.  0.
         24    2    4    4    0    0 -0.30309982167E+03  0.23066137701E+03  0.11488749189E+04  0.12129569385E+04  0.79226148621E+02 0.  0.
         13    1    3    3    0    0 -0.13743088306E+02  0.11201932048E+03 -0.64622766799E+03  0.65600868860E+03  0.00000000000E+00 0. -1.
        -13    1    3    3    0    0 -0.36146440610E+02  0.45102373741E+01 -0.10305845615E+03  0.10930669145E+03  0.00000000000E+00 0.  1.
          4    1    6    6  502    0 -0.26124835982E+03  0.20205506786E+03  0.89318456739E+03  0.95228967620E+03  0.00000000000E+00 0. -1.
          3    1    5    5  503    0  0.22554762065E+03 -0.24410464012E+03  0.72000845388E+03  0.79301385749E+03  0.00000000000E+00 0. -1.
         -4    1    5    5    0  503  0.12744172994E+03 -0.10308629475E+03  0.24992896723E+03  0.29888570952E+03  0.00000000000E+00 0.  1.
         -3    1    6    6    0  502 -0.41851461847E+02  0.28606309154E+02  0.25569035149E+03  0.26066726228E+03  0.00000000000E+00 0.  1.
<mgrwt>
<rscale>  0 0.27477906E+04</rscale>
<asrwt>0</asrwt>
<pdfrwt beam="1">  1        1 0.13081890E+00 0.27477906E+04</pdfrwt>
<pdfrwt beam="2">  1       -1 0.34151524E+00 0.27477906E+04</pdfrwt>
<totfact> 0.30774121E-01</totfact>
</mgrwt>
</event>
<event>
12    1  0.1477245E-007  0.1106068E+04  0.7818608E-02  0.9199298E-01
         -2   -1    0    0    0  501 -0.00000000000E+00  0.00000000000E+00  0.21621116677E+03  0.21621116677E+03  0.00000000000E+00 0.  1.
          2   -1    0    0  501    0  0.00000000000E+00 -0.00000000000E+00 -0.14145735026E+04  0.14145735026E+04  0.00000000000E+00 0. -1.
         23    2    1    2    0    0  0.95460912508E+02  0.17652236651E+02 -0.42012296397E+03  0.44053160015E+03  0.90224157546E+02 0.  0.
        254    2    1    2    0    0 -0.95460912508E+02 -0.17652236651E+02 -0.77823937183E+03  0.11902530692E+04  0.89533315673E+03 0.  0.
        -24    2    4    4    0    0  0.12989718046E+03 -0.30419439451E+03 -0.15029067203E+02  0.34085180348E+03  0.80910888848E+02 0.  0.
         24    2    4    4    0    0 -0.22535809297E+03  0.28654215785E+03 -0.76321030462E+03  0.84940126569E+03  0.78101618278E+02 0.  0.
         11    1    3    3    0    0  0.10287100364E+03  0.26553286139E+02 -0.27286313524E+03  0.29281702643E+03  0.00000000000E+00 0. -1.
        -11    1    3    3    0    0 -0.74100911363E+01 -0.89010494880E+01 -0.14725982873E+03  0.14771457372E+03  0.00000000000E+00 0.  1.
          4    1    6    6  502    0 -0.68321989290E+02  0.85913138936E+02 -0.31842178657E+03  0.33681062309E+03  0.00000000000E+00 0. -1.
          3    1    5    5  503    0  0.70518813144E+01 -0.53146433377E+02 -0.29108863582E+02  0.61004904309E+02  0.00000000000E+00 0. -1.
         -4    1    5    5    0  503  0.12284529915E+03 -0.25104796113E+03  0.14079796379E+02  0.27984689917E+03  0.00000000000E+00 0.  1.
         -3    1    6    6    0  502 -0.15703610368E+03  0.20062901892E+03 -0.44478851805E+03  0.51259064260E+03  0.00000000000E+00 0.  1.
<mgrwt>
<rscale>  0 0.11060680E+04</rscale>
<asrwt>0</asrwt>
<pdfrwt beam="1">  1        2 0.21762669E+00 0.11060680E+04</pdfrwt>
<pdfrwt beam="2">  1       -2 0.33263257E-01 0.11060680E+04</pdfrwt>
<totfact> 0.11883180E+02</totfact>
</mgrwt>
</event>
<event>
12    1  0.1935310E-007  0.2245540E+04  0.7818608E-02  0.8499709E-01
          1   -1    0    0  501    0  0.00000000000E+00  0.00000000000E+00  0.14211009087E+04  0.14211009087E+04  0.00000000000E+00 0.  1.
         -1   -1    0    0    0  501 -0.00000000000E+00 -0.00000000000E+00 -0.88706726419E+03  0.88706726419E+03  0.00000000000E+00 0. -1.
         23    2    1    2    0    0  0.30622370048E+03  0.14344997703E+02 -0.68635792012E+03  0.75708326965E+03  0.90050813392E+02 0.  0.
        254    2    1    2    0    0 -0.30622370048E+03 -0.14344997703E+02  0.12203915646E+04  0.15510849032E+04  0.90693443663E+03 0.  0.
        -24    2    4    4    0    0  0.20181183653E+03 -0.28320861955E+03  0.62286393443E+03  0.71790447877E+03  0.80574315192E+02 0.  0.
         24    2    4    4    0    0 -0.50803553701E+03  0.26886362184E+03  0.59752763020E+03  0.83318042448E+03  0.82235009928E+02 0.  0.
         11    1    3    3    0    0  0.25742870125E+02  0.47548939650E+01 -0.14458997119E+03  0.14694068241E+03  0.00000000000E+00 0.  1.
        -11    1    3    3    0    0  0.28048083035E+03  0.95901037382E+01 -0.54176794893E+03  0.61014258724E+03  0.00000000000E+00 0. -1.
          4    1    6    6  502    0 -0.32960761623E+03  0.15004445399E+03  0.32633373832E+03  0.48749177184E+03  0.00000000000E+00 0. -1.
          1    1    5    5  503    0  0.13955213300E+03 -0.19721458323E+03  0.50148431209E+03  0.55664612181E+03  0.00000000000E+00 0. -1.
         -2    1    5    5    0  503  0.62259703535E+02 -0.85994036320E+02  0.12137962235E+03  0.16125835696E+03  0.00000000000E+00 0.  1.
         -3    1    6    6    0  502 -0.17842792078E+03  0.11881916786E+03  0.27119389188E+03  0.34568865263E+03  0.00000000000E+00 0.  1.
<mgrwt>
<rscale>  0 0.22455397E+04</rscale>
<asrwt>0</asrwt>
<pdfrwt beam="1">  1        1 0.21863091E+00 0.22455397E+04</pdfrwt>
<pdfrwt beam="2">  1       -1 0.13647189E+00 0.22455397E+04</pdfrwt>
<totfact> 0.30208000E+00</totfact>
</mgrwt>
</event>
<event>
12    1  0.1477245E-007  0.1353895E+04  0.7818608E-02  0.8987885E-01
          1   -1    0    0  501    0  0.00000000000E+00  0.00000000000E+00  0.24163787851E+03  0.24163787851E+03  0.00000000000E+00 0. -1.
         -1   -1    0    0    0  501 -0.00000000000E+00 -0.00000000000E+00 -0.18964662036E+04  0.18964662036E+04  0.00000000000E+00 0.  1.
         23    2    1    2    0    0 -0.22624855422E+03  0.17562352778E+03 -0.85103447044E+03  0.90312235253E+03  0.96634786527E+02 0.  0.
        254    2    1    2    0    0  0.22624855422E+03 -0.17562352778E+03 -0.80379385465E+03  0.12349817296E+04  0.89278400514E+03 0.  0.
        -24    2    4    4    0    0 -0.72098325545E+02 -0.45649714958E+03 -0.22152481909E+03  0.51844887619E+03  0.78282664974E+02 0.  0.
         24    2    4    4    0    0  0.29834687976E+03  0.28087362179E+03 -0.58226903557E+03  0.71653285339E+03  0.80506199341E+02 0.  0.
         13    1    3    3    0    0 -0.20254460472E+03  0.16353291494E+03 -0.82789886595E+03  0.86786166145E+03  0.00000000000E+00 0.  1.
        -13    1    3    3    0    0 -0.23703949497E+02  0.12090612840E+02 -0.23135604497E+02  0.35260691088E+02  0.00000000000E+00 0. -1.
          2    1    6    6  502    0  0.15222787795E+03  0.17213427061E+03 -0.38231005739E+03  0.44605438450E+03  0.00000000000E+00 0. -1.
          3    1    5    5  503    0 -0.18132562489E+02 -0.27617980048E+03 -0.99408490840E+02  0.29408522586E+03  0.00000000000E+00 0. -1.
         -4    1    5    5    0  503 -0.53965763057E+02 -0.18031734909E+03 -0.12211632825E+03  0.22436365033E+03  0.00000000000E+00 0.  1.
         -1    1    6    6    0  502  0.14611900181E+03  0.10873935118E+03 -0.19995897817E+03  0.27047846890E+03  0.00000000000E+00 0.  1.
<mgrwt>
<rscale>  0 0.13538952E+04</rscale>
<asrwt>0</asrwt>
<pdfrwt beam="1">  1        1 0.37175058E-01 0.13538952E+04</pdfrwt>
<pdfrwt beam="2">  1       -1 0.29176403E+00 0.13538952E+04</pdfrwt>
<totfact> 0.42629784E+00</totfact>
</mgrwt>
</event>
<event>
12    1  0.1477245E-007  0.3064227E+04  0.7818608E-02  0.8225625E-01
          2   -1    0    0  501    0  0.00000000000E+00  0.00000000000E+00  0.98342789240E+03  0.98342789240E+03  0.00000000000E+00 0. -1.
         -2   -1    0    0    0  501 -0.00000000000E+00 -0.00000000000E+00 -0.23869285258E+04  0.23869285258E+04  0.00000000000E+00 0.  1.
         23    2    1    2    0    0 -0.11718844952E+04 -0.47038502170E+03  0.41141101472E+02  0.12667309469E+04  0.91320111544E+02 0.  0.
        254    2    1    2    0    0  0.11718844952E+04  0.47038502170E+03 -0.14446417349E+04  0.21036254713E+04  0.86236595632E+03 0.  0.
        -24    2    4    4    0    0  0.60934138336E+02  0.12182828029E+03  0.83171203522E+02  0.18105624176E+03  0.85491604790E+02 0.  0.
         24    2    4    4    0    0  0.11109503569E+04  0.34855674141E+03 -0.15278129384E+04  0.19225692296E+04  0.79734372991E+02 0.  0.
         13    1    3    3    0    0 -0.86715144166E+03 -0.32509334491E+03 -0.42428999154E+01  0.92609681345E+03  0.00000000000E+00 0. -1.
        -13    1    3    3    0    0 -0.30473305356E+03 -0.14529167679E+03  0.45384001388E+02  0.34063413343E+03  0.00000000000E+00 0.  1.
          4    1    6    6  502    0  0.10003234201E+04  0.29094815712E+03 -0.13824317845E+04  0.17310157174E+04  0.00000000000E+00 0. -1.
          1    1    5    5  503    0  0.41953424619E+02  0.13145383294E+03  0.62832006040E+02  0.15161814210E+03  0.00000000000E+00 0. -1.
         -2    1    5    5    0  503  0.18980713717E+02 -0.96255526462E+01  0.20339197483E+02  0.29438099653E+02  0.00000000000E+00 0.  1.
         -3    1    6    6    0  502  0.11062693675E+03  0.57608584287E+02 -0.14538115389E+03  0.19155351217E+03  0.00000000000E+00 0.  1.
<mgrwt>
<rscale>  0 0.30642272E+04</rscale>
<asrwt>0</asrwt>
<pdfrwt beam="1">  1        2 0.15129660E+00 0.30642272E+04</pdfrwt>
<pdfrwt beam="2">  1       -2 0.36721977E+00 0.30642272E+04</pdfrwt>
<totfact> 0.26578261E-01</totfact>
</mgrwt>
</event>
<event>
12    1  0.1477245E-007  0.2294694E+04  0.7818608E-02  0.8480016E-01
          1   -1    0    0  501    0  0.00000000000E+00  0.00000000000E+00  0.93525880002E+03  0.93525880002E+03  0.00000000000E+00 0. -1.
         -1   -1    0    0    0  501 -0.00000000000E+00 -0.00000000000E+00 -0.14075307473E+04  0.14075307473E+04  0.00000000000E+00 0.  1.
         23    2    1    2    0    0  0.45491167101E+03  0.79404263968E+03 -0.51401190405E+03  0.10535512980E+04  0.91179810647E+02 0.  0.
        254    2    1    2    0    0 -0.45491167101E+03 -0.79404263968E+03  0.41739956760E+02  0.12892382494E+04  0.90716299395E+03 0.  0.
        -24    2    4    4    0    0 -0.19487145857E+02 -0.76679405970E+03  0.23295082377E+03  0.80594106508E+03  0.83198769465E+02 0.  0.
         24    2    4    4    0    0 -0.43542452515E+03 -0.27248579987E+02 -0.19121086701E+03  0.48329718429E+03  0.81716402681E+02 0.  0.
         11    1    3    3    0    0  0.32234969143E+03  0.56331034399E+03 -0.31600558802E+03  0.72186383679E+03  0.00000000000E+00 0.  1.
        -11    1    3    3    0    0  0.13256197958E+03  0.23073229569E+03 -0.19800631603E+03  0.33168746117E+03  0.00000000000E+00 0. -1.
          4    1    6    6  502    0 -0.38946359309E+03 -0.20113431557E+01 -0.18264263139E+03  0.43016771920E+03  0.00000000000E+00 0. -1.
          1    1    5    5  503    0 -0.44806306363E+02 -0.56716241769E+03  0.15070468926E+03  0.58855137116E+03  0.00000000000E+00 0. -1.
         -2    1    5    5    0  503  0.25319160505E+02 -0.19963164201E+03  0.82246134506E+02  0.21738969392E+03  0.00000000000E+00 0.  1.
         -1    1    6    6    0  502 -0.45960932063E+02 -0.25237236831E+02 -0.85682356164E+01  0.53129465089E+02  0.00000000000E+00 0.  1.
<mgrwt>
<rscale>  0 0.22946943E+04</rscale>
<asrwt>0</asrwt>
<pdfrwt beam="1">  1        1 0.14388597E+00 0.22946943E+04</pdfrwt>
<pdfrwt beam="2">  1       -1 0.21654319E+00 0.22946943E+04</pdfrwt>
<totfact> 0.17881486E+00</totfact>
</mgrwt>
</event>
<event>
12    1  0.1477245E-007  0.1369865E+04  0.7818608E-02  0.8975926E-01
          2   -1    0    0  501    0  0.00000000000E+00  0.00000000000E+00  0.16586069776E+04  0.16586069776E+04  0.00000000000E+00 0. -1.
         -2   -1    0    0    0  501 -0.00000000000E+00 -0.00000000000E+00 -0.28284713953E+03  0.28284713953E+03  0.00000000000E+00 0.  1.
         23    2    1    2    0    0 -0.19785259246E+03  0.19513357607E+03  0.78218872137E+03  0.83516017047E+03  0.91926892947E+02 0.  0.
        254    2    1    2    0    0  0.19785259246E+03 -0.19513357607E+03  0.59357111667E+03  0.11062939466E+04  0.89125577976E+03 0.  0.
        -24    2    4    4    0    0  0.35973910933E+03  0.23997137928E+03  0.40848870198E+03  0.60018688159E+03  0.79767057952E+02 0.  0.
         24    2    4    4    0    0 -0.16188651687E+03 -0.43510495535E+03  0.18508241469E+03  0.50610706504E+03  0.79782796039E+02 0.  0.
         11    1    3    3    0    0 -0.19499253787E+03  0.20293830526E+03  0.73107910514E+03  0.78337902929E+03  0.00000000000E+00 0. -1.
        -11    1    3    3    0    0 -0.28600545917E+01 -0.78047291941E+01  0.51109616236E+02  0.51781141180E+02  0.00000000000E+00 0.  1.
          4    1    6    6  502    0 -0.12395805782E+03 -0.23280168557E+03  0.12375071254E+03  0.29133565480E+03  0.00000000000E+00 0. -1.
          3    1    5    5  503    0  0.23357018813E+03  0.11040557416E+03  0.25471808759E+03  0.36280260161E+03  0.00000000000E+00 0. -1.
         -4    1    5    5    0  503  0.12616892120E+03  0.12956580512E+03  0.15377061438E+03  0.23738427998E+03  0.00000000000E+00 0.  1.
         -3    1    6    6    0  502 -0.37928459048E+02 -0.20230326977E+03  0.61331702154E+02  0.21477141024E+03  0.00000000000E+00 0.  1.
<mgrwt>
<rscale>  0 0.13698646E+04</rscale>
<asrwt>0</asrwt>
<pdfrwt beam="1">  1        2 0.25517030E+00 0.13698646E+04</pdfrwt>
<pdfrwt beam="2">  1       -2 0.43514945E-01 0.13698646E+04</pdfrwt>
<totfact> 0.50506180E+01</totfact>
</mgrwt>
</event>
<event>
12    1  0.1477245E-007  0.3298504E+04  0.7818608E-02  0.8163276E-01
          2   -1    0    0  501    0  0.00000000000E+00  0.00000000000E+00  0.14351015211E+04  0.14351015211E+04  0.00000000000E+00 0. -1.
         -2   -1    0    0    0  501 -0.00000000000E+00 -0.00000000000E+00 -0.18953582270E+04  0.18953582270E+04  0.00000000000E+00 0.  1.
         23    2    1    2    0    0 -0.15212208286E+04 -0.11569917760E+03 -0.23336468095E+03  0.15460104413E+04  0.90499177424E+02 0.  0.
        254    2    1    2    0    0  0.15212208286E+04  0.11569917760E+03 -0.22689202493E+03  0.17844493067E+04  0.89737407371E+03 0.  0.
        -24    2    4    4    0    0 -0.14956580310E+02  0.13196171092E+03  0.13346957029E+03  0.20447870985E+03  0.79748505594E+02 0.  0.
         24    2    4    4    0    0  0.15361774089E+04 -0.16262533322E+02 -0.36036159522E+03  0.15799705969E+04  0.79631061683E+02 0.  0.
         13    1    3    3    0    0 -0.39371581976E+03 -0.40399031231E+02 -0.21982372251E+02  0.39639305385E+03  0.00000000000E+00 0.  1.
        -13    1    3    3    0    0 -0.11275050089E+04 -0.75300146364E+02 -0.21138230870E+03  0.11496173874E+04  0.00000000000E+00 0. -1.
          4    1    6    6  502    0  0.94104450308E+03 -0.28575920086E+02 -0.25564885950E+03  0.97557043792E+03  0.00000000000E+00 0. -1.
          1    1    5    5  503    0  0.29245294233E+02  0.30765909353E+02  0.52675292776E+02  0.67649943697E+02  0.00000000000E+00 0. -1.
         -2    1    5    5    0  503 -0.44201874543E+02  0.10119580156E+03  0.80794277515E+02  0.13682876615E+03  0.00000000000E+00 0.  1.
         -3    1    6    6    0  502  0.59513290587E+03  0.12313386764E+02 -0.10471273572E+03  0.60440015897E+03  0.00000000000E+00 0.  1.
<mgrwt>
<rscale>  0 0.32985036E+04</rscale>
<asrwt>0</asrwt>
<pdfrwt beam="1">  1        2 0.22078485E+00 0.32985036E+04</pdfrwt>
<pdfrwt beam="2">  1       -2 0.29159357E+00 0.32985036E+04</pdfrwt>
<totfact> 0.41291521E-01</totfact>
</mgrwt>
</event>
<event>
12    1  0.1477245E-007  0.1582254E+04  0.7818608E-02  0.8831525E-01
          4   -1    0    0  501    0  0.00000000000E+00  0.00000000000E+00  0.17527434876E+04  0.17527434876E+04  0.00000000000E+00 0. -1.
         -4   -1    0    0    0  501 -0.00000000000E+00 -0.00000000000E+00 -0.35708682769E+03  0.35708682769E+03  0.00000000000E+00 0.  1.
         23    2    1    2    0    0 -0.47397007030E+03 -0.19456454114E+03  0.23738141918E+03  0.57203262888E+03  0.91478970912E+02 0.  0.
        254    2    1    2    0    0  0.47397007030E+03  0.19456454114E+03  0.11582752408E+04  0.15377976865E+04  0.87219103577E+03 0.  0.
        -24    2    4    4    0    0  0.13461482761E+03  0.49222556572E+03  0.40721468920E+03  0.65770161712E+03  0.79626972251E+02 0.  0.
         24    2    4    4    0    0  0.33935524269E+03 -0.29766102458E+03  0.75106055158E+03  0.88009606934E+03  0.81933343789E+02 0.  0.
         13    1    3    3    0    0 -0.44329994112E+03 -0.17624472667E+03  0.24379587338E+03  0.53573638047E+03  0.00000000000E+00 0.  1.
        -13    1    3    3    0    0 -0.30670129177E+02 -0.18319814468E+02 -0.64144542015E+01  0.36296248409E+02  0.00000000000E+00 0. -1.
          2    1    6    6  502    0  0.27237026328E+03 -0.25808416866E+03  0.66881503292E+03  0.76688105120E+03  0.00000000000E+00 0. -1.
          3    1    5    5  503    0  0.81338046941E+02  0.21318522258E+03  0.14004053347E+03  0.26772218440E+03  0.00000000000E+00 0. -1.
         -4    1    5    5    0  503  0.53276780669E+02  0.27904034314E+03  0.26717415573E+03  0.38997943272E+03  0.00000000000E+00 0.  1.
         -1    1    6    6    0  502  0.66984979417E+02 -0.39576855923E+02  0.82245518662E+02  0.11321501814E+03  0.00000000000E+00 0.  1.
<mgrwt>
<rscale>  0 0.15822536E+04</rscale>
<asrwt>0</asrwt>
<pdfrwt beam="1">  1        4 0.26965284E+00 0.15822536E+04</pdfrwt>
<pdfrwt beam="2">  1       -4 0.54936436E-01 0.15822536E+04</pdfrwt>
<totfact> 0.29085048E-01</totfact>
</mgrwt>
</event>
<event>
12    1  0.1477245E-007  0.1973804E+04  0.7818608E-02  0.8618967E-01
         -2   -1    0    0    0  501 -0.00000000000E+00  0.00000000000E+00  0.60391756108E+03  0.60391756108E+03  0.00000000000E+00 0.  1.
          2   -1    0    0  501    0  0.00000000000E+00 -0.00000000000E+00 -0.16127620176E+04  0.16127620176E+04  0.00000000000E+00 0. -1.
         23    2    1    2    0    0 -0.20667840185E+03  0.66947190182E+03 -0.60460774466E+02  0.70893378005E+03  0.89571257270E+02 0.  0.
        254    2    1    2    0    0  0.20667840185E+03 -0.66947190182E+03 -0.94838368206E+03  0.15077457987E+04  0.93965802068E+03 0.  0.
        -24    2    4    4    0    0  0.15607536479E+03 -0.42078320347E+03  0.64658281872E+02  0.46033566049E+03  0.79436786728E+02 0.  0.
         24    2    4    4    0    0  0.50603037052E+02 -0.24868869835E+03 -0.10130419639E+04  0.10474101382E+04  0.80045242158E+02 0.  0.
         11    1    3    3    0    0 -0.11733843761E+03  0.29594723125E+03 -0.64615106785E+02  0.32485101916E+03  0.00000000000E+00 0. -1.
        -11    1    3    3    0    0 -0.89339964239E+02  0.37352467057E+03  0.41543323185E+01  0.38408276089E+03  0.00000000000E+00 0.  1.
          2    1    6    6  502    0  0.22977001916E+02 -0.21932837133E+02 -0.66542403852E+02  0.73735225450E+02  0.00000000000E+00 0. -1.
          3    1    5    5  503    0  0.17780039925E+02 -0.10207586700E+02 -0.60194735151E+01  0.21367234435E+02  0.00000000000E+00 0. -1.
         -4    1    5    5    0  503  0.13829532487E+03 -0.41057561677E+03  0.70677755387E+02  0.43896842605E+03  0.00000000000E+00 0.  1.
         -1    1    6    6    0  502  0.27626035136E+02 -0.22675586122E+03 -0.94649956008E+03  0.97367491271E+03  0.00000000000E+00 0.  1.
<mgrwt>
<rscale>  0 0.19738037E+04</rscale>
<asrwt>0</asrwt>
<pdfrwt beam="1">  1        2 0.24811722E+00 0.19738037E+04</pdfrwt>
<pdfrwt beam="2">  1       -2 0.92910398E-01 0.19738037E+04</pdfrwt>
<totfact> 0.10026261E+01</totfact>
</mgrwt>
</event>
<event>
12    1  0.1477245E-007  0.2637361E+04  0.7818608E-02  0.8355620E-01
         -1   -1    0    0    0  501 -0.00000000000E+00  0.00000000000E+00  0.14625082448E+04  0.14625082448E+04  0.00000000000E+00 0.  1.
          1   -1    0    0  501    0  0.00000000000E+00 -0.00000000000E+00 -0.11889976222E+04  0.11889976222E+04  0.00000000000E+00 0. -1.
         23    2    1    2    0    0 -0.10368566878E+04 -0.45692805418E+03  0.36796667147E+03  0.11942772739E+04  0.83926741493E+02 0.  0.
        254    2    1    2    0    0  0.10368566878E+04  0.45692805418E+03 -0.94456048827E+02  0.14572285931E+04  0.91144840213E+03 0.  0.
        -24    2    4    4    0    0  0.50409795121E+03 -0.12542121109E+03  0.26085364021E+03  0.58796247928E+03  0.88374378777E+02 0.  0.
         24    2    4    4    0    0  0.53275873659E+03  0.58234926528E+03 -0.35530968904E+03  0.86926611385E+03  0.80100333195E+02 0.  0.
         11    1    3    3    0    0 -0.19793667156E+02  0.21763969410E+01  0.24898809164E+01  0.20068021081E+02  0.00000000000E+00 0. -1.
        -11    1    3    3    0    0 -0.10170630206E+04 -0.45910445112E+03  0.36547679056E+03  0.11742092528E+04  0.00000000000E+00 0.  1.
          2    1    6    6  502    0  0.53571845712E+03  0.57851685482E+03 -0.35369099831E+03  0.86416048214E+03  0.00000000000E+00 0. -1.
          3    1    5    5  503    0  0.41269391236E+03 -0.12862570806E+03  0.18961808434E+03  0.47203374453E+03  0.00000000000E+00 0. -1.
         -4    1    5    5    0  503  0.91404038856E+02  0.32044969653E+01  0.71235555877E+02  0.11592873475E+03  0.00000000000E+00 0.  1.
         -1    1    6    6    0  502 -0.29597205237E+01  0.38324104588E+01 -0.16186907349E+01  0.51056317139E+01  0.00000000000E+00 0.  1.
<mgrwt>
<rscale>  0 0.26373614E+04</rscale>
<asrwt>0</asrwt>
<pdfrwt beam="1">  1        1 0.18292271E+00 0.26373614E+04</pdfrwt>
<pdfrwt beam="2">  1       -1 0.22500127E+00 0.26373614E+04</pdfrwt>
<totfact> 0.97380854E-01</totfact>
</mgrwt>
</event>
<event>
12    1  0.1477245E-007  0.1697664E+04  0.7818608E-02  0.8762698E-01
         -2   -1    0    0    0  501 -0.00000000000E+00  0.00000000000E+00  0.47769537328E+03  0.47769537328E+03  0.00000000000E+00 0. -1.
          2   -1    0    0  501    0  0.00000000000E+00 -0.00000000000E+00 -0.15083157596E+04  0.15083157596E+04  0.00000000000E+00 0.  1.
         23    2    1    2    0    0  0.43963206639E+03 -0.19841931891E+03  0.68701170935E+02  0.49551846482E+03  0.90399768672E+02 0.  0.
        254    2    1    2    0    0 -0.43963206639E+03  0.19841931891E+03 -0.10993215572E+04  0.14904926680E+04  0.88341039577E+03 0.  0.
        -24    2    4    4    0    0  0.33119134677E+02  0.21105062399E+03 -0.96632617710E+03  0.99263626595E+03  0.76819482881E+02 0.  0.
         24    2    4    4    0    0 -0.47275120107E+03 -0.12631305075E+02 -0.13299538014E+03  0.49785640210E+03  0.80746380662E+02 0.  0.
         11    1    3    3    0    0  0.39811481751E+03 -0.14640934395E+03  0.58989917709E+02  0.42826500477E+03  0.00000000000E+00 0. -1.
        -11    1    3    3    0    0  0.41517248880E+02 -0.52009974962E+02  0.97112532253E+01  0.67253460055E+02  0.00000000000E+00 0.  1.
          4    1    6    6  502    0 -0.16129542212E+03  0.31405300338E+02 -0.60072870210E+02  0.17496072651E+03  0.00000000000E+00 0. -1.
          1    1    5    5  503    0  0.33475196997E+02  0.37187286870E+02 -0.29205852511E+03  0.29631345769E+03  0.00000000000E+00 0. -1.
         -2    1    5    5    0  503 -0.35606232083E+00  0.17386333711E+03 -0.67426765199E+03  0.69632280826E+03  0.00000000000E+00 0.  1.
         -3    1    6    6    0  502 -0.31145577895E+03 -0.44036605413E+02 -0.72922509930E+02  0.32289567559E+03  0.00000000000E+00 0.  1.
<mgrwt>
<rscale>  0 0.16976636E+04</rscale>
<asrwt>0</asrwt>
<pdfrwt beam="1">  1        2 0.23204858E+00 0.16976636E+04</pdfrwt>
<pdfrwt beam="2">  1       -2 0.73491597E-01 0.16976636E+04</pdfrwt>
<totfact> 0.19960742E+01</totfact>
</mgrwt>
</event>
<event>
12    1  0.1477245E-007  0.1238114E+04  0.7818608E-02  0.9080134E-01
         -1   -1    0    0    0  501 -0.00000000000E+00  0.00000000000E+00  0.45608159297E+03  0.45608159297E+03  0.00000000000E+00 0.  1.
          1   -1    0    0  501    0  0.00000000000E+00 -0.00000000000E+00 -0.84026980113E+03  0.84026980113E+03  0.00000000000E+00 0. -1.
         23    2    1    2    0    0  0.33566633684E+02 -0.26366000121E+03 -0.19601587678E+03  0.34227202221E+03  0.89914393214E+02 0.  0.
        254    2    1    2    0    0 -0.33566633684E+02  0.26366000121E+03 -0.18817233138E+03  0.95407937188E+03  0.89678052299E+03 0.  0.
        -24    2    4    4    0    0  0.40839412572E+03  0.20744917201E+03 -0.31592829038E+01  0.46493511100E+03  0.79584894813E+02 0.  0.
         24    2    4    4    0    0 -0.44196075940E+03  0.56210829197E+02 -0.18501304848E+03  0.48914426088E+03  0.80890726728E+02 0.  0.
         13    1    3    3    0    0  0.35691364535E+02 -0.26830611680E+03 -0.19936142803E+03  0.33616517488E+03  0.00000000000E+00 0.  1.
        -13    1    3    3    0    0 -0.21247308513E+01  0.46461155911E+01  0.33455512468E+01  0.61068473389E+01  0.00000000000E+00 0. -1.
          4    1    6    6  502    0 -0.20172680085E+03 -0.14182998584E+02 -0.74683275023E+02  0.21557469981E+03  0.00000000000E+00 0. -1.
          3    1    5    5  503    0  0.93181318898E+02  0.85484975643E+02 -0.10317795925E+02  0.12687354399E+03  0.00000000000E+00 0. -1.
         -4    1    5    5    0  503  0.31521280682E+03  0.12196419637E+03  0.71585130212E+01  0.33806156701E+03  0.00000000000E+00 0.  1.
         -3    1    6    6    0  502 -0.24023395855E+03  0.70393827780E+02 -0.11032977346E+03  0.27356956107E+03  0.00000000000E+00 0.  1.
<mgrwt>
<rscale>  0 0.12381140E+04</rscale>
<asrwt>0</asrwt>
<pdfrwt beam="1">  1        1 0.12927227E+00 0.12381140E+04</pdfrwt>
<pdfrwt beam="2">  1       -1 0.70166400E-01 0.12381140E+04</pdfrwt>
<totfact> 0.41376469E+01</totfact>
</mgrwt>
</event>
<event>
12    1  0.1477245E-007  0.1476359E+04  0.7818608E-02  0.8900328E-01
         -2   -1    0    0    0  501 -0.00000000000E+00  0.00000000000E+00  0.33967715247E+03  0.33967715247E+03  0.00000000000E+00 0. -1.
          2   -1    0    0  501    0  0.00000000000E+00 -0.00000000000E+00 -0.16041975142E+04  0.16041975142E+04  0.00000000000E+00 0.  1.
         23    2    1    2    0    0 -0.11046517072E+03 -0.27739864992E+03  0.50560214756E+02  0.31644254089E+03  0.91798591763E+02 0.  0.
        254    2    1    2    0    0  0.11046517072E+03  0.27739864992E+03 -0.13150805765E+04  0.16274321258E+04  0.91101363131E+03 0.  0.
        -24    2    4    4    0    0 -0.18576823605E+03 -0.20420720986E+03 -0.13737834282E+03  0.31872676609E+03  0.80644406282E+02 0.  0.
         24    2    4    4    0    0  0.29623340677E+03  0.48160585978E+03 -0.11777022337E+04  0.13087053597E+04  0.77644908462E+02 0.  0.
         11    1    3    3    0    0 -0.61255577789E+02 -0.24332712851E+03  0.27991917702E+02  0.25247551314E+03  0.00000000000E+00 0. -1.
        -11    1    3    3    0    0 -0.49209592926E+02 -0.34071521413E+02  0.22568297054E+02  0.63967027750E+02  0.00000000000E+00 0.  1.
          4    1    6    6  502    0  0.91589813549E+02  0.19430653460E+03 -0.51430101206E+03  0.55735917894E+03  0.00000000000E+00 0. -1.
          3    1    5    5  503    0 -0.17789577417E+03 -0.14989900722E+03 -0.11434386589E+03  0.25921253538E+03  0.00000000000E+00 0. -1.
         -4    1    5    5    0  503 -0.78724618866E+01 -0.54308202639E+02 -0.23034476928E+02  0.59514230713E+02  0.00000000000E+00 0.  1.
         -3    1    6    6    0  502  0.20464359322E+03  0.28729932518E+03 -0.66340122163E+03  0.75134618077E+03  0.00000000000E+00 0.  1.
<mgrwt>
<rscale>  0 0.14763594E+04</rscale>
<asrwt>0</asrwt>
<pdfrwt beam="1">  1        2 0.24679962E+00 0.14763594E+04</pdfrwt>
<pdfrwt beam="2">  1       -2 0.52258024E-01 0.14763594E+04</pdfrwt>
<totfact> 0.37099694E+01</totfact>
</mgrwt>
</event>
<event>
12    1  0.1477245E-007  0.1468782E+04  0.7818608E-02  0.8905482E-01
         -2   -1    0    0    0  501 -0.00000000000E+00  0.00000000000E+00  0.27786183926E+03  0.27786183926E+03  0.00000000000E+00 0.  1.
          2   -1    0    0  501    0  0.00000000000E+00 -0.00000000000E+00 -0.19410021477E+04  0.19410021477E+04  0.00000000000E+00 0. -1.
         23    2    1    2    0    0 -0.31889689752E+03  0.16737605574E+03 -0.91289385865E+03  0.98590569341E+03  0.94471497476E+02 0.  0.
        254    2    1    2    0    0  0.31889689752E+03 -0.16737605574E+03 -0.75024644976E+03  0.12329582935E+04  0.90972877436E+03 0.  0.
        -24    2    4    4    0    0  0.61909130506E+03 -0.21673308008E+03 -0.46084491304E+03  0.80555184380E+03  0.79299856099E+02 0.  0.
         24    2    4    4    0    0 -0.30019440753E+03  0.49357024332E+02 -0.28940153671E+03  0.42740644972E+03  0.79813693318E+02 0.  0.
         11    1    3    3    0    0 -0.30599068577E+03  0.17109478901E+03 -0.81650398902E+03  0.88858454336E+03  0.00000000000E+00 0. -1.
        -11    1    3    3    0    0 -0.12906211749E+02 -0.37187332663E+01 -0.96389869632E+02  0.97321150047E+02  0.00000000000E+00 0.  1.
          4    1    6    6  502    0 -0.15032736963E+03 -0.15601095661E+02 -0.13541950554E+03  0.20292894010E+03  0.00000000000E+00 0. -1.
          1    1    5    5  503    0  0.45321282543E+03 -0.12137633296E+03 -0.33606621200E+03  0.57712613716E+03  0.00000000000E+00 0. -1.
         -2    1    5    5    0  503  0.16587847962E+03 -0.95356747113E+02 -0.12477870105E+03  0.22842570665E+03  0.00000000000E+00 0.  1.
         -1    1    6    6    0  502 -0.14986703790E+03  0.64958119993E+02 -0.15398203117E+03  0.22447750962E+03  0.00000000000E+00 0.  1.
<mgrwt>
<rscale>  0 0.14687824E+04</rscale>
<asrwt>0</asrwt>
<pdfrwt beam="1">  1        2 0.29861572E+00 0.14687824E+04</pdfrwt>
<pdfrwt beam="2">  1       -2 0.42747975E-01 0.14687824E+04</pdfrwt>
<totfact> 0.36211611E+01</totfact>
</mgrwt>
</event>
<event>
12    1  0.1477245E-007  0.1934582E+04  0.7818608E-02  0.8637832E-01
         -1   -1    0    0    0  501 -0.00000000000E+00  0.00000000000E+00  0.11269602587E+04  0.11269602587E+04  0.00000000000E+00 0.  1.
          1   -1    0    0  501    0  0.00000000000E+00 -0.00000000000E+00 -0.83024385705E+03  0.83024385705E+03  0.00000000000E+00 0. -1.
         23    2    1    2    0    0 -0.87621329264E+02 -0.37110580304E+03  0.77230319931E+03  0.86554721204E+03  0.85572952613E+02 0.  0.
        254    2    1    2    0    0  0.87621329264E+02  0.37110580304E+03 -0.47558679768E+03  0.10916569037E+04  0.90561304035E+03 0.  0.
        -24    2    4    4    0    0  0.19443878437E+03  0.63049268465E+03 -0.43883926729E+03  0.79630384644E+03  0.78692103051E+02 0.  0.
         24    2    4    4    0    0 -0.10681745511E+03 -0.25938688161E+03 -0.36747530383E+02  0.29535305724E+03  0.84802855883E+02 0.  0.
         13    1    3    3    0    0 -0.35579249325E+02 -0.23319793670E+03  0.55408799582E+03  0.60221314149E+03  0.00000000000E+00 0.  1.
        -13    1    3    3    0    0 -0.52042079939E+02 -0.13790786634E+03  0.21821520348E+03  0.26333407056E+03  0.00000000000E+00 0. -1.
          2    1    6    6  502    0 -0.13288293236E+02 -0.14058279150E+03 -0.79509802143E+01  0.14143308697E+03  0.00000000000E+00 0. -1.
          3    1    5    5  503    0  0.15803746192E+03  0.51247354692E+03 -0.39171891775E+03  0.66411496458E+03  0.00000000000E+00 0. -1.
         -4    1    5    5    0  503  0.36401322451E+02  0.11801913773E+03 -0.47120349545E+02  0.13218888186E+03  0.00000000000E+00 0.  1.
         -1    1    6    6    0  502 -0.93529161872E+02 -0.11880409011E+03 -0.28796550168E+02  0.15391997027E+03  0.00000000000E+00 0.  1.
<mgrwt>
<rscale>  0 0.19345820E+04</rscale>
<asrwt>0</asrwt>
<pdfrwt beam="1">  1        1 0.12772982E+00 0.19345820E+04</pdfrwt>
<pdfrwt beam="2">  1       -1 0.17337850E+00 0.19345820E+04</pdfrwt>
<totfact> 0.45137564E+00</totfact>
</mgrwt>
</event>
<event>
12    1  0.1477245E-007  0.1823584E+04  0.7818608E-02  0.8693858E-01
          2   -1    0    0  501    0  0.00000000000E+00  0.00000000000E+00  0.21480097464E+04  0.21480097464E+04  0.00000000000E+00 0. -1.
         -2   -1    0    0    0  501 -0.00000000000E+00 -0.00000000000E+00 -0.38703935582E+03  0.38703935582E+03  0.00000000000E+00 0.  1.
         23    2    1    2    0    0  0.58436180912E+03  0.35537808797E+03  0.57435703182E+03  0.89745499337E+03  0.88131468617E+02 0.  0.
        254    2    1    2    0    0 -0.58436180912E+03 -0.35537808797E+03  0.11866133588E+04  0.16375941089E+04  0.89771426013E+03 0.  0.
        -24    2    4    4    0    0 -0.71967701965E+03 -0.51493183572E+03  0.10504352067E+04  0.13755973954E+04  0.75922740376E+02 0.  0.
         24    2    4    4    0    0  0.13531521054E+03  0.15955374775E+03  0.13617815207E+03  0.26199671354E+03  0.79562454592E+02 0.  0.
         13    1    3    3    0    0  0.63211945146E+02  0.45248960978E+02  0.32714567035E+02  0.84341338471E+02  0.00000000000E+00 0. -1.
        -13    1    3    3    0    0  0.52114986397E+03  0.31012912699E+03  0.54164246479E+03  0.81311365490E+03  0.00000000000E+00 0.  1.
          4    1    6    6  502    0  0.99790902466E+02  0.56217267096E+02  0.68089953698E+02  0.13324731566E+03  0.00000000000E+00 0. -1.
          1    1    5    5  503    0 -0.57764149646E+03 -0.37661342984E+03  0.79963476422E+03  0.10558992045E+04  0.00000000000E+00 0. -1.
         -2    1    5    5    0  503 -0.14203552319E+03 -0.13831840589E+03  0.25080044251E+03  0.31969819083E+03  0.00000000000E+00 0.  1.
         -3    1    6    6    0  502  0.35524308071E+02  0.10333648066E+03  0.68088198372E+02  0.12874939789E+03  0.00000000000E+00 0.  1.
<mgrwt>
<rscale>  0 0.18235836E+04</rscale>
<asrwt>0</asrwt>
<pdfrwt beam="1">  1        2 0.33046303E+00 0.18235836E+04</pdfrwt>
<pdfrwt beam="2">  1       -2 0.59544517E-01 0.18235836E+04</pdfrwt>
<totfact> 0.13700284E+01</totfact>
</mgrwt>
</event>
<event>
12    1  0.1477245E-007  0.1257397E+04  0.7818608E-02  0.9064049E-01
         -1   -1    0    0    0  501 -0.00000000000E+00  0.00000000000E+00  0.93266348180E+03  0.93266348180E+03  0.00000000000E+00 0.  1.
          1   -1    0    0  501    0  0.00000000000E+00 -0.00000000000E+00 -0.42379885021E+03  0.42379885021E+03  0.00000000000E+00 0. -1.
         23    2    1    2    0    0  0.18693922359E+02  0.29603265506E+03  0.59841984795E+02  0.31483991573E+03  0.86938563374E+02 0.  0.
        254    2    1    2    0    0 -0.18693922359E+02 -0.29603265506E+03  0.44902264680E+03  0.10416224163E+04  0.89183581738E+03 0.  0.
        -24    2    4    4    0    0  0.12244469387E+03 -0.58775489601E+03  0.30443924812E+03  0.67784061777E+03  0.79599789363E+02 0.  0.
         24    2    4    4    0    0 -0.14113861623E+03  0.29172224096E+03  0.14458339868E+03  0.36378179851E+03  0.80067864296E+02 0.  0.
         11    1    3    3    0    0  0.42581752886E+02  0.77397222221E+02  0.68078927040E+01  0.88599565966E+02  0.00000000000E+00 0.  1.
        -11    1    3    3    0    0 -0.23887830527E+02  0.21863543284E+03  0.53034092091E+02  0.22624034977E+03  0.00000000000E+00 0. -1.
          4    1    6    6  502    0 -0.40906371372E+02  0.22993402225E+02  0.23066598059E+02  0.52288581074E+02  0.00000000000E+00 0. -1.
          3    1    5    5  503    0  0.34330071960E+02 -0.91003340133E+02  0.78784843361E+02  0.12516873931E+03  0.00000000000E+00 0. -1.
         -4    1    5    5    0  503  0.88114621908E+02 -0.49675155588E+03  0.22565440476E+03  0.55267187847E+03  0.00000000000E+00 0.  1.
         -3    1    6    6    0  502 -0.10023224486E+03  0.26872883873E+03  0.12151680062E+03  0.31149321744E+03  0.00000000000E+00 0.  1.
<mgrwt>
<rscale>  0 0.12573969E+04</rscale>
<asrwt>0</asrwt>
<pdfrwt beam="1">  1        1 0.65199823E-01 0.12573969E+04</pdfrwt>
<pdfrwt beam="2">  1       -1 0.14348669E+00 0.12573969E+04</pdfrwt>
<totfact> 0.21503623E+01</totfact>
</mgrwt>
</event>
<event>
12    1  0.1477245E-007  0.1632485E+04  0.7818608E-02  0.8800836E-01
         -1   -1    0    0    0  501 -0.00000000000E+00  0.00000000000E+00  0.66651649819E+03  0.66651649819E+03  0.00000000000E+00 0.  1.
          1   -1    0    0  501    0  0.00000000000E+00 -0.00000000000E+00 -0.99960323983E+03  0.99960323983E+03  0.00000000000E+00 0. -1.
         23    2    1    2    0    0  0.29411548827E+03  0.35732979869E+03 -0.45002871093E+03  0.65179440402E+03  0.90119914436E+02 0.  0.
        254    2    1    2    0    0 -0.29411548827E+03 -0.35732979869E+03  0.11694196929E+03  0.10143253340E+04  0.89498153811E+03 0.  0.
        -24    2    4    4    0    0 -0.82540883642E+02  0.65522158908E+02 -0.33288079707E+03  0.35686904118E+03  0.73754570830E+02 0.  0.
         24    2    4    4    0    0 -0.21157460463E+03 -0.42285195759E+03  0.44982276636E+03  0.65745629282E+03  0.79628289402E+02 0.  0.
         13    1    3    3    0    0  0.21647013932E+02  0.79244360455E+02 -0.81184557796E+02  0.11549542978E+03  0.00000000000E+00 0.  1.
        -13    1    3    3    0    0  0.27246847434E+03  0.27808543823E+03 -0.36884415314E+03  0.53629897424E+03  0.00000000000E+00 0. -1.
          4    1    6    6  502    0 -0.18706277945E+03 -0.41238712129E+03  0.42415783760E+03  0.62045587471E+03  0.00000000000E+00 0. -1.
          1    1    5    5  503    0 -0.72426858765E+02  0.81462621286E+02 -0.26866130654E+03  0.28993224410E+03  0.00000000000E+00 0. -1.
         -2    1    5    5    0  503 -0.10114024877E+02 -0.15940462378E+02 -0.64219490527E+02  0.66936797082E+02  0.00000000000E+00 0.  1.
         -3    1    6    6    0  502 -0.24511825180E+02 -0.10464836302E+02  0.25664928752E+02  0.37000418110E+02  0.00000000000E+00 0.  1.
<mgrwt>
<rscale>  0 0.16324853E+04</rscale>
<asrwt>0</asrwt>
<pdfrwt beam="1">  1        1 0.15378511E+00 0.16324853E+04</pdfrwt>
<pdfrwt beam="2">  1       -1 0.10254100E+00 0.16324853E+04</pdfrwt>
<totfact> 0.13037866E+01</totfact>
</mgrwt>
</event>
<event>
12    1  0.1477245E-007  0.1685544E+04  0.7818608E-02  0.8769653E-01
          1   -1    0    0  501    0  0.00000000000E+00  0.00000000000E+00  0.10192990879E+04  0.10192990879E+04  0.00000000000E+00 0. -1.
         -1   -1    0    0    0  501 -0.00000000000E+00 -0.00000000000E+00 -0.69681640864E+03  0.69681640864E+03  0.00000000000E+00 0.  1.
         23    2    1    2    0    0  0.41494979757E+03  0.76824244785E+02 -0.31920834726E+03  0.53519706497E+03  0.80353159894E+02 0.  0.
        254    2    1    2    0    0 -0.41494979757E+03 -0.76824244785E+02  0.64169102647E+03  0.11809184315E+04  0.89705945700E+03 0.  0.
        -24    2    4    4    0    0 -0.29640305211E+03  0.27079207134E+03 -0.30994156662E+02  0.41036057195E+03  0.79069880865E+02 0.  0.
         24    2    4    4    0    0 -0.11854674546E+03 -0.34761631613E+03  0.67268518313E+03  0.77055785958E+03  0.79772333928E+02 0.  0.
         11    1    3    3    0    0  0.14193795383E+03 -0.61110801708E+01 -0.81247168447E+02  0.16366071740E+03  0.00000000000E+00 0. -1.
        -11    1    3    3    0    0  0.27301184374E+03  0.82935324955E+02 -0.23796117881E+03  0.37153634757E+03  0.00000000000E+00 0.  1.
          2    1    6    6  502    0 -0.58016753151E+02 -0.26061922556E+03  0.52218029787E+03  0.58648153241E+03  0.00000000000E+00 0. -1.
          3    1    5    5  503    0 -0.21963728215E+03  0.23547705398E+03 -0.43523719885E+02  0.32493736759E+03  0.00000000000E+00 0. -1.
         -4    1    5    5    0  503 -0.76765769957E+02  0.35315017363E+02  0.12529563223E+02  0.85423204359E+02  0.00000000000E+00 0.  1.
         -1    1    6    6    0  502 -0.60529992311E+02 -0.86997090567E+02  0.15050488526E+03  0.18407632717E+03  0.00000000000E+00 0.  1.
<mgrwt>
<rscale>  0 0.16855436E+04</rscale>
<asrwt>0</asrwt>
<pdfrwt beam="1">  1        1 0.15681524E+00 0.16855436E+04</pdfrwt>
<pdfrwt beam="2">  1       -1 0.10720253E+00 0.16855436E+04</pdfrwt>
<totfact> 0.11295430E+01</totfact>
</mgrwt>
</event>
<event>
12    1  0.1477245E-007  0.1969206E+04  0.7818608E-02  0.8621155E-01
         -2   -1    0    0    0  501 -0.00000000000E+00  0.00000000000E+00  0.79196712154E+03  0.79196712154E+03  0.00000000000E+00 0.  1.
          2   -1    0    0  501    0  0.00000000000E+00 -0.00000000000E+00 -0.12240950852E+04  0.12240950852E+04  0.00000000000E+00 0. -1.
         23    2    1    2    0    0 -0.21654513782E+03  0.70333013401E+03  0.89547053472E+02  0.74844659205E+03  0.10290069117E+03 0.  0.
        254    2    1    2    0    0  0.21654513782E+03 -0.70333013401E+03 -0.52167501716E+03  0.12676156147E+04  0.89058376867E+03 0.  0.
        -24    2    4    4    0    0 -0.22807539521E+03 -0.67692171476E+02  0.10066132710E+03  0.27041111191E+03  0.79930286461E+02 0.  0.
         24    2    4    4    0    0  0.44462053302E+03 -0.63563796253E+03 -0.62233634426E+03  0.99720450280E+03  0.73425181088E+02 0.  0.
         11    1    3    3    0    0 -0.18976084017E+03  0.51266145314E+03  0.99555918806E+02  0.55564586111E+03  0.00000000000E+00 0.  1.
        -11    1    3    3    0    0 -0.26784297644E+02  0.19066868087E+03 -0.10008865334E+02  0.19280073094E+03  0.00000000000E+00 0. -1.
          4    1    6    6  502    0  0.22624129558E+01 -0.24587409761E+02 -0.22898812867E+02  0.33675137147E+02  0.00000000000E+00 0. -1.
          1    1    5    5  503    0 -0.12710832771E+02  0.67830507229E+00 -0.12379385573E+02  0.17755972367E+02  0.00000000000E+00 0. -1.
         -2    1    5    5    0  503 -0.21536456244E+03 -0.68370476548E+02  0.11304071268E+03  0.25265513955E+03  0.00000000000E+00 0.  1.
         -3    1    6    6    0  502  0.44235812007E+03 -0.61105055277E+03 -0.59943753140E+03  0.96352936566E+03  0.00000000000E+00 0.  1.
<mgrwt>
<rscale>  0 0.19692060E+04</rscale>
<asrwt>0</asrwt>
<pdfrwt beam="1">  1        2 0.18832232E+00 0.19692060E+04</pdfrwt>
<pdfrwt beam="2">  1       -2 0.12184110E+00 0.19692060E+04</pdfrwt>
<totfact> 0.87263503E+00</totfact>
</mgrwt>
</event>
<event>
12    1  0.1477245E-007  0.1549946E+04  0.7818608E-02  0.8851903E-01
         -2   -1    0    0    0  501 -0.00000000000E+00  0.00000000000E+00  0.70138558325E+03  0.70138558325E+03  0.00000000000E+00 0.  1.
          2   -1    0    0  501    0  0.00000000000E+00 -0.00000000000E+00 -0.85628050228E+03  0.85628050228E+03  0.00000000000E+00 0. -1.
         23    2    1    2    0    0 -0.26573218132E+03  0.31089938527E+03 -0.34543900618E+03  0.54306593014E+03  0.91216651621E+02 0.  0.
        254    2    1    2    0    0  0.26573218132E+03 -0.31089938527E+03  0.19054408715E+03  0.10146001554E+04  0.90875431566E+03 0.  0.
        -24    2    4    4    0    0  0.26739588296E+03  0.11854846829E+03 -0.25135686463E+03  0.39363469613E+03  0.78827045108E+02 0.  0.
         24    2    4    4    0    0 -0.16637016355E+01 -0.42944785356E+03  0.44190095178E+03  0.62096545927E+03  0.76768636795E+02 0.  0.
         11    1    3    3    0    0 -0.40674607129E+02  0.79077518037E+02 -0.36785097336E+02  0.96233159098E+02  0.00000000000E+00 0.  1.
        -11    1    3    3    0    0 -0.22505757419E+03  0.23182186723E+03 -0.30865390884E+03  0.44683277104E+03  0.00000000000E+00 0. -1.
          4    1    6    6  502    0  0.17207727853E+02 -0.35183362031E+03  0.39088474251E+03  0.52618806924E+03  0.00000000000E+00 0. -1.
          1    1    5    5  503    0  0.20627358100E+03  0.52674742658E+02 -0.18283415086E+03  0.28062741394E+03  0.00000000000E+00 0. -1.
         -2    1    5    5    0  503  0.61122301961E+02  0.65873725630E+02 -0.68522713769E+02  0.11300728219E+03  0.00000000000E+00 0.  1.
         -3    1    6    6    0  502 -0.18871429489E+02 -0.77614233249E+02  0.51016209266E+02  0.94777390035E+02  0.00000000000E+00 0.  1.
<mgrwt>
<rscale>  0 0.15499455E+04</rscale>
<asrwt>0</asrwt>
<pdfrwt beam="1">  1        2 0.13173546E+00 0.15499455E+04</pdfrwt>
<pdfrwt beam="2">  1       -2 0.10790547E+00 0.15499455E+04</pdfrwt>
<totfact> 0.20820010E+01</totfact>
</mgrwt>
</event>
<event>
12    1  0.1477245E-007  0.2081081E+04  0.7818608E-02  0.8569623E-01
         -2   -1    0    0    0  501 -0.00000000000E+00  0.00000000000E+00  0.62325536334E+03  0.62325536334E+03  0.00000000000E+00 0.  1.
          2   -1    0    0  501    0  0.00000000000E+00 -0.00000000000E+00 -0.17372087862E+04  0.17372087862E+04  0.00000000000E+00 0. -1.
         23    2    1    2    0    0 -0.12559276928E+03  0.15543950638E+02  0.49205079136E+03  0.51577943623E+03  0.88877935711E+02 0.  0.
        254    2    1    2    0    0  0.12559276928E+03 -0.15543950638E+02 -0.16060042142E+04  0.18446847133E+04  0.89866400691E+03 0.  0.
        -24    2    4    4    0    0  0.18118435474E+03  0.33280436302E+03 -0.13413171817E+04  0.13964022540E+04  0.84976224817E+02 0.  0.
         24    2    4    4    0    0 -0.55591585456E+02 -0.34834831366E+03 -0.26468703256E+03  0.44828245928E+03  0.80380134920E+02 0.  0.
         13    1    3    3    0    0 -0.13606795367E+03  0.19849294859E+02  0.47971119570E+03  0.49903037363E+03  0.00000000000E+00 0.  1.
        -13    1    3    3    0    0  0.10475184387E+02 -0.43053442219E+01  0.12339595656E+02  0.16749062593E+02  0.00000000000E+00 0. -1.
          4    1    6    6  502    0 -0.62871933222E+02 -0.14186421318E+03 -0.11158707503E+03  0.19112825610E+03  0.00000000000E+00 0. -1.
          3    1    5    5  503    0  0.26724401169E+02  0.78446657424E+01 -0.76863160552E+02  0.81753763513E+02  0.00000000000E+00 0. -1.
         -4    1    5    5    0  503  0.15445995357E+03  0.32495969728E+03 -0.12644540211E+04  0.13146484905E+04  0.00000000000E+00 0.  1.
         -3    1    6    6    0  502  0.72803477656E+01 -0.20648410048E+03 -0.15309995754E+03  0.25715420318E+03  0.00000000000E+00 0.  1.
<mgrwt>
<rscale>  0 0.20810812E+04</rscale>
<asrwt>0</asrwt>
<pdfrwt beam="1">  1        2 0.26726289E+00 0.20810812E+04</pdfrwt>
<pdfrwt beam="2">  1       -2 0.95885439E-01 0.20810812E+04</pdfrwt>
<totfact> 0.78706298E+00</totfact>
</mgrwt>
</event>
<event>
12    1  0.1477245E-007  0.1243535E+04  0.7818608E-02  0.9075581E-01
          2   -1    0    0  501    0  0.00000000000E+00  0.00000000000E+00  0.15261256569E+04  0.15261256569E+04  0.00000000000E+00 0. -1.
         -2   -1    0    0    0  501 -0.00000000000E+00 -0.00000000000E+00 -0.25331782247E+03  0.25331782247E+03  0.00000000000E+00 0.  1.
         23    2    1    2    0    0  0.15424483464E+03  0.16078094096E+03  0.45229872087E+02  0.24475519143E+03  0.90649778893E+02 0.  0.
        254    2    1    2    0    0 -0.15424483464E+03 -0.16078094096E+03  0.12275779624E+04  0.15346882880E+04  0.89368814894E+03 0.  0.
        -24    2    4    4    0    0 -0.40556290019E+02 -0.38377173721E+03  0.12084299477E+04  0.12710759482E+04  0.80034796205E+02 0.  0.
         24    2    4    4    0    0 -0.11368854462E+03  0.22299079624E+03  0.19148014656E+02  0.26361233978E+03  0.80466383241E+02 0.  0.
         11    1    3    3    0    0  0.14104253203E+03  0.90474547365E+02  0.43838657041E+02  0.17320643005E+03  0.00000000000E+00 0. -1.
        -11    1    3    3    0    0  0.13202302613E+02  0.70306393599E+02  0.13912150468E+01  0.71548761377E+02  0.00000000000E+00 0.  1.
          4    1    6    6  502    0 -0.53282971195E+02  0.10972513132E+03  0.49610349367E+02  0.13168092583E+03  0.00000000000E+00 0. -1.
          3    1    5    5  503    0  0.89799563247E+01 -0.32859058951E+02  0.18273944662E+03  0.18588723120E+03  0.00000000000E+00 0. -1.
         -4    1    5    5    0  503 -0.49536246344E+02 -0.35091267826E+03  0.10256905011E+04  0.10851887170E+04  0.00000000000E+00 0.  1.
         -3    1    6    6    0  502 -0.60405573425E+02  0.11326566492E+03 -0.30462334711E+02  0.13193141395E+03  0.00000000000E+00 0.  1.
<mgrwt>
<rscale>  0 0.12435350E+04</rscale>
<asrwt>0</asrwt>
<pdfrwt beam="1">  1        2 0.23478856E+00 0.12435350E+04</pdfrwt>
<pdfrwt beam="2">  1       -2 0.38971973E-01 0.12435350E+04</pdfrwt>
<totfact> 0.75097247E+01</totfact>
</mgrwt>
</event>
<event>
12    1  0.2451670E-007  0.2268741E+04  0.7818608E-02  0.8490349E-01
         -1   -1    0    0    0  501 -0.00000000000E+00  0.00000000000E+00  0.73625130691E+03  0.73625130691E+03  0.00000000000E+00 0.  1.
          1   -1    0    0  501    0  0.00000000000E+00 -0.00000000000E+00 -0.17477680399E+04  0.17477680399E+04  0.00000000000E+00 0. -1.
         23    2    1    2    0    0 -0.81498796595E+03 -0.12332269322E+03  0.98020859505E+02  0.83570507096E+03  0.96855590545E+02 0.  0.
        254    2    1    2    0    0  0.81498796595E+03  0.12332269322E+03 -0.11095375925E+04  0.16483142759E+04  0.89802695479E+03 0.  0.
        -24    2    4    4    0    0  0.30274622814E+03  0.28628373202E+03 -0.13743474185E+02  0.42523333528E+03  0.83790527369E+02 0.  0.
         24    2    4    4    0    0  0.51224173781E+03 -0.16296103880E+03 -0.10957941184E+04  0.12230809406E+04  0.78831081100E+02 0.  0.
         11    1    3    3    0    0 -0.26386120263E+01  0.30332835226E+01  0.76414204135E+01  0.86344883050E+01  0.00000000000E+00 0. -1.
        -11    1    3    3    0    0 -0.81234935392E+03 -0.12635597674E+03  0.90379439092E+02  0.82707058265E+03  0.00000000000E+00 0.  1.
          4    1    6    6  502    0 -0.73833095097E-01 -0.16842261609E+01  0.91208664910E+00  0.19167605856E+01  0.00000000000E+00 0. -1.
          3    1    5    5  503    0  0.97584257421E+02  0.57301185314E+02 -0.30899310952E+02  0.11730677965E+03  0.00000000000E+00 0. -1.
         -4    1    5    5    0  503  0.20516197072E+03  0.22898254670E+03  0.17155836767E+02  0.30792655563E+03  0.00000000000E+00 0.  1.
         -3    1    6    6    0  502  0.51231557090E+03 -0.16127681264E+03 -0.10967062050E+04  0.12211641800E+04  0.00000000000E+00 0.  1.
<mgrwt>
<rscale>  0 0.22687411E+04</rscale>
<asrwt>0</asrwt>
<pdfrwt beam="1">  1        1 0.26888739E+00 0.22687411E+04</pdfrwt>
<pdfrwt beam="2">  1       -1 0.11326943E+00 0.22687411E+04</pdfrwt>
<totfact> 0.28521692E+00</totfact>
</mgrwt>
</event>
<event>
12    1  0.1477245E-007  0.1869696E+04  0.7818608E-02  0.8670089E-01
          1   -1    0    0  501    0  0.00000000000E+00  0.00000000000E+00  0.10437709642E+04  0.10437709642E+04  0.00000000000E+00 0. -1.
         -1   -1    0    0    0  501 -0.00000000000E+00 -0.00000000000E+00 -0.83729216131E+03  0.83729216131E+03  0.00000000000E+00 0.  1.
         23    2    1    2    0    0 -0.36822036248E+03 -0.32388582291E+03 -0.44012680938E+03  0.66523701539E+03  0.91325881770E+02 0.  0.
        254    2    1    2    0    0  0.36822036248E+03  0.32388582291E+03  0.64660561224E+03  0.12158261101E+04  0.90534305684E+03 0.  0.
        -24    2    4    4    0    0 -0.83429095742E+02 -0.21288426342E+03  0.40056262030E+03  0.46823755823E+03  0.80720967081E+02 0.  0.
         24    2    4    4    0    0  0.45164945822E+03  0.53677008633E+03  0.24604299194E+03  0.74758855185E+03  0.79007153461E+02 0.  0.
         11    1    3    3    0    0 -0.89587021741E+02 -0.11257203802E+03 -0.86339374205E+02  0.16778791896E+03  0.00000000000E+00 0. -1.
        -11    1    3    3    0    0 -0.27863334074E+03 -0.21131378488E+03 -0.35378743517E+03  0.49744909643E+03  0.00000000000E+00 0.  1.
          4    1    6    6  502    0  0.43034240448E+03  0.53120633296E+03  0.23466809552E+03  0.72280278660E+03  0.00000000000E+00 0. -1.
          3    1    5    5  503    0 -0.63918644346E+02 -0.11560505451E+03  0.15662013490E+03  0.20489018615E+03  0.00000000000E+00 0. -1.
         -4    1    5    5    0  503 -0.19510451397E+02 -0.97279208912E+02  0.24394248540E+03  0.26334737208E+03  0.00000000000E+00 0.  1.
         -3    1    6    6    0  502  0.21307053741E+02  0.55637533714E+01  0.11374896416E+02  0.24785765253E+02  0.00000000000E+00 0.  1.
<mgrwt>
<rscale>  0 0.18696965E+04</rscale>
<asrwt>0</asrwt>
<pdfrwt beam="1">  1        1 0.16058015E+00 0.18696965E+04</pdfrwt>
<pdfrwt beam="2">  1       -1 0.12881418E+00 0.18696965E+04</pdfrwt>
<totfact> 0.68132654E+00</totfact>
</mgrwt>
</event>
<event>
12    1  0.1477245E-007  0.2318404E+04  0.7818608E-02  0.8470700E-01
         -1   -1    0    0    0  501 -0.00000000000E+00  0.00000000000E+00  0.85287283874E+03  0.85287283874E+03  0.00000000000E+00 0.  1.
          1   -1    0    0  501    0  0.00000000000E+00 -0.00000000000E+00 -0.15755567031E+04  0.15755567031E+04  0.00000000000E+00 0. -1.
         23    2    1    2    0    0 -0.30889516268E+03 -0.72631853249E+02  0.66348812988E+03  0.74135572615E+03  0.93274897899E+02 0.  0.
        254    2    1    2    0    0  0.30889516268E+03  0.72631853249E+02 -0.13861719943E+04  0.16870738157E+04  0.90777401062E+03 0.  0.
        -24    2    4    4    0    0 -0.13319367457E+03  0.79426755938E+02  0.48553764020E+02  0.18361864474E+03  0.85493708476E+02 0.  0.
         24    2    4    4    0    0  0.44208883725E+03 -0.67949026887E+01 -0.14347257583E+04  0.15034551710E+04  0.80316492284E+02 0.  0.
         13    1    3    3    0    0 -0.27525996602E+03 -0.91244467749E+02  0.61070497343E+03  0.67605781288E+03  0.00000000000E+00 0.  1.
        -13    1    3    3    0    0 -0.33635196658E+02  0.18612614500E+02  0.52783156451E+02  0.65297913272E+02  0.00000000000E+00 0. -1.
          2    1    6    6  502    0  0.12836556134E+03  0.63372918755E+01 -0.54495151957E+03  0.55990181040E+03  0.00000000000E+00 0. -1.
          1    1    5    5  503    0 -0.11347367076E+01  0.36300212191E+01 -0.17307056566E+02  0.17720013782E+02  0.00000000000E+00 0. -1.
         -2    1    5    5    0  503 -0.13205893786E+03  0.75796734719E+02  0.65860820586E+02  0.16589863095E+03  0.00000000000E+00 0.  1.
         -1    1    6    6    0  502  0.31372327590E+03 -0.13132194564E+02 -0.88977423872E+03  0.94355336058E+03  0.00000000000E+00 0.  1.
<mgrwt>
<rscale>  0 0.23184042E+04</rscale>
<asrwt>0</asrwt>
<pdfrwt beam="1">  1        1 0.24239334E+00 0.23184042E+04</pdfrwt>
<pdfrwt beam="2">  1       -1 0.13121121E+00 0.23184042E+04</pdfrwt>
<totfact> 0.25930265E+00</totfact>
</mgrwt>
</event>
<event>
12    1  0.1477245E-007  0.1445004E+04  0.7818608E-02  0.8921871E-01
          2   -1    0    0  501    0  0.00000000000E+00  0.00000000000E+00  0.26177392969E+04  0.26177392969E+04  0.00000000000E+00 0. -1.
         -2   -1    0    0    0  501 -0.00000000000E+00 -0.00000000000E+00 -0.19941226953E+03  0.19941226953E+03  0.00000000000E+00 0.  1.
         23    2    1    2    0    0  0.20932060768E+03 -0.26293165822E+03  0.13505635138E+04  0.13949403101E+04  0.94278789276E+02 0.  0.
        254    2    1    2    0    0 -0.20932060768E+03  0.26293165822E+03  0.10677635136E+04  0.14222112564E+04  0.87727861206E+03 0.  0.
        -24    2    4    4    0    0 -0.40623433202E+03  0.47953330286E+03  0.67106553879E+03  0.92282524308E+03  0.79365930090E+02 0.  0.
         24    2    4    4    0    0  0.19691372434E+03 -0.21660164464E+03  0.39669797478E+03  0.49938601330E+03  0.79535022440E+02 0.  0.
         13    1    3    3    0    0  0.19962738812E+03 -0.26900496572E+03  0.13285615058E+04  0.13701424890E+04  0.00000000000E+00 0. -1.
        -13    1    3    3    0    0  0.96932195590E+01  0.60733075005E+01  0.22002008033E+02  0.24797821012E+02  0.00000000000E+00 0.  1.
          2    1    6    6  502    0  0.29523958043E+02 -0.17982021941E+01  0.25797940963E+02  0.39248329743E+02  0.00000000000E+00 0. -1.
          1    1    5    5  503    0 -0.68617890716E+01  0.23960508179E+02  0.12177529870E+02  0.27739544610E+02  0.00000000000E+00 0. -1.
         -2    1    5    5    0  503 -0.39937254295E+03  0.45557279468E+03  0.65888800892E+03  0.89508569847E+03  0.00000000000E+00 0.  1.
         -1    1    6    6    0  502  0.16738976630E+03 -0.21480344244E+03  0.37090003382E+03  0.46013768356E+03  0.00000000000E+00 0.  1.
<mgrwt>
<rscale>  0 0.14450043E+04</rscale>
<asrwt>0</asrwt>
<pdfrwt beam="1">  1        2 0.40272910E+00 0.14450043E+04</pdfrwt>
<pdfrwt beam="2">  1       -2 0.30678812E-01 0.14450043E+04</pdfrwt>
<totfact> 0.28463969E+01</totfact>
</mgrwt>
</event>
<event>
12    1  0.1477245E-007  0.2056547E+04  0.7818608E-02  0.8580630E-01
          1   -1    0    0  501    0  0.00000000000E+00  0.00000000000E+00  0.94434277389E+03  0.94434277389E+03  0.00000000000E+00 0. -1.
         -1   -1    0    0    0  501 -0.00000000000E+00 -0.00000000000E+00 -0.11196642620E+04  0.11196642620E+04  0.00000000000E+00 0.  1.
         23    2    1    2    0    0  0.64015780586E+03  0.26951224935E+03 -0.52741334844E+03  0.87624468243E+03  0.84858908916E+02 0.  0.
        254    2    1    2    0    0 -0.64015780586E+03 -0.26951224935E+03  0.35209186038E+03  0.11877623534E+04  0.89686780582E+03 0.  0.
        -24    2    4    4    0    0 -0.50663276785E+03 -0.56908247272E+01 -0.20449863356E+03  0.55208273955E+03  0.79161311461E+02 0.  0.
         24    2    4    4    0    0 -0.13352503801E+03 -0.26382142462E+03  0.55659049394E+03  0.63567961387E+03  0.82854774706E+02 0.  0.
         11    1    3    3    0    0  0.41705196332E+03  0.19942829824E+03 -0.39134128082E+03  0.60568307250E+03  0.00000000000E+00 0.  1.
        -11    1    3    3    0    0  0.22310584254E+03  0.70083951110E+02 -0.13607206763E+03  0.27056160992E+03  0.00000000000E+00 0. -1.
          2    1    6    6  502    0 -0.12933080647E+03 -0.17263948697E+03  0.38409952414E+03  0.44052615633E+03  0.00000000000E+00 0. -1.
          1    1    5    5  503    0 -0.43508980800E+03  0.14669666009E+02 -0.19528118824E+03  0.47713004790E+03  0.00000000000E+00 0. -1.
         -2    1    5    5    0  503 -0.71542959851E+02 -0.20360490737E+02 -0.92174453173E+01  0.74952691649E+02  0.00000000000E+00 0.  1.
         -1    1    6    6    0  502 -0.41942315398E+01 -0.91181937647E+02  0.17249096980E+03  0.19515345755E+03  0.00000000000E+00 0.  1.
<mgrwt>
<rscale>  0 0.20565475E+04</rscale>
<asrwt>0</asrwt>
<pdfrwt beam="1">  1        1 0.14528350E+00 0.20565475E+04</pdfrwt>
<pdfrwt beam="2">  1       -1 0.17225604E+00 0.20565475E+04</pdfrwt>
<totfact> 0.36622794E+00</totfact>
</mgrwt>
</event>
<event>
12    1  0.1477245E-007  0.2547683E+04  0.7818608E-02  0.8386192E-01
          1   -1    0    0  501    0  0.00000000000E+00  0.00000000000E+00  0.15332918289E+04  0.15332918289E+04  0.00000000000E+00 0. -1.
         -1   -1    0    0    0  501 -0.00000000000E+00 -0.00000000000E+00 -0.10582931501E+04  0.10582931501E+04  0.00000000000E+00 0.  1.
         23    2    1    2    0    0  0.95181130264E+03  0.56875840353E+03  0.30338808645E+03  0.11530508819E+04  0.89728076536E+02 0.  0.
        254    2    1    2    0    0 -0.95181130264E+03 -0.56875840353E+03  0.17161059241E+03  0.14385340971E+04  0.90027733272E+03 0.  0.
        -24    2    4    4    0    0 -0.96208671143E+03 -0.46509623790E+03  0.42505601754E+03  0.11531027650E+04  0.83952472953E+02 0.  0.
         24    2    4    4    0    0  0.10275408793E+02 -0.10366216563E+03 -0.25344542512E+03  0.28543133218E+03  0.79906403153E+02 0.  0.
         13    1    3    3    0    0  0.63262827544E+03  0.38902506604E+03  0.24550896882E+03  0.78219798687E+03  0.00000000000E+00 0. -1.
        -13    1    3    3    0    0  0.31918302720E+03  0.17973333749E+03  0.57879117630E+02  0.37085289498E+03  0.00000000000E+00 0.  1.
          4    1    6    6  502    0  0.16820697196E+02 -0.11306761627E+03 -0.19638571098E+03  0.22723241226E+03  0.00000000000E+00 0. -1.
          1    1    5    5  503    0 -0.63403238482E+03 -0.33297515124E+03  0.31814412166E+03  0.78363588387E+03  0.00000000000E+00 0. -1.
         -2    1    5    5    0  503 -0.32805432661E+03 -0.13212108665E+03  0.10691189588E+03  0.36946688110E+03  0.00000000000E+00 0.  1.
         -3    1    6    6    0  502 -0.65452884036E+01  0.94054506393E+01 -0.57059714140E+02  0.58198919919E+02  0.00000000000E+00 0.  1.
<mgrwt>
<rscale>  0 0.25476831E+04</rscale>
<asrwt>0</asrwt>
<pdfrwt beam="1">  1        1 0.23589105E+00 0.25476831E+04</pdfrwt>
<pdfrwt beam="2">  1       -1 0.16281433E+00 0.25476831E+04</pdfrwt>
<totfact> 0.15274008E+00</totfact>
</mgrwt>
</event>
<event>
12    1  0.1477245E-007  0.1862629E+04  0.7818608E-02  0.8673685E-01
         -2   -1    0    0    0  501 -0.00000000000E+00  0.00000000000E+00  0.97773002594E+03  0.97773002594E+03  0.00000000000E+00 0.  1.
          2   -1    0    0  501    0  0.00000000000E+00 -0.00000000000E+00 -0.88710272812E+03  0.88710272812E+03  0.00000000000E+00 0. -1.
         23    2    1    2    0    0 -0.43958123122E+03  0.56147217079E+03  0.12775600617E+03  0.72995785411E+03  0.89633778456E+02 0.  0.
        254    2    1    2    0    0  0.43958123122E+03 -0.56147217079E+03 -0.37128708346E+02  0.11348748999E+04  0.88208834032E+03 0.  0.
        -24    2    4    4    0    0  0.69221578797E+03 -0.45167692975E+03 -0.11082808317E+03  0.83835454957E+03  0.85911237819E+02 0.  0.
         24    2    4    4    0    0 -0.25263455674E+03 -0.10979524104E+03  0.73699374822E+02  0.29652035038E+03  0.81323465998E+02 0.  0.
         11    1    3    3    0    0 -0.13438872975E+03  0.11078820405E+03  0.23126032321E+02  0.17569624416E+03  0.00000000000E+00 0. -1.
        -11    1    3    3    0    0 -0.30519250147E+03  0.45068396674E+03  0.10462997385E+03  0.55426160995E+03  0.00000000000E+00 0.  1.
          4    1    6    6  502    0 -0.42341359031E+02 -0.26778082525E+02  0.47297033173E+02  0.68897501662E+02  0.00000000000E+00 0. -1.
          3    1    5    5  503    0  0.35707695976E+03 -0.21324417394E+03 -0.95712841702E+02  0.42677626571E+03  0.00000000000E+00 0. -1.
         -4    1    5    5    0  503  0.33513882821E+03 -0.23843275581E+03 -0.15115241467E+02  0.41157828386E+03  0.00000000000E+00 0.  1.
         -3    1    6    6    0  502 -0.21029319771E+03 -0.83017158513E+02  0.26402341649E+02  0.22762284871E+03  0.00000000000E+00 0.  1.
<mgrwt>
<rscale>  0 0.18626293E+04</rscale>
<asrwt>0</asrwt>
<pdfrwt beam="1">  1        2 0.13647734E+00 0.18626293E+04</pdfrwt>
<pdfrwt beam="2">  1       -2 0.15042000E+00 0.18626293E+04</pdfrwt>
<totfact> 0.83565519E+00</totfact>
</mgrwt>
</event>
<event>
12    1  0.1477245E-007  0.1490539E+04  0.7818608E-02  0.8890769E-01
          1   -1    0    0  501    0  0.00000000000E+00  0.00000000000E+00  0.14632878430E+04  0.14632878430E+04  0.00000000000E+00 0. -1.
         -1   -1    0    0    0  501 -0.00000000000E+00 -0.00000000000E+00 -0.37957419232E+03  0.37957419232E+03  0.00000000000E+00 0.  1.
         23    2    1    2    0    0  0.17813384120E+02 -0.24724369260E+02  0.91689208391E+03  0.92169104673E+03  0.88852017368E+02 0.  0.
        254    2    1    2    0    0 -0.17813384120E+02  0.24724369260E+02  0.16682156680E+03  0.92117098862E+03  0.90542694020E+03 0.  0.
        -24    2    4    4    0    0 -0.20954498478E+03 -0.52373868921E+02  0.48284111483E+03  0.53517646489E+03  0.81401373511E+02 0.  0.
         24    2    4    4    0    0  0.19173160066E+03  0.77098238181E+02 -0.31601954803E+03  0.38599452374E+03  0.80114122316E+02 0.  0.
         11    1    3    3    0    0  0.32200431669E+02 -0.42271150977E+02  0.83570310612E+03  0.83739082846E+03  0.00000000000E+00 0. -1.
        -11    1    3    3    0    0 -0.14387047549E+02  0.17546781717E+02  0.81188977787E+02  0.84300218267E+02  0.00000000000E+00 0.  1.
          2    1    6    6  502    0  0.80538934215E+02  0.52515005192E+01 -0.17419465921E+03  0.19198405527E+03  0.00000000000E+00 0. -1.
          1    1    5    5  503    0 -0.15423099863E+03 -0.12549964514E+02  0.39329758964E+03  0.42264369931E+03  0.00000000000E+00 0. -1.
         -2    1    5    5    0  503 -0.55313986149E+02 -0.39823904407E+02  0.89543525184E+02  0.11253276558E+03  0.00000000000E+00 0.  1.
         -1    1    6    6    0  502  0.11119266645E+03  0.71846737662E+02 -0.14182488882E+03  0.19401046846E+03  0.00000000000E+00 0.  1.
<mgrwt>
<rscale>  0 0.14905386E+04</rscale>
<asrwt>0</asrwt>
<pdfrwt beam="1">  1        1 0.22512120E+00 0.14905386E+04</pdfrwt>
<pdfrwt beam="2">  1       -1 0.58396030E-01 0.14905386E+04</pdfrwt>
<totfact> 0.19956391E+01</totfact>
</mgrwt>
</event>
<event>
12    1  0.1477245E-007  0.1372303E+04  0.7818608E-02  0.8974115E-01
         -2   -1    0    0    0  501 -0.00000000000E+00  0.00000000000E+00  0.43760442538E+03  0.43760442538E+03  0.00000000000E+00 0. -1.
          2   -1    0    0  501    0  0.00000000000E+00 -0.00000000000E+00 -0.10758664666E+04  0.10758664666E+04  0.00000000000E+00 0.  1.
         23    2    1    2    0    0 -0.26249752104E+03 -0.14633008438E+03  0.73495544098E+02  0.32246264683E+03  0.90901713153E+02 0.  0.
        254    2    1    2    0    0  0.26249752104E+03  0.14633008438E+03 -0.71175758528E+03  0.11910082451E+04  0.90641289574E+03 0.  0.
        -24    2    4    4    0    0  0.13779043843E+03 -0.22687481145E+03  0.92030333998E+02  0.29275283425E+03  0.82318008906E+02 0.  0.
         24    2    4    4    0    0  0.12470708261E+03  0.37320489583E+03 -0.80378791928E+03  0.89825541086E+03  0.77162252736E+02 0.  0.
         11    1    3    3    0    0 -0.13585303362E+03 -0.55311157866E+02 -0.72113258934E+01  0.14685834722E+03  0.00000000000E+00 0.  1.
        -11    1    3    3    0    0 -0.12664448742E+03 -0.91018926515E+02  0.80706869992E+02  0.17560429961E+03  0.00000000000E+00 0. -1.
          2    1    6    6  502    0  0.22237771073E+02  0.18523716472E+02 -0.34996107958E+02  0.45413369248E+02  0.00000000000E+00 0. -1.
          3    1    5    5  503    0  0.96627912430E+00 -0.55116205461E+02  0.36926720508E+02  0.66349924546E+02  0.00000000000E+00 0. -1.
         -4    1    5    5    0  503  0.13682415931E+03 -0.17175860599E+03  0.55103613490E+02  0.22640290970E+03  0.00000000000E+00 0.  1.
         -1    1    6    6    0  502  0.10246931153E+03  0.35468117936E+03 -0.76879181132E+03  0.85284204162E+03  0.00000000000E+00 0.  1.
<mgrwt>
<rscale>  0 0.13723031E+04</rscale>
<asrwt>0</asrwt>
<pdfrwt beam="1">  1        2 0.16551792E+00 0.13723031E+04</pdfrwt>
<pdfrwt beam="2">  1       -2 0.67323758E-01 0.13723031E+04</pdfrwt>
<totfact> 0.44510743E+01</totfact>
</mgrwt>
</event>
<event>
12    1  0.1477245E-007  0.1934144E+04  0.7818608E-02  0.8638045E-01
         -2   -1    0    0    0  501 -0.00000000000E+00  0.00000000000E+00  0.53718870005E+03  0.53718870005E+03  0.00000000000E+00 0.  1.
          2   -1    0    0  501    0  0.00000000000E+00 -0.00000000000E+00 -0.17409670974E+04  0.17409670974E+04  0.00000000000E+00 0. -1.
         23    2    1    2    0    0 -0.64683835043E+03 -0.34172259591E+03 -0.39157766370E+03  0.83494600451E+03  0.92884765113E+02 0.  0.
        254    2    1    2    0    0  0.64683835043E+03  0.34172259591E+03 -0.81220073360E+03  0.14432097929E+04  0.94234297923E+03 0.  0.
        -24    2    4    4    0    0 -0.48207224020E+02 -0.16178637177E+02 -0.62814624655E+03  0.63594081522E+03  0.85248628450E+02 0.  0.
         24    2    4    4    0    0  0.69504557445E+03  0.35790123309E+03 -0.18405448705E+03  0.80726897768E+03  0.81397204599E+02 0.  0.
         11    1    3    3    0    0 -0.49711522651E+03 -0.28748783157E+03 -0.26982183434E+03  0.63448926233E+03  0.00000000000E+00 0. -1.
        -11    1    3    3    0    0 -0.14972312392E+03 -0.54234764339E+02 -0.12175582936E+03  0.20045674217E+03  0.00000000000E+00 0.  1.
          4    1    6    6  502    0  0.51123672614E+03  0.22198167021E+03 -0.12625017666E+03  0.57146999849E+03  0.00000000000E+00 0. -1.
          1    1    5    5  503    0 -0.11329482233E+02 -0.14193843552E+02 -0.54083937595E+03  0.54114420716E+03  0.00000000000E+00 0. -1.
         -2    1    5    5    0  503 -0.36877741788E+02 -0.19847936243E+01 -0.87306870597E+02  0.94796608054E+02  0.00000000000E+00 0.  1.
         -3    1    6    6    0  502  0.18380884831E+03  0.13591956288E+03 -0.57804310392E+02  0.23579897920E+03  0.00000000000E+00 0.  1.
<mgrwt>
<rscale>  0 0.19341436E+04</rscale>
<asrwt>0</asrwt>
<pdfrwt beam="1">  1        2 0.26784109E+00 0.19341436E+04</pdfrwt>
<pdfrwt beam="2">  1       -2 0.82644416E-01 0.19341436E+04</pdfrwt>
<totfact> 0.11162461E+01</totfact>
</mgrwt>
</event>
<event>
12    1  0.1477245E-007  0.1929533E+04  0.7818608E-02  0.8640294E-01
         -2   -1    0    0    0  501 -0.00000000000E+00  0.00000000000E+00  0.22725638210E+03  0.22725638210E+03  0.00000000000E+00 0.  1.
          2   -1    0    0  501    0  0.00000000000E+00 -0.00000000000E+00 -0.40957009793E+04  0.40957009793E+04  0.00000000000E+00 0. -1.
         23    2    1    2    0    0  0.66673965875E+01  0.70167919316E+03 -0.21930283442E+04  0.23043276203E+04  0.90301269019E+02 0.  0.
        254    2    1    2    0    0 -0.66673965875E+01 -0.70167919316E+03 -0.16754162531E+04  0.20186297411E+04  0.88059540444E+03 0.  0.
        -24    2    4    4    0    0 -0.69280802186E+02 -0.40432268762E+03 -0.12311898481E+03  0.43481048613E+03  0.75001394341E+02 0.  0.
         24    2    4    4    0    0  0.62613405598E+02 -0.29735650554E+03 -0.15522972683E+04  0.15838192550E+04  0.80717367460E+02 0.  0.
         11    1    3    3    0    0 -0.16898112088E+02  0.60705640533E+03 -0.18139501351E+04  0.19129082880E+04  0.00000000000E+00 0. -1.
        -11    1    3    3    0    0  0.23565508676E+02  0.94622787832E+02 -0.37907820903E+03  0.39141933235E+03  0.00000000000E+00 0.  1.
          2    1    6    6  502    0 -0.17379482625E+02 -0.99364878779E+02 -0.49980752285E+03  0.50988526695E+03  0.00000000000E+00 0. -1.
          1    1    5    5  503    0 -0.27866474186E+02 -0.20499396312E+03 -0.23656683815E+02  0.20822752937E+03  0.00000000000E+00 0. -1.
         -2    1    5    5    0  503 -0.41414328000E+02 -0.19932872450E+03 -0.99462300994E+02  0.22658295676E+03  0.00000000000E+00 0.  1.
         -1    1    6    6    0  502  0.79992888224E+02 -0.19799162676E+03 -0.10524897454E+04  0.10739339880E+04  0.00000000000E+00 0.  1.
<mgrwt>
<rscale>  0 0.19295328E+04</rscale>
<asrwt>0</asrwt>
<pdfrwt beam="1">  1        2 0.63010783E+00 0.19295328E+04</pdfrwt>
<pdfrwt beam="2">  1       -2 0.34962521E-01 0.19295328E+04</pdfrwt>
<totfact> 0.20736421E+00</totfact>
</mgrwt>
</event>
<event>
12    1  0.1477245E-007  0.2197958E+04  0.7818608E-02  0.8519279E-01
          1   -1    0    0  501    0  0.00000000000E+00  0.00000000000E+00  0.11445811055E+04  0.11445811055E+04  0.00000000000E+00 0. -1.
         -1   -1    0    0    0  501 -0.00000000000E+00 -0.00000000000E+00 -0.10551934653E+04  0.10551934653E+04  0.00000000000E+00 0.  1.
         23    2    1    2    0    0 -0.24478325341E+03 -0.58735337078E+03  0.68747376620E+03  0.94102724918E+03  0.89494587278E+02 0.  0.
        254    2    1    2    0    0  0.24478325341E+03  0.58735337078E+03 -0.59808612599E+03  0.12587473217E+04  0.90655114717E+03 0.  0.
        -24    2    4    4    0    0 -0.45480634175E+02 -0.21349885964E+03 -0.35234089330E+02  0.23463568800E+03  0.78499769936E+02 0.  0.
         24    2    4    4    0    0  0.29026388759E+03  0.80085223043E+03 -0.56285203666E+03  0.10241116337E+04  0.79904966402E+02 0.  0.
         13    1    3    3    0    0 -0.21065545626E+03 -0.51265935402E+03  0.54959102230E+03  0.78054187992E+03  0.00000000000E+00 0. -1.
        -13    1    3    3    0    0 -0.34127797156E+02 -0.74694016761E+02  0.13788274390E+03  0.16048536926E+03  0.00000000000E+00 0.  1.
          2    1    6    6  502    0  0.14183617247E+03  0.45963936614E+03 -0.27876577677E+03  0.55596421200E+03  0.00000000000E+00 0. -1.
          3    1    5    5  503    0 -0.31619865043E+02 -0.70623005901E+02 -0.47122262413E+02  0.90597640382E+02  0.00000000000E+00 0. -1.
         -4    1    5    5    0  503 -0.13860769132E+02 -0.14287585374E+03  0.11888173082E+02  0.14403804762E+03  0.00000000000E+00 0.  1.
         -1    1    6    6    0  502  0.14842771512E+03  0.34121286428E+03 -0.28408625989E+03  0.46814742168E+03  0.00000000000E+00 0.  1.
<mgrwt>
<rscale>  0 0.21979577E+04</rscale>
<asrwt>0</asrwt>
<pdfrwt beam="1">  1        1 0.17608940E+00 0.21979577E+04</pdfrwt>
<pdfrwt beam="2">  1       -1 0.16233746E+00 0.21979577E+04</pdfrwt>
<totfact> 0.30042815E+00</totfact>
</mgrwt>
</event>
<event>
12    1  0.1477245E-007  0.1582285E+04  0.7818608E-02  0.8831506E-01
          2   -1    0    0  501    0  0.00000000000E+00  0.00000000000E+00  0.33319313912E+04  0.33319313912E+04  0.00000000000E+00 0. -1.
         -2   -1    0    0    0  501 -0.00000000000E+00 -0.00000000000E+00 -0.18785094035E+03  0.18785094035E+03  0.00000000000E+00 0.  1.
         23    2    1    2    0    0 -0.26371017670E+03 -0.34615935216E+03  0.39360222480E+03  0.59388953912E+03  0.91720875111E+02 0.  0.
        254    2    1    2    0    0  0.26371017670E+03  0.34615935216E+03  0.27504782261E+04  0.29258927924E+04  0.89796926809E+03 0.  0.
        -24    2    4    4    0    0  0.18888794690E+03 -0.28220004845E+03  0.76999362773E+03  0.84523676813E+03  0.78863702760E+02 0.  0.
         24    2    4    4    0    0  0.74822229792E+02  0.62835940061E+03  0.19804845983E+04  0.20806560243E+04  0.79852018719E+02 0.  0.
         13    1    3    3    0    0 -0.25977624730E+03 -0.33465295945E+03  0.39768805506E+03  0.58106117670E+03  0.00000000000E+00 0.  1.
        -13    1    3    3    0    0 -0.39339293990E+01 -0.11506392709E+02 -0.40858302556E+01  0.12828362427E+02  0.00000000000E+00 0. -1.
          4    1    6    6  502    0  0.61278856389E+02  0.53726593368E+03  0.17735248897E+04  0.18541306092E+04  0.00000000000E+00 0. -1.
          1    1    5    5  503    0  0.15278951774E+03 -0.17424631902E+03  0.56651497790E+03  0.61208303082E+03  0.00000000000E+00 0. -1.
         -2    1    5    5    0  503  0.36098429161E+02 -0.10795372943E+03  0.20347864983E+03  0.23315373731E+03  0.00000000000E+00 0.  1.
         -3    1    6    6    0  502  0.13543373402E+02  0.91093466927E+02  0.20695970868E+03  0.22652541513E+03  0.00000000000E+00 0.  1.
<mgrwt>
<rscale>  0 0.15822850E+04</rscale>
<asrwt>0</asrwt>
<pdfrwt beam="1">  1        2 0.51260479E+00 0.15822850E+04</pdfrwt>
<pdfrwt beam="2">  1       -2 0.28900147E-01 0.15822850E+04</pdfrwt>
<totfact> 0.11304700E+01</totfact>
</mgrwt>
</event>
<event>
12    1  0.1477245E-007  0.1394142E+04  0.7818608E-02  0.8958070E-01
         -2   -1    0    0    0  501 -0.00000000000E+00  0.00000000000E+00  0.21545849491E+03  0.21545849491E+03  0.00000000000E+00 0.  1.
          2   -1    0    0  501    0  0.00000000000E+00 -0.00000000000E+00 -0.22552280302E+04  0.22552280302E+04  0.00000000000E+00 0. -1.
         23    2    1    2    0    0  0.22114259276E+03 -0.40304299585E+03 -0.48330802074E+03  0.67328839480E+03  0.91558270107E+02 0.  0.
        254    2    1    2    0    0 -0.22114259276E+03  0.40304299585E+03 -0.15564615146E+04  0.17973981303E+04  0.77247646550E+03 0.  0.
        -24    2    4    4    0    0 -0.22237221069E+03 -0.42850938689E+02 -0.11919145972E+04  0.12158618453E+04  0.79837440168E+02 0.  0.
         24    2    4    4    0    0  0.12296179308E+01  0.44589393454E+03 -0.36454691742E+03  0.58153628506E+03  0.80418175939E+02 0.  0.
         11    1    3    3    0    0  0.11563428807E+02 -0.33030709818E+02 -0.87423650442E+01  0.36071728866E+02  0.00000000000E+00 0. -1.
        -11    1    3    3    0    0  0.20957916395E+03 -0.37001228603E+03 -0.47456565570E+03  0.63721666594E+03  0.00000000000E+00 0.  1.
          4    1    6    6  502    0  0.26286951218E+02  0.10235944006E+03 -0.11505524661E+03  0.15622473731E+03  0.00000000000E+00 0. -1.
          1    1    5    5  503    0 -0.12123192972E+02 -0.26561788179E+02 -0.13723137712E+03  0.14030306934E+03  0.00000000000E+00 0. -1.
         -2    1    5    5    0  503 -0.21024901772E+03 -0.16289150510E+02 -0.10546832200E+04  0.10755587760E+04  0.00000000000E+00 0.  1.
         -3    1    6    6    0  502 -0.25057333287E+02  0.34353449448E+03 -0.24949167081E+03  0.42531154775E+03  0.00000000000E+00 0.  1.
<mgrwt>
<rscale>  0 0.13941421E+04</rscale>
<asrwt>0</asrwt>
<pdfrwt beam="1">  1        2 0.34695816E+00 0.13941421E+04</pdfrwt>
<pdfrwt beam="2">  1       -2 0.33147461E-01 0.13941421E+04</pdfrwt>
<totfact> 0.39846159E+01</totfact>
</mgrwt>
</event>
<event>
12    1  0.1477245E-007  0.1093431E+04  0.7818608E-02  0.9211618E-01
          1   -1    0    0  501    0  0.00000000000E+00  0.00000000000E+00  0.73324894010E+03  0.73324894010E+03  0.00000000000E+00 0. -1.
         -1   -1    0    0    0  501 -0.00000000000E+00 -0.00000000000E+00 -0.40763481366E+03  0.40763481366E+03  0.00000000000E+00 0.  1.
         23    2    1    2    0    0  0.34180805779E+02 -0.10360664308E+02  0.20214365667E+03  0.22474514340E+03  0.91502189584E+02 0.  0.
        254    2    1    2    0    0 -0.34180805779E+02  0.10360664308E+02  0.12347046977E+03  0.91613861036E+03  0.90707735373E+03 0.  0.
        -24    2    4    4    0    0  0.32406135781E+03 -0.16714833906E+03 -0.17430707118E+03  0.41180935662E+03  0.79054792779E+02 0.  0.
         24    2    4    4    0    0 -0.35824216359E+03  0.17750900336E+03  0.29777754095E+03  0.50432925375E+03  0.76352067693E+02 0.  0.
         13    1    3    3    0    0  0.59824544410E+02 -0.12527530057E+02  0.18222331521E+03  0.19220107109E+03  0.00000000000E+00 0. -1.
        -13    1    3    3    0    0 -0.25643738631E+02  0.21668657486E+01  0.19920341465E+02  0.32544072305E+02  0.00000000000E+00 0.  1.
          2    1    6    6  502    0 -0.58065247552E+02  0.10840651641E+02  0.18964164895E+02  0.62038151580E+02  0.00000000000E+00 0. -1.
          3    1    5    5  503    0  0.21552039042E+02 -0.38875122237E+02 -0.18223304237E+02  0.48040132526E+02  0.00000000000E+00 0. -1.
         -4    1    5    5    0  503  0.30250931877E+03 -0.12827321682E+03 -0.15608376695E+03  0.36376922409E+03  0.00000000000E+00 0.  1.
         -1    1    6    6    0  502 -0.30017691603E+03  0.16666835172E+03  0.27881337606E+03  0.44229110216E+03  0.00000000000E+00 0.  1.
<mgrwt>
<rscale>  0 0.10934309E+04</rscale>
<asrwt>0</asrwt>
<pdfrwt beam="1">  1        1 0.11280753E+00 0.10934309E+04</pdfrwt>
<pdfrwt beam="2">  1       -1 0.62713048E-01 0.10934309E+04</pdfrwt>
<totfact> 0.65235601E+01</totfact>
</mgrwt>
</event>
<event>
12    1  0.1477245E-007  0.1734117E+04  0.7818608E-02  0.8742142E-01
         -1   -1    0    0    0  501 -0.00000000000E+00  0.00000000000E+00  0.38920531734E+03  0.38920531734E+03  0.00000000000E+00 0.  1.
          1   -1    0    0  501    0  0.00000000000E+00 -0.00000000000E+00 -0.19316032917E+04  0.19316032917E+04  0.00000000000E+00 0. -1.
         23    2    1    2    0    0 -0.17162459769E+03  0.60703459344E+03 -0.63497164979E+03  0.89960894621E+03  0.90339691737E+02 0.  0.
        254    2    1    2    0    0  0.17162459769E+03 -0.60703459344E+03 -0.90742632459E+03  0.14211996628E+04  0.89355466924E+03 0.  0.
        -24    2    4    4    0    0  0.43645859080E+02  0.21656447323E+03 -0.32364934363E+03  0.40057828929E+03  0.83120010464E+02 0.  0.
         24    2    4    4    0    0  0.12797873861E+03 -0.82359906667E+03 -0.58377698096E+03  0.10206213735E+04  0.78603081865E+02 0.  0.
         11    1    3    3    0    0 -0.12892137858E+03  0.34285145250E+03 -0.32078777760E+03  0.48690105627E+03  0.00000000000E+00 0.  1.
        -11    1    3    3    0    0 -0.42703219117E+02  0.26418314093E+03 -0.31418387219E+03  0.41270788994E+03  0.00000000000E+00 0. -1.
          4    1    6    6  502    0 -0.93674056481E+01 -0.77304130244E+02 -0.64692845732E+02  0.10123656024E+03  0.00000000000E+00 0. -1.
          1    1    5    5  503    0 -0.98299010151E+01 -0.26155736380E+01 -0.18102768474E+02  0.20764835801E+02  0.00000000000E+00 0. -1.
         -2    1    5    5    0  503  0.53475760095E+02  0.21918004687E+03 -0.30554657515E+03  0.37981345349E+03  0.00000000000E+00 0.  1.
         -3    1    6    6    0  502  0.13734614426E+03 -0.74629493643E+03 -0.51908413523E+03  0.91938481330E+03  0.00000000000E+00 0.  1.
<mgrwt>
<rscale>  0 0.17341168E+04</rscale>
<asrwt>0</asrwt>
<pdfrwt beam="1">  1        1 0.29716973E+00 0.17341168E+04</pdfrwt>
<pdfrwt beam="2">  1       -1 0.59877742E-01 0.17341168E+04</pdfrwt>
<totfact> 0.88998156E+00</totfact>
</mgrwt>
</event>
<event>
12    1  0.1477245E-007  0.1458288E+04  0.7818608E-02  0.8912675E-01
          2   -1    0    0  501    0  0.00000000000E+00  0.00000000000E+00  0.29634728171E+04  0.29634728171E+04  0.00000000000E+00 0. -1.
         -2   -1    0    0    0  501 -0.00000000000E+00 -0.00000000000E+00 -0.17940136922E+03  0.17940136922E+03  0.00000000000E+00 0.  1.
         23    2    1    2    0    0  0.36025937591E+03  0.24615430538E+03  0.57134005412E+03  0.72473980749E+03  0.91867138452E+02 0.  0.
        254    2    1    2    0    0 -0.36025937591E+03 -0.24615430538E+03  0.22127313938E+04  0.24181343789E+04  0.87224703678E+03 0.  0.
        -24    2    4    4    0    0 -0.40722635746E+03 -0.35576891734E+03  0.22076545199E+04  0.22743592748E+04  0.81035812787E+02 0.  0.
         24    2    4    4    0    0  0.46966981542E+02  0.10961461196E+03  0.50768739163E+01  0.14377510407E+03  0.80151390454E+02 0.  0.
         11    1    3    3    0    0  0.21699057687E+03  0.17783933041E+03  0.42237404857E+03  0.50706170709E+03  0.00000000000E+00 0.  1.
        -11    1    3    3    0    0  0.14326879904E+03  0.68314974968E+02  0.14896600556E+03  0.21767810040E+03  0.00000000000E+00 0. -1.
          4    1    6    6  502    0  0.35965067061E+02  0.94161081686E+02 -0.28903708841E+02  0.10485809333E+03  0.00000000000E+00 0. -1.
          3    1    5    5  503    0 -0.24614937542E+03 -0.26559155364E+03  0.14455817798E+04  0.14902466476E+04  0.00000000000E+00 0. -1.
         -4    1    5    5    0  503 -0.16107698204E+03 -0.90177363698E+02  0.76207274003E+03  0.78411262721E+03  0.00000000000E+00 0.  1.
         -3    1    6    6    0  502  0.11001914482E+02  0.15453530272E+02  0.33980582757E+02  0.38917010736E+02  0.00000000000E+00 0.  1.
<mgrwt>
<rscale>  0 0.14582881E+04</rscale>
<asrwt>0</asrwt>
<pdfrwt beam="1">  1        2 0.45591886E+00 0.14582881E+04</pdfrwt>
<pdfrwt beam="2">  1       -2 0.27600213E-01 0.14582881E+04</pdfrwt>
<totfact> 0.21453979E+01</totfact>
</mgrwt>
</event>
<event>
12    1  0.1477245E-007  0.1718096E+04  0.7818608E-02  0.8751110E-01
          2   -1    0    0  501    0  0.00000000000E+00  0.00000000000E+00  0.80722276466E+03  0.80722276466E+03  0.00000000000E+00 0. -1.
         -2   -1    0    0    0  501 -0.00000000000E+00 -0.00000000000E+00 -0.91420082841E+03  0.91420082841E+03  0.00000000000E+00 0.  1.
         23    2    1    2    0    0 -0.27443460988E+02  0.28188552038E+03  0.51528372018E+03  0.59524237504E+03  0.92647626019E+02 0.  0.
        254    2    1    2    0    0  0.27443460988E+02 -0.28188552038E+03 -0.62226178393E+03  0.11261812180E+04  0.89490883220E+03 0.  0.
        -24    2    4    4    0    0  0.34552209755E+03 -0.29555964800E+03 -0.65006548778E+03  0.79695826447E+03  0.76264746090E+02 0.  0.
         24    2    4    4    0    0 -0.31807863656E+03  0.13674127623E+02  0.27803703843E+02  0.32922295356E+03  0.79080379378E+02 0.  0.
         11    1    3    3    0    0 -0.21932264407E+02  0.21733535933E+03  0.46317893831E+03  0.51210390697E+03  0.00000000000E+00 0. -1.
        -11    1    3    3    0    0 -0.55111965808E+01  0.64550161051E+02  0.52104781871E+02  0.83138468071E+02  0.00000000000E+00 0.  1.
          4    1    6    6  502    0 -0.25967982097E+03 -0.19491808738E+02  0.29249714305E+02  0.26204786931E+03  0.00000000000E+00 0. -1.
          3    1    5    5  503    0  0.10578557827E+03 -0.49619657442E+02 -0.14585741359E+03  0.18688789172E+03  0.00000000000E+00 0. -1.
         -4    1    5    5    0  503  0.23973651928E+03 -0.24593999056E+03 -0.50420807419E+03  0.61007037275E+03  0.00000000000E+00 0.  1.
         -3    1    6    6    0  502 -0.58398815589E+02  0.33165936361E+02 -0.14460104622E+01  0.67175084244E+02  0.00000000000E+00 0.  1.
<mgrwt>
<rscale>  0 0.17180963E+04</rscale>
<asrwt>0</asrwt>
<pdfrwt beam="1">  1        2 0.12418812E+00 0.17180963E+04</pdfrwt>
<pdfrwt beam="2">  1       -2 0.14064628E+00 0.17180963E+04</pdfrwt>
<totfact> 0.11473511E+01</totfact>
</mgrwt>
</event>
<event>
12    1  0.1477245E-007  0.1033621E+04  0.7818608E-02  0.9272420E-01
         -2   -1    0    0    0  501 -0.00000000000E+00  0.00000000000E+00  0.12832185956E+03  0.12832185956E+03  0.00000000000E+00 0.  1.
          2   -1    0    0  501    0  0.00000000000E+00 -0.00000000000E+00 -0.20814310578E+04  0.20814310578E+04  0.00000000000E+00 0. -1.
         23    2    1    2    0    0  0.46357356816E+02  0.53191382048E+02 -0.36798655429E+03  0.38483633577E+03  0.87787092084E+02 0.  0.
        254    2    1    2    0    0 -0.46357356816E+02 -0.53191382048E+02 -0.15851226440E+04  0.18249165816E+04  0.90151450666E+03 0.  0.
        -24    2    4    4    0    0 -0.40639777127E+03 -0.19583260107E+03 -0.11458344987E+04  0.12338734896E+04  0.77443745944E+02 0.  0.
         24    2    4    4    0    0  0.36004041445E+03  0.14264121902E+03 -0.43928814524E+03  0.59104309197E+03  0.79888951813E+02 0.  0.
         11    1    3    3    0    0  0.25703032247E+02  0.65714550703E+02 -0.34261460505E+03  0.34980539681E+03  0.00000000000E+00 0. -1.
        -11    1    3    3    0    0  0.20654324569E+02 -0.12523168654E+02 -0.25371949238E+02  0.35030938964E+02  0.00000000000E+00 0.  1.
          4    1    6    6  502    0  0.76231931105E+02 -0.89770251025E+00 -0.10347490283E+03  0.12852691822E+03  0.00000000000E+00 0. -1.
          1    1    5    5  503    0 -0.19391690717E+02 -0.31836003041E+02 -0.85774208281E+02  0.93524240519E+02  0.00000000000E+00 0. -1.
         -2    1    5    5    0  503 -0.38700608055E+03 -0.16399659802E+03 -0.10600602904E+04  0.11403492491E+04  0.00000000000E+00 0.  1.
         -3    1    6    6    0  502  0.28380848335E+03  0.14353892153E+03 -0.33581324241E+03  0.46251617376E+03  0.00000000000E+00 0.  1.
<mgrwt>
<rscale>  0 0.10336210E+04</rscale>
<asrwt>0</asrwt>
<pdfrwt beam="1">  1        2 0.32022013E+00 0.10336210E+04</pdfrwt>
<pdfrwt beam="2">  1       -2 0.19741827E-01 0.10336210E+04</pdfrwt>
<totfact> 0.13169711E+02</totfact>
</mgrwt>
</event>
<event>
12    1  0.1477245E-007  0.2003759E+04  0.7818608E-02  0.8604865E-01
          2   -1    0    0  501    0  0.00000000000E+00  0.00000000000E+00  0.73096514958E+03  0.73096514958E+03  0.00000000000E+00 0.  1.
         -2   -1    0    0    0  501 -0.00000000000E+00 -0.00000000000E+00 -0.13732013658E+04  0.13732013658E+04  0.00000000000E+00 0. -1.
         23    2    1    2    0    0  0.48235363651E+03 -0.21011706085E+03 -0.88351364400E+03  0.10323120939E+04  0.90871833503E+02 0.  0.
        254    2    1    2    0    0 -0.48235363651E+03  0.21011706085E+03  0.24127742777E+03  0.10718544215E+04  0.90213241481E+03 0.  0.
        -24    2    4    4    0    0 -0.37673641329E+03 -0.69324988137E+02 -0.26899334287E+03  0.47481121627E+03  0.79699394651E+02 0.  0.
         24    2    4    4    0    0 -0.10561722322E+03  0.27944204898E+03  0.51027077064E+03  0.59704320524E+03  0.82713197118E+02 0.  0.
         13    1    3    3    0    0  0.31154381192E+03 -0.11384134528E+03 -0.62825884940E+03  0.71044252441E+03  0.00000000000E+00 0. -1.
        -13    1    3    3    0    0  0.17080982459E+03 -0.96275715570E+02 -0.25525479460E+03  0.32186956947E+03  0.00000000000E+00 0.  1.
          4    1    6    6  502    0 -0.10683329985E+03  0.17507236515E+03  0.35398674029E+03  0.40910915328E+03  0.00000000000E+00 0. -1.
          1    1    5    5  503    0 -0.11984568414E+03 -0.47875434668E+02 -0.12437130116E+03  0.17922964544E+03  0.00000000000E+00 0. -1.
         -2    1    5    5    0  503 -0.25689072915E+03 -0.21449553469E+02 -0.14462204171E+03  0.29558157083E+03  0.00000000000E+00 0.  1.
         -3    1    6    6    0  502  0.12160766214E+01  0.10436968383E+03  0.15628403034E+03  0.18793405196E+03  0.00000000000E+00 0.  1.
<mgrwt>
<rscale>  0 0.20037588E+04</rscale>
<asrwt>0</asrwt>
<pdfrwt beam="1">  1        2 0.11245618E+00 0.20037588E+04</pdfrwt>
<pdfrwt beam="2">  1       -2 0.21126175E+00 0.20037588E+04</pdfrwt>
<totfact> 0.40444262E+00</totfact>
</mgrwt>
</event>
<event>
12    1  0.1477245E-007  0.1064480E+04  0.7818608E-02  0.9240520E-01
          2   -1    0    0  501    0  0.00000000000E+00  0.00000000000E+00  0.73907738399E+03  0.73907738399E+03  0.00000000000E+00 0. -1.
         -2   -1    0    0    0  501 -0.00000000000E+00 -0.00000000000E+00 -0.38328807084E+03  0.38328807084E+03  0.00000000000E+00 0.  1.
         23    2    1    2    0    0  0.88804471039E+02 -0.65131268711E+02 -0.32046751299E+02  0.14667252695E+03  0.91419470863E+02 0.  0.
        254    2    1    2    0    0 -0.88804471039E+02  0.65131268711E+02  0.38783606445E+03  0.97569292788E+03  0.88849961192E+03 0.  0.
        -24    2    4    4    0    0 -0.17415391842E+03 -0.27174341021E+03  0.50233378225E+03  0.60218860910E+03  0.78216518981E+02 0.  0.
         24    2    4    4    0    0  0.85349447386E+02  0.33687467892E+03 -0.11449771780E+03  0.37350431878E+03  0.75011141150E+02 0.  0.
         11    1    3    3    0    0  0.56843251638E+02 -0.70880356721E+02 -0.55632419084E+02  0.10653706528E+03  0.00000000000E+00 0.  1.
        -11    1    3    3    0    0  0.31961219401E+02  0.57490880105E+01  0.23585667785E+02  0.40135461669E+02  0.00000000000E+00 0. -1.
          4    1    6    6  502    0  0.78117635532E+01  0.15728029720E+03 -0.72820641501E+02  0.17349628631E+03  0.00000000000E+00 0. -1.
          3    1    5    5  503    0 -0.18109781885E+03 -0.26814992682E+03  0.49555337850E+03  0.59183946657E+03  0.00000000000E+00 0. -1.
         -4    1    5    5    0  503  0.69439004285E+01 -0.35934833922E+01  0.67804037481E+01  0.10349142527E+02  0.00000000000E+00 0.  1.
         -3    1    6    6    0  502  0.77537683832E+02  0.17959438173E+03 -0.41677076300E+02  0.20000803247E+03  0.00000000000E+00 0.  1.
<mgrwt>
<rscale>  0 0.10644802E+04</rscale>
<asrwt>0</asrwt>
<pdfrwt beam="1">  1        2 0.11370421E+00 0.10644802E+04</pdfrwt>
<pdfrwt beam="2">  1       -2 0.58967396E-01 0.10644802E+04</pdfrwt>
<totfact> 0.10220463E+02</totfact>
</mgrwt>
</event>
<event>
12    1  0.1477245E-007  0.1707090E+04  0.7818608E-02  0.8757331E-01
          2   -1    0    0  501    0  0.00000000000E+00  0.00000000000E+00  0.13600325344E+04  0.13600325344E+04  0.00000000000E+00 0.  1.
         -2   -1    0    0    0  501 -0.00000000000E+00 -0.00000000000E+00 -0.53567776683E+03  0.53567776683E+03  0.00000000000E+00 0. -1.
         23    2    1    2    0    0  0.22167344075E+03  0.56043439133E+03  0.14585741529E+03  0.62693691107E+03  0.92464498820E+02 0.  0.
        254    2    1    2    0    0 -0.22167344075E+03 -0.56043439133E+03  0.67849735224E+03  0.12687733901E+04  0.88668000834E+03 0.  0.
        -24    2    4    4    0    0 -0.50941806609E+03 -0.26611440424E+03  0.15969501743E+03  0.60187900343E+03  0.80200959916E+02 0.  0.
         24    2    4    4    0    0  0.28774462534E+03 -0.29431998709E+03  0.51880233481E+03  0.66689438670E+03  0.78555943165E+02 0.  0.
         11    1    3    3    0    0  0.84753737289E+02  0.18556422401E+03  0.93554338167E+02  0.22443193046E+03  0.00000000000E+00 0.  1.
        -11    1    3    3    0    0  0.13691970347E+03  0.37487016732E+03  0.52303077128E+02  0.40250498061E+03  0.00000000000E+00 0. -1.
          4    1    6    6  502    0  0.22930763114E+03 -0.27289596013E+03  0.43166855097E+03  0.55981419476E+03  0.00000000000E+00 0. -1.
          1    1    5    5  503    0 -0.47392682493E+03 -0.22263229477E+03  0.13624420390E+03  0.54104921879E+03  0.00000000000E+00 0. -1.
         -2    1    5    5    0  503 -0.35491241161E+02 -0.43482109471E+02  0.23450813536E+02  0.60829784635E+02  0.00000000000E+00 0.  1.
         -3    1    6    6    0  502  0.58436994198E+02 -0.21424026959E+02  0.87133783834E+02  0.10708019195E+03  0.00000000000E+00 0.  1.
<mgrwt>
<rscale>  0 0.17070901E+04</rscale>
<asrwt>0</asrwt>
<pdfrwt beam="1">  1        2 0.20923577E+00 0.17070901E+04</pdfrwt>
<pdfrwt beam="2">  1       -2 0.82411965E-01 0.17070901E+04</pdfrwt>
<totfact> 0.18756514E+01</totfact>
</mgrwt>
</event>
<event>
12    1  0.1477245E-007  0.1550292E+04  0.7818608E-02  0.8851681E-01
         -2   -1    0    0    0  501 -0.00000000000E+00  0.00000000000E+00  0.29160428144E+03  0.29160428144E+03  0.00000000000E+00 0.  1.
          2   -1    0    0  501    0  0.00000000000E+00 -0.00000000000E+00 -0.20605036911E+04  0.20605036911E+04  0.00000000000E+00 0. -1.
         23    2    1    2    0    0  0.35083918580E+03  0.16437274537E+03 -0.13355423261E+04  0.13937226471E+04  0.93182501358E+02 0.  0.
        254    2    1    2    0    0 -0.35083918580E+03 -0.16437274537E+03 -0.43335708356E+03  0.95838532542E+03  0.76196951146E+03 0.  0.
        -24    2    4    4    0    0 -0.38140889214E+03  0.12794620646E+03  0.21015376749E+02  0.41088627998E+03  0.80888282627E+02 0.  0.
         24    2    4    4    0    0  0.30569706338E+02 -0.29231895183E+03 -0.45437246031E+03  0.54749904544E+03  0.83162464677E+02 0.  0.
         11    1    3    3    0    0  0.66499530751E+02  0.75317035623E+02 -0.34657782376E+03  0.36084765673E+03  0.00000000000E+00 0.  1.
        -11    1    3    3    0    0  0.28433965505E+03  0.89055709751E+02 -0.98896450236E+03  0.10328749904E+04  0.00000000000E+00 0. -1.
          4    1    6    6  502    0  0.28601354839E+02 -0.22608702443E+03 -0.28035093383E+03  0.36128939400E+03  0.00000000000E+00 0. -1.
          3    1    5    5  503    0 -0.11523412996E+03  0.74934670752E+02 -0.94450005585E+01  0.13777996089E+03  0.00000000000E+00 0. -1.
         -4    1    5    5    0  503 -0.26617476218E+03  0.53011535704E+02  0.30460377308E+02  0.27310631909E+03  0.00000000000E+00 0.  1.
         -3    1    6    6    0  502  0.19683514993E+01 -0.66231927396E+02 -0.17402152647E+03  0.18620965144E+03  0.00000000000E+00 0.  1.
<mgrwt>
<rscale>  0 0.15502925E+04</rscale>
<asrwt>0</asrwt>
<pdfrwt beam="1">  1        2 0.31700055E+00 0.15502925E+04</pdfrwt>
<pdfrwt beam="2">  1       -2 0.44862199E-01 0.15502925E+04</pdfrwt>
<totfact> 0.28051928E+01</totfact>
</mgrwt>
</event>
<event>
12    1  0.1477245E-007  0.1666469E+04  0.7818608E-02  0.8780723E-01
         -1   -1    0    0    0  501 -0.00000000000E+00  0.00000000000E+00  0.99456111767E+03  0.99456111767E+03  0.00000000000E+00 0.  1.
          1   -1    0    0  501    0  0.00000000000E+00 -0.00000000000E+00 -0.69807632042E+03  0.69807632042E+03  0.00000000000E+00 0. -1.
         23    2    1    2    0    0 -0.46182601202E+03  0.34421087633E+03  0.22859954742E+03  0.62624528091E+03  0.90338286630E+02 0.  0.
        254    2    1    2    0    0  0.46182601202E+03 -0.34421087633E+03  0.67885249829E+02  0.10663921572E+04  0.89488515072E+03 0.  0.
        -24    2    4    4    0    0  0.71559575682E+03 -0.20839925392E+03  0.13086552480E+03  0.76092177248E+03  0.79803646754E+02 0.  0.
         24    2    4    4    0    0 -0.25376974481E+03 -0.13581162241E+03 -0.62980274971E+02  0.30547038469E+03  0.80633496324E+02 0.  0.
         13    1    3    3    0    0 -0.13115925268E+03  0.13300978331E+03  0.40559881310E+02  0.19115296490E+03  0.00000000000E+00 0.  1.
        -13    1    3    3    0    0 -0.33066675934E+03  0.21120109302E+03  0.18803966611E+03  0.43509231602E+03  0.00000000000E+00 0. -1.
          4    1    6    6  502    0 -0.94004297721E+02 -0.93518381691E+02 -0.40712682280E+02  0.13870839269E+03  0.00000000000E+00 0. -1.
          1    1    5    5  503    0  0.75722204489E+02  0.23675073834E+01  0.17567212626E+02  0.77769301806E+02  0.00000000000E+00 0. -1.
         -2    1    5    5    0  503  0.63987355233E+03 -0.21076676130E+03  0.11329831217E+03  0.68315247068E+03  0.00000000000E+00 0.  1.
         -3    1    6    6    0  502 -0.15976544709E+03 -0.42293240715E+02 -0.22267592691E+02  0.16676199200E+03  0.00000000000E+00 0.  1.
<mgrwt>
<rscale>  0 0.16664688E+04</rscale>
<asrwt>0</asrwt>
<pdfrwt beam="1">  1        1 0.10739636E+00 0.16664688E+04</pdfrwt>
<pdfrwt beam="2">  1       -1 0.15300940E+00 0.16664688E+04</pdfrwt>
<totfact> 0.86316714E+00</totfact>
</mgrwt>
</event>
<event>
12    1  0.1477245E-007  0.1565866E+04  0.7818608E-02  0.8841797E-01
          2   -1    0    0  501    0  0.00000000000E+00  0.00000000000E+00  0.16640275683E+04  0.16640275683E+04  0.00000000000E+00 0. -1.
         -2   -1    0    0    0  501 -0.00000000000E+00 -0.00000000000E+00 -0.36837352141E+03  0.36837352141E+03  0.00000000000E+00 0.  1.
         23    2    1    2    0    0 -0.49638381085E+01 -0.51550876420E+03  0.35188582633E+03  0.63088533403E+03  0.91753715283E+02 0.  0.
        254    2    1    2    0    0  0.49638381085E+01  0.51550876420E+03  0.94376822061E+03  0.14015157557E+04  0.89876250125E+03 0.  0.
        -24    2    4    4    0    0 -0.34880723389E+03  0.17288299930E+03  0.81969170433E+02  0.40568407127E+03  0.79407826613E+02 0.  0.
         24    2    4    4    0    0  0.35377107200E+03  0.34262576491E+03  0.86179905018E+03  0.99583168445E+03  0.80229388094E+02 0.  0.
         11    1    3    3    0    0  0.25929744248E+02 -0.35690414289E+03  0.20437437283E+03  0.41209441045E+03  0.00000000000E+00 0.  1.
        -11    1    3    3    0    0 -0.30893582356E+02 -0.15860462131E+03  0.14751145349E+03  0.21879092359E+03  0.00000000000E+00 0. -1.
          4    1    6    6  502    0  0.31511258558E+03  0.32494123170E+03  0.81742532676E+03  0.93438049556E+03  0.00000000000E+00 0. -1.
          3    1    5    5  503    0 -0.24308401739E+03  0.12854038819E+03  0.20856413162E+02  0.27576704095E+03  0.00000000000E+00 0. -1.
         -4    1    5    5    0  503 -0.10572321650E+03  0.44342611102E+02  0.61112757271E+02  0.12991703032E+03  0.00000000000E+00 0.  1.
         -3    1    6    6    0  502  0.38658486415E+02  0.17684533211E+02  0.44373723414E+02  0.61451188894E+02  0.00000000000E+00 0.  1.
<mgrwt>
<rscale>  0 0.15658655E+04</rscale>
<asrwt>0</asrwt>
<pdfrwt beam="1">  1        2 0.25600424E+00 0.15658655E+04</pdfrwt>
<pdfrwt beam="2">  1       -2 0.56672851E-01 0.15658655E+04</pdfrwt>
<totfact> 0.28832384E+01</totfact>
</mgrwt>
</event>
<event>
12    1  0.1477245E-007  0.1159943E+04  0.7818608E-02  0.9148659E-01
          1   -1    0    0  501    0  0.00000000000E+00  0.00000000000E+00  0.39705808868E+03  0.39705808868E+03  0.00000000000E+00 0. -1.
         -1   -1    0    0    0  501 -0.00000000000E+00 -0.00000000000E+00 -0.84714828570E+03  0.84714828570E+03  0.00000000000E+00 0.  1.
         23    2    1    2    0    0  0.17044052250E+03 -0.13255909149E+03 -0.71433084447E+02  0.25275004140E+03  0.11026338208E+03 0.  0.
        254    2    1    2    0    0 -0.17044052250E+03  0.13255909149E+03 -0.37865711257E+03  0.99145633298E+03  0.89049568604E+03 0.  0.
        -24    2    4    4    0    0 -0.48516646869E+02 -0.11151781288E+03 -0.60855396259E+03  0.62578644861E+03  0.80502585483E+02 0.  0.
         24    2    4    4    0    0 -0.12192387563E+03  0.24407690437E+03  0.22989685002E+03  0.36566988437E+03  0.80143221745E+02 0.  0.
         11    1    3    3    0    0  0.74316408331E+02 -0.78088220388E+02  0.19632265447E+02  0.10957246259E+03  0.00000000000E+00 0. -1.
        -11    1    3    3    0    0  0.96124114173E+02 -0.54470871101E+02 -0.91065349894E+02  0.14317757882E+03  0.00000000000E+00 0.  1.
          4    1    6    6  502    0 -0.21152915615E+02  0.77304140670E+02  0.11268295090E+03  0.13827806561E+03  0.00000000000E+00 0. -1.
          3    1    5    5  503    0 -0.38313814729E+02 -0.54346764972E+02 -0.48173913282E+03  0.48630660221E+03  0.00000000000E+00 0. -1.
         -4    1    5    5    0  503 -0.10202832140E+02 -0.57171047911E+02 -0.12681482976E+03  0.13947984639E+03  0.00000000000E+00 0.  1.
         -3    1    6    6    0  502 -0.10077096002E+03  0.16677276370E+03  0.11721389911E+03  0.22739181877E+03  0.00000000000E+00 0.  1.
<mgrwt>
<rscale>  0 0.11599432E+04</rscale>
<asrwt>0</asrwt>
<pdfrwt beam="1">  1        1 0.61085860E-01 0.11599432E+04</pdfrwt>
<pdfrwt beam="2">  1       -1 0.13033050E+00 0.11599432E+04</pdfrwt>
<totfact> 0.30310277E+01</totfact>
</mgrwt>
</event>
<event>
12    1  0.1477245E-007  0.1341127E+04  0.7818608E-02  0.8997572E-01
          2   -1    0    0  501    0  0.00000000000E+00  0.00000000000E+00  0.23589062630E+04  0.23589062630E+04  0.00000000000E+00 0. -1.
         -2   -1    0    0    0  501 -0.00000000000E+00 -0.00000000000E+00 -0.19062020830E+03  0.19062020830E+03  0.00000000000E+00 0.  1.
         23    2    1    2    0    0  0.21149120770E+02  0.13275869439E+03  0.11552672914E+04  0.11663170295E+04  0.87067458835E+02 0.  0.
        254    2    1    2    0    0 -0.21149120770E+02 -0.13275869439E+03  0.10130187633E+04  0.13832094418E+04  0.93219589624E+03 0.  0.
        -24    2    4    4    0    0 -0.24354656605E+03  0.13783099016E+03 -0.17981329377E+02  0.29144779292E+03  0.79411435641E+02 0.  0.
         24    2    4    4    0    0  0.22239744528E+03 -0.27058968455E+03  0.10310000927E+04  0.10917616489E+04  0.79390842733E+02 0.  0.
         11    1    3    3    0    0 -0.17583006513E+02  0.15523943482E+02  0.42812056251E+03  0.42876260446E+03  0.00000000000E+00 0. -1.
        -11    1    3    3    0    0  0.38732127283E+02  0.11723475091E+03  0.72714672889E+03  0.73755442500E+03  0.00000000000E+00 0.  1.
          4    1    6    6  502    0  0.58840782601E+02 -0.12312163675E+03  0.33407106537E+03  0.36086652914E+03  0.00000000000E+00 0. -1.
          3    1    5    5  503    0 -0.23681022534E+02  0.45428677742E+02  0.67605131361E+01  0.51674559770E+02  0.00000000000E+00 0. -1.
         -4    1    5    5    0  503 -0.21986554351E+03  0.92402312420E+02 -0.24741842513E+02  0.23977323315E+03  0.00000000000E+00 0.  1.
         -3    1    6    6    0  502  0.16355666268E+03 -0.14746804781E+03  0.69692902730E+03  0.73089511978E+03  0.00000000000E+00 0.  1.
<mgrwt>
<rscale>  0 0.13411267E+04</rscale>
<asrwt>0</asrwt>
<pdfrwt beam="1">  1        2 0.36290863E+00 0.13411267E+04</pdfrwt>
<pdfrwt beam="2">  1       -2 0.29326188E-01 0.13411267E+04</pdfrwt>
<totfact> 0.44014835E+01</totfact>
</mgrwt>
</event>
<event>
12    1  0.1477245E-007  0.1710538E+04  0.7818608E-02  0.8755377E-01
         -2   -1    0    0    0  501 -0.00000000000E+00  0.00000000000E+00  0.45126444319E+03  0.45126444319E+03  0.00000000000E+00 0.  1.
          2   -1    0    0  501    0  0.00000000000E+00 -0.00000000000E+00 -0.16209668800E+04  0.16209668800E+04  0.00000000000E+00 0. -1.
         23    2    1    2    0    0  0.26406084001E+03  0.43915716346E+03 -0.32503429176E+00  0.52067455357E+03  0.92275368519E+02 0.  0.
        254    2    1    2    0    0 -0.26406084001E+03 -0.43915716346E+03 -0.11693774026E+04  0.15515567697E+04  0.88164491629E+03 0.  0.
        -24    2    4    4    0    0 -0.42713476243E+03 -0.48936548704E+03 -0.41802301074E+03  0.77697081829E+03  0.83771891366E+02 0.  0.
         24    2    4    4    0    0  0.16307392242E+03  0.50208323570E+02 -0.75135439181E+03  0.77458595137E+03  0.79598957552E+02 0.  0.
         13    1    3    3    0    0  0.13718838800E+03  0.23567885202E+03 -0.46054612552E+02  0.27656138998E+03  0.00000000000E+00 0.  1.
        -13    1    3    3    0    0  0.12687245201E+03  0.20347831144E+03  0.45729578260E+02  0.24411316358E+03  0.00000000000E+00 0. -1.
          2    1    6    6  502    0  0.10060680756E+03  0.19258330837E+02 -0.58984202804E+03  0.59867038601E+03  0.00000000000E+00 0. -1.
          3    1    5    5  503    0 -0.41246910117E+03 -0.45094075139E+03 -0.40745898144E+03  0.73450741470E+03  0.00000000000E+00 0. -1.
         -4    1    5    5    0  503 -0.14665661253E+02 -0.38424735641E+02 -0.10564029301E+02  0.42463403586E+02  0.00000000000E+00 0.  1.
         -1    1    6    6    0  502  0.62467114858E+02  0.30949992733E+02 -0.16151236377E+03  0.17591556537E+03  0.00000000000E+00 0.  1.
<mgrwt>
<rscale>  0 0.17105376E+04</rscale>
<asrwt>0</asrwt>
<pdfrwt beam="1">  1        2 0.24937952E+00 0.17105376E+04</pdfrwt>
<pdfrwt beam="2">  1       -2 0.69425299E-01 0.17105376E+04</pdfrwt>
<totfact> 0.19531330E+01</totfact>
</mgrwt>
</event>
<event>
12    1  0.1477245E-007  0.2175661E+04  0.7818608E-02  0.8528627E-01
         -1   -1    0    0    0  501 -0.00000000000E+00  0.00000000000E+00  0.12734753329E+04  0.12734753329E+04  0.00000000000E+00 0.  1.
          1   -1    0    0  501    0  0.00000000000E+00 -0.00000000000E+00 -0.92924861962E+03  0.92924861962E+03  0.00000000000E+00 0. -1.
         23    2    1    2    0    0  0.77298559246E+03  0.37443412938E+03 -0.11502509093E+03  0.87127232139E+03  0.90427004168E+02 0.  0.
        254    2    1    2    0    0 -0.77298559246E+03 -0.37443412938E+03  0.45925180420E+03  0.13314516311E+04  0.90782354175E+03 0.  0.
        -24    2    4    4    0    0 -0.52604344874E+03 -0.39093280649E+03  0.71041414246E+03  0.96986989843E+03  0.80057460137E+02 0.  0.
         24    2    4    4    0    0 -0.24694214373E+03  0.16498677116E+02 -0.25116233827E+03  0.36158173269E+03  0.80038744088E+02 0.  0.
         11    1    3    3    0    0  0.56485475500E+03  0.26867168141E+03 -0.12387078994E+03  0.63764358323E+03  0.00000000000E+00 0. -1.
        -11    1    3    3    0    0  0.20813083747E+03  0.10576244797E+03  0.88456990084E+01  0.23362873816E+03  0.00000000000E+00 0.  1.
          2    1    6    6  502    0 -0.10308288318E+03  0.33283003486E+01 -0.51888715074E+02  0.11545387452E+03  0.00000000000E+00 0. -1.
          1    1    5    5  503    0 -0.52218935235E+03 -0.37249124721E+03  0.68965525183E+03  0.94183640582E+03  0.00000000000E+00 0. -1.
         -2    1    5    5    0  503 -0.38540963922E+01 -0.18441559284E+02  0.20758890634E+02  0.28033492615E+02  0.00000000000E+00 0.  1.
         -1    1    6    6    0  502 -0.14385926054E+03  0.13170376767E+02 -0.19927362319E+03  0.24612785817E+03  0.00000000000E+00 0.  1.
<mgrwt>
<rscale>  0 0.21756610E+04</rscale>
<asrwt>0</asrwt>
<pdfrwt beam="1">  1        1 0.14296133E+00 0.21756610E+04</pdfrwt>
<pdfrwt beam="2">  1       -1 0.19591928E+00 0.21756610E+04</pdfrwt>
<totfact> 0.25278162E+00</totfact>
</mgrwt>
</event>
<event>
12    1  0.1477245E-007  0.2671081E+04  0.7818608E-02  0.8344449E-01
          1   -1    0    0  501    0  0.00000000000E+00  0.00000000000E+00  0.27111648782E+04  0.27111648782E+04  0.00000000000E+00 0. -1.
         -1   -1    0    0    0  501 -0.00000000000E+00 -0.00000000000E+00 -0.65789756903E+03  0.65789756903E+03  0.00000000000E+00 0.  1.
         23    2    1    2    0    0 -0.14996936014E+03 -0.71336461472E+03  0.20929772352E+04  0.22182661325E+04  0.93653855791E+02 0.  0.
        254    2    1    2    0    0  0.14996936014E+03  0.71336461472E+03 -0.39709926115E+02  0.11507963147E+04  0.88959282665E+03 0.  0.
        -24    2    4    4    0    0 -0.22230691629E+03  0.67937046754E+03  0.13254403277E+03  0.73134177464E+03  0.79550446325E+02 0.  0.
         24    2    4    4    0    0  0.37227627643E+03  0.33994147172E+02 -0.17225395889E+03  0.41945454008E+03  0.80780299618E+02 0.  0.
         11    1    3    3    0    0 -0.14552949985E+03 -0.63420274363E+03  0.19356367312E+04  0.20420777435E+04  0.00000000000E+00 0. -1.
        -11    1    3    3    0    0 -0.44398602881E+01 -0.79161871086E+02  0.15734050407E+03  0.17618838899E+03  0.00000000000E+00 0.  1.
          2    1    6    6  502    0  0.67855613897E+02 -0.25091158835E+02 -0.33494180801E+02  0.79723338719E+02  0.00000000000E+00 0. -1.
          3    1    5    5  503    0 -0.95971317394E+01  0.95585142779E+02  0.16306986091E+00  0.96065868286E+02  0.00000000000E+00 0. -1.
         -4    1    5    5    0  503 -0.21270978455E+03  0.58378532476E+03  0.13238096291E+03  0.63527590635E+03  0.00000000000E+00 0.  1.
         -1    1    6    6    0  502  0.30442066253E+03  0.59085306007E+02 -0.13875977809E+03  0.33973120136E+03  0.00000000000E+00 0.  1.
<mgrwt>
<rscale>  0 0.26710813E+04</rscale>
<asrwt>0</asrwt>
<pdfrwt beam="1">  1        1 0.41710228E+00 0.26710813E+04</pdfrwt>
<pdfrwt beam="2">  1       -1 0.10121501E+00 0.26710813E+04</pdfrwt>
<totfact> 0.78162888E-01</totfact>
</mgrwt>
</event>
<event>
12    1  0.1477245E-007  0.1622141E+04  0.7818608E-02  0.8807060E-01
         -1   -1    0    0    0  501 -0.00000000000E+00  0.00000000000E+00  0.18406954737E+03  0.18406954737E+03  0.00000000000E+00 0.  1.
          1   -1    0    0  501    0  0.00000000000E+00 -0.00000000000E+00 -0.35738403031E+04  0.35738403031E+04  0.00000000000E+00 0. -1.
         23    2    1    2    0    0 -0.50522348478E+03 -0.20753510969E+03 -0.12109374685E+04  0.13314048629E+04  0.89150237267E+02 0.  0.
        254    2    1    2    0    0  0.50522348478E+03  0.20753510969E+03 -0.21788332872E+04  0.24265049876E+04  0.91776378782E+03 0.  0.
        -24    2    4    4    0    0 -0.23890043768E+03  0.19327272926E+03 -0.71827538410E+03  0.78527772965E+03  0.79459538642E+02 0.  0.
         24    2    4    4    0    0  0.74412392246E+03  0.14262380433E+02 -0.14605579031E+04  0.16412272580E+04  0.80459285018E+02 0.  0.
         13    1    3    3    0    0 -0.42529221111E+03 -0.20779592947E+03 -0.10251500127E+04  0.11291524085E+04  0.00000000000E+00 0. -1.
        -13    1    3    3    0    0 -0.79931273664E+02  0.26081978153E+00 -0.18578745585E+03  0.20225245434E+03  0.00000000000E+00 0.  1.
          2    1    6    6  502    0  0.41257110447E+03  0.36087581322E+02 -0.74770966353E+03  0.85474380413E+03  0.00000000000E+00 0. -1.
          1    1    5    5  503    0 -0.20319578726E+02 -0.59469879150E+01 -0.38101636468E+02  0.43588836259E+02  0.00000000000E+00 0. -1.
         -2    1    5    5    0  503 -0.21858085895E+03  0.19921971717E+03 -0.68017374763E+03  0.74168889339E+03  0.00000000000E+00 0.  1.
         -1    1    6    6    0  502  0.33155281799E+03 -0.21825200889E+02 -0.71284823956E+03  0.78648345384E+03  0.00000000000E+00 0.  1.
<mgrwt>
<rscale>  0 0.16221408E+04</rscale>
<asrwt>0</asrwt>
<pdfrwt beam="1">  1        1 0.54982156E+00 0.16221408E+04</pdfrwt>
<pdfrwt beam="2">  1       -1 0.28318393E-01 0.16221408E+04</pdfrwt>
<totfact> 0.23844735E+00</totfact>
</mgrwt>
</event>
<event>
12    1  0.1477245E-007  0.1729202E+04  0.7818608E-02  0.8744882E-01
          2   -1    0    0  501    0  0.00000000000E+00  0.00000000000E+00  0.26050488652E+04  0.26050488652E+04  0.00000000000E+00 0.  1.
         -2   -1    0    0    0  501 -0.00000000000E+00 -0.00000000000E+00 -0.28695618141E+03  0.28695618141E+03  0.00000000000E+00 0. -1.
         23    2    1    2    0    0  0.27829053077E+03  0.46931690013E+03  0.31420305433E+03  0.63617153773E+03  0.91031279278E+02 0.  0.
        254    2    1    2    0    0 -0.27829053077E+03 -0.46931690013E+03  0.20038896295E+04  0.22558335089E+04  0.88062886647E+03 0.  0.
        -24    2    4    4    0    0  0.32396855283E+02  0.18708768896E+03  0.12273083907E+03  0.23773648999E+03  0.73514761922E+02 0.  0.
         24    2    4    4    0    0 -0.31068738605E+03 -0.65640458909E+03  0.18811587904E+04  0.20180970189E+04  0.81015717935E+02 0.  0.
         11    1    3    3    0    0  0.58080840331E+02  0.11674343035E+03  0.12056776978E+03  0.17759222859E+03  0.00000000000E+00 0.  1.
        -11    1    3    3    0    0  0.22020969044E+03  0.35257346978E+03  0.19363528454E+03  0.45857930915E+03  0.00000000000E+00 0. -1.
          4    1    6    6  502    0 -0.27148871671E+03 -0.56081426826E+03  0.15284792505E+04  0.16505961305E+04  0.00000000000E+00 0. -1.
          1    1    5    5  503    0 -0.16335157485E+02  0.10140542622E+03  0.80500956343E+02  0.13050019850E+03  0.00000000000E+00 0. -1.
         -2    1    5    5    0  503  0.48732012767E+02  0.85682262747E+02  0.42229882728E+02  0.10723629149E+03  0.00000000000E+00 0.  1.
         -3    1    6    6    0  502 -0.39198669337E+02 -0.95590320831E+02  0.35267953990E+03  0.36750088841E+03  0.00000000000E+00 0.  1.
<mgrwt>
<rscale>  0 0.17292020E+04</rscale>
<asrwt>0</asrwt>
<pdfrwt beam="1">  1        2 0.40077673E+00 0.17292020E+04</pdfrwt>
<pdfrwt beam="2">  1       -2 0.44147107E-01 0.17292020E+04</pdfrwt>
<totfact> 0.13990345E+01</totfact>
</mgrwt>
</event>
<event>
12    1  0.1477245E-007  0.1167523E+04  0.7818608E-02  0.9141769E-01
         -2   -1    0    0    0  501 -0.00000000000E+00  0.00000000000E+00  0.41365900558E+03  0.41365900558E+03  0.00000000000E+00 0.  1.
          2   -1    0    0  501    0  0.00000000000E+00 -0.00000000000E+00 -0.82381202734E+03  0.82381202734E+03  0.00000000000E+00 0. -1.
         23    2    1    2    0    0 -0.12559097596E+03 -0.17415919918E+03 -0.13850070682E+03  0.27252684542E+03  0.94783520628E+02 0.  0.
        254    2    1    2    0    0  0.12559097596E+03  0.17415919918E+03 -0.27165231494E+03  0.96494418750E+03  0.90067629305E+03 0.  0.
        -24    2    4    4    0    0  0.28009267187E+03 -0.16805339435E+03 -0.43367909221E+03  0.54870708741E+03  0.79423325044E+02 0.  0.
         24    2    4    4    0    0 -0.15450169592E+03  0.34221259353E+03  0.16202677727E+03  0.41623710009E+03  0.77591325056E+02 0.  0.
         13    1    3    3    0    0 -0.52712384990E+02 -0.60042970326E+02 -0.15101263575E+01  0.79912666696E+02  0.00000000000E+00 0. -1.
        -13    1    3    3    0    0 -0.72878590969E+02 -0.11411622886E+03 -0.13699058046E+03  0.19261417872E+03  0.00000000000E+00 0.  1.
          4    1    6    6  502    0 -0.15835690729E+03  0.28554604664E+03  0.13475215807E+03  0.35323023504E+03  0.00000000000E+00 0. -1.
          3    1    5    5  503    0  0.15816208459E+03 -0.10035876918E+03 -0.31054941704E+03  0.36266798588E+03  0.00000000000E+00 0. -1.
         -4    1    5    5    0  503  0.12193058728E+03 -0.67694625172E+02 -0.12312967517E+03  0.18603910153E+03  0.00000000000E+00 0.  1.
         -3    1    6    6    0  502  0.38552113719E+01  0.56666546891E+02  0.27274619201E+02  0.63006865053E+02  0.00000000000E+00 0.  1.
<mgrwt>
<rscale>  0 0.11675226E+04</rscale>
<asrwt>0</asrwt>
<pdfrwt beam="1">  1        2 0.12674031E+00 0.11675226E+04</pdfrwt>
<pdfrwt beam="2">  1       -2 0.63639848E-01 0.11675226E+04</pdfrwt>
<totfact> 0.74838571E+01</totfact>
</mgrwt>
</event>
<event>
12    1  0.1477245E-007  0.4105051E+04  0.7818608E-02  0.7983683E-01
          2   -1    0    0  501    0  0.00000000000E+00  0.00000000000E+00  0.20156590107E+04  0.20156590107E+04  0.00000000000E+00 0. -1.
         -2   -1    0    0    0  501 -0.00000000000E+00 -0.00000000000E+00 -0.20900667436E+04  0.20900667436E+04  0.00000000000E+00 0.  1.
         23    2    1    2    0    0 -0.81319529976E+03  0.17215869154E+04  0.40264671141E+03  0.19481374333E+04  0.89257950849E+02 0.  0.
        254    2    1    2    0    0  0.81319529976E+03 -0.17215869154E+04 -0.47705444431E+03  0.21575883209E+04  0.89580037779E+03 0.  0.
        -24    2    4    4    0    0  0.20272934677E+03  0.53606363788E+02 -0.21738939024E+02  0.22426676533E+03  0.76486405867E+02 0.  0.
         24    2    4    4    0    0  0.61046595299E+03 -0.17751932792E+04 -0.45531550528E+03  0.19333215556E+04  0.80250667605E+02 0.  0.
         11    1    3    3    0    0 -0.77111204813E+03  0.16525320832E+04  0.40148387915E+03  0.18672614659E+04  0.00000000000E+00 0.  1.
        -11    1    3    3    0    0 -0.42083251630E+02  0.69054832226E+02  0.11628322664E+01  0.80875967385E+02  0.00000000000E+00 0. -1.
          4    1    6    6  502    0  0.41115040685E+02 -0.10050134277E+03 -0.84192885905E+01  0.10891212462E+03  0.00000000000E+00 0. -1.
          3    1    5    5  503    0  0.18669152530E+02  0.32014721230E+01  0.21436923167E+02  0.28606439044E+02  0.00000000000E+00 0. -1.
         -4    1    5    5    0  503  0.18406019424E+03  0.50404891665E+02 -0.43175862191E+02  0.19566032628E+03  0.00000000000E+00 0.  1.
         -3    1    6    6    0  502  0.56935091231E+03 -0.16746919365E+04 -0.44689621669E+03  0.18244094310E+04  0.00000000000E+00 0.  1.
<mgrwt>
<rscale>  0 0.41050515E+04</rscale>
<asrwt>0</asrwt>
<pdfrwt beam="1">  1        2 0.31010139E+00 0.41050515E+04</pdfrwt>
<pdfrwt beam="2">  1       -2 0.32154873E+00 0.41050515E+04</pdfrwt>
<totfact> 0.11997067E-01</totfact>
</mgrwt>
</event>
<event>
12    1  0.1477245E-007  0.1279243E+04  0.7818608E-02  0.9046190E-01
          2   -1    0    0  501    0  0.00000000000E+00  0.00000000000E+00  0.25881982207E+04  0.25881982207E+04  0.00000000000E+00 0. -1.
         -2   -1    0    0    0  501 -0.00000000000E+00 -0.00000000000E+00 -0.15806967580E+03  0.15806967580E+03  0.00000000000E+00 0.  1.
         23    2    1    2    0    0  0.29858794570E+03  0.32855041682E+02  0.46319202386E+03  0.56019285505E+03  0.95052452847E+02 0.  0.
        254    2    1    2    0    0 -0.29858794570E+03 -0.32855041682E+02  0.19669365210E+04  0.21860750414E+04  0.90545601437E+03 0.  0.
        -24    2    4    4    0    0 -0.24379992249E+03  0.40946253900E+03  0.80962290243E+03  0.94323257111E+03  0.84264262995E+02 0.  0.
         24    2    4    4    0    0 -0.54788023214E+02 -0.44231758068E+03  0.11573136186E+04  0.12428424703E+04  0.81461798284E+02 0.  0.
         13    1    3    3    0    0  0.88804555711E+02 -0.21003810074E+02  0.19631432257E+03  0.21648723380E+03  0.00000000000E+00 0. -1.
        -13    1    3    3    0    0  0.20978338999E+03  0.53858851755E+02  0.26687770129E+03  0.34370562125E+03  0.00000000000E+00 0.  1.
          4    1    6    6  502    0 -0.97380231398E+01 -0.35132790202E+03  0.88764110893E+03  0.95468992981E+03  0.00000000000E+00 0. -1.
          1    1    5    5  503    0 -0.15262416563E+03  0.19393343113E+03  0.46896869936E+03  0.52993957450E+03  0.00000000000E+00 0. -1.
         -2    1    5    5    0  503 -0.91175756855E+02  0.21552910787E+03  0.34065420307E+03  0.41329299661E+03  0.00000000000E+00 0.  1.
         -3    1    6    6    0  502 -0.45050000074E+02 -0.90989678667E+02  0.26967250965E+03  0.28815254049E+03  0.00000000000E+00 0.  1.
<mgrwt>
<rscale>  0 0.12792430E+04</rscale>
<asrwt>0</asrwt>
<pdfrwt beam="1">  1        2 0.39818431E+00 0.12792430E+04</pdfrwt>
<pdfrwt beam="2">  1       -2 0.24318414E-01 0.12792430E+04</pdfrwt>
<totfact> 0.46058372E+01</totfact>
</mgrwt>
</event>
<event>
12    1  0.1477245E-007  0.5299234E+04  0.7818608E-02  0.7783935E-01
         -1   -1    0    0    0  501 -0.00000000000E+00  0.00000000000E+00  0.22172718128E+04  0.22172718128E+04  0.00000000000E+00 0.  1.
          1   -1    0    0  501    0  0.00000000000E+00 -0.00000000000E+00 -0.31662648442E+04  0.31662648442E+04  0.00000000000E+00 0. -1.
         23    2    1    2    0    0 -0.17981477078E+04 -0.12551951986E+03 -0.23259511996E+04  0.29440338843E+04  0.90532866671E+02 0.  0.
        254    2    1    2    0    0  0.17981477078E+04  0.12551951986E+03  0.13769581682E+04  0.24395027728E+04  0.89781381837E+03 0.  0.
        -24    2    4    4    0    0  0.75606469361E+03 -0.93639525324E+02  0.96049550745E+02  0.77198923940E+03  0.79622157207E+02 0.  0.
         24    2    4    4    0    0  0.10420830142E+04  0.21915904518E+03  0.12809086175E+04  0.16675135334E+04  0.76855722970E+02 0.  0.
         11    1    3    3    0    0 -0.83611221011E+02  0.91532771512E+01 -0.90181519850E+02  0.12331798443E+03  0.00000000000E+00 0.  1.
        -11    1    3    3    0    0 -0.17145364868E+04 -0.13467279701E+03 -0.22357696797E+04  0.28207158998E+04  0.00000000000E+00 0. -1.
          4    1    6    6  502    0  0.19009063086E+03  0.69089684009E+02  0.25801368302E+03  0.32783973677E+03  0.00000000000E+00 0. -1.
          1    1    5    5  503    0  0.25763908473E+02 -0.18449462316E+02  0.10377920058E+01  0.31705498763E+02  0.00000000000E+00 0. -1.
         -2    1    5    5    0  503  0.73030078514E+03 -0.75190063008E+02  0.95011758739E+02  0.74028374063E+03  0.00000000000E+00 0.  1.
         -3    1    6    6    0  502  0.85199238332E+03  0.15006936117E+03  0.10228949345E+04  0.13396737966E+04  0.00000000000E+00 0.  1.
<mgrwt>
<rscale>  0 0.52992338E+04</rscale>
<asrwt>0</asrwt>
<pdfrwt beam="1">  1        1 0.48711766E+00 0.52992338E+04</pdfrwt>
<pdfrwt beam="2">  1       -1 0.34111874E+00 0.52992338E+04</pdfrwt>
<totfact> 0.56500943E-03</totfact>
</mgrwt>
</event>
<event>
12    1  0.1477245E-007  0.1984874E+04  0.7818608E-02  0.8613726E-01
         -2   -1    0    0    0  501 -0.00000000000E+00  0.00000000000E+00  0.14631343192E+04  0.14631343192E+04  0.00000000000E+00 0. -1.
          2   -1    0    0  501    0  0.00000000000E+00 -0.00000000000E+00 -0.67316497754E+03  0.67316497754E+03  0.00000000000E+00 0.  1.
         23    2    1    2    0    0 -0.51002702799E+03  0.69767826450E+02  0.95070929210E+03  0.10849699260E+04  0.91194645374E+02 0.  0.
        254    2    1    2    0    0  0.51002702799E+03 -0.69767826450E+02 -0.16073995047E+03  0.10513293707E+04  0.90247492773E+03 0.  0.
        -24    2    4    4    0    0 -0.26412859995E+02 -0.91224555545E+01  0.31565914233E+03  0.32683024924E+03  0.79977867649E+02 0.  0.
         24    2    4    4    0    0  0.53643988799E+03 -0.60645370896E+02 -0.47639909280E+03  0.72449912148E+03  0.80605626135E+02 0.  0.
         13    1    3    3    0    0 -0.38009172323E+03  0.31847579801E+02  0.76890607653E+03  0.85831261259E+03  0.00000000000E+00 0. -1.
        -13    1    3    3    0    0 -0.12993530476E+03  0.37920246649E+02  0.18180321557E+03  0.22665731341E+03  0.00000000000E+00 0.  1.
          4    1    6    6  502    0  0.28371321561E+03 -0.51612118943E+02 -0.30030209960E+03  0.41633922534E+03  0.00000000000E+00 0. -1.
          3    1    5    5  503    0  0.24622646875E+02  0.78533015494E+01  0.16157113956E+03  0.16362512711E+03  0.00000000000E+00 0. -1.
         -4    1    5    5    0  503 -0.51035506871E+02 -0.16975757104E+02  0.15408800278E+03  0.16320512213E+03  0.00000000000E+00 0.  1.
         -3    1    6    6    0  502  0.25272667238E+03 -0.90332519529E+01 -0.17609699320E+03  0.30815989614E+03  0.00000000000E+00 0.  1.
<mgrwt>
<rscale>  0 0.19848736E+04</rscale>
<asrwt>0</asrwt>
<pdfrwt beam="1">  1        2 0.10356384E+00 0.19848736E+04</pdfrwt>
<pdfrwt beam="2">  1       -2 0.22509759E+00 0.19848736E+04</pdfrwt>
<totfact> 0.36725733E+00</totfact>
</mgrwt>
</event>
<event>
12    1  0.1477245E-007  0.1475296E+04  0.7818608E-02  0.8901049E-01
         -2   -1    0    0    0  501 -0.00000000000E+00  0.00000000000E+00  0.15866920316E+03  0.15866920316E+03  0.00000000000E+00 0.  1.
          2   -1    0    0  501    0  0.00000000000E+00 -0.00000000000E+00 -0.34293016767E+04  0.34293016767E+04  0.00000000000E+00 0. -1.
         23    2    1    2    0    0 -0.32682604150E+03  0.27737015916E+03 -0.57547258953E+03  0.72318203701E+03  0.89855944550E+02 0.  0.
        254    2    1    2    0    0  0.32682604150E+03 -0.27737015916E+03 -0.26951598840E+04  0.28647888428E+04  0.87142346028E+03 0.  0.
        -24    2    4    4    0    0  0.32379209641E+03 -0.56400644571E+03 -0.15779636149E+04  0.17085796917E+04  0.79566327384E+02 0.  0.
         24    2    4    4    0    0  0.30339450890E+01  0.28663628655E+03 -0.11171962691E+04  0.11562091511E+04  0.80762193418E+02 0.  0.
         13    1    3    3    0    0 -0.74152660989E+02  0.26724890411E+02 -0.72991927939E+02  0.10742745666E+03  0.00000000000E+00 0.  1.
        -13    1    3    3    0    0 -0.25267338051E+03  0.25064526874E+03 -0.50248066159E+03  0.61575458036E+03  0.00000000000E+00 0. -1.
          4    1    6    6  502    0  0.17983243284E+02  0.27659448218E+03 -0.10781580746E+04  0.11132172917E+04  0.00000000000E+00 0. -1.
          1    1    5    5  503    0  0.32583501662E+03 -0.54846432120E+03 -0.15550017284E+04  0.16807771848E+04  0.00000000000E+00 0. -1.
         -2    1    5    5    0  503 -0.20429202171E+01 -0.15542124502E+02 -0.22961886485E+02  0.27802506865E+02  0.00000000000E+00 0.  1.
         -3    1    6    6    0  502 -0.14949298195E+02  0.10041804374E+02 -0.39038194449E+02  0.42991859432E+02  0.00000000000E+00 0.  1.
<mgrwt>
<rscale>  0 0.14752960E+04</rscale>
<asrwt>0</asrwt>
<pdfrwt beam="1">  1        2 0.52758485E+00 0.14752960E+04</pdfrwt>
<pdfrwt beam="2">  1       -2 0.24410648E-01 0.14752960E+04</pdfrwt>
<totfact> 0.13381969E+01</totfact>
</mgrwt>
</event>
<event>
12    1  0.1477245E-007  0.1769703E+04  0.7818608E-02  0.8722579E-01
         -1   -1    0    0    0  501 -0.00000000000E+00  0.00000000000E+00  0.12029188577E+04  0.12029188577E+04  0.00000000000E+00 0.  1.
          1   -1    0    0  501    0  0.00000000000E+00 -0.00000000000E+00 -0.65088546567E+03  0.65088546567E+03  0.00000000000E+00 0. -1.
         23    2    1    2    0    0 -0.11369848213E+03 -0.35517079629E+03  0.76251136983E+03  0.85374893507E+03  0.91597028586E+02 0.  0.
        254    2    1    2    0    0  0.11369848213E+03  0.35517079629E+03 -0.21047797775E+03  0.10000553883E+04  0.90373456349E+03 0.  0.
        -24    2    4    4    0    0  0.36672505430E+02  0.62275129729E+03 -0.29993468959E+03  0.69683980247E+03  0.80379358946E+02 0.  0.
         24    2    4    4    0    0  0.77025976700E+02 -0.26758050100E+03  0.89456711842E+02  0.30321558587E+03  0.80030385602E+02 0.  0.
         11    1    3    3    0    0 -0.74099099406E+02 -0.25854729148E+03  0.63021318243E+03  0.68520510344E+03  0.00000000000E+00 0. -1.
        -11    1    3    3    0    0 -0.39599382724E+02 -0.96623504818E+02  0.13229818739E+03  0.16854383164E+03  0.00000000000E+00 0.  1.
          4    1    6    6  502    0  0.65166548611E+02 -0.96924776669E+02  0.53236664896E+02  0.12835588759E+03  0.00000000000E+00 0. -1.
          3    1    5    5  503    0 -0.16406292224E+02  0.15268590296E+03 -0.10010761104E+03  0.18331307966E+03  0.00000000000E+00 0. -1.
         -4    1    5    5    0  503  0.53078797653E+02  0.47006539434E+03 -0.19982707855E+03  0.51352672280E+03  0.00000000000E+00 0.  1.
         -3    1    6    6    0  502  0.11859428088E+02 -0.17065572433E+03  0.36220046947E+02  0.17485969828E+03  0.00000000000E+00 0.  1.
<mgrwt>
<rscale>  0 0.17697033E+04</rscale>
<asrwt>0</asrwt>
<pdfrwt beam="1">  1        1 0.10013623E+00 0.17697033E+04</pdfrwt>
<pdfrwt beam="2">  1       -1 0.18506444E+00 0.17697033E+04</pdfrwt>
<totfact> 0.55049809E+00</totfact>
</mgrwt>
</event>
<event>
12    1  0.1477245E-007  0.1356251E+04  0.7818608E-02  0.8986109E-01
          1   -1    0    0  501    0  0.00000000000E+00  0.00000000000E+00  0.21335933036E+04  0.21335933036E+04  0.00000000000E+00 0. -1.
         -1   -1    0    0    0  501 -0.00000000000E+00 -0.00000000000E+00 -0.21553053734E+03  0.21553053734E+03  0.00000000000E+00 0.  1.
         23    2    1    2    0    0  0.31028753020E+03 -0.28880751629E+02  0.19888244868E+03  0.38041224466E+03  0.89703947986E+02 0.  0.
        254    2    1    2    0    0 -0.31028753020E+03  0.28880751629E+02  0.17191803175E+04  0.19687115962E+04  0.90726618792E+03 0.  0.
        -24    2    4    4    0    0  0.20598966546E+03  0.11486585677E+02  0.12395845330E+04  0.12591646398E+04  0.79762722153E+02 0.  0.
         24    2    4    4    0    0 -0.51627719566E+03  0.17394165952E+02  0.47959578457E+03  0.70954695643E+03  0.81240796630E+02 0.  0.
         13    1    3    3    0    0  0.54523005489E+01  0.15317958779E+02  0.98279418190E+01  0.18998838987E+02  0.00000000000E+00 0. -1.
        -13    1    3    3    0    0  0.30483522965E+03 -0.44198710408E+02  0.18905450686E+03  0.36141340568E+03  0.00000000000E+00 0.  1.
          4    1    6    6  502    0 -0.22498530625E+03 -0.16222450743E+02  0.16491846503E+03  0.27942737168E+03  0.00000000000E+00 0. -1.
          1    1    5    5  503    0 -0.17812336460E+01 -0.91023958576E+00 -0.21784301689E+00  0.20121592843E+01  0.00000000000E+00 0. -1.
         -2    1    5    5    0  503  0.20777089910E+03  0.12396825262E+02  0.12398023760E+04  0.12571524805E+04  0.00000000000E+00 0.  1.
         -3    1    6    6    0  502 -0.29129188941E+03  0.33616616695E+02  0.31467731954E+03  0.43011958475E+03  0.00000000000E+00 0.  1.
<mgrwt>
<rscale>  0 0.13562515E+04</rscale>
<asrwt>0</asrwt>
<pdfrwt beam="1">  1        1 0.32824511E+00 0.13562515E+04</pdfrwt>
<pdfrwt beam="2">  1       -1 0.33158546E-01 0.13562515E+04</pdfrwt>
<totfact> 0.20252327E+01</totfact>
</mgrwt>
</event>
<event>
12    1  0.1477245E-007  0.1093539E+04  0.7818608E-02  0.9211512E-01
          1   -1    0    0  501    0  0.00000000000E+00  0.00000000000E+00  0.16243173619E+04  0.16243173619E+04  0.00000000000E+00 0. -1.
         -1   -1    0    0    0  501 -0.00000000000E+00 -0.00000000000E+00 -0.18405085382E+03  0.18405085382E+03  0.00000000000E+00 0.  1.
         23    2    1    2    0    0  0.11918928540E+03  0.41288938753E+02  0.70602624845E+02  0.17011885715E+03  0.89692991389E+02 0.  0.
        254    2    1    2    0    0 -0.11918928540E+03 -0.41288938753E+02  0.13696638832E+04  0.16382493586E+04  0.88992749459E+03 0.  0.
        -24    2    4    4    0    0  0.35873131955E+02 -0.37342218547E+03  0.25093373475E+03  0.45823829699E+03  0.79269082241E+02 0.  0.
         24    2    4    4    0    0 -0.15506241736E+03  0.33213324671E+03  0.11187301485E+04  0.11800110616E+04  0.80697667228E+02 0.  0.
         11    1    3    3    0    0  0.45185656182E+02  0.55087405113E+02  0.61819246932E+02  0.94329131333E+02  0.00000000000E+00 0. -1.
        -11    1    3    3    0    0  0.74003629219E+02 -0.13798466360E+02  0.87833779127E+01  0.75789725814E+02  0.00000000000E+00 0.  1.
          4    1    6    6  502    0 -0.13469955176E+03  0.23517632512E+03  0.89932462508E+03  0.93927453623E+03  0.00000000000E+00 0. -1.
          3    1    5    5  503    0  0.44109530901E+02 -0.34590464671E+03  0.25077218662E+03  0.42951410328E+03  0.00000000000E+00 0. -1.
         -4    1    5    5    0  503 -0.82363989464E+01 -0.27517538754E+02  0.16154813189E+00  0.28724193713E+02  0.00000000000E+00 0.  1.
         -3    1    6    6    0  502 -0.20362865597E+02  0.96956921593E+02  0.21940552341E+03  0.24073652536E+03  0.00000000000E+00 0.  1.
<mgrwt>
<rscale>  0 0.10935392E+04</rscale>
<asrwt>0</asrwt>
<pdfrwt beam="1">  1        1 0.24989497E+00 0.10935392E+04</pdfrwt>
<pdfrwt beam="2">  1       -1 0.28315517E-01 0.10935392E+04</pdfrwt>
<totfact> 0.60456192E+01</totfact>
</mgrwt>
</event>
<event>
12    1  0.1477245E-007  0.2029873E+04  0.7818608E-02  0.8592780E-01
          2   -1    0    0  501    0  0.00000000000E+00  0.00000000000E+00  0.15809592270E+04  0.15809592270E+04  0.00000000000E+00 0. -1.
         -2   -1    0    0    0  501 -0.00000000000E+00 -0.00000000000E+00 -0.65156420503E+03  0.65156420503E+03  0.00000000000E+00 0.  1.
         23    2    1    2    0    0 -0.18053757432E+02  0.45974527699E+03  0.11242858305E+04  0.12182312570E+04  0.91526548016E+02 0.  0.
        254    2    1    2    0    0  0.18053757432E+02 -0.45974527699E+03 -0.19489080851E+03  0.10142921751E+04  0.88267464632E+03 0.  0.
        -24    2    4    4    0    0  0.26457457140E+03 -0.58126036922E+03  0.38494163163E+02  0.64479273279E+03  0.80078380387E+02 0.  0.
         24    2    4    4    0    0 -0.24652081397E+03  0.12151509223E+03 -0.23338497167E+03  0.36949944226E+03  0.80764246235E+02 0.  0.
         13    1    3    3    0    0 -0.27535364922E+01  0.24458279512E+03  0.71339048086E+03  0.75415800985E+03  0.00000000000E+00 0. -1.
        -13    1    3    3    0    0 -0.15300220939E+02  0.21516248187E+03  0.41089534959E+03  0.46407324711E+03  0.00000000000E+00 0.  1.
          4    1    6    6  502    0 -0.98537748953E+02  0.75218229331E+02 -0.14594667970E+03  0.19148865060E+03  0.00000000000E+00 0. -1.
          3    1    5    5  503    0  0.21773953185E+03 -0.45036403879E+03  0.61057613160E+02  0.50395069530E+03  0.00000000000E+00 0. -1.
         -4    1    5    5    0  503  0.46835039548E+02 -0.13089633043E+03 -0.22563449997E+02  0.14084203749E+03  0.00000000000E+00 0.  1.
         -3    1    6    6    0  502 -0.14798306501E+03  0.46296862897E+02 -0.87438291972E+02  0.17801079166E+03  0.00000000000E+00 0.  1.
<mgrwt>
<rscale>  0 0.20298733E+04</rscale>
<asrwt>0</asrwt>
<pdfrwt beam="1">  1        2 0.24322450E+00 0.20298733E+04</pdfrwt>
<pdfrwt beam="2">  1       -2 0.10024065E+00 0.20298733E+04</pdfrwt>
<totfact> 0.87007593E+00</totfact>
</mgrwt>
</event>
<event>
12    1  0.1477245E-007  0.3892539E+04  0.7818608E-02  0.8026583E-01
         -2   -1    0    0    0  501 -0.00000000000E+00  0.00000000000E+00  0.15080621408E+04  0.15080621408E+04  0.00000000000E+00 0.  1.
          2   -1    0    0  501    0  0.00000000000E+00 -0.00000000000E+00 -0.25118093993E+04  0.25118093993E+04  0.00000000000E+00 0. -1.
         23    2    1    2    0    0 -0.39451059861E+03 -0.14977253950E+04 -0.15020485437E+04  0.21595172382E+04  0.92438645454E+02 0.  0.
        254    2    1    2    0    0  0.39451059861E+03  0.14977253950E+04  0.49830128531E+03  0.18603543019E+04  0.90210530766E+03 0.  0.
        -24    2    4    4    0    0 -0.15001493060E+03  0.10296931882E+04  0.44908346025E+03  0.11361859406E+04  0.80436286190E+02 0.  0.
         24    2    4    4    0    0  0.54452552920E+03  0.46803220681E+03  0.49217825052E+02  0.72416836121E+03  0.80219838657E+02 0.  0.
         11    1    3    3    0    0 -0.33122794846E+03 -0.13228405143E+04 -0.12855282070E+04  0.18740869113E+04  0.00000000000E+00 0. -1.
        -11    1    3    3    0    0 -0.63282650142E+02 -0.17488488076E+03 -0.21652033671E+03  0.28543032694E+03  0.00000000000E+00 0.  1.
          2    1    6    6  502    0  0.45988241166E+03  0.42614023381E+03  0.29316886786E+02  0.62765182329E+03  0.00000000000E+00 0. -1.
          3    1    5    5  503    0 -0.11294187029E+03  0.90386768117E+03  0.41292694250E+03  0.10001206482E+04  0.00000000000E+00 0. -1.
         -4    1    5    5    0  503 -0.37073060309E+02  0.12582550707E+03  0.36156517753E+02  0.13606529244E+03  0.00000000000E+00 0.  1.
         -1    1    6    6    0  502  0.84643117544E+02  0.41891973000E+02  0.19900938266E+02  0.96516537926E+02  0.00000000000E+00 0.  1.
<mgrwt>
<rscale>  0 0.38925388E+04</rscale>
<asrwt>0</asrwt>
<pdfrwt beam="1">  1        2 0.38643221E+00 0.38925388E+04</pdfrwt>
<pdfrwt beam="2">  1       -2 0.23200956E+00 0.38925388E+04</pdfrwt>
<totfact> 0.22647732E-01</totfact>
</mgrwt>
</event>
<event>
12    1  0.1477245E-007  0.1968260E+04  0.7818608E-02  0.8621605E-01
         -1   -1    0    0    0  501 -0.00000000000E+00  0.00000000000E+00  0.86442159523E+03  0.86442159523E+03  0.00000000000E+00 0.  1.
          1   -1    0    0  501    0  0.00000000000E+00 -0.00000000000E+00 -0.11204165322E+04  0.11204165322E+04  0.00000000000E+00 0. -1.
         23    2    1    2    0    0  0.34769434529E+03 -0.59946660269E+03  0.24963268371E+03  0.74172408020E+03  0.87100912057E+02 0.  0.
        254    2    1    2    0    0 -0.34769434529E+03  0.59946660269E+03 -0.50562762066E+03  0.12431140472E+04  0.89967865270E+03 0.  0.
        -24    2    4    4    0    0 -0.43311644864E+03  0.90943408319E+02  0.82690095018E+02  0.45676616262E+03  0.77052669616E+02 0.  0.
         24    2    4    4    0    0  0.85422103359E+02  0.50852319437E+03 -0.58831771568E+03  0.78634788460E+03  0.79576919196E+02 0.  0.
         13    1    3    3    0    0  0.46501292615E+02 -0.10839634619E+03  0.74927447904E+02  0.13973639659E+03  0.00000000000E+00 0.  1.
        -13    1    3    3    0    0  0.30119305267E+03 -0.49107025650E+03  0.17470523581E+03  0.60198768361E+03  0.00000000000E+00 0. -1.
          4    1    6    6  502    0  0.92240997490E+02  0.31814618316E+03 -0.37513129317E+03  0.50044868127E+03  0.00000000000E+00 0. -1.
          1    1    5    5  503    0 -0.57176952422E+02  0.38451701529E+02  0.34052875701E+01  0.68987920842E+02  0.00000000000E+00 0. -1.
         -2    1    5    5    0  503 -0.37593949622E+03  0.52491706790E+02  0.79284807448E+02  0.38777824178E+03  0.00000000000E+00 0.  1.
         -3    1    6    6    0  502 -0.68188941319E+01  0.19037701121E+03 -0.21318642252E+03  0.28589920332E+03  0.00000000000E+00 0.  1.
<mgrwt>
<rscale>  0 0.19682604E+04</rscale>
<asrwt>0</asrwt>
<pdfrwt beam="1">  1        1 0.17237177E+00 0.19682604E+04</pdfrwt>
<pdfrwt beam="2">  1       -1 0.13298794E+00 0.19682604E+04</pdfrwt>
<totfact> 0.54500451E+00</totfact>
</mgrwt>
</event>
<event>
12    1  0.1477245E-007  0.1689177E+04  0.7818608E-02  0.8767561E-01
          1   -1    0    0  501    0  0.00000000000E+00  0.00000000000E+00  0.20285222667E+04  0.20285222667E+04  0.00000000000E+00 0. -1.
         -1   -1    0    0    0  501 -0.00000000000E+00 -0.00000000000E+00 -0.35164998486E+03  0.35164998486E+03  0.00000000000E+00 0.  1.
         23    2    1    2    0    0 -0.22210878085E+03 -0.31470535559E+03  0.12493003887E+04  0.13103737060E+04  0.89196506656E+02 0.  0.
        254    2    1    2    0    0  0.22210878085E+03  0.31470535559E+03  0.42757189314E+03  0.10697985456E+04  0.90182006682E+03 0.  0.
        -24    2    4    4    0    0  0.33203657101E+03  0.44395815899E+02  0.62144979206E+03  0.71049089178E+03  0.79863572985E+02 0.  0.
         24    2    4    4    0    0 -0.10992779016E+03  0.27030953969E+03 -0.19387789892E+03  0.35930765379E+03  0.79762046623E+02 0.  0.
         11    1    3    3    0    0 -0.19000602745E+03 -0.27767936246E+03  0.96730409503E+03  0.10241510294E+04  0.00000000000E+00 0. -1.
        -11    1    3    3    0    0 -0.32102753397E+02 -0.37025993126E+02  0.28199629366E+03  0.28622267657E+03  0.00000000000E+00 0.  1.
          2    1    6    6  502    0 -0.42613595221E+02  0.55649457717E+02 -0.82578199129E+02  0.10831407856E+03  0.00000000000E+00 0. -1.
          3    1    5    5  503    0  0.24393555629E+03  0.67796633244E+02  0.45198247616E+03  0.51806283196E+03  0.00000000000E+00 0. -1.
         -4    1    5    5    0  503  0.88101014724E+02 -0.23400817346E+02  0.16946731590E+03  0.19242805982E+03  0.00000000000E+00 0.  1.
         -1    1    6    6    0  502 -0.67314194939E+02  0.21466008197E+03 -0.11129969979E+03  0.25099357523E+03  0.00000000000E+00 0.  1.
<mgrwt>
<rscale>  0 0.16891771E+04</rscale>
<asrwt>0</asrwt>
<pdfrwt beam="1">  1        1 0.31208034E+00 0.16891771E+04</pdfrwt>
<pdfrwt beam="2">  1       -1 0.54099999E-01 0.16891771E+04</pdfrwt>
<totfact> 0.93677618E+00</totfact>
</mgrwt>
</event>
<event>
12    1  0.1477245E-007  0.1644869E+04  0.7818608E-02  0.8793448E-01
         -1   -1    0    0    0  501 -0.00000000000E+00  0.00000000000E+00  0.19735067438E+04  0.19735067438E+04  0.00000000000E+00 0.  1.
          1   -1    0    0  501    0  0.00000000000E+00 -0.00000000000E+00 -0.34273946425E+03  0.34273946425E+03  0.00000000000E+00 0. -1.
         23    2    1    2    0    0  0.33301790679E+03  0.39253305674E+03  0.88686293805E+03  0.10293823786E+04  0.90105957341E+02 0.  0.
        254    2    1    2    0    0 -0.33301790679E+03 -0.39253305674E+03  0.74390434152E+03  0.12868638295E+04  0.91522768723E+03 0.  0.
        -24    2    4    4    0    0  0.13061335379E+02  0.24091002719E+03  0.93149136772E+01  0.25458649024E+03  0.80742019503E+02 0.  0.
         24    2    4    4    0    0 -0.34607924217E+03 -0.63344308394E+03  0.73458942785E+03  0.10322773393E+04  0.70383912963E+02 0.  0.
         13    1    3    3    0    0  0.19836191456E+03  0.18171094854E+03  0.51812090066E+03  0.58379412952E+03  0.00000000000E+00 0.  1.
        -13    1    3    3    0    0  0.13465599223E+03  0.21082210820E+03  0.36874203740E+03  0.44558824905E+03  0.00000000000E+00 0. -1.
          4    1    6    6  502    0 -0.15934927900E+03 -0.27509122239E+03  0.27541521235E+03  0.42061967684E+03  0.00000000000E+00 0. -1.
          3    1    5    5  503    0  0.37248064067E+02  0.18023312800E+03  0.29117347866E+02  0.18633093853E+03  0.00000000000E+00 0. -1.
         -4    1    5    5    0  503 -0.24186728688E+02  0.60676899192E+02 -0.19802434189E+02  0.68255551715E+02  0.00000000000E+00 0.  1.
         -3    1    6    6    0  502 -0.18672996316E+03 -0.35835186154E+03  0.45917421550E+03  0.61165766242E+03  0.00000000000E+00 0.  1.
<mgrwt>
<rscale>  0 0.16448692E+04</rscale>
<asrwt>0</asrwt>
<pdfrwt beam="1">  1        1 0.52729149E-01 0.16448692E+04</pdfrwt>
<pdfrwt beam="2">  1       -1 0.30361642E+00 0.16448692E+04</pdfrwt>
<totfact> 0.22063564E+00</totfact>
</mgrwt>
</event>
<event>
12    1  0.1477245E-007  0.1348965E+04  0.7818608E-02  0.8991612E-01
          4   -1    0    0  501    0  0.00000000000E+00  0.00000000000E+00  0.54951744477E+03  0.54951744477E+03  0.00000000000E+00 0. -1.
         -4   -1    0    0    0  501 -0.00000000000E+00 -0.00000000000E+00 -0.82786513633E+03  0.82786513633E+03  0.00000000000E+00 0.  1.
         23    2    1    2    0    0 -0.33223779569E+03  0.13515406920E+03 -0.15529777314E+03  0.40237654547E+03  0.95608109959E+02 0.  0.
        254    2    1    2    0    0  0.33223779569E+03 -0.13515406920E+03 -0.12304991842E+03  0.97500603564E+03  0.89824657628E+03 0.  0.
        -24    2    4    4    0    0 -0.21834908964E+03 -0.30460627829E+03 -0.27652838204E+02  0.38555610891E+03  0.86183083817E+02 0.  0.
         24    2    4    4    0    0  0.55058688533E+03  0.16945220909E+03 -0.95397080217E+02  0.58944992673E+03  0.80564531554E+02 0.  0.
         11    1    3    3    0    0 -0.11645265281E+03  0.28787774464E+02 -0.78599466827E+01  0.12021536951E+03  0.00000000000E+00 0. -1.
        -11    1    3    3    0    0 -0.21578514288E+03  0.10636629474E+03 -0.14743782646E+03  0.28216117595E+03  0.00000000000E+00 0.  1.
          4    1    6    6  502    0  0.31563319285E+03  0.82340580311E+02 -0.15997215336E+02  0.32658872377E+03  0.00000000000E+00 0. -1.
          3    1    5    5  503    0 -0.15310152829E+03 -0.25177579319E+03 -0.49514319395E+02  0.29880226878E+03  0.00000000000E+00 0. -1.
         -4    1    5    5    0  503 -0.65247561345E+02 -0.52830485101E+02  0.21861481191E+02  0.86753840130E+02  0.00000000000E+00 0.  1.
         -3    1    6    6    0  502  0.23495369248E+03  0.87111628779E+02 -0.79399864881E+02  0.26286120296E+03  0.00000000000E+00 0.  1.
<mgrwt>
<rscale>  0 0.13489645E+04</rscale>
<asrwt>0</asrwt>
<pdfrwt beam="1">  1        4 0.84541146E-01 0.13489645E+04</pdfrwt>
<pdfrwt beam="2">  1       -4 0.12736387E+00 0.13489645E+04</pdfrwt>
<totfact> 0.10874020E+00</totfact>
</mgrwt>
</event>
<event>
12    1  0.1477245E-007  0.2984235E+04  0.7818608E-02  0.8248247E-01
         -2   -1    0    0    0  501 -0.00000000000E+00  0.00000000000E+00  0.10821550553E+04  0.10821550553E+04  0.00000000000E+00 0.  1.
          2   -1    0    0  501    0  0.00000000000E+00 -0.00000000000E+00 -0.20573892133E+04  0.20573892133E+04  0.00000000000E+00 0. -1.
         23    2    1    2    0    0 -0.47564397010E+03  0.10783483513E+04  0.24897662892E+03  0.12081149839E+04  0.92087455155E+02 0.  0.
        254    2    1    2    0    0  0.47564397010E+03 -0.10783483513E+04 -0.12242107869E+04  0.19314292847E+04  0.91796224211E+03 0.  0.
        -24    2    4    4    0    0  0.23993767995E+03 -0.57058585663E+03 -0.12149703311E+04  0.13659190172E+04  0.80271701919E+02 0.  0.
         24    2    4    4    0    0  0.23570629015E+03 -0.50776249471E+03 -0.92404558752E+01  0.56551026753E+03  0.79600693535E+02 0.  0.
         13    1    3    3    0    0 -0.10897885793E+03  0.22601375644E+03  0.90991898063E+02  0.26690473036E+03  0.00000000000E+00 0. -1.
        -13    1    3    3    0    0 -0.36666511217E+03  0.85233459489E+03  0.15798473085E+03  0.94121025351E+03  0.00000000000E+00 0.  1.
          4    1    6    6  502    0  0.49531982710E+02 -0.47012920753E+02 -0.60509792665E+01  0.68558342884E+02  0.00000000000E+00 0. -1.
          1    1    5    5  503    0  0.67710977862E+02 -0.24876754385E+03 -0.45929854080E+03  0.52671170196E+03  0.00000000000E+00 0. -1.
         -2    1    5    5    0  503  0.17222670209E+03 -0.32181831277E+03 -0.75567179027E+03  0.83920731525E+03  0.00000000000E+00 0.  1.
         -3    1    6    6    0  502  0.18617430744E+03 -0.46074957395E+03 -0.31894766087E+01  0.49695192465E+03  0.00000000000E+00 0.  1.
<mgrwt>
<rscale>  0 0.29842347E+04</rscale>
<asrwt>0</asrwt>
<pdfrwt beam="1">  1        2 0.31652141E+00 0.29842347E+04</pdfrwt>
<pdfrwt beam="2">  1       -2 0.16648540E+00 0.29842347E+04</pdfrwt>
<totfact> 0.12016627E+00</totfact>
</mgrwt>
</event>
<event>
12    1  0.1477245E-007  0.1253321E+04  0.7818608E-02  0.9067423E-01
         -2   -1    0    0    0  501 -0.00000000000E+00  0.00000000000E+00  0.29258073781E+03  0.29258073781E+03  0.00000000000E+00 0.  1.
          2   -1    0    0  501    0  0.00000000000E+00 -0.00000000000E+00 -0.13422062265E+04  0.13422062265E+04  0.00000000000E+00 0. -1.
         23    2    1    2    0    0  0.18119713705E+03 -0.16453098873E+03 -0.10903922118E+03  0.28413256005E+03  0.94545815349E+02 0.  0.
        254    2    1    2    0    0 -0.18119713705E+03  0.16453098873E+03 -0.94058626754E+03  0.13506544043E+04  0.93790295042E+03 0.  0.
        -24    2    4    4    0    0  0.27901766733E+03  0.30873842710E+03 -0.66776060290E+03  0.79085597875E+03  0.79866646835E+02 0.  0.
         24    2    4    4    0    0 -0.46021480438E+03 -0.14420743836E+03 -0.27282566464E+03  0.55979842554E+03  0.79667951556E+02 0.  0.
         11    1    3    3    0    0  0.87046382267E+02 -0.84387742379E+02 -0.30425871436E+01  0.12127498120E+03  0.00000000000E+00 0.  1.
        -11    1    3    3    0    0  0.94150754778E+02 -0.80143246355E+02 -0.10599663404E+03  0.16285757885E+03  0.00000000000E+00 0. -1.
          2    1    6    6  502    0 -0.56250654275E+02 -0.47028373564E+02 -0.41982276995E+02  0.84488553119E+02  0.00000000000E+00 0. -1.
          3    1    5    5  503    0  0.51474551276E+02  0.18227394622E+02 -0.92247679331E+02  0.10719842203E+03  0.00000000000E+00 0. -1.
         -4    1    5    5    0  503  0.22754311606E+03  0.29051103248E+03 -0.57551292357E+03  0.68365755672E+03  0.00000000000E+00 0.  1.
         -1    1    6    6    0  502 -0.40396415010E+03 -0.97179064801E+02 -0.23084338764E+03  0.47530987242E+03  0.00000000000E+00 0.  1.
<mgrwt>
<rscale>  0 0.12533215E+04</rscale>
<asrwt>0</asrwt>
<pdfrwt beam="1">  1        2 0.20649326E+00 0.12533215E+04</pdfrwt>
<pdfrwt beam="2">  1       -2 0.45012422E-01 0.12533215E+04</pdfrwt>
<totfact> 0.71872488E+01</totfact>
</mgrwt>
</event>
<event>
12    1  0.1477245E-007  0.2139423E+04  0.7818608E-02  0.8544073E-01
          1   -1    0    0  501    0  0.00000000000E+00  0.00000000000E+00  0.10783743311E+04  0.10783743311E+04  0.00000000000E+00 0. -1.
         -1   -1    0    0    0  501 -0.00000000000E+00 -0.00000000000E+00 -0.10611180422E+04  0.10611180422E+04  0.00000000000E+00 0.  1.
         23    2    1    2    0    0 -0.26029780573E+03  0.39019471625E+03 -0.74552172887E+03  0.88547218106E+03  0.90837607647E+02 0.  0.
        254    2    1    2    0    0  0.26029780573E+03 -0.39019471625E+03  0.76277801784E+03  0.12540201923E+04  0.87791199663E+03 0.  0.
        -24    2    4    4    0    0 -0.85788132331E+02 -0.40745114606E+03  0.79088329047E+03  0.89729541430E+03  0.79162120467E+02 0.  0.
         24    2    4    4    0    0  0.34608593806E+03  0.17256429808E+02 -0.28105272629E+02  0.35672477795E+03  0.79933722298E+02 0.  0.
         11    1    3    3    0    0 -0.10150039300E+03  0.10871405442E+03 -0.30260782886E+03  0.33718329361E+03  0.00000000000E+00 0. -1.
        -11    1    3    3    0    0 -0.15879741273E+03  0.28148066183E+03 -0.44291390001E+03  0.54828888745E+03  0.00000000000E+00 0.  1.
          4    1    6    6  502    0  0.31766338162E+03 -0.53946568685E+01 -0.35335689913E+02  0.31966816752E+03  0.00000000000E+00 0. -1.
          1    1    5    5  503    0 -0.84863494528E+02 -0.40385002609E+03  0.79229044500E+03  0.89332010249E+03  0.00000000000E+00 0. -1.
         -2    1    5    5    0  503 -0.92463780323E+00 -0.36011199700E+01 -0.14071545356E+01  0.39753118107E+01  0.00000000000E+00 0.  1.
         -3    1    6    6    0  502  0.28422556439E+02  0.22651086677E+02  0.72304172840E+01  0.37056610426E+02  0.00000000000E+00 0.  1.
<mgrwt>
<rscale>  0 0.21394228E+04</rscale>
<asrwt>0</asrwt>
<pdfrwt beam="1">  1        1 0.16590374E+00 0.21394228E+04</pdfrwt>
<pdfrwt beam="2">  1       -1 0.16324893E+00 0.21394228E+04</pdfrwt>
<totfact> 0.33330811E+00</totfact>
</mgrwt>
</event>
<event>
12    1  0.1477245E-007  0.3186049E+04  0.7818608E-02  0.8192511E-01
          3   -1    0    0  501    0  0.00000000000E+00  0.00000000000E+00  0.41528225271E+04  0.41528225271E+04  0.00000000000E+00 0. -1.
         -3   -1    0    0    0  501 -0.00000000000E+00 -0.00000000000E+00 -0.61108481724E+03  0.61108481724E+03  0.00000000000E+00 0.  1.
         23    2    1    2    0    0  0.82263718325E+03  0.11105058412E+04  0.23330087577E+04  0.27131901906E+04  0.92282111303E+02 0.  0.
        254    2    1    2    0    0 -0.82263718325E+03 -0.11105058412E+04  0.12087289522E+04  0.20507171538E+04  0.91348782502E+03 0.  0.
        -24    2    4    4    0    0  0.61799083570E+02 -0.53854245017E+03  0.66899265410E+03  0.86450290519E+03  0.77246388152E+02 0.  0.
         24    2    4    4    0    0 -0.88443626682E+03 -0.57196339102E+03  0.53973629807E+03  0.11862142486E+04  0.80120792501E+02 0.  0.
         13    1    3    3    0    0  0.16070365739E+02  0.41547799863E+02  0.99271895940E+02  0.10880894105E+03  0.00000000000E+00 0. -1.
        -13    1    3    3    0    0  0.80656681751E+03  0.10689580413E+04  0.22337368618E+04  0.26043812495E+04  0.00000000000E+00 0.  1.
          4    1    6    6  502    0 -0.22252912092E+03 -0.11898851271E+03  0.99307842307E+02  0.27118171649E+03  0.00000000000E+00 0. -1.
          1    1    5    5  503    0  0.52804219893E+01 -0.27084942707E+03  0.37847523787E+03  0.46543614028E+03  0.00000000000E+00 0. -1.
         -2    1    5    5    0  503  0.56518661580E+02 -0.26769302310E+03  0.29051741623E+03  0.39906676491E+03  0.00000000000E+00 0.  1.
         -3    1    6    6    0  502 -0.66190714590E+03 -0.45297487831E+03  0.44042845577E+03  0.91503253211E+03  0.00000000000E+00 0.  1.
<mgrwt>
<rscale>  0 0.31860488E+04</rscale>
<asrwt>0</asrwt>
<pdfrwt beam="1">  1        3 0.63889575E+00 0.31860488E+04</pdfrwt>
<pdfrwt beam="2">  1       -3 0.94013052E-01 0.31860488E+04</pdfrwt>
<totfact> 0.15866297E-03</totfact>
</mgrwt>
</event>
<event>
12    1  0.1477245E-007  0.1477194E+04  0.7818608E-02  0.8899762E-01
         -2   -1    0    0    0  501 -0.00000000000E+00  0.00000000000E+00  0.20237063868E+03  0.20237063868E+03  0.00000000000E+00 0.  1.
          2   -1    0    0  501    0  0.00000000000E+00 -0.00000000000E+00 -0.26956745653E+04  0.26956745653E+04  0.00000000000E+00 0. -1.
         23    2    1    2    0    0 -0.12448416402E+03 -0.42861470905E+03 -0.95210317829E+03  0.10555781449E+04  0.92400659597E+02 0.  0.
        254    2    1    2    0    0  0.12448416402E+03  0.42861470905E+03 -0.15412007484E+04  0.18424670592E+04  0.90563692582E+03 0.  0.
        -24    2    4    4    0    0  0.13241745419E+03  0.68808385655E+03 -0.13068736372E+04  0.14850876961E+04  0.81073952783E+02 0.  0.
         24    2    4    4    0    0 -0.79332901676E+01 -0.25946914750E+03 -0.23432711121E+03  0.35737936305E+03  0.73645356175E+02 0.  0.
         11    1    3    3    0    0 -0.77260291046E+02 -0.18715542129E+03 -0.52481380447E+03  0.56251740742E+03  0.00000000000E+00 0.  1.
        -11    1    3    3    0    0 -0.47223872975E+02 -0.24145928776E+03 -0.42728937381E+03  0.49306073743E+03  0.00000000000E+00 0. -1.
          2    1    6    6  502    0 -0.26819438635E+01 -0.34204971263E+01  0.51606759550E+01  0.67472364558E+01  0.00000000000E+00 0. -1.
          1    1    5    5  503    0  0.45492565791E+02  0.12821949562E+03 -0.20418841065E+03  0.24536242508E+03  0.00000000000E+00 0. -1.
         -2    1    5    5    0  503  0.86924888398E+02  0.55986436094E+03 -0.11026852265E+04  0.12397252710E+04  0.00000000000E+00 0.  1.
         -3    1    6    6    0  502 -0.52513463042E+01 -0.25604865038E+03 -0.23948778717E+03  0.35063212659E+03  0.00000000000E+00 0.  1.
<mgrwt>
<rscale>  0 0.14771938E+04</rscale>
<asrwt>0</asrwt>
<pdfrwt beam="1">  1        2 0.41471916E+00 0.14771938E+04</pdfrwt>
<pdfrwt beam="2">  1       -2 0.31133945E-01 0.14771938E+04</pdfrwt>
<totfact> 0.24844772E+01</totfact>
</mgrwt>
</event>
<event>
12    1  0.1477245E-007  0.2497627E+04  0.7818608E-02  0.8403831E-01
         -2   -1    0    0    0  501 -0.00000000000E+00  0.00000000000E+00  0.78415685516E+03  0.78415685516E+03  0.00000000000E+00 0.  1.
          2   -1    0    0  501    0  0.00000000000E+00 -0.00000000000E+00 -0.19888048154E+04  0.19888048154E+04  0.00000000000E+00 0. -1.
         23    2    1    2    0    0 -0.52839247534E+03  0.45479118026E+03 -0.14436848806E+04  0.16057175282E+04  0.89828282503E+02 0.  0.
        254    2    1    2    0    0  0.52839247534E+03 -0.45479118026E+03  0.23903692030E+03  0.11672441424E+04  0.90514452605E+03 0.  0.
        -24    2    4    4    0    0 -0.89494724470E+02  0.20408002378E+03  0.50849803131E+02  0.24103685178E+03  0.76518622731E+02 0.  0.
         24    2    4    4    0    0  0.61788719981E+03 -0.65887120404E+03  0.18818711717E+03  0.92620729061E+03  0.80930210092E+02 0.  0.
         11    1    3    3    0    0 -0.36293262876E+03  0.25681989488E+03 -0.93618900709E+03  0.10364006988E+04  0.00000000000E+00 0. -1.
        -11    1    3    3    0    0 -0.16545984658E+03  0.19797128538E+03 -0.50749587349E+03  0.56931682943E+03  0.00000000000E+00 0.  1.
          4    1    6    6  502    0  0.57726431524E+03 -0.59752059111E+03  0.15359222934E+03  0.84489970964E+03  0.00000000000E+00 0. -1.
          3    1    5    5  503    0 -0.70521233669E+02  0.78932433718E+02  0.35378265017E+01  0.10590604188E+03  0.00000000000E+00 0. -1.
         -4    1    5    5    0  503 -0.18973490800E+02  0.12514759006E+03  0.47311976629E+02  0.13513080990E+03  0.00000000000E+00 0.  1.
         -3    1    6    6    0  502  0.40622884574E+02 -0.61350612935E+02  0.34594887832E+02  0.81307580966E+02  0.00000000000E+00 0.  1.
<mgrwt>
<rscale>  0 0.24976268E+04</rscale>
<asrwt>0</asrwt>
<pdfrwt beam="1">  1        2 0.30596997E+00 0.24976268E+04</pdfrwt>
<pdfrwt beam="2">  1       -2 0.12063952E+00 0.24976268E+04</pdfrwt>
<totfact> 0.31683283E+00</totfact>
</mgrwt>
</event>
<event>
12    1  0.1477245E-007  0.1454609E+04  0.7818608E-02  0.8915211E-01
          2   -1    0    0  501    0  0.00000000000E+00  0.00000000000E+00  0.20730891395E+04  0.20730891395E+04  0.00000000000E+00 0.  1.
         -2   -1    0    0    0  501 -0.00000000000E+00 -0.00000000000E+00 -0.25516113528E+03  0.25516113528E+03  0.00000000000E+00 0. -1.
         23    2    1    2    0    0  0.34792660896E+03  0.13499185615E+03  0.89354738312E+03  0.97189806223E+03  0.82964998777E+02 0.  0.
        254    2    1    2    0    0 -0.34792660896E+03 -0.13499185615E+03  0.92438062114E+03  0.13563522126E+04  0.91974782708E+03 0.  0.
        -24    2    4    4    0    0 -0.13422706988E+03 -0.50835182188E+03  0.35964259182E+03  0.64202583428E+03  0.80099294176E+02 0.  0.
         24    2    4    4    0    0 -0.21369953908E+03  0.37335996573E+03  0.56473802932E+03  0.71432637832E+03  0.79170550020E+02 0.  0.
         11    1    3    3    0    0  0.12213556774E+03  0.33663055767E+02  0.21402315790E+03  0.24870908779E+03  0.00000000000E+00 0. -1.
        -11    1    3    3    0    0  0.22579104122E+03  0.10132880038E+03  0.67952422523E+03  0.72318897444E+03  0.00000000000E+00 0.  1.
          2    1    6    6  502    0  0.90823958120E+00 -0.35098028431E+01  0.62084137431E+01  0.71894378320E+01  0.00000000000E+00 0. -1.
          3    1    5    5  503    0 -0.16462483005E+02 -0.14427560680E+02  0.28024901868E+02  0.35560694293E+02  0.00000000000E+00 0. -1.
         -4    1    5    5    0  503 -0.11776458688E+03 -0.49392426120E+03  0.33161768995E+03  0.60646513998E+03  0.00000000000E+00 0.  1.
         -1    1    6    6    0  502 -0.21460777866E+03  0.37686976858E+03  0.55852961557E+03  0.70713694049E+03  0.00000000000E+00 0.  1.
<mgrwt>
<rscale>  0 0.14546089E+04</rscale>
<asrwt>0</asrwt>
<pdfrwt beam="1">  1        2 0.31893678E+00 0.14546089E+04</pdfrwt>
<pdfrwt beam="2">  1       -2 0.39255561E-01 0.14546089E+04</pdfrwt>
<totfact> 0.36209566E+01</totfact>
</mgrwt>
</event>
<event>
12    1  0.1477245E-007  0.1300730E+04  0.7818608E-02  0.9028987E-01
         -1   -1    0    0    0  501 -0.00000000000E+00  0.00000000000E+00  0.99844882871E+03  0.99844882871E+03  0.00000000000E+00 0.  1.
          1   -1    0    0  501    0  0.00000000000E+00 -0.00000000000E+00 -0.42363152031E+03  0.42363152031E+03  0.00000000000E+00 0. -1.
         23    2    1    2    0    0  0.27973040325E+03 -0.16377956953E+03  0.37182890604E+02  0.34030947671E+03  0.96721903868E+02 0.  0.
        254    2    1    2    0    0 -0.27973040325E+03  0.16377956953E+03  0.53763441780E+03  0.10817708723E+04  0.88096799437E+03 0.  0.
        -24    2    4    4    0    0 -0.25192921477E+02 -0.31790478049E+03  0.39516243318E+03  0.51326682111E+03  0.74775318830E+02 0.  0.
         24    2    4    4    0    0 -0.25453748177E+03  0.48168435002E+03  0.14247198461E+03  0.56850405120E+03  0.78034909842E+02 0.  0.
         11    1    3    3    0    0  0.40679290351E+02 -0.82174704826E+01 -0.24931019849E+02  0.48413709167E+02  0.00000000000E+00 0. -1.
        -11    1    3    3    0    0  0.23905111290E+03 -0.15556209905E+03  0.62113910453E+02  0.29189576754E+03  0.00000000000E+00 0.  1.
          4    1    6    6  502    0 -0.15447179827E+03  0.32450898790E+03  0.12840435679E+03  0.38164813445E+03  0.00000000000E+00 0. -1.
          1    1    5    5  503    0 -0.41481381056E+02 -0.16714832864E+03  0.17147866792E+03  0.24303127842E+03  0.00000000000E+00 0. -1.
         -4    1    5    5    0  503  0.16288459579E+02 -0.15075645185E+03  0.22368376527E+03  0.27023554269E+03  0.00000000000E+00 0.  1.
         -3    1    6    6    0  502 -0.10006568350E+03  0.15717536212E+03  0.14067627826E+02  0.18685591675E+03  0.00000000000E+00 0.  1.
<mgrwt>
<rscale>  0 0.13007296E+04</rscale>
<asrwt>0</asrwt>
<pdfrwt beam="1">  1        1 0.65174080E-01 0.13007296E+04</pdfrwt>
<pdfrwt beam="2">  1       -1 0.15360751E+00 0.13007296E+04</pdfrwt>
<totfact> 0.17854496E+01</totfact>
</mgrwt>
</event>
<event>
12    1  0.1477245E-007  0.2466816E+04  0.7818608E-02  0.8414904E-01
          1   -1    0    0  501    0  0.00000000000E+00  0.00000000000E+00  0.14637098886E+04  0.14637098886E+04  0.00000000000E+00 0. -1.
         -1   -1    0    0    0  501 -0.00000000000E+00 -0.00000000000E+00 -0.10393416706E+04  0.10393416706E+04  0.00000000000E+00 0.  1.
         23    2    1    2    0    0  0.47743079526E+02 -0.68565891578E+03 -0.64747338190E+03  0.94868783794E+03  0.91538424467E+02 0.  0.
        254    2    1    2    0    0 -0.47743079526E+02  0.68565891578E+03  0.10718415999E+04  0.15543637212E+04  0.89151254177E+03 0.  0.
        -24    2    4    4    0    0  0.67799591732E+02  0.35666092397E+02 -0.13627867533E+03  0.17533342843E+03  0.79379336042E+02 0.  0.
         24    2    4    4    0    0 -0.11554267126E+03  0.64999282338E+03  0.12081202752E+04  0.13790302928E+04  0.79556078855E+02 0.  0.
         11    1    3    3    0    0 -0.68444848326E+01 -0.46170905372E+02 -0.18952578377E+02  0.50376578910E+02  0.00000000000E+00 0. -1.
        -11    1    3    3    0    0  0.54587564358E+02 -0.63948801040E+03 -0.62852080352E+03  0.89831125903E+03  0.00000000000E+00 0.  1.
          4    1    6    6  502    0 -0.10209606986E+03  0.58007217247E+03  0.11227699938E+04  0.12678800384E+04  0.00000000000E+00 0. -1.
          1    1    5    5  503    0  0.67492092637E+02  0.20252212219E+02 -0.14229301631E+03  0.15878487698E+03  0.00000000000E+00 0. -1.
         -2    1    5    5    0  503  0.30749909593E+00  0.15413880178E+02  0.60143409750E+01  0.16548551454E+02  0.00000000000E+00 0.  1.
         -3    1    6    6    0  502 -0.13446601397E+02  0.69920650907E+02  0.85350281369E+02  0.11115025435E+03  0.00000000000E+00 0.  1.
<mgrwt>
<rscale>  0 0.24668155E+04</rscale>
<asrwt>0</asrwt>
<pdfrwt beam="1">  1        1 0.22518614E+00 0.24668155E+04</pdfrwt>
<pdfrwt beam="2">  1       -1 0.15989872E+00 0.24668155E+04</pdfrwt>
<totfact> 0.18084854E+00</totfact>
</mgrwt>
</event>
<event>
12    1  0.1477245E-007  0.1645786E+04  0.7818608E-02  0.8792903E-01
         -1   -1    0    0    0  501 -0.00000000000E+00  0.00000000000E+00  0.34624983341E+03  0.34624983341E+03  0.00000000000E+00 0.  1.
          1   -1    0    0  501    0  0.00000000000E+00 -0.00000000000E+00 -0.19556771786E+04  0.19556771786E+04  0.00000000000E+00 0. -1.
         23    2    1    2    0    0 -0.90639291238E+02  0.33206276272E+03  0.75405639841E+02  0.36362667532E+03  0.89761845940E+02 0.  0.
        254    2    1    2    0    0  0.90639291238E+02 -0.33206276272E+03 -0.16848329851E+04  0.19383003367E+04  0.89435163570E+03 0.  0.
        -24    2    4    4    0    0  0.48588275779E+03 -0.19763318471E+03 -0.86588772451E+03  0.10155147078E+04  0.79797494938E+02 0.  0.
         24    2    4    4    0    0 -0.39524346655E+03 -0.13442957801E+03 -0.81894526056E+03  0.92278562897E+03  0.81075692663E+02 0.  0.
         11    1    3    3    0    0 -0.96716835701E+02  0.19410293035E+03  0.57650952490E+02  0.22439635960E+03  0.00000000000E+00 0.  1.
        -11    1    3    3    0    0  0.60775444628E+01  0.13795983236E+03  0.17754687351E+02  0.13923031572E+03  0.00000000000E+00 0. -1.
          2    1    6    6  502    0 -0.23022497955E+03 -0.38164641320E+02 -0.42083373032E+03  0.48120796921E+03  0.00000000000E+00 0. -1.
          3    1    5    5  503    0  0.19079874155E+02 -0.69482534085E+01 -0.11263789734E+02  0.23220525023E+02  0.00000000000E+00 0. -1.
         -4    1    5    5    0  503  0.46680288364E+03 -0.19068493130E+03 -0.85462393478E+03  0.99229418273E+03  0.00000000000E+00 0.  1.
         -1    1    6    6    0  502 -0.16501848701E+03 -0.96264936690E+02 -0.39811153024E+03  0.44157765976E+03  0.00000000000E+00 0.  1.
<mgrwt>
<rscale>  0 0.16457860E+04</rscale>
<asrwt>0</asrwt>
<pdfrwt beam="1">  1        1 0.30087341E+00 0.16457860E+04</pdfrwt>
<pdfrwt beam="2">  1       -1 0.53269206E-01 0.16457860E+04</pdfrwt>
<totfact> 0.10855006E+01</totfact>
</mgrwt>
</event>
<event>
12    1  0.1477245E-007  0.1697466E+04  0.7818608E-02  0.8762811E-01
         -2   -1    0    0    0  501 -0.00000000000E+00  0.00000000000E+00  0.41336939154E+03  0.41336939154E+03  0.00000000000E+00 0.  1.
          2   -1    0    0  501    0  0.00000000000E+00 -0.00000000000E+00 -0.17426251640E+04  0.17426251640E+04  0.00000000000E+00 0. -1.
         23    2    1    2    0    0  0.57360228075E+03 -0.13794816892E+03 -0.57839362308E+03  0.83115491567E+03  0.90719550476E+02 0.  0.
        254    2    1    2    0    0 -0.57360228075E+03  0.13794816892E+03 -0.75086214941E+03  0.13248396399E+04  0.91834461409E+03 0.  0.
        -24    2    4    4    0    0  0.16229851962E+03  0.24302649637E+03 -0.62762258572E+02  0.30871658727E+03  0.77227862505E+02 0.  0.
         24    2    4    4    0    0 -0.73590080036E+03 -0.10507832745E+03 -0.68809989084E+03  0.10161230526E+04  0.80206953685E+02 0.  0.
         13    1    3    3    0    0  0.78255633457E+02  0.92389481060E+01 -0.96396524303E+02  0.12450539036E+03  0.00000000000E+00 0.  1.
        -13    1    3    3    0    0  0.49534664729E+03 -0.14718711703E+03 -0.48199709878E+03  0.70664952532E+03  0.00000000000E+00 0. -1.
          2    1    6    6  502    0 -0.47003645323E+03 -0.33415276390E+02 -0.46067640620E+03  0.65899438487E+03  0.00000000000E+00 0. -1.
          1    1    5    5  503    0  0.37302410256E+02  0.90224079003E+02 -0.52932496017E+02  0.11105720768E+03  0.00000000000E+00 0. -1.
         -2    1    5    5    0  503  0.12499610936E+03  0.15280241737E+03 -0.98297625550E+01  0.19765937959E+03  0.00000000000E+00 0.  1.
         -1    1    6    6    0  502 -0.26586434714E+03 -0.71663051059E+02 -0.22742348464E+03  0.35712866775E+03  0.00000000000E+00 0.  1.
<mgrwt>
<rscale>  0 0.16974662E+04</rscale>
<asrwt>0</asrwt>
<pdfrwt beam="1">  1        2 0.26809618E+00 0.16974662E+04</pdfrwt>
<pdfrwt beam="2">  1       -2 0.63595291E-01 0.16974662E+04</pdfrwt>
<totfact> 0.20218728E+01</totfact>
</mgrwt>
</event>
<event>
12    1  0.1477245E-007  0.2531580E+04  0.7818608E-02  0.8391821E-01
         -2   -1    0    0    0  501 -0.00000000000E+00  0.00000000000E+00  0.70390270423E+03  0.70390270423E+03  0.00000000000E+00 0.  1.
          2   -1    0    0  501    0  0.00000000000E+00 -0.00000000000E+00 -0.22762011426E+04  0.22762011426E+04  0.00000000000E+00 0. -1.
         23    2    1    2    0    0 -0.57810584017E+03 -0.13102160939E+03  0.40611445556E+03  0.72436732192E+03  0.91684466954E+02 0.  0.
        254    2    1    2    0    0  0.57810584017E+03  0.13102160939E+03 -0.19784128939E+04  0.22557365249E+04  0.90711447258E+03 0.  0.
        -24    2    4    4    0    0  0.67910747964E+03 -0.12972437453E+02 -0.19389254389E+04  0.20559865460E+04  0.79332003066E+02 0.  0.
         24    2    4    4    0    0 -0.10100163947E+03  0.14399404684E+03 -0.39487455004E+02  0.19974997888E+03  0.86053345420E+02 0.  0.
         13    1    3    3    0    0 -0.54413567983E+03 -0.14488745111E+03  0.38298333441E+03  0.68099357264E+03  0.00000000000E+00 0.  1.
        -13    1    3    3    0    0 -0.33970160342E+02  0.13865841716E+02  0.23131121154E+02  0.43373749273E+02  0.00000000000E+00 0. -1.
          2    1    6    6  502    0 -0.61571791144E+02  0.18953696167E+02 -0.18005250640E+02  0.66891831442E+02  0.00000000000E+00 0. -1.
          1    1    5    5  503    0  0.22725470443E+03  0.31592701707E+02 -0.68286100113E+03  0.72037625332E+03  0.00000000000E+00 0. -1.
         -2    1    5    5    0  503  0.45185277521E+03 -0.44565139160E+02 -0.12560644378E+04  0.13356102927E+04  0.00000000000E+00 0.  1.
         -1    1    6    6    0  502 -0.39429848324E+02  0.12504035068E+03 -0.21482204365E+02  0.13285814744E+03  0.00000000000E+00 0.  1.
<mgrwt>
<rscale>  0 0.25315799E+04</rscale>
<asrwt>0</asrwt>
<pdfrwt beam="1">  1        2 0.35018479E+00 0.25315799E+04</pdfrwt>
<pdfrwt beam="2">  1       -2 0.10829273E+00 0.25315799E+04</pdfrwt>
<totfact> 0.28384007E+00</totfact>
</mgrwt>
</event>
<event>
12    1  0.1477245E-007  0.2382021E+04  0.7818608E-02  0.8446265E-01
         -1   -1    0    0    0  501 -0.00000000000E+00  0.00000000000E+00  0.64887383640E+03  0.64887383640E+03  0.00000000000E+00 0.  1.
          1   -1    0    0  501    0  0.00000000000E+00 -0.00000000000E+00 -0.21861042497E+04  0.21861042497E+04  0.00000000000E+00 0. -1.
         23    2    1    2    0    0 -0.52338866112E+03  0.68203601806E+03 -0.13100541661E+04  0.15696174536E+04  0.91368550267E+02 0.  0.
        254    2    1    2    0    0  0.52338866112E+03 -0.68203601806E+03 -0.22717624723E+03  0.12653606325E+04  0.90023311566E+03 0.  0.
        -24    2    4    4    0    0  0.28701026281E+03 -0.87680254736E+03 -0.18452792388E+03  0.94441954027E+03  0.81976309657E+02 0.  0.
         24    2    4    4    0    0  0.23637839831E+03  0.19476652930E+03 -0.42648323346E+02  0.32094109226E+03  0.85881063657E+02 0.  0.
         11    1    3    3    0    0 -0.31721895219E+03  0.35721093254E+03 -0.77959362805E+03  0.91432693215E+03  0.00000000000E+00 0. -1.
        -11    1    3    3    0    0 -0.20616970893E+03  0.32482508552E+03 -0.53046053805E+03  0.65529052144E+03  0.00000000000E+00 0.  1.
          4    1    6    6  502    0  0.28979888366E+02  0.45460887085E+02  0.20542457649E+02  0.57693316342E+02  0.00000000000E+00 0. -1.
          1    1    5    5  503    0  0.13680661087E+03 -0.33771073329E+03 -0.10481677063E+03  0.37914528029E+03  0.00000000000E+00 0. -1.
         -2    1    5    5    0  503  0.15020365194E+03 -0.53909181407E+03 -0.79711153248E+02  0.56527425998E+03  0.00000000000E+00 0.  1.
         -3    1    6    6    0  502  0.20739850994E+03  0.14930564221E+03 -0.63190780994E+02  0.26324777592E+03  0.00000000000E+00 0.  1.
<mgrwt>
<rscale>  0 0.23820209E+04</rscale>
<asrwt>0</asrwt>
<pdfrwt beam="1">  1        1 0.33632373E+00 0.23820209E+04</pdfrwt>
<pdfrwt beam="2">  1       -1 0.99826744E-01 0.23820209E+04</pdfrwt>
<totfact> 0.19118652E+00</totfact>
</mgrwt>
</event>
<event>
12    1  0.1477245E-007  0.1594190E+04  0.7818608E-02  0.8824125E-01
          2   -1    0    0  501    0  0.00000000000E+00  0.00000000000E+00  0.17384813596E+04  0.17384813596E+04  0.00000000000E+00 0.  1.
         -2   -1    0    0    0  501 -0.00000000000E+00 -0.00000000000E+00 -0.36546849516E+03  0.36546849516E+03  0.00000000000E+00 0. -1.
         23    2    1    2    0    0 -0.30854395440E+03 -0.43313635322E+03  0.58588679121E+03  0.79625125238E+03  0.89141755219E+02 0.  0.
        254    2    1    2    0    0  0.30854395440E+03  0.43313635322E+03  0.78712607324E+03  0.13076986024E+04  0.89872226368E+03 0.  0.
        -24    2    4    4    0    0 -0.21209404629E+03  0.44633627293E+03  0.26613195777E+03  0.56661319053E+03  0.77616594472E+02 0.  0.
         24    2    4    4    0    0  0.52063800069E+03 -0.13199919710E+02  0.52099411548E+03  0.74108541185E+03  0.80836586132E+02 0.  0.
         11    1    3    3    0    0 -0.92443712003E+02 -0.19314944735E+03  0.19936879642E+03  0.29257557295E+03  0.00000000000E+00 0. -1.
        -11    1    3    3    0    0 -0.21610024239E+03 -0.23998690587E+03  0.38651799479E+03  0.50367567943E+03  0.00000000000E+00 0.  1.
          2    1    6    6  502    0  0.49372607016E+01  0.72450896028E+01  0.16752516824E+01  0.89260481059E+01  0.00000000000E+00 0. -1.
          3    1    5    5  503    0 -0.57323680074E+02  0.61293827509E+02  0.29822949001E+02  0.89063718062E+02  0.00000000000E+00 0. -1.
         -4    1    5    5    0  503 -0.15477036622E+03  0.38504244542E+03  0.23630900877E+03  0.47754947247E+03  0.00000000000E+00 0.  1.
         -1    1    6    6    0  502  0.51570073999E+03 -0.20445009313E+02  0.51931886379E+03  0.73215936375E+03  0.00000000000E+00 0.  1.
<mgrwt>
<rscale>  0 0.15941897E+04</rscale>
<asrwt>0</asrwt>
<pdfrwt beam="1">  1        2 0.26745867E+00 0.15941897E+04</pdfrwt>
<pdfrwt beam="2">  1       -2 0.56225923E-01 0.15941897E+04</pdfrwt>
<totfact> 0.26589199E+01</totfact>
</mgrwt>
</event>
<event>
12    1  0.1728757E-007  0.2815429E+04  0.7818608E-02  0.8298494E-01
         -1   -1    0    0    0  501 -0.00000000000E+00  0.00000000000E+00  0.10683643199E+04  0.10683643199E+04  0.00000000000E+00 0.  1.
          1   -1    0    0  501    0  0.00000000000E+00 -0.00000000000E+00 -0.18548537457E+04  0.18548537457E+04  0.00000000000E+00 0. -1.
         23    2    1    2    0    0 -0.86918716074E+03  0.38808542048E+03 -0.12029134404E+04  0.15366078324E+04  0.89812424110E+02 0.  0.
        254    2    1    2    0    0  0.86918716074E+03 -0.38808542048E+03  0.41642401459E+03  0.13866102332E+04  0.91824962016E+03 0.  0.
        -24    2    4    4    0    0  0.97655950332E+03 -0.29769544368E+03  0.56264239581E+03  0.11684338059E+04  0.79875230808E+02 0.  0.
         24    2    4    4    0    0 -0.10737234258E+03 -0.90389976801E+02 -0.14621838122E+03  0.21817642731E+03  0.80758718229E+02 0.  0.
         11    1    3    3    0    0 -0.25148193744E+03  0.12178654979E+03 -0.29084144693E+03  0.40331609913E+03  0.00000000000E+00 0. -1.
        -11    1    3    3    0    0 -0.61770522330E+03  0.26629887069E+03 -0.91207199349E+03  0.11332917333E+04  0.00000000000E+00 0.  1.
          2    1    6    6  502    0 -0.17194905125E+02  0.11184281180E+00  0.71006738196E+01  0.18603678125E+02  0.00000000000E+00 0. -1.
          1    1    5    5  503    0  0.21764449329E+03 -0.10162737996E+03  0.13423066235E+03  0.27516380673E+03  0.00000000000E+00 0. -1.
         -2    1    5    5    0  503  0.75891501003E+03 -0.19606806372E+03  0.42841173346E+03  0.89326999917E+03  0.00000000000E+00 0.  1.
         -1    1    6    6    0  502 -0.90177437451E+02 -0.90501819613E+02 -0.15331905504E+03  0.19957274918E+03  0.00000000000E+00 0.  1.
<mgrwt>
<rscale>  0 0.28154286E+04</rscale>
<asrwt>0</asrwt>
<pdfrwt beam="1">  1        1 0.28536211E+00 0.28154286E+04</pdfrwt>
<pdfrwt beam="2">  1       -1 0.16436374E+00 0.28154286E+04</pdfrwt>
<totfact> 0.87582059E-01</totfact>
</mgrwt>
</event>
<event>
12    1  0.1477245E-007  0.1386217E+04  0.7818608E-02  0.8963856E-01
         -1   -1    0    0    0  501 -0.00000000000E+00  0.00000000000E+00  0.19368335235E+03  0.19368335235E+03  0.00000000000E+00 0.  1.
          1   -1    0    0  501    0  0.00000000000E+00 -0.00000000000E+00 -0.24803348503E+04  0.24803348503E+04  0.00000000000E+00 0. -1.
         23    2    1    2    0    0  0.26277039159E+03 -0.17779026505E+03 -0.84300991003E+03  0.90544187511E+03  0.92204250207E+02 0.  0.
        254    2    1    2    0    0 -0.26277039159E+03  0.17779026505E+03 -0.14436415879E+04  0.17685763275E+04  0.97113517848E+03 0.  0.
        -24    2    4    4    0    0 -0.53288682735E+03  0.33467548753E+01 -0.39297365727E+03  0.66687640899E+03  0.79475015102E+02 0.  0.
         24    2    4    4    0    0  0.27011643576E+03  0.17444351017E+03 -0.10506679306E+04  0.11016999185E+04  0.80288124414E+02 0.  0.
         13    1    3    3    0    0  0.10604101963E+03 -0.90623698370E+02 -0.25458133796E+03  0.29029125062E+03  0.00000000000E+00 0.  1.
        -13    1    3    3    0    0  0.15672937196E+03 -0.87166566677E+02 -0.58842857207E+03  0.61515062449E+03  0.00000000000E+00 0. -1.
          4    1    6    6  502    0  0.68550339004E+02  0.64223182364E+01 -0.20485472314E+03  0.21611536906E+03  0.00000000000E+00 0. -1.
          3    1    5    5  503    0 -0.11530832282E+03  0.25493968258E+02 -0.11439129041E+03  0.16441204047E+03  0.00000000000E+00 0. -1.
         -4    1    5    5    0  503 -0.41757850454E+03 -0.22147213383E+02 -0.27858236686E+03  0.50246436852E+03  0.00000000000E+00 0.  1.
         -3    1    6    6    0  502  0.20156609676E+03  0.16802119194E+03 -0.84581320746E+03  0.88558454945E+03  0.00000000000E+00 0.  1.
<mgrwt>
<rscale>  0 0.13862173E+04</rscale>
<asrwt>0</asrwt>
<pdfrwt beam="1">  1        1 0.38158994E+00 0.13862173E+04</pdfrwt>
<pdfrwt beam="2">  1       -1 0.29797441E-01 0.13862173E+04</pdfrwt>
<totfact> 0.14140336E+01</totfact>
</mgrwt>
</event>
<event>
12    1  0.1477245E-007  0.3631945E+04  0.7818608E-02  0.8083213E-01
          2   -1    0    0  501    0  0.00000000000E+00  0.00000000000E+00  0.32254999749E+04  0.32254999749E+04  0.00000000000E+00 0. -1.
         -2   -1    0    0    0  501 -0.00000000000E+00 -0.00000000000E+00 -0.10224016803E+04  0.10224016803E+04  0.00000000000E+00 0.  1.
         23    2    1    2    0    0  0.81236867456E+03 -0.13683464766E+04  0.17356245581E+04  0.23572138543E+04  0.10839559566E+03 0.  0.
        254    2    1    2    0    0 -0.81236867456E+03  0.13683464766E+04  0.46747373649E+03  0.18906878009E+04  0.90766388215E+03 0.  0.
        -24    2    4    4    0    0 -0.10021947841E+04  0.10688269911E+04  0.40280980758E+03  0.15215845793E+04  0.78602599006E+02 0.  0.
         24    2    4    4    0    0  0.18982610958E+03  0.29951948548E+03  0.64663928914E+02  0.36910322166E+03  0.79434819073E+02 0.  0.
         11    1    3    3    0    0  0.55855313121E+03 -0.85694078972E+03  0.11570589783E+04  0.15443816228E+04  0.00000000000E+00 0. -1.
        -11    1    3    3    0    0  0.25381554335E+03 -0.51140568684E+03  0.57856557976E+03  0.81283223155E+03  0.00000000000E+00 0.  1.
          4    1    6    6  502    0  0.75541742028E+02  0.18913597628E+03  0.48772525761E+02  0.20942237602E+03  0.00000000000E+00 0. -1.
          3    1    5    5  503    0 -0.19290480196E+03  0.16283655504E+03  0.73645813197E+02  0.26296713118E+03  0.00000000000E+00 0. -1.
         -2    1    5    5    0  503 -0.80928998217E+03  0.90599043603E+03  0.32916399438E+03  0.12586174481E+04  0.00000000000E+00 0.  1.
         -3    1    6    6    0  502  0.11428436755E+03  0.11038350920E+03  0.15891403153E+02  0.15968084564E+03  0.00000000000E+00 0.  1.
<mgrwt>
<rscale>  0 0.36319453E+04</rscale>
<asrwt>0</asrwt>
<pdfrwt beam="1">  1        2 0.49623076E+00 0.36319453E+04</pdfrwt>
<pdfrwt beam="2">  1       -2 0.15729257E+00 0.36319453E+04</pdfrwt>
<totfact> 0.26735025E-01</totfact>
</mgrwt>
</event>
<event>
12    1  0.1477245E-007  0.1226912E+04  0.7818608E-02  0.9089621E-01
          2   -1    0    0  501    0  0.00000000000E+00  0.00000000000E+00  0.44709653047E+04  0.44709653047E+04  0.00000000000E+00 0. -1.
         -2   -1    0    0    0  501 -0.00000000000E+00 -0.00000000000E+00 -0.84171568202E+02  0.84171568202E+02  0.00000000000E+00 0.  1.
         23    2    1    2    0    0  0.57143091753E+02  0.24936342788E+03  0.62862794137E+03  0.68476264315E+03  0.90990860431E+02 0.  0.
        254    2    1    2    0    0 -0.57143091753E+02 -0.24936342788E+03  0.37581657952E+04  0.38703742298E+04  0.88912264765E+03 0.  0.
        -24    2    4    4    0    0 -0.38956240333E+03 -0.27100746503E+03  0.29999739681E+04  0.30383562141E+04  0.80998533614E+02 0.  0.
         24    2    4    4    0    0  0.33241931158E+03  0.21644037149E+02  0.75819182710E+03  0.83201801570E+03  0.80175237507E+02 0.  0.
         13    1    3    3    0    0  0.61925137870E+02  0.23058954766E+03  0.49316658094E+03  0.54792293139E+03  0.00000000000E+00 0.  1.
        -13    1    3    3    0    0 -0.47820461179E+01  0.18773880218E+02  0.13546136043E+03  0.13683971176E+03  0.00000000000E+00 0. -1.
          4    1    6    6  502    0  0.19581840700E+03  0.36141728537E+02  0.52332986133E+03  0.55993322532E+03  0.00000000000E+00 0. -1.
          3    1    5    5  503    0 -0.22826594843E+03 -0.16428436112E+03  0.15200980672E+04  0.15458954779E+04  0.00000000000E+00 0. -1.
         -4    1    5    5    0  503 -0.16129645490E+03 -0.10672310391E+03  0.14798759008E+04  0.14924607362E+04  0.00000000000E+00 0.  1.
         -3    1    6    6    0  502  0.13660090458E+03 -0.14497691389E+02  0.23486196577E+03  0.27208479038E+03  0.00000000000E+00 0.  1.
<mgrwt>
<rscale>  0 0.12269118E+04</rscale>
<asrwt>0</asrwt>
<pdfrwt beam="1">  1        2 0.68784063E+00 0.12269118E+04</pdfrwt>
<pdfrwt beam="2">  1       -2 0.12949476E-01 0.12269118E+04</pdfrwt>
<totfact> 0.61395603E+00</totfact>
</mgrwt>
</event>
<event>
12    1  0.1477245E-007  0.1982117E+04  0.7818608E-02  0.8615028E-01
         -2   -1    0    0    0  501 -0.00000000000E+00  0.00000000000E+00  0.52046753432E+03  0.52046753432E+03  0.00000000000E+00 0.  1.
          2   -1    0    0  501    0  0.00000000000E+00 -0.00000000000E+00 -0.18871433286E+04  0.18871433286E+04  0.00000000000E+00 0. -1.
         23    2    1    2    0    0 -0.31676578626E+03 -0.54882320687E+03 -0.11162713627E+04  0.12868173463E+04  0.91047524482E+02 0.  0.
        254    2    1    2    0    0  0.31676578626E+03  0.54882320687E+03 -0.25040443154E+03  0.11207935166E+04  0.88990350702E+03 0.  0.
        -24    2    4    4    0    0 -0.30394566054E+01  0.63973790107E+03 -0.38787551980E+03  0.75248751570E+03  0.80723119687E+02 0.  0.
         24    2    4    4    0    0  0.31980524287E+03 -0.90914694201E+02  0.13747108826E+03  0.36830600092E+03  0.78804411175E+02 0.  0.
         11    1    3    3    0    0 -0.20958311997E+03 -0.41038838072E+03 -0.87218921148E+03  0.98643688487E+03  0.00000000000E+00 0.  1.
        -11    1    3    3    0    0 -0.10718266629E+03 -0.13843482615E+03 -0.24408215125E+03  0.30038046142E+03  0.00000000000E+00 0. -1.
          4    1    6    6  502    0  0.19130394082E+01 -0.48298102486E+01 -0.69610395498E+01  0.86857848482E+01  0.00000000000E+00 0. -1.
          3    1    5    5  503    0  0.17527130869E+02  0.21728182419E+03 -0.93617077934E+02  0.23723985483E+03  0.00000000000E+00 0. -1.
         -2    1    5    5    0  503 -0.20566587475E+02  0.42245607688E+03 -0.29425844187E+03  0.51524766086E+03  0.00000000000E+00 0.  1.
         -3    1    6    6    0  502  0.31789220346E+03 -0.86084883952E+02  0.14443212781E+03  0.35962021607E+03  0.00000000000E+00 0.  1.
<mgrwt>
<rscale>  0 0.19821169E+04</rscale>
<asrwt>0</asrwt>
<pdfrwt beam="1">  1        2 0.29032974E+00 0.19821169E+04</pdfrwt>
<pdfrwt beam="2">  1       -2 0.80071929E-01 0.19821169E+04</pdfrwt>
<totfact> 0.99068329E+00</totfact>
</mgrwt>
</event>
<event>
12    1  0.1477245E-007  0.2938409E+04  0.7818608E-02  0.8261540E-01
         -1   -1    0    0    0  501 -0.00000000000E+00  0.00000000000E+00  0.89654519375E+03  0.89654519375E+03  0.00000000000E+00 0.  1.
          1   -1    0    0  501    0  0.00000000000E+00 -0.00000000000E+00 -0.24076448677E+04  0.24076448677E+04  0.00000000000E+00 0. -1.
         23    2    1    2    0    0  0.12570070189E+04 -0.38450592719E+03 -0.46037879734E+03  0.13955653522E+04  0.87991826910E+02 0.  0.
        254    2    1    2    0    0 -0.12570070189E+04  0.38450592719E+03 -0.10507208766E+04  0.19086247093E+04  0.90051233559E+03 0.  0.
        -24    2    4    4    0    0 -0.13589815159E+04  0.46017468024E+03 -0.90084830101E+03  0.16960500348E+04  0.80414937143E+02 0.  0.
         24    2    4    4    0    0  0.10197449700E+03 -0.75668753047E+02 -0.14987257562E+03  0.21257467447E+03  0.81250508160E+02 0.  0.
         13    1    3    3    0    0  0.11356158212E+04 -0.36112112601E+03 -0.39306335563E+03  0.12548029975E+04  0.00000000000E+00 0.  1.
        -13    1    3    3    0    0  0.12139119772E+03 -0.23384801178E+02 -0.67315441718E+02  0.14076235471E+03  0.00000000000E+00 0. -1.
          2    1    6    6  502    0  0.11540089984E+03 -0.63580688626E+02 -0.13883857916E+03  0.19140538841E+03  0.00000000000E+00 0. -1.
          1    1    5    5  503    0 -0.12660556985E+04  0.43908445108E+03 -0.86076662928E+03  0.15926742847E+04  0.00000000000E+00 0. -1.
         -2    1    5    5    0  503 -0.92925817395E+02  0.21090229159E+02 -0.40081671734E+02  0.10337575012E+03  0.00000000000E+00 0.  1.
         -1    1    6    6    0  502 -0.13426402832E+02 -0.12088064421E+02 -0.11033996465E+02  0.21169286064E+02  0.00000000000E+00 0.  1.
<mgrwt>
<rscale>  0 0.29384094E+04</rscale>
<asrwt>0</asrwt>
<pdfrwt beam="1">  1        1 0.37040690E+00 0.29384094E+04</pdfrwt>
<pdfrwt beam="2">  1       -1 0.13793003E+00 0.29384094E+04</pdfrwt>
<totfact> 0.58497499E-01</totfact>
</mgrwt>
</event>
<event>
12    1  0.1477245E-007  0.2303688E+04  0.7818608E-02  0.8476468E-01
          1   -1    0    0  501    0  0.00000000000E+00  0.00000000000E+00  0.80428235898E+03  0.80428235898E+03  0.00000000000E+00 0. -1.
         -1   -1    0    0    0  501 -0.00000000000E+00 -0.00000000000E+00 -0.16496004782E+04  0.16496004782E+04  0.00000000000E+00 0.  1.
         23    2    1    2    0    0 -0.22424158566E+03 -0.20076975319E+03  0.62580165153E+03  0.70055760207E+03  0.92522776819E+02 0.  0.
        254    2    1    2    0    0  0.22424158566E+03  0.20076975319E+03 -0.14711197708E+04  0.17533252351E+04  0.90518684127E+03 0.  0.
        -24    2    4    4    0    0  0.13834859462E+03 -0.34189993932E+03 -0.42272061711E+03  0.56679134260E+03  0.80770067331E+02 0.  0.
         24    2    4    4    0    0  0.85892991041E+02  0.54266969251E+03 -0.10483991537E+04  0.11865338925E+04  0.82788233614E+02 0.  0.
         11    1    3    3    0    0 -0.44080384376E+02 -0.80563810664E+01  0.49657424654E+02  0.66886810253E+02  0.00000000000E+00 0.  1.
        -11    1    3    3    0    0 -0.18016120128E+03 -0.19271337213E+03  0.57614422688E+03  0.63367079182E+03  0.00000000000E+00 0. -1.
          4    1    6    6  502    0  0.85065375005E+02  0.36547712557E+03 -0.76925939920E+03  0.85590283946E+03  0.00000000000E+00 0. -1.
          3    1    5    5  503    0 -0.59230564089E+01 -0.58009413816E+01 -0.68413285055E+00  0.83187472550E+01  0.00000000000E+00 0. -1.
         -4    1    5    5    0  503  0.14427165102E+03 -0.33609899794E+03 -0.42203648426E+03  0.55847259534E+03  0.00000000000E+00 0.  1.
         -3    1    6    6    0  502  0.82761603614E+00  0.17719256694E+03 -0.27913975446E+03  0.33063105305E+03  0.00000000000E+00 0.  1.
<mgrwt>
<rscale>  0 0.23036880E+04</rscale>
<asrwt>0</asrwt>
<pdfrwt beam="1">  1        1 0.12373575E+00 0.23036880E+04</pdfrwt>
<pdfrwt beam="2">  1       -1 0.25378469E+00 0.23036880E+04</pdfrwt>
<totfact> 0.13044900E+00</totfact>
</mgrwt>
</event>
<event>
12    1  0.1477245E-007  0.2392834E+04  0.7818608E-02  0.8442191E-01
         -2   -1    0    0    0  501 -0.00000000000E+00  0.00000000000E+00  0.46622602758E+03  0.46622602758E+03  0.00000000000E+00 0.  1.
          2   -1    0    0  501    0  0.00000000000E+00 -0.00000000000E+00 -0.30702150140E+04  0.30702150140E+04  0.00000000000E+00 0. -1.
         23    2    1    2    0    0 -0.30399105560E+03 -0.13153217454E+03 -0.25728079072E+04  0.25955704787E+04  0.89074730145E+02 0.  0.
        254    2    1    2    0    0  0.30399105560E+03  0.13153217454E+03 -0.31181079178E+02  0.94087056288E+03  0.88008742837E+03 0.  0.
        -24    2    4    4    0    0 -0.13890931119E+02  0.42510914809E+03 -0.19020184324E+03  0.47281638049E+03  0.80422899262E+02 0.  0.
         24    2    4    4    0    0  0.31788198672E+03 -0.29357697355E+03  0.15902076406E+03  0.46805418239E+03  0.80936502086E+02 0.  0.
         11    1    3    3    0    0 -0.22554269207E+03 -0.52963086503E+02 -0.17883877346E+04  0.18033317176E+04  0.00000000000E+00 0. -1.
        -11    1    3    3    0    0 -0.78448363532E+02 -0.78569088034E+02 -0.78442017260E+03  0.79223876105E+03  0.00000000000E+00 0.  1.
          2    1    6    6  502    0  0.11963148076E+03 -0.60223224482E+02  0.52501542722E+02  0.14385735972E+03  0.00000000000E+00 0. -1.
          3    1    5    5  503    0 -0.44008515407E+02  0.16873255166E+03 -0.86114313147E+02  0.19448161442E+03  0.00000000000E+00 0. -1.
         -4    1    5    5    0  503  0.30117584288E+02  0.25637659643E+03 -0.10408753010E+03  0.27833476607E+03  0.00000000000E+00 0.  1.
         -1    1    6    6    0  502  0.19825050596E+03 -0.23335374907E+03  0.10651922134E+03  0.32419682268E+03  0.00000000000E+00 0.  1.
<mgrwt>
<rscale>  0 0.23928344E+04</rscale>
<asrwt>0</asrwt>
<pdfrwt beam="1">  1        2 0.47234075E+00 0.23928344E+04</pdfrwt>
<pdfrwt beam="2">  1       -2 0.71727085E-01 0.23928344E+04</pdfrwt>
<totfact> 0.24943009E+00</totfact>
</mgrwt>
</event>
<event>
12    1  0.1477245E-007  0.1085305E+04  0.7818608E-02  0.9219634E-01
          1   -1    0    0  501    0  0.00000000000E+00  0.00000000000E+00  0.16560009358E+03  0.16560009358E+03  0.00000000000E+00 0. -1.
         -1   -1    0    0    0  501 -0.00000000000E+00 -0.00000000000E+00 -0.17782099526E+04  0.17782099526E+04  0.00000000000E+00 0.  1.
         23    2    1    2    0    0 -0.17092837716E+02 -0.26302537796E+03 -0.37448730486E+03  0.46715594107E+03  0.92300689157E+02 0.  0.
        254    2    1    2    0    0  0.17092837716E+02  0.26302537796E+03 -0.12381225541E+04  0.14766541051E+04  0.76031925695E+03 0.  0.
        -24    2    4    4    0    0  0.47044121058E+02  0.21650478046E+03  0.22904585828E+01  0.23244519844E+03  0.70271294207E+02 0.  0.
         24    2    4    4    0    0 -0.29951283342E+02  0.46520597506E+02 -0.12404130127E+04  0.12442089067E+04  0.79813006045E+02 0.  0.
         13    1    3    3    0    0  0.13608675530E+02 -0.24928659055E+02 -0.92792456386E+02  0.97041609911E+02  0.00000000000E+00 0.  1.
        -13    1    3    3    0    0 -0.30701513246E+02 -0.23809671891E+03 -0.28169484848E+03  0.37011433116E+03  0.00000000000E+00 0. -1.
          2    1    6    6  502    0 -0.48681595752E+01 -0.10620929933E+02 -0.30097230181E+02  0.32285389805E+02  0.00000000000E+00 0. -1.
          3    1    5    5  503    0  0.39299913070E+02  0.67850105231E+02 -0.22419072360E+02  0.81552037085E+02  0.00000000000E+00 0. -1.
         -4    1    5    5    0  503  0.77442079886E+01  0.14865467522E+03  0.24709530943E+02  0.15089316135E+03  0.00000000000E+00 0.  1.
         -1    1    6    6    0  502 -0.25083123767E+02  0.57141527439E+02 -0.12103157825E+04  0.12119235168E+04  0.00000000000E+00 0.  1.
<mgrwt>
<rscale>  0 0.10853050E+04</rscale>
<asrwt>0</asrwt>
<pdfrwt beam="1">  1        1 0.25476939E-01 0.10853050E+04</pdfrwt>
<pdfrwt beam="2">  1       -1 0.27357075E+00 0.10853050E+04</pdfrwt>
<totfact> 0.93700121E+00</totfact>
</mgrwt>
</event>
<event>
12    1  0.1477245E-007  0.2316483E+04  0.7818608E-02  0.8471450E-01
          2   -1    0    0  501    0  0.00000000000E+00  0.00000000000E+00  0.12330297738E+04  0.12330297738E+04  0.00000000000E+00 0. -1.
         -2   -1    0    0    0  501 -0.00000000000E+00 -0.00000000000E+00 -0.10879896657E+04  0.10879896657E+04  0.00000000000E+00 0.  1.
         23    2    1    2    0    0 -0.68148109609E+03 -0.22422906060E+03  0.72069303023E+03  0.10210038636E+04  0.91407273981E+02 0.  0.
        254    2    1    2    0    0  0.68148109609E+03  0.22422906060E+03 -0.57565292206E+03  0.13000155759E+04  0.91867788418E+03 0.  0.
        -24    2    4    4    0    0 -0.15758425861E+03  0.18108760366E+03 -0.33957726748E+03  0.42339078616E+03  0.79507977316E+02 0.  0.
         24    2    4    4    0    0  0.83906535470E+03  0.43141456944E+02 -0.23607565458E+03  0.87662478971E+03  0.82749335220E+02 0.  0.
         13    1    3    3    0    0 -0.50647789535E+02  0.52810659267E+00  0.29553457689E+02  0.58642001524E+02  0.00000000000E+00 0.  1.
        -13    1    3    3    0    0 -0.63083330656E+03 -0.22475716720E+03  0.69113957254E+03  0.96236186208E+03  0.00000000000E+00 0. -1.
          2    1    6    6  502    0  0.82086487197E+03  0.39911582651E+02 -0.21686730643E+03  0.84996676468E+03  0.00000000000E+00 0. -1.
          3    1    5    5  503    0 -0.73271639282E+02  0.34555995141E+02 -0.14082914181E+03  0.16246752631E+03  0.00000000000E+00 0. -1.
         -4    1    5    5    0  503 -0.84312619327E+02  0.14653160852E+03 -0.19874812567E+03  0.26092325985E+03  0.00000000000E+00 0.  1.
         -1    1    6    6    0  502  0.18200482733E+02  0.32298742933E+01 -0.19208348156E+02  0.26658025031E+02  0.00000000000E+00 0.  1.
<mgrwt>
<rscale>  0 0.23164832E+04</rscale>
<asrwt>0</asrwt>
<pdfrwt beam="1">  1        2 0.18969689E+00 0.23164832E+04</pdfrwt>
<pdfrwt beam="2">  1       -2 0.16738303E+00 0.23164832E+04</pdfrwt>
<totfact> 0.36471562E+00</totfact>
</mgrwt>
</event>
<event>
12    1  0.1477245E-007  0.2315474E+04  0.7818608E-02  0.8471845E-01
         -2   -1    0    0    0  501 -0.00000000000E+00  0.00000000000E+00  0.76980628958E+03  0.76980628958E+03  0.00000000000E+00 0.  1.
          2   -1    0    0  501    0  0.00000000000E+00 -0.00000000000E+00 -0.17411593669E+04  0.17411593669E+04  0.00000000000E+00 0. -1.
         23    2    1    2    0    0 -0.84294359929E+03 -0.14420725038E+03  0.70281169458E+02  0.86288949440E+03  0.91045011492E+02 0.  0.
        254    2    1    2    0    0  0.84294359929E+03  0.14420725038E+03 -0.10416342468E+04  0.16480761621E+04  0.94857972217E+03 0.  0.
        -24    2    4    4    0    0  0.46787486263E+03  0.53091999767E+03 -0.44169349822E+03  0.83798504830E+03  0.79642098086E+02 0.  0.
         24    2    4    4    0    0  0.37506873666E+03 -0.38671274729E+03 -0.59994074854E+03  0.81009111377E+03  0.78073072976E+02 0.  0.
         11    1    3    3    0    0 -0.53632839389E+03 -0.13146111962E+03  0.64458914200E+02  0.55595424603E+03  0.00000000000E+00 0.  1.
        -11    1    3    3    0    0 -0.30661520540E+03 -0.12746130758E+02  0.58222552579E+01  0.30693524836E+03  0.00000000000E+00 0. -1.
          2    1    6    6  502    0  0.36345395463E+03 -0.36251169387E+03 -0.54354603190E+03  0.74763346242E+03  0.00000000000E+00 0. -1.
          1    1    5    5  503    0  0.20902302863E+03  0.24704115119E+03 -0.15612139954E+03  0.35929632377E+03  0.00000000000E+00 0. -1.
         -2    1    5    5    0  503  0.25885183401E+03  0.28387884648E+03 -0.28557209868E+03  0.47868872453E+03  0.00000000000E+00 0.  1.
         -1    1    6    6    0  502  0.11614782021E+02 -0.24201053419E+02 -0.56394716641E+02  0.62457651357E+02  0.00000000000E+00 0.  1.
<mgrwt>
<rscale>  0 0.23154744E+04</rscale>
<asrwt>0</asrwt>
<pdfrwt beam="1">  1        2 0.26787067E+00 0.23154744E+04</pdfrwt>
<pdfrwt beam="2">  1       -2 0.11843174E+00 0.23154744E+04</pdfrwt>
<totfact> 0.46220979E+00</totfact>
</mgrwt>
</event>
<event>
12    1  0.1477245E-007  0.1564792E+04  0.7818608E-02  0.8842475E-01
         -2   -1    0    0    0  501 -0.00000000000E+00  0.00000000000E+00  0.23590657710E+03  0.23590657710E+03  0.00000000000E+00 0.  1.
          2   -1    0    0  501    0  0.00000000000E+00 -0.00000000000E+00 -0.25948545753E+04  0.25948545753E+04  0.00000000000E+00 0. -1.
         23    2    1    2    0    0  0.44865312563E+03 -0.34183995367E+02 -0.14308426934E+04  0.15027525460E+04  0.92174988982E+02 0.  0.
        254    2    1    2    0    0 -0.44865312563E+03  0.34183995367E+02 -0.92810530478E+03  0.13280086064E+04  0.83652210321E+03 0.  0.
        -24    2    4    4    0    0 -0.10801548711E+03 -0.35929184240E+03 -0.58472059327E+03  0.69924052958E+03  0.79253848759E+02 0.  0.
         24    2    4    4    0    0 -0.34063763852E+03  0.39347583777E+03 -0.34338471152E+03  0.62876807680E+03  0.81111026447E+02 0.  0.
         13    1    3    3    0    0  0.23205016404E+03 -0.63788364316E+02 -0.75728010266E+03  0.79460014343E+03  0.00000000000E+00 0. -1.
        -13    1    3    3    0    0  0.21660296160E+03  0.29604368949E+02 -0.67356259074E+03  0.70815240258E+03  0.00000000000E+00 0.  1.
          4    1    6    6  502    0 -0.22345572496E+02  0.59017475526E+02 -0.59721263523E+02  0.86885075499E+02  0.00000000000E+00 0. -1.
          3    1    5    5  503    0  0.14194770280E+01  0.13662243307E+01 -0.21242061069E+02  0.21333228598E+02  0.00000000000E+00 0. -1.
         -4    1    5    5    0  503 -0.10943496414E+03 -0.36065806673E+03 -0.56347853220E+03  0.67790730098E+03  0.00000000000E+00 0.  1.
         -3    1    6    6    0  502 -0.31829206603E+03  0.33445836224E+03 -0.28366344799E+03  0.54188300130E+03  0.00000000000E+00 0.  1.
<mgrwt>
<rscale>  0 0.15647917E+04</rscale>
<asrwt>0</asrwt>
<pdfrwt beam="1">  1        2 0.39920836E+00 0.15647917E+04</pdfrwt>
<pdfrwt beam="2">  1       -2 0.36293322E-01 0.15647917E+04</pdfrwt>
<totfact> 0.21114992E+01</totfact>
</mgrwt>
</event>
<event>
12    1  0.1477245E-007  0.1959508E+04  0.7818608E-02  0.8625790E-01
          2   -1    0    0  501    0  0.00000000000E+00  0.00000000000E+00  0.15366498811E+04  0.15366498811E+04  0.00000000000E+00 0.  1.
         -2   -1    0    0    0  501 -0.00000000000E+00 -0.00000000000E+00 -0.62468224111E+03  0.62468224111E+03  0.00000000000E+00 0. -1.
         23    2    1    2    0    0  0.56098114893E+03 -0.51971614625E+03  0.24856108728E+03  0.80924552460E+03  0.91054834356E+02 0.  0.
        254    2    1    2    0    0 -0.56098114893E+03  0.51971614625E+03  0.66340655268E+03  0.13520865976E+04  0.89622831415E+03 0.  0.
        -24    2    4    4    0    0 -0.30040134516E+03 -0.21159953589E+03  0.98782224932E+02  0.38877193376E+03  0.79814514698E+02 0.  0.
         24    2    4    4    0    0 -0.26057980377E+03  0.73131568213E+03  0.56462432775E+03  0.96331466382E+03  0.80312196906E+02 0.  0.
         13    1    3    3    0    0  0.49302440442E+03 -0.45852235121E+03  0.18620680976E+03  0.69856194136E+03  0.00000000000E+00 0. -1.
        -13    1    3    3    0    0  0.67956744509E+02 -0.61193795038E+02  0.62354277521E+02  0.11068358325E+03  0.00000000000E+00 0.  1.
          4    1    6    6  502    0 -0.50519283103E+02  0.17657051452E+03  0.17451912229E+03  0.25335009099E+03  0.00000000000E+00 0. -1.
          1    1    5    5  503    0 -0.10948275310E+03 -0.11031783739E+03  0.71002459740E+02  0.17087377728E+03  0.00000000000E+00 0. -1.
         -2    1    5    5    0  503 -0.19091859205E+03 -0.10128169850E+03  0.27779765193E+02  0.21789815648E+03  0.00000000000E+00 0.  1.
         -3    1    6    6    0  502 -0.21006052067E+03  0.55474516762E+03  0.39010520546E+03  0.70996457282E+03  0.00000000000E+00 0.  1.
<mgrwt>
<rscale>  0 0.19595080E+04</rscale>
<asrwt>0</asrwt>
<pdfrwt beam="1">  1        2 0.23640767E+00 0.19595080E+04</pdfrwt>
<pdfrwt beam="2">  1       -2 0.96104961E-01 0.19595080E+04</pdfrwt>
<totfact> 0.10234551E+01</totfact>
</mgrwt>
</event>
<event>
12    1  0.1477245E-007  0.1706442E+04  0.7818608E-02  0.8757699E-01
          1   -1    0    0  501    0  0.00000000000E+00  0.00000000000E+00  0.97355120235E+03  0.97355120235E+03  0.00000000000E+00 0. -1.
         -1   -1    0    0    0  501 -0.00000000000E+00 -0.00000000000E+00 -0.74776345627E+03  0.74776345627E+03  0.00000000000E+00 0.  1.
         23    2    1    2    0    0 -0.43296933568E+03 -0.25359089894E+03  0.43350333501E+03  0.67234031014E+03  0.11111058234E+03 0.  0.
        254    2    1    2    0    0  0.43296933568E+03  0.25359089894E+03 -0.20771558893E+03  0.10489743485E+04  0.89745786989E+03 0.  0.
        -24    2    4    4    0    0  0.19649355973E+03  0.47831245156E+03  0.16344186460E+03  0.54840904861E+03  0.81527425822E+02 0.  0.
         24    2    4    4    0    0  0.23647577595E+03 -0.22472155262E+03 -0.37115745353E+03  0.50056529987E+03  0.79919930557E+02 0.  0.
         11    1    3    3    0    0 -0.42917607387E+03 -0.26204699819E+03  0.41636142926E+03  0.65285340730E+03  0.00000000000E+00 0. -1.
        -11    1    3    3    0    0 -0.37932618095E+01  0.84560992481E+01  0.17141905751E+02  0.19486902843E+02  0.00000000000E+00 0.  1.
          2    1    6    6  502    0  0.13387761154E+03 -0.72721719279E+02 -0.17535028720E+03  0.23229159810E+03  0.00000000000E+00 0. -1.
          3    1    5    5  503    0  0.83290068267E+02  0.16854684691E+03  0.98608133054E+02  0.21229422738E+03  0.00000000000E+00 0. -1.
         -4    1    5    5    0  503  0.11320349146E+03  0.30976560465E+03  0.64833731546E+02  0.33611482123E+03  0.00000000000E+00 0.  1.
         -1    1    6    6    0  502  0.10259816442E+03 -0.15199983334E+03 -0.19580716633E+03  0.26827370178E+03  0.00000000000E+00 0.  1.
<mgrwt>
<rscale>  0 0.17064419E+04</rscale>
<asrwt>0</asrwt>
<pdfrwt beam="1">  1        1 0.14977711E+00 0.17064419E+04</pdfrwt>
<pdfrwt beam="2">  1       -1 0.11504053E+00 0.17064419E+04</pdfrwt>
<totfact> 0.10356678E+01</totfact>
</mgrwt>
</event>
<event>
12    1  0.1477245E-007  0.3948334E+04  0.7818608E-02  0.8015051E-01
          2   -1    0    0  501    0  0.00000000000E+00  0.00000000000E+00  0.20084143723E+04  0.20084143723E+04  0.00000000000E+00 0. -1.
         -2   -1    0    0    0  501 -0.00000000000E+00 -0.00000000000E+00 -0.19405039714E+04  0.19405039714E+04  0.00000000000E+00 0.  1.
         23    2    1    2    0    0  0.91493028660E+03 -0.39921309861E+03  0.16133677114E+04  0.18995944390E+04  0.95053318052E+02 0.  0.
        254    2    1    2    0    0 -0.91493028660E+03  0.39921309861E+03 -0.15454573104E+04  0.20493239047E+04  0.90267471472E+03 0.  0.
        -24    2    4    4    0    0 -0.41584078528E+03  0.13191395178E+02 -0.13008944093E+04  0.13681376375E+04  0.79854614672E+02 0.  0.
         24    2    4    4    0    0 -0.49908950132E+03  0.38602170343E+03 -0.24456290111E+03  0.68118626716E+03  0.78106543325E+02 0.  0.
         11    1    3    3    0    0  0.70213094015E+03 -0.29578887674E+03  0.13019270642E+04  0.15084737310E+04  0.00000000000E+00 0. -1.
        -11    1    3    3    0    0  0.21279934645E+03 -0.10342422187E+03  0.31144064721E+03  0.39112070803E+03  0.00000000000E+00 0.  1.
          2    1    6    6  502    0 -0.48402759112E+03  0.38186831278E+03 -0.24905083037E+03  0.66493039740E+03  0.00000000000E+00 0. -1.
          3    1    5    5  503    0 -0.17517641714E+03 -0.31570211201E+02 -0.59097306164E+03  0.61719738734E+03  0.00000000000E+00 0. -1.
         -4    1    5    5    0  503 -0.24066436814E+03  0.44761606379E+02 -0.70992134767E+03  0.75094025020E+03  0.00000000000E+00 0.  1.
         -1    1    6    6    0  502 -0.15061910200E+02  0.41533906562E+01  0.44879292520E+01  0.16255869764E+02  0.00000000000E+00 0.  1.
<mgrwt>
<rscale>  0 0.39483344E+04</rscale>
<asrwt>0</asrwt>
<pdfrwt beam="1">  1        2 0.30898682E+00 0.39483344E+04</pdfrwt>
<pdfrwt beam="2">  1       -2 0.29853907E+00 0.39483344E+04</pdfrwt>
<totfact> 0.16988272E-01</totfact>
</mgrwt>
</event>
<event>
12    1  0.1477245E-007  0.1819736E+04  0.7818608E-02  0.8695874E-01
         -2   -1    0    0    0  501 -0.00000000000E+00  0.00000000000E+00  0.25902495103E+03  0.25902495103E+03  0.00000000000E+00 0.  1.
          2   -1    0    0  501    0  0.00000000000E+00 -0.00000000000E+00 -0.31960633738E+04  0.31960633738E+04  0.00000000000E+00 0. -1.
         23    2    1    2    0    0 -0.51517978066E+03 -0.85207479098E+02 -0.26771424410E+03  0.59375665307E+03  0.90584356661E+02 0.  0.
        254    2    1    2    0    0  0.51517978066E+03  0.85207479098E+02 -0.26693241787E+04  0.28613316718E+04  0.88840128554E+03 0.  0.
        -24    2    4    4    0    0  0.83217457717E+02 -0.37625776113E+02 -0.22122684818E+04  0.22155817757E+04  0.79560824101E+02 0.  0.
         24    2    4    4    0    0  0.43196232294E+03  0.12283325521E+03 -0.45705569689E+03  0.64574989613E+03  0.80084713111E+02 0.  0.
         13    1    3    3    0    0 -0.48023609651E+03 -0.58226319462E+02 -0.22979004046E+03  0.53555622988E+03  0.00000000000E+00 0.  1.
        -13    1    3    3    0    0 -0.34943684152E+02 -0.26981159636E+02 -0.37924203645E+02  0.58200423191E+02  0.00000000000E+00 0. -1.
          2    1    6    6  502    0  0.30002922286E+03  0.84490611038E+02 -0.36686455175E+03  0.48139983097E+03  0.00000000000E+00 0. -1.
          1    1    5    5  503    0  0.92378990096E+02 -0.20284567730E+02 -0.20416915492E+04  0.20438810444E+04  0.00000000000E+00 0. -1.
         -2    1    5    5    0  503 -0.91615323785E+01 -0.17341208384E+02 -0.17057693258E+03  0.17170073126E+03  0.00000000000E+00 0.  1.
         -1    1    6    6    0  502  0.13193310008E+03  0.38342644172E+02 -0.90191145133E+02  0.16435006517E+03  0.00000000000E+00 0.  1.
<mgrwt>
<rscale>  0 0.18197364E+04</rscale>
<asrwt>0</asrwt>
<pdfrwt beam="1">  1        2 0.49170208E+00 0.18197364E+04</pdfrwt>
<pdfrwt beam="2">  1       -2 0.39849991E-01 0.18197364E+04</pdfrwt>
<totfact> 0.73634391E+00</totfact>
</mgrwt>
</event>
<event>
12    1  0.1477245E-007  0.1371446E+04  0.7818608E-02  0.8974751E-01
          2   -1    0    0  501    0  0.00000000000E+00  0.00000000000E+00  0.18631852083E+04  0.18631852083E+04  0.00000000000E+00 0. -1.
         -2   -1    0    0    0  501 -0.00000000000E+00 -0.00000000000E+00 -0.25237213853E+03  0.25237213853E+03  0.00000000000E+00 0.  1.
         23    2    1    2    0    0 -0.16666826664E+03 -0.97651112450E+02 -0.54508996155E+02  0.21976431940E+03  0.89504606311E+02 0.  0.
        254    2    1    2    0    0  0.16666826664E+03  0.97651112450E+02  0.16653220659E+04  0.18957930274E+04  0.88510991902E+03 0.  0.
        -24    2    4    4    0    0  0.34160122309E+03 -0.14832359621E+03  0.14900393355E+04  0.15378840893E+04  0.78606399879E+02 0.  0.
         24    2    4    4    0    0 -0.17493295645E+03  0.24597470866E+03  0.17528273041E+03  0.35790893808E+03  0.79181284595E+02 0.  0.
         13    1    3    3    0    0 -0.10525622272E+03 -0.19832364283E+02 -0.10008574190E+01  0.10711300953E+03  0.00000000000E+00 0.  1.
        -13    1    3    3    0    0 -0.61412043922E+02 -0.77818748167E+02 -0.53508138736E+02  0.11265130987E+03  0.00000000000E+00 0. -1.
          2    1    6    6  502    0 -0.37745236412E+01  0.13861262580E+01 -0.70407740966E+01  0.81080746544E+01  0.00000000000E+00 0. -1.
          3    1    5    5  503    0  0.19571970629E+03 -0.60901797253E+02  0.68181006589E+03  0.71195519402E+03  0.00000000000E+00 0. -1.
         -4    1    5    5    0  503  0.14588151679E+03 -0.87421798954E+02  0.80822926958E+03  0.82592889529E+03  0.00000000000E+00 0.  1.
         -1    1    6    6    0  502 -0.17115843280E+03  0.24458858240E+03  0.18232350450E+03  0.34980086343E+03  0.00000000000E+00 0.  1.
<mgrwt>
<rscale>  0 0.13714460E+04</rscale>
<asrwt>0</asrwt>
<pdfrwt beam="1">  1        2 0.28664387E+00 0.13714460E+04</pdfrwt>
<pdfrwt beam="2">  1       -2 0.38826484E-01 0.13714460E+04</pdfrwt>
<totfact> 0.48673366E+01</totfact>
</mgrwt>
</event>
<event>
12    1  0.1477245E-007  0.2024802E+04  0.7818608E-02  0.8595112E-01
         -2   -1    0    0    0  501 -0.00000000000E+00  0.00000000000E+00  0.89532603697E+03  0.89532603697E+03  0.00000000000E+00 0.  1.
          2   -1    0    0  501    0  0.00000000000E+00 -0.00000000000E+00 -0.11447854574E+04  0.11447854574E+04  0.00000000000E+00 0. -1.
         23    2    1    2    0    0  0.71120891987E+03  0.35648650182E+03  0.54262647659E+02  0.80392552871E+03  0.10223046072E+03 0.  0.
        254    2    1    2    0    0 -0.71120891987E+03 -0.35648650182E+03 -0.30372206809E+03  0.12361859657E+04  0.89610707695E+03 0.  0.
        -24    2    4    4    0    0 -0.29520997624E+03 -0.60385900656E+03 -0.36691723299E+02  0.67788741304E+03  0.79940179602E+02 0.  0.
         24    2    4    4    0    0 -0.41599894363E+03  0.24737250475E+03 -0.26703034479E+03  0.55829855262E+03  0.78382342486E+02 0.  0.
         11    1    3    3    0    0  0.24491678742E+03  0.11202596298E+03  0.66063159673E+02  0.27730558993E+03  0.00000000000E+00 0. -1.
        -11    1    3    3    0    0  0.46629213245E+03  0.24446053884E+03 -0.11800512014E+02  0.52661993878E+03  0.00000000000E+00 0.  1.
          4    1    6    6  502    0 -0.28430280379E+03  0.20921896224E+03 -0.19940433765E+03  0.40541675876E+03  0.00000000000E+00 0. -1.
          3    1    5    5  503    0 -0.23802476548E+03 -0.54468963336E+03 -0.27107062619E+02  0.59504401393E+03  0.00000000000E+00 0. -1.
         -4    1    5    5    0  503 -0.57185210760E+02 -0.59169373205E+02 -0.95846606800E+01  0.82843399106E+02  0.00000000000E+00 0.  1.
         -3    1    6    6    0  502 -0.13169613983E+03  0.38153542501E+02 -0.67626007139E+02  0.15288179386E+03  0.00000000000E+00 0.  1.
<mgrwt>
<rscale>  0 0.20248024E+04</rscale>
<asrwt>0</asrwt>
<pdfrwt beam="1">  1        2 0.17612084E+00 0.20248024E+04</pdfrwt>
<pdfrwt beam="2">  1       -2 0.13774247E+00 0.20248024E+04</pdfrwt>
<totfact> 0.71045362E+00</totfact>
</mgrwt>
</event>
<event>
12    1  0.1477245E-007  0.1550391E+04  0.7818608E-02  0.8851618E-01
         -2   -1    0    0    0  501 -0.00000000000E+00  0.00000000000E+00  0.49214535504E+03  0.49214535504E+03  0.00000000000E+00 0.  1.
          2   -1    0    0  501    0  0.00000000000E+00 -0.00000000000E+00 -0.12210375251E+04  0.12210375251E+04  0.00000000000E+00 0. -1.
         23    2    1    2    0    0  0.27185658859E+03 -0.25856025869E+03  0.14801221854E+03  0.41343683215E+03  0.90900963717E+02 0.  0.
        254    2    1    2    0    0 -0.27185658859E+03  0.25856025869E+03 -0.87690438863E+03  0.12997460480E+04  0.88296040137E+03 0.  0.
        -24    2    4    4    0    0 -0.16559213013E+03  0.41515701143E+03 -0.60663031031E+02  0.45807610238E+03  0.79859968306E+02 0.  0.
         24    2    4    4    0    0 -0.10626445846E+03 -0.15659675274E+03 -0.81624135760E+03  0.84166994563E+03  0.79647130660E+02 0.  0.
         11    1    3    3    0    0  0.15771431291E+03 -0.87456690239E+02  0.70825988337E+02  0.19374931688E+03  0.00000000000E+00 0. -1.
        -11    1    3    3    0    0  0.11414227568E+03 -0.17110356846E+03  0.77186230202E+02  0.21968751528E+03  0.00000000000E+00 0.  1.
          2    1    6    6  502    0 -0.73107031285E+02 -0.10325550814E+03 -0.67972381488E+03  0.69139771659E+03  0.00000000000E+00 0. -1.
          3    1    5    5  503    0 -0.96241433993E+02  0.29608434734E+03 -0.10750719885E+02  0.31151875117E+03  0.00000000000E+00 0. -1.
         -4    1    5    5    0  503 -0.69350696135E+02  0.11907266410E+03 -0.49912311146E+02  0.14655735121E+03  0.00000000000E+00 0.  1.
         -1    1    6    6    0  502 -0.33157427180E+02 -0.53341244595E+02 -0.13651754272E+03  0.15027222905E+03  0.00000000000E+00 0.  1.
<mgrwt>
<rscale>  0 0.15503908E+04</rscale>
<asrwt>0</asrwt>
<pdfrwt beam="1">  1        2 0.18785192E+00 0.15503908E+04</pdfrwt>
<pdfrwt beam="2">  1       -2 0.75714671E-01 0.15503908E+04</pdfrwt>
<totfact> 0.27695627E+01</totfact>
</mgrwt>
</event>
<event>
12    1  0.1477245E-007  0.2327605E+04  0.7818608E-02  0.8467116E-01
          2   -1    0    0  501    0  0.00000000000E+00  0.00000000000E+00  0.13082938269E+04  0.13082938269E+04  0.00000000000E+00 0.  1.
         -2   -1    0    0    0  501 -0.00000000000E+00 -0.00000000000E+00 -0.10352687478E+04  0.10352687478E+04  0.00000000000E+00 0. -1.
         23    2    1    2    0    0 -0.66710903666E+03 -0.50242031648E+03 -0.42179121500E+03  0.94025531823E+03  0.93335915870E+02 0.  0.
        254    2    1    2    0    0  0.66710903666E+03  0.50242031648E+03  0.69481629402E+03  0.14033072565E+04  0.88827976023E+03 0.  0.
        -24    2    4    4    0    0 -0.13678495377E+03 -0.10846846197E+03  0.19488375284E+03  0.27385619917E+03  0.80882692134E+02 0.  0.
         24    2    4    4    0    0  0.80389399043E+03  0.61088877845E+03  0.49993254118E+03  0.11294510573E+04  0.79350473390E+02 0.  0.
         11    1    3    3    0    0 -0.49830859064E+03 -0.40485055398E+03 -0.28724565699E+03  0.70336725117E+03  0.00000000000E+00 0. -1.
        -11    1    3    3    0    0 -0.16880044603E+03 -0.97569762504E+02 -0.13454555801E+03  0.23688806706E+03  0.00000000000E+00 0.  1.
          4    1    6    6  502    0  0.56868278151E+03  0.45324708908E+03  0.32423303628E+03  0.79621610858E+03  0.00000000000E+00 0. -1.
          1    1    5    5  503    0 -0.36242866239E+02 -0.58180310439E+02  0.12182404501E+03  0.13978409001E+03  0.00000000000E+00 0. -1.
         -2    1    5    5    0  503 -0.10054208753E+03 -0.50288151528E+02  0.73059707823E+02  0.13407210916E+03  0.00000000000E+00 0.  1.
         -3    1    6    6    0  502  0.23521120892E+03  0.15764168937E+03  0.17569950490E+03  0.33323494873E+03  0.00000000000E+00 0.  1.
<mgrwt>
<rscale>  0 0.23276045E+04</rscale>
<asrwt>0</asrwt>
<pdfrwt beam="1">  1        2 0.20127597E+00 0.23276045E+04</pdfrwt>
<pdfrwt beam="2">  1       -2 0.15927211E+00 0.23276045E+04</pdfrwt>
<totfact> 0.37720021E+00</totfact>
</mgrwt>
</event>
<event>
12    1  0.1477245E-007  0.3977998E+04  0.7818608E-02  0.8009000E-01
          2   -1    0    0  501    0  0.00000000000E+00  0.00000000000E+00  0.10256538102E+04  0.10256538102E+04  0.00000000000E+00 0. -1.
         -2   -1    0    0    0  501 -0.00000000000E+00 -0.00000000000E+00 -0.38571664861E+04  0.38571664861E+04  0.00000000000E+00 0.  1.
         23    2    1    2    0    0  0.16681811232E+04 -0.73670300003E+03 -0.75356597196E+03  0.19753146175E+04  0.91905354123E+02 0.  0.
        254    2    1    2    0    0 -0.16681811232E+04  0.73670300003E+03 -0.20779467040E+04  0.29075056788E+04  0.90009288273E+03 0.  0.
        -24    2    4    4    0    0 -0.12273390769E+03  0.58548215638E+01 -0.68853517335E+03  0.70310646336E+03  0.71973070321E+02 0.  0.
         24    2    4    4    0    0 -0.15454472155E+04  0.73084817847E+03 -0.13894115306E+04  0.22043992154E+04  0.79783103696E+02 0.  0.
         11    1    3    3    0    0  0.91959763241E+03 -0.43671628108E+03 -0.45940583910E+03  0.11168861360E+04  0.00000000000E+00 0.  1.
        -11    1    3    3    0    0  0.74858349076E+03 -0.29998671895E+03 -0.29416013286E+03  0.85842848155E+03  0.00000000000E+00 0. -1.
          4    1    6    6  502    0 -0.11315539324E+04  0.52592128734E+03 -0.10577874043E+04  0.16358244695E+04  0.00000000000E+00 0. -1.
          1    1    5    5  503    0 -0.59464617263E+02 -0.37695089669E+01 -0.50959201276E+03  0.51306361143E+03  0.00000000000E+00 0. -1.
         -2    1    5    5    0  503 -0.63269290429E+02  0.96243305308E+01 -0.17894316059E+03  0.19004285193E+03  0.00000000000E+00 0.  1.
         -3    1    6    6    0  502 -0.41389328308E+03  0.20492689113E+03 -0.33162412629E+03  0.56857474586E+03  0.00000000000E+00 0.  1.
<mgrwt>
<rscale>  0 0.39779982E+04</rscale>
<asrwt>0</asrwt>
<pdfrwt beam="1">  1        2 0.15779289E+00 0.39779982E+04</pdfrwt>
<pdfrwt beam="2">  1       -2 0.59341024E+00 0.39779982E+04</pdfrwt>
<totfact> 0.10327187E-02</totfact>
</mgrwt>
</event>
<event>
12    1  0.1477245E-007  0.1711103E+04  0.7818608E-02  0.8755057E-01
         -2   -1    0    0    0  501 -0.00000000000E+00  0.00000000000E+00  0.50038399830E+03  0.50038399830E+03  0.00000000000E+00 0.  1.
          2   -1    0    0  501    0  0.00000000000E+00 -0.00000000000E+00 -0.14628137314E+04  0.14628137314E+04  0.00000000000E+00 0. -1.
         23    2    1    2    0    0 -0.69124960783E+02 -0.46903462701E+03 -0.80229192389E+03  0.93618343052E+03  0.89416681375E+02 0.  0.
        254    2    1    2    0    0  0.69124960783E+02  0.46903462701E+03 -0.16013780920E+03  0.10270142992E+04  0.89685144323E+03 0.  0.
        -24    2    4    4    0    0  0.45382573831E+03  0.17781904917E+03 -0.20826650162E+03  0.53559616941E+03  0.76882416604E+02 0.  0.
         24    2    4    4    0    0 -0.38470077753E+03  0.29121557784E+03  0.48128692418E+02  0.49141812977E+03  0.79838626124E+02 0.  0.
         13    1    3    3    0    0  0.89467733137E+01 -0.99094307796E+02 -0.11766648238E+03  0.15409454133E+03  0.00000000000E+00 0.  1.
        -13    1    3    3    0    0 -0.78071734096E+02 -0.36994031922E+03 -0.68462544151E+03  0.78208888920E+03  0.00000000000E+00 0. -1.
          2    1    6    6  502    0 -0.19280774749E+03  0.18151732869E+03  0.54206057048E+02  0.27029921333E+03  0.00000000000E+00 0. -1.
          1    1    5    5  503    0  0.87743989335E+02  0.24240703754E+02 -0.71339166049E+02  0.11565420872E+03  0.00000000000E+00 0. -1.
         -2    1    5    5    0  503  0.36608174898E+03  0.15357834542E+03 -0.13692733557E+03  0.41994196068E+03  0.00000000000E+00 0.  1.
         -1    1    6    6    0  502 -0.19189303004E+03  0.10969824915E+03 -0.60773646300E+01  0.22111891644E+03  0.00000000000E+00 0.  1.
<mgrwt>
<rscale>  0 0.17111033E+04</rscale>
<asrwt>0</asrwt>
<pdfrwt beam="1">  1        2 0.22504827E+00 0.17111033E+04</pdfrwt>
<pdfrwt beam="2">  1       -2 0.76982153E-01 0.17111033E+04</pdfrwt>
<totfact> 0.19087334E+01</totfact>
</mgrwt>
</event>
<event>
12    1  0.1477245E-007  0.1468155E+04  0.7818608E-02  0.8905910E-01
         -1   -1    0    0    0  501 -0.00000000000E+00  0.00000000000E+00  0.12075178537E+04  0.12075178537E+04  0.00000000000E+00 0. -1.
          1   -1    0    0  501    0  0.00000000000E+00 -0.00000000000E+00 -0.44626254985E+03  0.44626254985E+03  0.00000000000E+00 0.  1.
         23    2    1    2    0    0 -0.10215624893E+03  0.67996014908E+02 -0.24894743806E+03  0.29152306669E+03  0.89171263616E+02 0.  0.
        254    2    1    2    0    0  0.10215624893E+03 -0.67996014908E+02  0.10102027419E+04  0.13622573368E+04  0.90563575173E+03 0.  0.
        -24    2    4    4    0    0  0.47096326105E+03 -0.40835509623E+01  0.32634015281E+03  0.57856939569E+03  0.80134771716E+02 0.  0.
         24    2    4    4    0    0 -0.36880701212E+03 -0.63912463946E+02  0.68386258905E+03  0.78368794113E+03  0.79970826757E+02 0.  0.
         11    1    3    3    0    0  0.13694711639E+02 -0.54472490624E+00 -0.45956383009E+02  0.47956553164E+02  0.00000000000E+00 0. -1.
        -11    1    3    3    0    0 -0.11585096057E+03  0.68540739815E+02 -0.20299105505E+03  0.24356651352E+03  0.00000000000E+00 0.  1.
          4    1    6    6  502    0 -0.25951418867E+03 -0.73231679484E+01  0.47036441755E+03  0.53725592431E+03  0.00000000000E+00 0. -1.
          1    1    5    5  503    0  0.44641525630E+03  0.14884320414E+02  0.30744180432E+03  0.54224402910E+03  0.00000000000E+00 0. -1.
         -2    1    5    5    0  503  0.24548004753E+02 -0.18967871377E+02  0.18898348493E+02  0.36325366587E+02  0.00000000000E+00 0.  1.
         -3    1    6    6    0  502 -0.10929282345E+03 -0.56589295998E+02  0.21349817150E+03  0.24643201682E+03  0.00000000000E+00 0.  1.
<mgrwt>
<rscale>  0 0.14681553E+04</rscale>
<asrwt>0</asrwt>
<pdfrwt beam="1">  1        1 0.68655777E-01 0.14681553E+04</pdfrwt>
<pdfrwt beam="2">  1       -1 0.18577198E+00 0.14681553E+04</pdfrwt>
<totfact> 0.95043465E+00</totfact>
</mgrwt>
</event>
<event>
12    1  0.1477245E-007  0.2360323E+04  0.7818608E-02  0.8454509E-01
          1   -1    0    0  501    0  0.00000000000E+00  0.00000000000E+00  0.23108087136E+04  0.23108087136E+04  0.00000000000E+00 0. -1.
         -1   -1    0    0    0  501 -0.00000000000E+00 -0.00000000000E+00 -0.60272455337E+03  0.60272455337E+03  0.00000000000E+00 0.  1.
         23    2    1    2    0    0  0.96586567269E+03  0.27198403777E+03  0.61717390106E+03  0.11815412376E+04  0.90907961530E+02 0.  0.
        254    2    1    2    0    0 -0.96586567269E+03 -0.27198403777E+03  0.10909102591E+04  0.17319920293E+04  0.89601304776E+03 0.  0.
        -24    2    4    4    0    0 -0.97603605700E+03 -0.30571374084E+03  0.12087221732E+04  0.15853802706E+04  0.79460899277E+02 0.  0.
         24    2    4    4    0    0  0.10170384306E+02  0.33729703072E+02 -0.11781191410E+03  0.14661175873E+03  0.79838781967E+02 0.  0.
         13    1    3    3    0    0  0.27192838595E+03  0.34660640816E+02  0.16515006206E+03  0.32003273287E+03  0.00000000000E+00 0. -1.
        -13    1    3    3    0    0  0.69393728674E+03  0.23732339696E+03  0.45202383900E+03  0.86150850472E+03  0.00000000000E+00 0.  1.
          4    1    6    6  502    0 -0.29139089285E+02  0.33352540441E+02 -0.41134200606E+02  0.60444196890E+02  0.00000000000E+00 0. -1.
          3    1    5    5  503    0 -0.68486249961E+03 -0.24084808408E+03  0.89597195664E+03  0.11531739635E+04  0.00000000000E+00 0. -1.
         -4    1    5    5    0  503 -0.29117355739E+03 -0.64865656764E+02  0.31275021659E+03  0.43220630714E+03  0.00000000000E+00 0.  1.
         -3    1    6    6    0  502  0.39309473591E+02  0.37716263083E+00 -0.76677713496E+02  0.86167561835E+02  0.00000000000E+00 0.  1.
<mgrwt>
<rscale>  0 0.23603230E+04</rscale>
<asrwt>0</asrwt>
<pdfrwt beam="1">  1        1 0.35550903E+00 0.23603230E+04</pdfrwt>
<pdfrwt beam="2">  1       -1 0.92726855E-01 0.23603230E+04</pdfrwt>
<totfact> 0.18594371E+00</totfact>
</mgrwt>
</event>
<event>
12    1  0.1477245E-007  0.1636234E+04  0.7818608E-02  0.8798592E-01
         -1   -1    0    0    0  501 -0.00000000000E+00  0.00000000000E+00  0.24609247242E+03  0.24609247242E+03  0.00000000000E+00 0.  1.
          1   -1    0    0  501    0  0.00000000000E+00 -0.00000000000E+00 -0.27197710732E+04  0.27197710732E+04  0.00000000000E+00 0. -1.
         23    2    1    2    0    0 -0.44196653658E+03 -0.90315697028E+02 -0.24582578214E+03  0.52167034410E+03  0.90654774632E+02 0.  0.
        254    2    1    2    0    0  0.44196653658E+03  0.90315697028E+02 -0.22278528186E+04  0.24441932015E+04  0.89847697812E+03 0.  0.
        -24    2    4    4    0    0  0.37351433559E+03 -0.28276444265E+03 -0.18213982821E+04  0.18823193331E+04  0.78521848187E+02 0.  0.
         24    2    4    4    0    0  0.68452200994E+02  0.37308013968E+03 -0.40645453651E+03  0.56187386842E+03  0.81378494247E+02 0.  0.
         11    1    3    3    0    0 -0.35944250121E+03 -0.10332872693E+03 -0.22144408108E+03  0.43464148275E+03  0.00000000000E+00 0.  1.
        -11    1    3    3    0    0 -0.82524035371E+02  0.13013029903E+02 -0.24381701066E+02  0.87028861351E+02  0.00000000000E+00 0. -1.
          4    1    6    6  502    0  0.99589554068E+01 -0.71193445217E-01 -0.14061946253E+02  0.17231488436E+02  0.00000000000E+00 0. -1.
          3    1    5    5  503    0  0.11618226107E+03 -0.13080115907E+03 -0.73852009991E+03  0.75895928677E+03  0.00000000000E+00 0. -1.
         -4    1    5    5    0  503  0.25733207452E+03 -0.15196328358E+03 -0.10828781822E+04  0.11233600463E+04  0.00000000000E+00 0.  1.
         -1    1    6    6    0  502  0.58493245587E+02  0.37315133313E+03 -0.39239259025E+03  0.54464237999E+03  0.00000000000E+00 0.  1.
<mgrwt>
<rscale>  0 0.16362337E+04</rscale>
<asrwt>0</asrwt>
<pdfrwt beam="1">  1        1 0.41842635E+00 0.16362337E+04</pdfrwt>
<pdfrwt beam="2">  1       -1 0.37860377E-01 0.16362337E+04</pdfrwt>
<totfact> 0.61393222E+00</totfact>
</mgrwt>
</event>
<event>
12    1  0.1477245E-007  0.1953785E+04  0.7818608E-02  0.8628538E-01
         -1   -1    0    0    0  501 -0.00000000000E+00  0.00000000000E+00  0.74396748929E+03  0.74396748929E+03  0.00000000000E+00 0.  1.
          1   -1    0    0  501    0  0.00000000000E+00 -0.00000000000E+00 -0.12827422758E+04  0.12827422758E+04  0.00000000000E+00 0. -1.
         23    2    1    2    0    0 -0.56304078051E+03 -0.32394856271E+03 -0.62640062757E+03  0.90694577369E+03  0.90638283272E+02 0.  0.
        254    2    1    2    0    0  0.56304078051E+03  0.32394856271E+03  0.87625841068E+02  0.11197639914E+04  0.90787417444E+03 0.  0.
        -24    2    4    4    0    0  0.78671727893E+02 -0.10978813381E+03  0.37356158772E+03  0.40501922223E+03  0.79054635942E+02 0.  0.
         24    2    4    4    0    0  0.48436905261E+03  0.43373669652E+03 -0.28593574665E+03  0.71474476917E+03  0.79749186836E+02 0.  0.
         13    1    3    3    0    0 -0.46215005701E+03 -0.23587298700E+03 -0.53173159158E+03  0.74293823880E+03  0.00000000000E+00 0. -1.
        -13    1    3    3    0    0 -0.10089072350E+03 -0.88075575705E+02 -0.94669035993E+02  0.16400753489E+03  0.00000000000E+00 0.  1.
          2    1    6    6  502    0  0.32039129518E+03  0.24136054120E+03 -0.19589230122E+03  0.44640708613E+03  0.00000000000E+00 0. -1.
          1    1    5    5  503    0  0.75015086412E+02 -0.84728184973E+02  0.35761199553E+03  0.37508994637E+03  0.00000000000E+00 0. -1.
         -4    1    5    5    0  503  0.36566414810E+01 -0.25059948840E+02  0.15949592182E+02  0.29929275861E+02  0.00000000000E+00 0.  1.
         -3    1    6    6    0  502  0.16397775744E+03  0.19237615533E+03 -0.90043445426E+02  0.26833768303E+03  0.00000000000E+00 0.  1.
<mgrwt>
<rscale>  0 0.19537846E+04</rscale>
<asrwt>0</asrwt>
<pdfrwt beam="1">  1        1 0.19734496E+00 0.19537846E+04</pdfrwt>
<pdfrwt beam="2">  1       -1 0.11445654E+00 0.19537846E+04</pdfrwt>
<totfact> 0.60181706E+00</totfact>
</mgrwt>
</event>
<event>
12    1  0.1477245E-007  0.1369555E+04  0.7818608E-02  0.8976156E-01
          2   -1    0    0  501    0  0.00000000000E+00  0.00000000000E+00  0.35820180643E+03  0.35820180643E+03  0.00000000000E+00 0. -1.
         -2   -1    0    0    0  501 -0.00000000000E+00 -0.00000000000E+00 -0.13090951955E+04  0.13090951955E+04  0.00000000000E+00 0.  1.
         23    2    1    2    0    0 -0.17974615177E+03  0.29779465747E+03 -0.49977496570E+03  0.61563227345E+03  0.90762011181E+02 0.  0.
        254    2    1    2    0    0  0.17974615177E+03 -0.29779465747E+03 -0.45111842336E+03  0.10516647285E+04  0.88402518750E+03 0.  0.
        -24    2    4    4    0    0 -0.35099899112E+03 -0.16717068306E+03 -0.15897538666E+03  0.42677763088E+03  0.75628325460E+02 0.  0.
         24    2    4    4    0    0  0.53074514289E+03 -0.13062397441E+03 -0.29214303670E+03  0.62488709759E+03  0.79895565911E+02 0.  0.
         13    1    3    3    0    0 -0.57303654747E+02  0.70178894389E+02 -0.71521205991E+02  0.11542993100E+03  0.00000000000E+00 0. -1.
        -13    1    3    3    0    0 -0.12244249702E+03  0.22761576308E+03 -0.42825375971E+03  0.50020234244E+03  0.00000000000E+00 0.  1.
          2    1    6    6  502    0  0.25122899298E+02 -0.25771081582E+02 -0.20401820627E+02  0.41370798880E+02  0.00000000000E+00 0. -1.
          1    1    5    5  503    0 -0.53362362602E+02 -0.41482045063E+02 -0.55708702960E+02  0.87588591669E+02  0.00000000000E+00 0. -1.
         -2    1    5    5    0  503 -0.29763662852E+03 -0.12568863800E+03 -0.10326668370E+03  0.33918903921E+03  0.00000000000E+00 0.  1.
         -1    1    6    6    0  502  0.50562224360E+03 -0.10485289283E+03 -0.27174121607E+03  0.58351629871E+03  0.00000000000E+00 0.  1.
<mgrwt>
<rscale>  0 0.13695551E+04</rscale>
<asrwt>0</asrwt>
<pdfrwt beam="1">  1        2 0.55107971E-01 0.13695551E+04</pdfrwt>
<pdfrwt beam="2">  1       -2 0.20139926E+00 0.13695551E+04</pdfrwt>
<totfact> 0.11426259E+01</totfact>
</mgrwt>
</event>
<event>
12    1  0.1477245E-007  0.1335480E+04  0.7818608E-02  0.9001893E-01
         -2   -1    0    0    0  501 -0.00000000000E+00  0.00000000000E+00  0.24677026413E+03  0.24677026413E+03  0.00000000000E+00 0.  1.
          2   -1    0    0  501    0  0.00000000000E+00 -0.00000000000E+00 -0.18068492119E+04  0.18068492119E+04  0.00000000000E+00 0. -1.
         23    2    1    2    0    0 -0.30560616588E+03  0.20762621559E+02 -0.15260111280E+03  0.35396511601E+03  0.90432232350E+02 0.  0.
        254    2    1    2    0    0  0.30560616588E+03 -0.20762621559E+02 -0.14074778349E+04  0.16996543600E+04  0.90222218576E+03 0.  0.
        -24    2    4    4    0    0  0.61260199322E+03  0.66502273155E+02 -0.97403134143E+03  0.11553018203E+04  0.79255835001E+02 0.  0.
         24    2    4    4    0    0 -0.30699582734E+03 -0.87264894714E+02 -0.43344649351E+03  0.54435253972E+03  0.81130912186E+02 0.  0.
         13    1    3    3    0    0 -0.21343151486E+03  0.53856912270E+02 -0.90498747651E+02  0.23799916357E+03  0.00000000000E+00 0.  1.
        -13    1    3    3    0    0 -0.92174651023E+02 -0.33094290710E+02 -0.62102365148E+02  0.11596595244E+03  0.00000000000E+00 0. -1.
          4    1    6    6  502    0 -0.11940970845E+03 -0.75100803882E+02 -0.19667399146E+03  0.24203195684E+03  0.00000000000E+00 0. -1.
          1    1    5    5  503    0  0.18425071970E+03  0.55453400593E+02 -0.28365935647E+03  0.34276236354E+03  0.00000000000E+00 0. -1.
         -2    1    5    5    0  503  0.42835127352E+03  0.11048872561E+02 -0.69037198496E+03  0.81253945673E+03  0.00000000000E+00 0.  1.
         -3    1    6    6    0  502 -0.18758611889E+03 -0.12164090832E+02 -0.23677250205E+03  0.30232058288E+03  0.00000000000E+00 0.  1.
<mgrwt>
<rscale>  0 0.13354799E+04</rscale>
<asrwt>0</asrwt>
<pdfrwt beam="1">  1        2 0.27797680E+00 0.13354799E+04</pdfrwt>
<pdfrwt beam="2">  1       -2 0.37964656E-01 0.13354799E+04</pdfrwt>
<totfact> 0.54775067E+01</totfact>
</mgrwt>
</event>
<event>
12    1  0.1477245E-007  0.1548121E+04  0.7818608E-02  0.8853069E-01
          2   -1    0    0  501    0  0.00000000000E+00  0.00000000000E+00  0.97058941347E+03  0.97058941347E+03  0.00000000000E+00 0. -1.
         -2   -1    0    0    0  501 -0.00000000000E+00 -0.00000000000E+00 -0.61732522676E+03  0.61732522676E+03  0.00000000000E+00 0.  1.
         23    2    1    2    0    0 -0.57050718941E+01 -0.29799218974E+03  0.54351658294E+03  0.62633766350E+03  0.89759120982E+02 0.  0.
        254    2    1    2    0    0  0.57050718941E+01  0.29799218974E+03 -0.19025239624E+03  0.96157697673E+03  0.89420490655E+03 0.  0.
        -24    2    4    4    0    0  0.28885590951E+03  0.34879155562E+03 -0.38980882106E+03  0.60283453695E+03  0.79782681219E+02 0.  0.
         24    2    4    4    0    0 -0.28315083762E+03 -0.50799365874E+02  0.19955642483E+03  0.35874243978E+03  0.78220195549E+02 0.  0.
         11    1    3    3    0    0  0.21220069986E+02 -0.14007556545E+03  0.33232149656E+03  0.36126033892E+03  0.00000000000E+00 0. -1.
        -11    1    3    3    0    0 -0.26925141880E+02 -0.15791662430E+03  0.21119508638E+03  0.26507732458E+03  0.00000000000E+00 0.  1.
          2    1    6    6  502    0 -0.16860458981E+02  0.12654855700E+02  0.30247081127E+02  0.36868772241E+02  0.00000000000E+00 0. -1.
          3    1    5    5  503    0  0.11785365250E+03  0.18774667462E+03 -0.15343657903E+03  0.26959428967E+03  0.00000000000E+00 0. -1.
         -4    1    5    5    0  503  0.17100225701E+03  0.16104488100E+03 -0.23637224203E+03  0.33324024727E+03  0.00000000000E+00 0.  1.
         -1    1    6    6    0  502 -0.26629037864E+03 -0.63454221573E+02  0.16930934370E+03  0.32187366754E+03  0.00000000000E+00 0.  1.
<mgrwt>
<rscale>  0 0.15481206E+04</rscale>
<asrwt>0</asrwt>
<pdfrwt beam="1">  1        2 0.14932145E+00 0.15481206E+04</pdfrwt>
<pdfrwt beam="2">  1       -2 0.94973112E-01 0.15481206E+04</pdfrwt>
<totfact> 0.23635386E+01</totfact>
</mgrwt>
</event>
<event>
12    1  0.1503844E-007  0.2022907E+04  0.7818608E-02  0.8595985E-01
         -1   -1    0    0    0  501 -0.00000000000E+00  0.00000000000E+00  0.42541381872E+03  0.42541381872E+03  0.00000000000E+00 0.  1.
          1   -1    0    0  501    0  0.00000000000E+00 -0.00000000000E+00 -0.24048075630E+04  0.24048075630E+04  0.00000000000E+00 0. -1.
         23    2    1    2    0    0  0.72407728286E+03  0.31765723084E+03 -0.10836341138E+04  0.13449691767E+04  0.97391816049E+02 0.  0.
        254    2    1    2    0    0 -0.72407728286E+03 -0.31765723084E+03 -0.89575963048E+03  0.14852522050E+04  0.88226683550E+03 0.  0.
        -24    2    4    4    0    0  0.98620256355E+02 -0.15981556874E+03 -0.52926001112E+03  0.56747481399E+03  0.81514012093E+02 0.  0.
         24    2    4    4    0    0 -0.82269753921E+03 -0.15784166210E+03 -0.36649961937E+03  0.91777739102E+03  0.79045158935E+02 0.  0.
         11    1    3    3    0    0  0.69269063102E+03  0.30979977847E+03 -0.10000926904E+04  0.12553810586E+04  0.00000000000E+00 0. -1.
        -11    1    3    3    0    0  0.31386651838E+02  0.78574523740E+01 -0.83541423399E+02  0.89588118046E+02  0.00000000000E+00 0.  1.
          2    1    6    6  502    0 -0.72913097564E+03 -0.11366588056E+03 -0.31962317321E+03  0.80418336522E+03  0.00000000000E+00 0. -1.
          3    1    5    5  503    0  0.10770750353E+03 -0.11763685094E+03 -0.44668953928E+03  0.47431095235E+03  0.00000000000E+00 0. -1.
         -4    1    5    5    0  503 -0.90872471714E+01 -0.42178717795E+02 -0.82570471834E+02  0.93163861636E+02  0.00000000000E+00 0.  1.
         -1    1    6    6    0  502 -0.93566563573E+02 -0.44175781542E+02 -0.46876446158E+02  0.11359402580E+03  0.00000000000E+00 0.  1.
<mgrwt>
<rscale>  0 0.20229072E+04</rscale>
<asrwt>0</asrwt>
<pdfrwt beam="1">  1        1 0.36997040E+00 0.20229072E+04</pdfrwt>
<pdfrwt beam="2">  1       -1 0.65448279E-01 0.20229072E+04</pdfrwt>
<totfact> 0.34553454E+00</totfact>
</mgrwt>
</event>
<event>
12    1  0.1477245E-007  0.1355900E+04  0.7818608E-02  0.8986374E-01
          1   -1    0    0  501    0  0.00000000000E+00  0.00000000000E+00  0.12155889272E+04  0.12155889272E+04  0.00000000000E+00 0. -1.
         -1   -1    0    0    0  501 -0.00000000000E+00 -0.00000000000E+00 -0.37810176606E+03  0.37810176606E+03  0.00000000000E+00 0.  1.
         23    2    1    2    0    0 -0.20312374011E+03 -0.68406177791E+02  0.60272930618E+03  0.64620953255E+03  0.91463022465E+02 0.  0.
        254    2    1    2    0    0  0.20312374011E+03  0.68406177791E+02  0.23475785499E+03  0.94748116073E+03  0.89256408202E+03 0.  0.
        -24    2    4    4    0    0  0.49685830139E+03  0.22999628890E+03  0.23939998477E+03  0.60291573968E+03  0.80178375435E+02 0.  0.
         24    2    4    4    0    0 -0.29373456127E+03 -0.16159011111E+03 -0.46421297805E+01  0.34456542105E+03  0.79450761612E+02 0.  0.
         11    1    3    3    0    0 -0.18952015980E+03 -0.29662065402E+02  0.48761220716E+03  0.52398797092E+03  0.00000000000E+00 0.  1.
        -11    1    3    3    0    0 -0.13603580311E+02 -0.38744112388E+02  0.11511709902E+03  0.12222156164E+03  0.00000000000E+00 0. -1.
          4    1    6    6  502    0 -0.27807712444E+03 -0.12822553401E+03  0.57562766392E+01  0.30627081060E+03  0.00000000000E+00 0. -1.
          3    1    5    5  503    0  0.27267317163E+03  0.82218000817E+02  0.12686319097E+03  0.31177672686E+03  0.00000000000E+00 0. -1.
         -4    1    5    5    0  503  0.22418512975E+03  0.14777828808E+03  0.11253679379E+03  0.29113901282E+03  0.00000000000E+00 0.  1.
         -3    1    6    6    0  502 -0.15657436836E+02 -0.33364577098E+02 -0.10398406420E+02  0.38294610446E+02  0.00000000000E+00 0.  1.
<mgrwt>
<rscale>  0 0.13559002E+04</rscale>
<asrwt>0</asrwt>
<pdfrwt beam="1">  1        1 0.18701368E+00 0.13559002E+04</pdfrwt>
<pdfrwt beam="2">  1       -1 0.58169503E-01 0.13559002E+04</pdfrwt>
<totfact> 0.30492080E+01</totfact>
</mgrwt>
</event>
<event>
12    1  0.1477245E-007  0.1363218E+04  0.7818608E-02  0.8980882E-01
          2   -1    0    0  501    0  0.00000000000E+00  0.00000000000E+00  0.17684958514E+04  0.17684958514E+04  0.00000000000E+00 0. -1.
         -2   -1    0    0    0  501 -0.00000000000E+00 -0.00000000000E+00 -0.26270409157E+03  0.26270409157E+03  0.00000000000E+00 0.  1.
         23    2    1    2    0    0 -0.30306084517E+02  0.95577113550E+02  0.96662762836E+03  0.97628251680E+03  0.93301325394E+02 0.  0.
        254    2    1    2    0    0  0.30306084517E+02 -0.95577113550E+02  0.53916413147E+03  0.10549174262E+04  0.90116556300E+03 0.  0.
        -24    2    4    4    0    0 -0.15634816450E+03  0.27576341615E+03 -0.48771254426E+02  0.33018119900E+03  0.78426900270E+02 0.  0.
         24    2    4    4    0    0  0.18665424902E+03 -0.37134052970E+03  0.58793538590E+03  0.72473622715E+03  0.82710236870E+02 0.  0.
         13    1    3    3    0    0 -0.80678443368E+01  0.39783106027E+02  0.10514621239E+03  0.11270985591E+03  0.00000000000E+00 0.  1.
        -13    1    3    3    0    0 -0.22238240181E+02  0.55794007524E+02  0.86148141596E+03  0.86357266090E+03  0.00000000000E+00 0. -1.
          2    1    6    6  502    0  0.40316629571E+02 -0.29200230625E+02  0.49321775590E+02  0.70076541267E+02  0.00000000000E+00 0. -1.
          1    1    5    5  503    0 -0.33441311602E+02  0.46907119230E+02 -0.40239321649E+02  0.70269496674E+02  0.00000000000E+00 0. -1.
         -2    1    5    5    0  503 -0.12290685290E+03  0.22885629692E+03 -0.85319327774E+01  0.25991170233E+03  0.00000000000E+00 0.  1.
         -1    1    6    6    0  502  0.14633761945E+03 -0.34214029907E+03  0.53861361030E+03  0.65465968588E+03  0.00000000000E+00 0.  1.
<mgrwt>
<rscale>  0 0.13632184E+04</rscale>
<asrwt>0</asrwt>
<pdfrwt beam="1">  1        2 0.27207628E+00 0.13632184E+04</pdfrwt>
<pdfrwt beam="2">  1       -2 0.40416015E-01 0.13632184E+04</pdfrwt>
<totfact> 0.50805719E+01</totfact>
</mgrwt>
</event>
<event>
12    1  0.1477245E-007  0.1900595E+04  0.7818608E-02  0.8654560E-01
          2   -1    0    0  501    0  0.00000000000E+00  0.00000000000E+00  0.77248828269E+03  0.77248828269E+03  0.00000000000E+00 0.  1.
         -2   -1    0    0    0  501 -0.00000000000E+00 -0.00000000000E+00 -0.11690349489E+04  0.11690349489E+04  0.00000000000E+00 0. -1.
         23    2    1    2    0    0  0.71463891441E+03 -0.11039407144E+03  0.56563637739E+02  0.73131148605E+03  0.93388519265E+02 0.  0.
        254    2    1    2    0    0 -0.71463891441E+03  0.11039407144E+03 -0.45311030396E+03  0.12102117456E+04  0.85814211675E+03 0.  0.
        -24    2    4    4    0    0 -0.32388804320E+03  0.34894535359E+03 -0.55379761656E+03  0.73472020390E+03  0.80347081996E+02 0.  0.
         24    2    4    4    0    0 -0.39075087121E+03 -0.23855128216E+03  0.10068731260E+03  0.47549154166E+03  0.79757844142E+02 0.  0.
         13    1    3    3    0    0  0.56591836410E+03 -0.78488102894E+02  0.71438727458E+01  0.57137991918E+03  0.00000000000E+00 0. -1.
        -13    1    3    3    0    0  0.14872055030E+03 -0.31905968542E+02  0.49419764994E+02  0.15993156688E+03  0.00000000000E+00 0.  1.
          4    1    6    6  502    0 -0.35740456652E+03 -0.21785196978E+03  0.67256238671E+02  0.42393502633E+03  0.00000000000E+00 0. -1.
          1    1    5    5  503    0 -0.21292774355E+03  0.17282994954E+03 -0.33011558611E+03  0.42916746804E+03  0.00000000000E+00 0. -1.
         -2    1    5    5    0  503 -0.11096029965E+03  0.17611540406E+03 -0.22368203045E+03  0.30555273586E+03  0.00000000000E+00 0.  1.
         -3    1    6    6    0  502 -0.33346304685E+02 -0.20699312379E+02  0.33431073927E+02  0.51556515331E+02  0.00000000000E+00 0.  1.
<mgrwt>
<rscale>  0 0.19005955E+04</rscale>
<asrwt>0</asrwt>
<pdfrwt beam="1">  1        2 0.11884435E+00 0.19005955E+04</pdfrwt>
<pdfrwt beam="2">  1       -2 0.17985153E+00 0.19005955E+04</pdfrwt>
<totfact> 0.61379082E+00</totfact>
</mgrwt>
</event>
<event>
12    1  0.1477245E-007  0.2175764E+04  0.7818608E-02  0.8528584E-01
          1   -1    0    0  501    0  0.00000000000E+00  0.00000000000E+00  0.32782451859E+04  0.32782451859E+04  0.00000000000E+00 0. -1.
         -1   -1    0    0    0  501 -0.00000000000E+00 -0.00000000000E+00 -0.36101243623E+03  0.36101243623E+03  0.00000000000E+00 0.  1.
         23    2    1    2    0    0  0.19304522250E+03 -0.41281322632E+03  0.24952590408E+04  0.25381446640E+04  0.90440238834E+02 0.  0.
        254    2    1    2    0    0 -0.19304522250E+03  0.41281322632E+03  0.42197370880E+03  0.11011129581E+04  0.90923413806E+03 0.  0.
        -24    2    4    4    0    0 -0.48118840464E+03  0.22713578656E+02  0.35731554286E+03  0.60526426468E+03  0.81315715086E+02 0.  0.
         24    2    4    4    0    0  0.28814318213E+03  0.39009964766E+03  0.64658165947E+02  0.49584869342E+03  0.80504781379E+02 0.  0.
         13    1    3    3    0    0  0.61417178354E+02 -0.71168731260E+02  0.66641631429E+03  0.67301393897E+03  0.00000000000E+00 0.  1.
        -13    1    3    3    0    0  0.13162804415E+03 -0.34164449506E+03  0.18288427266E+04  0.18651307250E+04  0.00000000000E+00 0. -1.
          4    1    6    6  502    0 -0.43163952322E+01  0.89363094138E+01  0.65991845369E+01  0.11917975092E+02  0.00000000000E+00 0. -1.
          1    1    5    5  503    0 -0.23384367064E+03 -0.26378517637E+02  0.15276029200E+03  0.28056085846E+03  0.00000000000E+00 0. -1.
         -2    1    5    5    0  503 -0.24734473400E+03  0.49092096293E+02  0.20455525086E+03  0.32470340622E+03  0.00000000000E+00 0.  1.
         -3    1    6    6    0  502  0.29245957737E+03  0.38116333825E+03  0.58058981410E+02  0.48393071833E+03  0.00000000000E+00 0.  1.
<mgrwt>
<rscale>  0 0.21757640E+04</rscale>
<asrwt>0</asrwt>
<pdfrwt beam="1">  1        1 0.50434539E+00 0.21757640E+04</pdfrwt>
<pdfrwt beam="2">  1       -1 0.55540377E-01 0.21757640E+04</pdfrwt>
<totfact> 0.11133450E+00</totfact>
</mgrwt>
</event>
<event>
12    1  0.1477245E-007  0.1494369E+04  0.7818608E-02  0.8888206E-01
         -1   -1    0    0    0  501 -0.00000000000E+00  0.00000000000E+00  0.26477018533E+03  0.26477018533E+03  0.00000000000E+00 0.  1.
          1   -1    0    0  501    0  0.00000000000E+00 -0.00000000000E+00 -0.21085621317E+04  0.21085621317E+04  0.00000000000E+00 0. -1.
         23    2    1    2    0    0 -0.45388042164E+03  0.34244355485E+02 -0.73908453436E+03  0.87273128016E+03  0.90740428771E+02 0.  0.
        254    2    1    2    0    0  0.45388042164E+03 -0.34244355485E+02 -0.11047074120E+04  0.15006010369E+04  0.90787933815E+03 0.  0.
        -24    2    4    4    0    0  0.64577922670E+03 -0.13669325094E+03 -0.43994307832E+03  0.79665241258E+03  0.73411850681E+02 0.  0.
         24    2    4    4    0    0 -0.19189880506E+03  0.10244889545E+03 -0.66476433368E+03  0.70394862428E+03  0.79442549787E+02 0.  0.
         11    1    3    3    0    0 -0.23944472732E+03 -0.29951654379E+01 -0.46216709332E+03  0.52052009625E+03  0.00000000000E+00 0.  1.
        -11    1    3    3    0    0 -0.21443569432E+03  0.37239520923E+02 -0.27691744103E+03  0.35221118390E+03  0.00000000000E+00 0. -1.
          2    1    6    6  502    0 -0.35455378468E+02  0.56034633701E+02 -0.23748503105E+03  0.24656865983E+03  0.00000000000E+00 0. -1.
          1    1    5    5  503    0  0.15208662648E+03 -0.46724628202E+02 -0.73394975060E+02  0.17521516829E+03  0.00000000000E+00 0. -1.
         -2    1    5    5    0  503  0.49369260022E+03 -0.89968622733E+02 -0.36654810326E+03  0.62143724429E+03  0.00000000000E+00 0.  1.
         -1    1    6    6    0  502 -0.15644342660E+03  0.46414261749E+02 -0.42727930264E+03  0.45737996445E+03  0.00000000000E+00 0.  1.
<mgrwt>
<rscale>  0 0.14943686E+04</rscale>
<asrwt>0</asrwt>
<pdfrwt beam="1">  1        1 0.32439416E+00 0.14943686E+04</pdfrwt>
<pdfrwt beam="2">  1       -1 0.40733877E-01 0.14943686E+04</pdfrwt>
<totfact> 0.14349588E+01</totfact>
</mgrwt>
</event>
<event>
12    1  0.1477245E-007  0.2028434E+04  0.7818608E-02  0.8593441E-01
         -2   -1    0    0    0  501 -0.00000000000E+00  0.00000000000E+00  0.61532411834E+03  0.61532411834E+03  0.00000000000E+00 0.  1.
          2   -1    0    0  501    0  0.00000000000E+00 -0.00000000000E+00 -0.16716987794E+04  0.16716987794E+04  0.00000000000E+00 0. -1.
         23    2    1    2    0    0  0.28413753526E+03  0.54327133034E+03 -0.10520007887E+04  0.12211770111E+04  0.93218859793E+02 0.  0.
        254    2    1    2    0    0 -0.28413753526E+03 -0.54327133034E+03 -0.43738723998E+01  0.10658458866E+04  0.87185460139E+03 0.  0.
        -24    2    4    4    0    0  0.82578634340E+02 -0.32838241588E+02 -0.33076252986E+03  0.35301867776E+03  0.85561409125E+02 0.  0.
         24    2    4    4    0    0 -0.36671616960E+03 -0.51043308875E+03  0.32638865746E+03  0.71282720886E+03  0.81057922764E+02 0.  0.
         13    1    3    3    0    0  0.11174311550E+03  0.13984408527E+03 -0.25771308133E+03  0.31378165073E+03  0.00000000000E+00 0.  1.
        -13    1    3    3    0    0  0.17239441975E+03  0.40342724507E+03 -0.79428770736E+03  0.90739536041E+03  0.00000000000E+00 0. -1.
          2    1    6    6  502    0 -0.30311521652E+02 -0.91271331819E+02  0.53617098059E+02  0.11010920743E+03  0.00000000000E+00 0. -1.
          3    1    5    5  503    0  0.27440336227E+01  0.22026829907E+02 -0.32006107982E+02  0.38949992355E+02  0.00000000000E+00 0. -1.
         -4    1    5    5    0  503  0.79834600717E+02 -0.54865071496E+02 -0.29875642188E+03  0.31406868541E+03  0.00000000000E+00 0.  1.
         -1    1    6    6    0  502 -0.33640464794E+03 -0.41916175693E+03  0.27277155940E+03  0.60271800143E+03  0.00000000000E+00 0.  1.
<mgrwt>
<rscale>  0 0.20284344E+04</rscale>
<asrwt>0</asrwt>
<pdfrwt beam="1">  1        2 0.25718443E+00 0.20284344E+04</pdfrwt>
<pdfrwt beam="2">  1       -2 0.94665249E-01 0.20284344E+04</pdfrwt>
<totfact> 0.88584603E+00</totfact>
</mgrwt>
</event>
<event>
12    1  0.1477245E-007  0.1861136E+04  0.7818608E-02  0.8674447E-01
         -2   -1    0    0    0  501 -0.00000000000E+00  0.00000000000E+00  0.10721340619E+04  0.10721340619E+04  0.00000000000E+00 0.  1.
          2   -1    0    0  501    0  0.00000000000E+00 -0.00000000000E+00 -0.80769476202E+03  0.80769476202E+03  0.00000000000E+00 0. -1.
         23    2    1    2    0    0  0.44451816761E+03 -0.34504685756E+03 -0.15416398556E+03  0.59046082180E+03  0.90684686656E+02 0.  0.
        254    2    1    2    0    0 -0.44451816761E+03  0.34504685756E+03  0.41860328549E+03  0.12893680022E+04  0.10819368739E+04 0.  0.
        -24    2    4    4    0    0 -0.65209244655E+03  0.44367780825E+03  0.59297155044E+03  0.99007683253E+03  0.81008137180E+02 0.  0.
         24    2    4    4    0    0  0.20757427894E+03 -0.98630950689E+02 -0.17436826495E+03  0.29929116964E+03  0.79723062446E+02 0.  0.
         11    1    3    3    0    0  0.82200230070E+02 -0.52720721192E+02 -0.62611795938E+02  0.11600253987E+03  0.00000000000E+00 0. -1.
        -11    1    3    3    0    0  0.36231793754E+03 -0.29232613637E+03 -0.91552189618E+02  0.47445828193E+03  0.00000000000E+00 0.  1.
          4    1    6    6  502    0  0.16688762935E+03 -0.49524790409E+02 -0.15378507835E+03  0.23228008097E+03  0.00000000000E+00 0. -1.
          3    1    5    5  503    0 -0.46928883676E+03  0.27397832477E+03  0.40275098362E+03  0.67639078169E+03  0.00000000000E+00 0. -1.
         -4    1    5    5    0  503 -0.18280360979E+03  0.16969948348E+03  0.19022056683E+03  0.31368605083E+03  0.00000000000E+00 0.  1.
         -3    1    6    6    0  502  0.40686649596E+02 -0.49106160280E+02 -0.20583186606E+02  0.67011088662E+02  0.00000000000E+00 0.  1.
<mgrwt>
<rscale>  0 0.18611363E+04</rscale>
<asrwt>0</asrwt>
<pdfrwt beam="1">  1        2 0.12426073E+00 0.18611363E+04</pdfrwt>
<pdfrwt beam="2">  1       -2 0.16494370E+00 0.18611363E+04</pdfrwt>
<totfact> 0.74005467E+00</totfact>
</mgrwt>
</event>
<event>
12    1  0.1477245E-007  0.3157515E+04  0.7818608E-02  0.8200128E-01
         -1   -1    0    0    0  501 -0.00000000000E+00  0.00000000000E+00  0.11056686933E+04  0.11056686933E+04  0.00000000000E+00 0.  1.
          1   -1    0    0  501    0  0.00000000000E+00 -0.00000000000E+00 -0.22542688349E+04  0.22542688349E+04  0.00000000000E+00 0. -1.
         23    2    1    2    0    0  0.27468936932E+03  0.14008343380E+04 -0.78551408473E+03  0.16320183819E+04  0.93061964327E+02 0.  0.
        254    2    1    2    0    0 -0.27468936932E+03 -0.14008343380E+04 -0.36308605690E+03  0.17279191463E+04  0.90337256934E+03 0.  0.
        -24    2    4    4    0    0  0.16113159961E+03 -0.92122639486E+03 -0.49634261931E+03  0.10617112216E+04  0.79077552515E+02 0.  0.
         24    2    4    4    0    0 -0.43582096893E+03 -0.47960794319E+03  0.13325656241E+03  0.66620792468E+03  0.78179225846E+02 0.  0.
         13    1    3    3    0    0  0.16733252905E+03  0.75851501536E+03 -0.47576720444E+03  0.91087849717E+03  0.00000000000E+00 0.  1.
        -13    1    3    3    0    0  0.10735684026E+03  0.64231932269E+03 -0.30974688029E+03  0.72113988470E+03  0.00000000000E+00 0. -1.
          4    1    6    6  502    0 -0.36558652796E+03 -0.43463344286E+03  0.13059785198E+03  0.58276542281E+03  0.00000000000E+00 0. -1.
          3    1    5    5  503    0  0.12068075475E+03 -0.64758873536E+03 -0.38887622918E+03  0.76495734283E+03  0.00000000000E+00 0. -1.
         -4    1    5    5    0  503  0.40450844857E+02 -0.27363765950E+03 -0.10746639014E+03  0.29675387875E+03  0.00000000000E+00 0.  1.
         -3    1    6    6    0  502 -0.70234440963E+02 -0.44974500331E+02  0.26587104337E+01  0.83442501872E+02  0.00000000000E+00 0.  1.
<mgrwt>
<rscale>  0 0.31575145E+04</rscale>
<asrwt>0</asrwt>
<pdfrwt beam="1">  1        1 0.34681059E+00 0.31575145E+04</pdfrwt>
<pdfrwt beam="2">  1       -1 0.17010288E+00 0.31575145E+04</pdfrwt>
<totfact> 0.41252429E-01</totfact>
</mgrwt>
</event>
<event>
12    1  0.1477245E-007  0.1112519E+04  0.7818608E-02  0.9193075E-01
         -1   -1    0    0    0  501 -0.00000000000E+00  0.00000000000E+00  0.15997569246E+03  0.15997569246E+03  0.00000000000E+00 0.  1.
          1   -1    0    0  501    0  0.00000000000E+00 -0.00000000000E+00 -0.19341968412E+04  0.19341968412E+04  0.00000000000E+00 0. -1.
         23    2    1    2    0    0  0.34641071458E+02  0.97068911238E+02 -0.53783394611E+03  0.55615674903E+03  0.97070070302E+02 0.  0.
        254    2    1    2    0    0 -0.34641071458E+02 -0.97068911238E+02 -0.12363872026E+04  0.15380157846E+04  0.90896471966E+03 0.  0.
        -24    2    4    4    0    0 -0.71032125891E+02 -0.40479055301E+03 -0.22112608722E+03  0.47351021763E+03  0.80088857150E+02 0.  0.
         24    2    4    4    0    0  0.36391054433E+02  0.30772164177E+03 -0.10152611154E+04  0.10645055670E+04  0.80000325190E+02 0.  0.
         11    1    3    3    0    0  0.32082645765E+02  0.11632363206E+03 -0.48731655835E+03  0.50203377533E+03  0.00000000000E+00 0. -1.
        -11    1    3    3    0    0  0.25584256928E+01 -0.19254720823E+02 -0.50517387758E+02  0.54122973698E+02  0.00000000000E+00 0.  1.
          2    1    6    6  502    0  0.20010088594E+02  0.26883440009E+03 -0.77450211012E+03  0.82007673842E+03  0.00000000000E+00 0. -1.
          1    1    5    5  503    0 -0.76886752706E+02 -0.40419373422E+03 -0.21252510453E+03  0.46308861742E+03  0.00000000000E+00 0. -1.
         -2    1    5    5    0  503  0.58546268151E+01 -0.59681878714E+00 -0.86009826914E+01  0.10421600216E+02  0.00000000000E+00 0.  1.
         -1    1    6    6    0  502  0.16380965839E+02  0.38887241684E+02 -0.24075900531E+03  0.24442882859E+03  0.00000000000E+00 0.  1.
<mgrwt>
<rscale>  0 0.11125187E+04</rscale>
<asrwt>0</asrwt>
<pdfrwt beam="1">  1        1 0.29756875E+00 0.11125187E+04</pdfrwt>
<pdfrwt beam="2">  1       -1 0.24611644E-01 0.11125187E+04</pdfrwt>
<totfact> 0.47421625E+01</totfact>
</mgrwt>
</event>
<event>
12    1  0.1477245E-007  0.1173106E+04  0.7818608E-02  0.9136728E-01
          1   -1    0    0  501    0  0.00000000000E+00  0.00000000000E+00  0.11380892068E+04  0.11380892068E+04  0.00000000000E+00 0. -1.
         -1   -1    0    0    0  501 -0.00000000000E+00 -0.00000000000E+00 -0.30230022926E+03  0.30230022926E+03  0.00000000000E+00 0.  1.
         23    2    1    2    0    0  0.11417762136E+03  0.19626560269E+03  0.19152842639E+03  0.31192492383E+03  0.95169869034E+02 0.  0.
        254    2    1    2    0    0 -0.11417762136E+03 -0.19626560269E+03  0.64426055115E+03  0.11284645122E+04  0.89822256794E+03 0.  0.
        -24    2    4    4    0    0 -0.48625022073E+03 -0.11625261637E+02  0.43152811807E+03  0.65499793943E+03  0.78938964471E+02 0.  0.
         24    2    4    4    0    0  0.37207259936E+03 -0.18464034105E+03  0.21273243307E+03  0.47346657279E+03  0.79908902682E+02 0.  0.
         13    1    3    3    0    0  0.86833870680E+01  0.17765670284E+02  0.67455917712E+02  0.70294530982E+02  0.00000000000E+00 0. -1.
        -13    1    3    3    0    0  0.10549423430E+03  0.17849993241E+03  0.12407250868E+03  0.24163039285E+03  0.00000000000E+00 0.  1.
          2    1    6    6  502    0  0.36772475947E+03 -0.17931610313E+03  0.21910471792E+03  0.46409335374E+03  0.00000000000E+00 0. -1.
          1    1    5    5  503    0 -0.35249845872E+03  0.22839128453E+02  0.28753651328E+03  0.45547122374E+03  0.00000000000E+00 0. -1.
         -4    1    5    5    0  503 -0.13375176201E+03 -0.34464390090E+02  0.14399160479E+03  0.19952671569E+03  0.00000000000E+00 0.  1.
         -1    1    6    6    0  502  0.43478398943E+01 -0.53242379247E+01 -0.63722848488E+01  0.93732190532E+01  0.00000000000E+00 0.  1.
<mgrwt>
<rscale>  0 0.11731064E+04</rscale>
<asrwt>0</asrwt>
<pdfrwt beam="1">  1        1 0.17509065E+00 0.11731064E+04</pdfrwt>
<pdfrwt beam="2">  1       -1 0.46507728E-01 0.11731064E+04</pdfrwt>
<totfact> 0.54174951E+01</totfact>
</mgrwt>
</event>
<event>
12    1  0.1477245E-007  0.2847667E+04  0.7818608E-02  0.8288621E-01
          2   -1    0    0  501    0  0.00000000000E+00  0.00000000000E+00  0.29130542413E+04  0.29130542413E+04  0.00000000000E+00 0. -1.
         -2   -1    0    0    0  501 -0.00000000000E+00 -0.00000000000E+00 -0.69593673505E+03  0.69593673505E+03  0.00000000000E+00 0.  1.
         23    2    1    2    0    0  0.72776481903E+02  0.12782453380E+04  0.91977753095E+03  0.15790745233E+04  0.90983971770E+02 0.  0.
        254    2    1    2    0    0 -0.72776481903E+02 -0.12782453380E+04  0.12973399753E+04  0.20299164531E+04  0.89345522243E+03 0.  0.
        -24    2    4    4    0    0  0.10891671435E+03 -0.11958071911E+04  0.13501234528E+04  0.18084862091E+04  0.77274459480E+02 0.  0.
         24    2    4    4    0    0 -0.18169319626E+03 -0.82438146974E+02 -0.52783477444E+02  0.22143024396E+03  0.80229619269E+02 0.  0.
         11    1    3    3    0    0  0.23420817613E+02  0.24449905910E+03  0.22030315266E+03  0.32994212169E+03  0.00000000000E+00 0. -1.
        -11    1    3    3    0    0  0.49355664290E+02  0.10337462789E+04  0.69947437829E+03  0.12491324016E+04  0.00000000000E+00 0.  1.
          2    1    6    6  502    0 -0.76375303044E+02 -0.48073086161E+02  0.15105207788E+02  0.91500687596E+02  0.00000000000E+00 0. -1.
          1    1    5    5  503    0  0.23105808822E+02 -0.79413792536E+02  0.11090185839E+03  0.13834612767E+03  0.00000000000E+00 0. -1.
         -2    1    5    5    0  503  0.85810905531E+02 -0.11163933985E+04  0.12392215944E+04  0.16701400815E+04  0.00000000000E+00 0.  1.
         -1    1    6    6    0  502 -0.10531789321E+03 -0.34365060813E+02 -0.67888685232E+02  0.12992955637E+03  0.00000000000E+00 0.  1.
<mgrwt>
<rscale>  0 0.28476667E+04</rscale>
<asrwt>0</asrwt>
<pdfrwt beam="1">  1        2 0.44816218E+00 0.28476667E+04</pdfrwt>
<pdfrwt beam="2">  1       -2 0.10706719E+00 0.28476667E+04</pdfrwt>
<totfact> 0.11984125E+00</totfact>
</mgrwt>
</event>
<event>
12    1  0.1477245E-007  0.3231126E+04  0.7818608E-02  0.8180645E-01
         -2   -1    0    0    0  501 -0.00000000000E+00  0.00000000000E+00  0.16804734885E+04  0.16804734885E+04  0.00000000000E+00 0. -1.
          2   -1    0    0  501    0  0.00000000000E+00 -0.00000000000E+00 -0.15531593725E+04  0.15531593725E+04  0.00000000000E+00 0.  1.
         23    2    1    2    0    0  0.95152299924E+03  0.48737282869E+03  0.10964253632E+04  0.15341260120E+04  0.92009517380E+02 0.  0.
        254    2    1    2    0    0 -0.95152299924E+03 -0.48737282869E+03 -0.96911124734E+03  0.16995068490E+04  0.89789678020E+03 0.  0.
        -24    2    4    4    0    0 -0.55849162716E+03 -0.21336057420E+03 -0.10462147853E+04  0.12077495290E+04  0.81596051638E+02 0.  0.
         24    2    4    4    0    0 -0.39303137209E+03 -0.27401225449E+03  0.77103537958E+02  0.49175732000E+03  0.79523148502E+02 0.  0.
         13    1    3    3    0    0  0.94216178985E+03  0.48463067830E+03  0.10959650875E+04  0.15243605891E+04  0.00000000000E+00 0. -1.
        -13    1    3    3    0    0  0.93612093966E+01  0.27421503861E+01  0.46027571462E+00  0.97654228705E+01  0.00000000000E+00 0.  1.
          4    1    6    6  502    0 -0.24337981435E+03 -0.21457527006E+03  0.57983022788E+02  0.32960326376E+03  0.00000000000E+00 0. -1.
          1    1    5    5  503    0 -0.45065393138E+03 -0.14120185701E+03 -0.78560760880E+03  0.91662764812E+03  0.00000000000E+00 0. -1.
         -2    1    5    5    0  503 -0.10783769577E+03 -0.72158717183E+02 -0.26060717649E+03  0.29112188089E+03  0.00000000000E+00 0.  1.
         -3    1    6    6    0  502 -0.14965155774E+03 -0.59436984436E+02  0.19120515170E+02  0.16215405623E+03  0.00000000000E+00 0.  1.
<mgrwt>
<rscale>  0 0.32311256E+04</rscale>
<asrwt>0</asrwt>
<pdfrwt beam="1">  1        2 0.23894759E+00 0.32311256E+04</pdfrwt>
<pdfrwt beam="2">  1       -2 0.25853438E+00 0.32311256E+04</pdfrwt>
<totfact> 0.56678411E-01</totfact>
</mgrwt>
</event>
<event>
12    1  0.1477245E-007  0.1579554E+04  0.7818608E-02  0.8833208E-01
         -1   -1    0    0    0  501 -0.00000000000E+00  0.00000000000E+00  0.34602126147E+03  0.34602126147E+03  0.00000000000E+00 0.  1.
          1   -1    0    0  501    0  0.00000000000E+00 -0.00000000000E+00 -0.18026281447E+04  0.18026281447E+04  0.00000000000E+00 0. -1.
         23    2    1    2    0    0 -0.93592731323E+02 -0.58860910079E+02 -0.11868613562E+04  0.11954523224E+04  0.90786399408E+02 0.  0.
        254    2    1    2    0    0  0.93592731323E+02  0.58860910079E+02 -0.26974552702E+03  0.95319708371E+03  0.90752290602E+03 0.  0.
        -24    2    4    4    0    0  0.39043464074E+03  0.11040221693E+03  0.14277457426E+03  0.43696617383E+03  0.76987010787E+02 0.  0.
         24    2    4    4    0    0 -0.29684190941E+03 -0.51541306854E+02 -0.41252010127E+03  0.51623090987E+03  0.74497603023E+02 0.  0.
         13    1    3    3    0    0 -0.10097409481E+03 -0.46890979827E+02 -0.11580803519E+04  0.11634193712E+04  0.00000000000E+00 0. -1.
        -13    1    3    3    0    0  0.73813634872E+01 -0.11969930252E+02 -0.28781004223E+02  0.32032951180E+02  0.00000000000E+00 0.  1.
          4    1    6    6  502    0 -0.17252195691E+03 -0.20103682430E+02 -0.29477041620E+03  0.34213678833E+03  0.00000000000E+00 0. -1.
          1    1    5    5  503    0  0.31556239164E+03  0.94963277867E+02  0.14603428320E+03  0.36044924613E+03  0.00000000000E+00 0. -1.
         -2    1    5    5    0  503  0.74872249092E+02  0.15438939066E+02 -0.32597089392E+01  0.76516927708E+02  0.00000000000E+00 0.  1.
         -1    1    6    6    0  502 -0.12431995251E+03 -0.31437624424E+02 -0.11774968508E+03  0.17409412154E+03  0.00000000000E+00 0.  1.
<mgrwt>
<rscale>  0 0.15795539E+04</rscale>
<asrwt>0</asrwt>
<pdfrwt beam="1">  1        1 0.27732741E+00 0.15795539E+04</pdfrwt>
<pdfrwt beam="2">  1       -1 0.53234040E-01 0.15795539E+04</pdfrwt>
<totfact> 0.13880977E+01</totfact>
</mgrwt>
</event>
<event>
12    1  0.1477245E-007  0.1157266E+04  0.7818608E-02  0.9151107E-01
         -1   -1    0    0    0  501 -0.00000000000E+00  0.00000000000E+00  0.24591475270E+03  0.24591475270E+03  0.00000000000E+00 0.  1.
          1   -1    0    0  501    0  0.00000000000E+00 -0.00000000000E+00 -0.13615123638E+04  0.13615123638E+04  0.00000000000E+00 0. -1.
         23    2    1    2    0    0  0.49777021436E+01  0.21525511502E+03 -0.20333157017E+03  0.30910985414E+03  0.88575574730E+02 0.  0.
        254    2    1    2    0    0 -0.49777021436E+01 -0.21525511502E+03 -0.91226604096E+03  0.12983172624E+04  0.89835340612E+03 0.  0.
        -24    2    4    4    0    0  0.58279427642E+02 -0.16786065282E+03 -0.10794785612E+04  0.10968429096E+04  0.78846140027E+02 0.  0.
         24    2    4    4    0    0 -0.63257129786E+02 -0.47394462199E+02  0.16721252025E+03  0.20147435279E+03  0.79901116316E+02 0.  0.
         13    1    3    3    0    0  0.11553061591E+02  0.15737634776E+03 -0.89940968400E+02  0.18163195166E+03  0.00000000000E+00 0. -1.
        -13    1    3    3    0    0 -0.65753594472E+01  0.57878767253E+02 -0.11339060177E+03  0.12747790248E+03  0.00000000000E+00 0.  1.
          4    1    6    6  502    0 -0.10649618342E+02 -0.34231763330E+02  0.13216007614E+02  0.38208518014E+02  0.00000000000E+00 0. -1.
          1    1    5    5  503    0 -0.80813678436E+01 -0.23212486458E+01 -0.12518661698E+02  0.15080238467E+02  0.00000000000E+00 0. -1.
         -2    1    5    5    0  503  0.66360795486E+02 -0.16553940417E+03 -0.10669598995E+04  0.10817626711E+04  0.00000000000E+00 0.  1.
         -3    1    6    6    0  502 -0.52607511443E+02 -0.13162698868E+02  0.15399651263E+03  0.16326583477E+03  0.00000000000E+00 0.  1.
<mgrwt>
<rscale>  0 0.11572657E+04</rscale>
<asrwt>0</asrwt>
<pdfrwt beam="1">  1        1 0.20946344E+00 0.11572657E+04</pdfrwt>
<pdfrwt beam="2">  1       -1 0.37833038E-01 0.11572657E+04</pdfrwt>
<totfact> 0.54712043E+01</totfact>
</mgrwt>
</event>
<event>
12    1  0.1477245E-007  0.1699243E+04  0.7818608E-02  0.8761796E-01
          1   -1    0    0  501    0  0.00000000000E+00  0.00000000000E+00  0.18373156804E+04  0.18373156804E+04  0.00000000000E+00 0. -1.
         -1   -1    0    0    0  501 -0.00000000000E+00 -0.00000000000E+00 -0.39288658681E+03  0.39288658681E+03  0.00000000000E+00 0.  1.
         23    2    1    2    0    0 -0.44420480365E+03  0.17622477351E+03  0.10557017289E+04  0.11622063998E+04  0.88569165408E+02 0.  0.
        254    2    1    2    0    0  0.44420480365E+03 -0.17622477351E+03  0.38872736476E+03  0.10679958674E+04  0.87242944146E+03 0.  0.
        -24    2    4    4    0    0 -0.50498501977E+02  0.14748546408E+03 -0.17412116623E+03  0.24796422001E+03  0.82861408742E+02 0.  0.
         24    2    4    4    0    0  0.49470330563E+03 -0.32371023759E+03  0.56284853099E+03  0.82003164741E+03  0.78318295424E+02 0.  0.
         13    1    3    3    0    0 -0.43111889704E+03  0.15098212379E+03  0.97659635871E+03  0.10781463504E+04  0.00000000000E+00 0. -1.
        -13    1    3    3    0    0 -0.13085906619E+02  0.25242649720E+02  0.79105370154E+02  0.84060049394E+02  0.00000000000E+00 0.  1.
          2    1    6    6  502    0  0.41546159431E+03 -0.29238863400E+03  0.45035040798E+03  0.67890716568E+03  0.00000000000E+00 0. -1.
          1    1    5    5  503    0  0.50819066561E+01  0.46083807101E+02 -0.10104489173E+03  0.11117379726E+03  0.00000000000E+00 0. -1.
         -2    1    5    5    0  503 -0.55580408634E+02  0.10140165698E+03 -0.73076274505E+02  0.13679042275E+03  0.00000000000E+00 0.  1.
         -1    1    6    6    0  502  0.79241711320E+02 -0.31321603588E+02  0.11249812301E+03  0.14112448173E+03  0.00000000000E+00 0.  1.
<mgrwt>
<rscale>  0 0.16992430E+04</rscale>
<asrwt>0</asrwt>
<pdfrwt beam="1">  1        1 0.28266395E+00 0.16992430E+04</pdfrwt>
<pdfrwt beam="2">  1       -1 0.60444091E-01 0.16992430E+04</pdfrwt>
<totfact> 0.10151618E+01</totfact>
</mgrwt>
</event>
<event>
12    1  0.1477245E-007  0.1994655E+04  0.7818608E-02  0.8609124E-01
          1   -1    0    0  501    0  0.00000000000E+00  0.00000000000E+00  0.13433797553E+04  0.13433797553E+04  0.00000000000E+00 0. -1.
         -1   -1    0    0    0  501 -0.00000000000E+00 -0.00000000000E+00 -0.74041790342E+03  0.74041790342E+03  0.00000000000E+00 0.  1.
         23    2    1    2    0    0  0.28645239561E+03 -0.10136529312E+03  0.10001064843E+04  0.10492175194E+04  0.91184019303E+02 0.  0.
        254    2    1    2    0    0 -0.28645239561E+03  0.10136529312E+03 -0.39714463243E+03  0.10345801394E+04  0.90570542015E+03 0.  0.
        -24    2    4    4    0    0 -0.59096791834E+03  0.12455731628E+03 -0.38091243696E+03  0.71853870528E+03  0.80286865717E+02 0.  0.
         24    2    4    4    0    0  0.30451552273E+03 -0.23192023155E+02 -0.16232195466E+02  0.31604143408E+03  0.79693979499E+02 0.  0.
         11    1    3    3    0    0  0.27225628409E+03 -0.11591390225E+03  0.95379754508E+03  0.99864371723E+03  0.00000000000E+00 0. -1.
        -11    1    3    3    0    0  0.14196111516E+02  0.14548609123E+02  0.46308939270E+02  0.50573802170E+02  0.00000000000E+00 0.  1.
          2    1    6    6  502    0  0.18959938835E+03 -0.32386903750E+02  0.24224998580E+02  0.19386513393E+03  0.00000000000E+00 0. -1.
          1    1    5    5  503    0 -0.26352788717E+03  0.70102564715E+02 -0.21609843572E+03  0.34793656148E+03  0.00000000000E+00 0. -1.
         -2    1    5    5    0  503 -0.32744003117E+03  0.54454751564E+02 -0.16481400124E+03  0.37060214380E+03  0.00000000000E+00 0.  1.
         -1    1    6    6    0  502  0.11491613438E+03  0.91948805956E+01 -0.40457194047E+02  0.12217630016E+03  0.00000000000E+00 0.  1.
<mgrwt>
<rscale>  0 0.19946553E+04</rscale>
<asrwt>0</asrwt>
<pdfrwt beam="1">  1        1 0.20667381E+00 0.19946553E+04</pdfrwt>
<pdfrwt beam="2">  1       -1 0.11391045E+00 0.19946553E+04</pdfrwt>
<totfact> 0.54905994E+00</totfact>
</mgrwt>
</event>
<event>
12    1  0.1477245E-007  0.1031081E+04  0.7818608E-02  0.9275097E-01
         -2   -1    0    0    0  501 -0.00000000000E+00  0.00000000000E+00  0.31842456200E+03  0.31842456200E+03  0.00000000000E+00 0.  1.
          2   -1    0    0  501    0  0.00000000000E+00 -0.00000000000E+00 -0.83467858888E+03  0.83467858888E+03  0.00000000000E+00 0. -1.
         23    2    1    2    0    0  0.19339466256E+02 -0.88330098225E+02 -0.19318306223E+02  0.12926202179E+03  0.90328578619E+02 0.  0.
        254    2    1    2    0    0 -0.19339466256E+02  0.88330098225E+02 -0.49693572065E+03  0.10238411291E+04  0.89057808526E+03 0.  0.
        -24    2    4    4    0    0  0.78237233382E+02  0.45951392398E+03 -0.40058894283E+03  0.61962816066E+03  0.78698445691E+02 0.  0.
         24    2    4    4    0    0 -0.97576699637E+02 -0.37118382575E+03 -0.96346777818E+02  0.40421296842E+03  0.82503196519E+02 0.  0.
         13    1    3    3    0    0  0.33541027055E+02 -0.85386642946E+02  0.14115762525E+02  0.92817746370E+02  0.00000000000E+00 0.  1.
        -13    1    3    3    0    0 -0.14201560799E+02 -0.29434552794E+01 -0.33434068748E+02  0.36444275424E+02  0.00000000000E+00 0. -1.
          4    1    6    6  502    0 -0.30172416644E+02 -0.72098158997E+02 -0.53340987643E+02  0.94624416614E+02  0.00000000000E+00 0. -1.
          3    1    5    5  503    0 -0.28520929489E+01  0.98254832020E+02 -0.11970879355E+03  0.15489461483E+03  0.00000000000E+00 0. -1.
         -2    1    5    5    0  503  0.81089326331E+02  0.36125909196E+03 -0.28088014928E+03  0.46473354584E+03  0.00000000000E+00 0.  1.
         -3    1    6    6    0  502 -0.67404282993E+02 -0.29908566675E+03 -0.43005790175E+02  0.30958855181E+03  0.00000000000E+00 0.  1.
<mgrwt>
<rscale>  0 0.10310813E+04</rscale>
<asrwt>0</asrwt>
<pdfrwt beam="1">  1        2 0.12841209E+00 0.10310813E+04</pdfrwt>
<pdfrwt beam="2">  1       -2 0.48988395E-01 0.10310813E+04</pdfrwt>
<totfact> 0.12793017E+02</totfact>
</mgrwt>
</event>
<event>
12    1  0.1477245E-007  0.1503202E+04  0.7818608E-02  0.8882327E-01
          2   -1    0    0  501    0  0.00000000000E+00  0.00000000000E+00  0.50138964849E+03  0.50138964849E+03  0.00000000000E+00 0.  1.
         -2   -1    0    0    0  501 -0.00000000000E+00 -0.00000000000E+00 -0.11266763230E+04  0.11266763230E+04  0.00000000000E+00 0. -1.
         23    2    1    2    0    0 -0.32640710594E+03  0.23663293780E+03 -0.37948510038E+03  0.56112596602E+03  0.91195736008E+02 0.  0.
        254    2    1    2    0    0  0.32640710594E+03 -0.23663293780E+03 -0.24580157409E+03  0.10669400054E+04  0.95676842302E+03 0.  0.
        -24    2    4    4    0    0  0.40949997556E+03 -0.52507683884E+03  0.18489696740E+01  0.67019611943E+03  0.75917739273E+02 0.  0.
         24    2    4    4    0    0 -0.83092869620E+02  0.28844390104E+03 -0.24765054376E+03  0.39674388599E+03  0.77269723795E+02 0.  0.
         13    1    3    3    0    0 -0.30330970454E+03  0.19234216362E+03 -0.30363196543E+03  0.47030272719E+03  0.00000000000E+00 0. -1.
        -13    1    3    3    0    0 -0.23097401407E+02  0.44290774184E+02 -0.75853134947E+02  0.90823238826E+02  0.00000000000E+00 0.  1.
          2    1    6    6  502    0 -0.59398245553E+02  0.89533258894E+02 -0.64488490079E+02  0.12531209589E+03  0.00000000000E+00 0. -1.
          3    1    5    5  503    0  0.21577275429E+03 -0.31877428069E+03 -0.26082432738E+02  0.38581759527E+03  0.00000000000E+00 0. -1.
         -4    1    5    5    0  503  0.19372722127E+03 -0.20630255815E+03  0.27931402412E+02  0.28437852416E+03  0.00000000000E+00 0.  1.
         -1    1    6    6    0  502 -0.23694624067E+02  0.19891064215E+03 -0.18316205368E+03  0.27143179010E+03  0.00000000000E+00 0.  1.
<mgrwt>
<rscale>  0 0.15032017E+04</rscale>
<asrwt>0</asrwt>
<pdfrwt beam="1">  1        2 0.77136871E-01 0.15032017E+04</pdfrwt>
<pdfrwt beam="2">  1       -2 0.17333482E+00 0.15032017E+04</pdfrwt>
<totfact> 0.11955513E+01</totfact>
</mgrwt>
</event>
<event>
12    1  0.1477245E-007  0.1515080E+04  0.7818608E-02  0.8874487E-01
         -1   -1    0    0    0  501 -0.00000000000E+00  0.00000000000E+00  0.51697549715E+03  0.51697549715E+03  0.00000000000E+00 0.  1.
          1   -1    0    0  501    0  0.00000000000E+00 -0.00000000000E+00 -0.11100460708E+04  0.11100460708E+04  0.00000000000E+00 0. -1.
         23    2    1    2    0    0  0.48533817929E+03  0.98209604966E+01 -0.24312460158E+03  0.55112033911E+03  0.94733609359E+02 0.  0.
        254    2    1    2    0    0 -0.48533817929E+03 -0.98209604966E+01 -0.34994597207E+03  0.10759012288E+04  0.89412061339E+03 0.  0.
        -24    2    4    4    0    0 -0.17877576784E+03 -0.40828758728E+03  0.10313288406E+02  0.45249789620E+03  0.77385095806E+02 0.  0.
         24    2    4    4    0    0 -0.30656241145E+03  0.39846662679E+03 -0.36025926047E+03  0.62340333263E+03  0.78030863131E+02 0.  0.
         13    1    3    3    0    0  0.19423375323E+02  0.13336438041E+02  0.37042001661E+01  0.23850559478E+02  0.00000000000E+00 0.  1.
        -13    1    3    3    0    0  0.46591480397E+03 -0.35154775445E+01 -0.24682880174E+03  0.52726977963E+03  0.00000000000E+00 0. -1.
          4    1    6    6  502    0 -0.30015065811E+03  0.37779966498E+03 -0.35956097814E+03  0.60175335597E+03  0.00000000000E+00 0. -1.
          1    1    5    5  503    0 -0.17556223674E+03 -0.32805261888E+03  0.92922914293E+01  0.37219210954E+03  0.00000000000E+00 0. -1.
         -2    1    5    5    0  503 -0.32135311021E+01 -0.80234968405E+02  0.10209969768E+01  0.80305786665E+02  0.00000000000E+00 0.  1.
         -3    1    6    6    0  502 -0.64117533396E+01  0.20666961803E+02 -0.69828233676E+00  0.21649976657E+02  0.00000000000E+00 0.  1.
<mgrwt>
<rscale>  0 0.15150797E+04</rscale>
<asrwt>0</asrwt>
<pdfrwt beam="1">  1        1 0.17077632E+00 0.15150797E+04</pdfrwt>
<pdfrwt beam="2">  1       -1 0.79534693E-01 0.15150797E+04</pdfrwt>
<totfact> 0.19016303E+01</totfact>
</mgrwt>
</event>
<event>
12    1  0.1477245E-007  0.1628418E+04  0.7818608E-02  0.8803277E-01
         -1   -1    0    0    0  501 -0.00000000000E+00  0.00000000000E+00  0.38021335685E+03  0.38021335685E+03  0.00000000000E+00 0.  1.
          1   -1    0    0  501    0  0.00000000000E+00 -0.00000000000E+00 -0.17435907608E+04  0.17435907608E+04  0.00000000000E+00 0. -1.
         23    2    1    2    0    0 -0.20310321742E+03 -0.27882540186E+03 -0.10564826465E+04  0.11150502724E+04  0.90482076056E+02 0.  0.
        254    2    1    2    0    0  0.20310321742E+03  0.27882540186E+03 -0.30689475747E+03  0.10087538452E+04  0.89688650700E+03 0.  0.
        -24    2    4    4    0    0 -0.18018266015E+03 -0.24000942972E+03 -0.95912779112E+02  0.32535242844E+03  0.81145696876E+02 0.  0.
         24    2    4    4    0    0  0.38328587757E+03  0.51883483157E+03 -0.21098197835E+03  0.68340141678E+03  0.80165172444E+02 0.  0.
         11    1    3    3    0    0 -0.54950452055E+02 -0.74504911764E+02 -0.17283474979E+03  0.19606729660E+03  0.00000000000E+00 0.  1.
        -11    1    3    3    0    0 -0.14815276536E+03 -0.20432049009E+03 -0.88364789667E+03  0.91898297582E+03  0.00000000000E+00 0. -1.
          4    1    6    6  502    0  0.17373509572E+03  0.17720179561E+03 -0.61655792887E+02  0.25570646580E+03  0.00000000000E+00 0. -1.
          3    1    5    5  503    0 -0.78319451138E+02 -0.67629943557E+02 -0.32444203056E+00  0.10347874639E+03  0.00000000000E+00 0. -1.
         -4    1    5    5    0  503 -0.10186320902E+03 -0.17237948616E+03 -0.95588337082E+02  0.22187368205E+03  0.00000000000E+00 0.  1.
         -3    1    6    6    0  502  0.20955078185E+03  0.34163303596E+03 -0.14932618547E+03  0.42769495098E+03  0.00000000000E+00 0.  1.
<mgrwt>
<rscale>  0 0.16284182E+04</rscale>
<asrwt>0</asrwt>
<pdfrwt beam="1">  1        1 0.26824474E+00 0.16284182E+04</pdfrwt>
<pdfrwt beam="2">  1       -1 0.58494361E-01 0.16284182E+04</pdfrwt>
<totfact> 0.12618749E+01</totfact>
</mgrwt>
</event>
<event>
12    1  0.1477245E-007  0.2767401E+04  0.7818608E-02  0.8313461E-01
         -1   -1    0    0    0  501 -0.00000000000E+00  0.00000000000E+00  0.89308500918E+03  0.89308500918E+03  0.00000000000E+00 0.  1.
          1   -1    0    0  501    0  0.00000000000E+00 -0.00000000000E+00 -0.21438358130E+04  0.21438358130E+04  0.00000000000E+00 0. -1.
         23    2    1    2    0    0 -0.57449942376E+03 -0.54817154357E+03 -0.16048139478E+04  0.17928328066E+04  0.90994704472E+02 0.  0.
        254    2    1    2    0    0  0.57449942376E+03  0.54817154357E+03  0.35406314399E+03  0.12440880156E+04  0.88986102932E+03 0.  0.
        -24    2    4    4    0    0 -0.10596718628E+03  0.30139582915E+03 -0.14644199638E+03  0.36049592173E+03  0.80271793828E+02 0.  0.
         24    2    4    4    0    0  0.68046661004E+03  0.24677571442E+03  0.50050514037E+03  0.88359209385E+03  0.79350691013E+02 0.  0.
         13    1    3    3    0    0 -0.55306547945E+03 -0.53414286493E+03 -0.15082508621E+04  0.16929296169E+04  0.00000000000E+00 0. -1.
        -13    1    3    3    0    0 -0.21433944310E+02 -0.14028678644E+02 -0.96563085635E+02  0.99903189642E+02  0.00000000000E+00 0.  1.
          4    1    6    6  502    0  0.11930419691E+02 -0.60665238706E+01  0.10349589944E+02  0.16918972719E+02  0.00000000000E+00 0. -1.
          3    1    5    5  503    0 -0.72533577088E+02  0.11982929545E+03 -0.93587060466E+02  0.16845984014E+03  0.00000000000E+00 0. -1.
         -4    1    5    5    0  503 -0.33433609195E+02  0.18156653369E+03 -0.52854935915E+02  0.19203608159E+03  0.00000000000E+00 0.  1.
         -3    1    6    6    0  502  0.66853619035E+03  0.25284223829E+03  0.49015555042E+03  0.86667312113E+03  0.00000000000E+00 0.  1.
<mgrwt>
<rscale>  0 0.27674014E+04</rscale>
<asrwt>0</asrwt>
<pdfrwt beam="1">  1        1 0.32982089E+00 0.27674014E+04</pdfrwt>
<pdfrwt beam="2">  1       -1 0.13739769E+00 0.27674014E+04</pdfrwt>
<totfact> 0.90904935E-01</totfact>
</mgrwt>
</event>
<event>
12    1  0.1477245E-007  0.1321591E+04  0.7818608E-02  0.9012616E-01
         -2   -1    0    0    0  501 -0.00000000000E+00  0.00000000000E+00  0.94457079750E+02  0.94457079750E+02  0.00000000000E+00 0.  1.
          2   -1    0    0  501    0  0.00000000000E+00 -0.00000000000E+00 -0.46227429573E+04  0.46227429573E+04  0.00000000000E+00 0. -1.
         23    2    1    2    0    0 -0.28307074110E+03 -0.18469675188E+03 -0.14952264572E+04  0.15357287374E+04  0.92296598346E+02 0.  0.
        254    2    1    2    0    0  0.28307074110E+03  0.18469675188E+03 -0.30330594204E+04  0.31814712996E+04  0.89892616396E+03 0.  0.
        -24    2    4    4    0    0 -0.22024464990E+03  0.12517984589E+03 -0.29878145685E+03  0.39945301027E+03  0.78196220061E+02 0.  0.
         24    2    4    4    0    0  0.50331539100E+03  0.59516905993E+02 -0.27342779635E+04  0.27820182894E+04  0.80505500333E+02 0.  0.
         13    1    3    3    0    0 -0.18999565811E+03 -0.16096545049E+03 -0.94929973060E+03  0.98141642785E+03  0.00000000000E+00 0.  1.
        -13    1    3    3    0    0 -0.93075082989E+02 -0.23731301399E+02 -0.54592672658E+03  0.55431230956E+03  0.00000000000E+00 0. -1.
          2    1    6    6  502    0  0.45913836155E+03  0.30192133723E+02 -0.24437900175E+04  0.24867306347E+04  0.00000000000E+00 0. -1.
          3    1    5    5  503    0 -0.15977330481E+03  0.10402206659E+03 -0.26660867398E+03  0.32776254257E+03  0.00000000000E+00 0. -1.
         -2    1    5    5    0  503 -0.60471345094E+02  0.21157779306E+02 -0.32172782861E+02  0.71690467705E+02  0.00000000000E+00 0.  1.
         -1    1    6    6    0  502  0.44177029450E+02  0.29324772270E+02 -0.29048794607E+03  0.29528765469E+03  0.00000000000E+00 0.  1.
<mgrwt>
<rscale>  0 0.13215912E+04</rscale>
<asrwt>0</asrwt>
<pdfrwt beam="1">  1        2 0.71119087E+00 0.13215912E+04</pdfrwt>
<pdfrwt beam="2">  1       -2 0.14531866E-01 0.13215912E+04</pdfrwt>
<totfact> 0.35357212E+00</totfact>
</mgrwt>
</event>
<event>
12    1  0.1477245E-007  0.1845002E+04  0.7818608E-02  0.8682727E-01
         -4   -1    0    0    0  501 -0.00000000000E+00  0.00000000000E+00  0.88661183981E+03  0.88661183981E+03  0.00000000000E+00 0.  1.
          4   -1    0    0  501    0  0.00000000000E+00 -0.00000000000E+00 -0.95984315873E+03  0.95984315873E+03  0.00000000000E+00 0. -1.
         23    2    1    2    0    0  0.66878891515E+03 -0.10378169644E+03  0.27970394004E+03  0.73674825029E+03  0.80712060343E+02 0.  0.
        254    2    1    2    0    0 -0.66878891515E+03  0.10378169644E+03 -0.35293525896E+03  0.11097067482E+04  0.80550388984E+03 0.  0.
        -24    2    4    4    0    0 -0.69211171309E+03  0.35629029694E+03 -0.30080470569E+03  0.83850460322E+03  0.81517480101E+02 0.  0.
         24    2    4    4    0    0  0.23322797936E+02 -0.25250860050E+03 -0.52130553267E+02  0.27120214503E+03  0.80798902551E+02 0.  0.
         13    1    3    3    0    0  0.31439793420E+02  0.69543278005E+01  0.58995268659E+00  0.32205144459E+02  0.00000000000E+00 0. -1.
        -13    1    3    3    0    0  0.63734912173E+03 -0.11073602424E+03  0.27911398735E+03  0.70454310583E+03  0.00000000000E+00 0.  1.
          4    1    6    6  502    0 -0.14564049092E+01 -0.23052069811E+03 -0.32801238276E+02  0.23284723448E+03  0.00000000000E+00 0. -1.
          3    1    5    5  503    0 -0.54012469485E+03  0.31401642863E+03 -0.24698118955E+03  0.67181895733E+03  0.00000000000E+00 0. -1.
         -4    1    5    5    0  503 -0.15198701824E+03  0.42273868312E+02 -0.53823516150E+02  0.16668564590E+03  0.00000000000E+00 0.  1.
         -3    1    6    6    0  502  0.24779202845E+02 -0.21987902392E+02 -0.19329314991E+02  0.38354910549E+02  0.00000000000E+00 0.  1.
<mgrwt>
<rscale>  0 0.18450022E+04</rscale>
<asrwt>0</asrwt>
<pdfrwt beam="1">  1        4 0.14766818E+00 0.18450022E+04</pdfrwt>
<pdfrwt beam="2">  1       -4 0.13640182E+00 0.18450022E+04</pdfrwt>
<totfact> 0.22357277E-01</totfact>
</mgrwt>
</event>
<event>
12    1  0.1477245E-007  0.1649538E+04  0.7818608E-02  0.8790680E-01
          1   -1    0    0  501    0  0.00000000000E+00  0.00000000000E+00  0.24094521370E+04  0.24094521370E+04  0.00000000000E+00 0. -1.
         -1   -1    0    0    0  501 -0.00000000000E+00 -0.00000000000E+00 -0.28232290189E+03  0.28232290189E+03  0.00000000000E+00 0.  1.
         23    2    1    2    0    0 -0.26234530525E+03  0.36528351855E+03  0.13545266776E+04  0.14303027623E+04  0.93628859687E+02 0.  0.
        254    2    1    2    0    0  0.26234530525E+03 -0.36528351855E+03  0.77260255750E+03  0.12614722766E+04  0.89002274387E+03 0.  0.
        -24    2    4    4    0    0 -0.10311045821E+03  0.66179349398E+02 -0.12721076126E+03  0.19585944269E+03  0.84657371998E+02 0.  0.
         24    2    4    4    0    0  0.36545576347E+03 -0.43146286795E+03  0.89981331875E+03  0.10656128339E+04  0.78412892209E+02 0.  0.
         11    1    3    3    0    0 -0.26265783889E+03  0.35470415312E+03  0.13465786108E+04  0.14170667351E+04  0.00000000000E+00 0. -1.
        -11    1    3    3    0    0  0.31253363210E+00  0.10579365435E+02  0.79480667453E+01  0.13236027171E+02  0.00000000000E+00 0.  1.
          4    1    6    6  502    0  0.15174764070E+03 -0.14946173248E+03  0.40088875623E+03  0.45395809367E+03  0.00000000000E+00 0. -1.
          1    1    5    5  503    0 -0.98662097616E+02  0.35461637483E+02 -0.12717830436E+03  0.16482129213E+03  0.00000000000E+00 0. -1.
         -2    1    5    5    0  503 -0.44483605980E+01  0.30717711915E+02 -0.32456899521E-01  0.31038150570E+02  0.00000000000E+00 0.  1.
         -3    1    6    6    0  502  0.21370812277E+03 -0.28200113547E+03  0.49892456252E+03  0.61165474021E+03  0.00000000000E+00 0.  1.
<mgrwt>
<rscale>  0 0.16495375E+04</rscale>
<asrwt>0</asrwt>
<pdfrwt beam="1">  1        1 0.37068493E+00 0.16495375E+04</pdfrwt>
<pdfrwt beam="2">  1       -1 0.43434294E-01 0.16495375E+04</pdfrwt>
<totfact> 0.78356085E+00</totfact>
</mgrwt>
</event>
<event>
12    1  0.1477245E-007  0.1824027E+04  0.7818608E-02  0.8693626E-01
         -1   -1    0    0    0  501 -0.00000000000E+00  0.00000000000E+00  0.24803232183E+03  0.24803232183E+03  0.00000000000E+00 0.  1.
          1   -1    0    0  501    0  0.00000000000E+00 -0.00000000000E+00 -0.33534677510E+04  0.33534677510E+04  0.00000000000E+00 0. -1.
         23    2    1    2    0    0  0.39590906946E+03  0.49366316456E+02 -0.73834639555E+02  0.41506460652E+03  0.87441689754E+02 0.  0.
        254    2    1    2    0    0 -0.39590906946E+03 -0.49366316456E+02 -0.30316007896E+04  0.31864354663E+04  0.89642992411E+03 0.  0.
        -24    2    4    4    0    0 -0.23344704241E+03 -0.44325444450E+03 -0.20761235371E+04  0.21372053181E+04  0.79909988522E+02 0.  0.
         24    2    4    4    0    0 -0.16246202705E+03  0.39388812805E+03 -0.95547725253E+03  0.10492301482E+04  0.80033469030E+02 0.  0.
         13    1    3    3    0    0 -0.15485084872E+01 -0.22467252041E+01  0.58229512927E+01  0.64305842997E+01  0.00000000000E+00 0. -1.
        -13    1    3    3    0    0  0.39745757795E+03  0.51613041660E+02 -0.79657590847E+02  0.40863402222E+03  0.00000000000E+00 0.  1.
          2    1    6    6  502    0 -0.15765177589E+03  0.39516233591E+03 -0.92251408919E+03  0.10158934978E+04  0.00000000000E+00 0. -1.
          1    1    5    5  503    0 -0.14269963151E+03 -0.23379477917E+03 -0.97954936953E+03  0.10171234689E+04  0.00000000000E+00 0. -1.
         -2    1    5    5    0  503 -0.90747410899E+02 -0.20945966533E+03 -0.10965741676E+04  0.11200818492E+04  0.00000000000E+00 0.  1.
         -1    1    6    6    0  502 -0.48102511676E+01 -0.12742078605E+01 -0.32963163342E+02  0.33336650394E+02  0.00000000000E+00 0.  1.
<mgrwt>
<rscale>  0 0.18240267E+04</rscale>
<asrwt>0</asrwt>
<pdfrwt beam="1">  1        1 0.51591812E+00 0.18240267E+04</pdfrwt>
<pdfrwt beam="2">  1       -1 0.38158819E-01 0.18240267E+04</pdfrwt>
<totfact> 0.20420171E+00</totfact>
</mgrwt>
</event>
<event>
12    1  0.1477245E-007  0.1229166E+04  0.7818608E-02  0.9087704E-01
          2   -1    0    0  501    0  0.00000000000E+00  0.00000000000E+00  0.74256958203E+03  0.74256958203E+03  0.00000000000E+00 0. -1.
         -2   -1    0    0    0  501 -0.00000000000E+00 -0.00000000000E+00 -0.50865572283E+03  0.50865572283E+03  0.00000000000E+00 0.  1.
         23    2    1    2    0    0  0.10303860087E+03  0.23321257494E+03 -0.81776948595E+02  0.28337228287E+03  0.92775659516E+02 0.  0.
        254    2    1    2    0    0 -0.10303860087E+03 -0.23321257494E+03  0.31569080779E+03  0.96785302198E+03  0.87867726024E+03 0.  0.
        -24    2    4    4    0    0 -0.27016511835E+03  0.17120662768E+03 -0.11423289686E+03  0.34907311372E+03  0.80634877438E+02 0.  0.
         24    2    4    4    0    0  0.16712651748E+03 -0.40441920262E+03  0.42992370465E+03  0.61877990827E+03  0.81043314139E+02 0.  0.
         11    1    3    3    0    0  0.92166909918E+02  0.21932465945E+03 -0.99951117277E+02  0.25804703326E+03  0.00000000000E+00 0. -1.
        -11    1    3    3    0    0  0.10871690951E+02  0.13887915487E+02  0.18174168682E+02  0.25325249613E+02  0.00000000000E+00 0.  1.
          2    1    6    6  502    0  0.13323355212E+03 -0.37394997986E+03  0.36372919650E+03  0.53841312691E+03  0.00000000000E+00 0. -1.
          1    1    5    5  503    0 -0.19488209579E+03  0.16309425084E+03 -0.89175969981E+02  0.26931602169E+03  0.00000000000E+00 0. -1.
         -4    1    5    5    0  503 -0.75283022565E+02  0.81123768405E+01 -0.25056926875E+02  0.79757092029E+02  0.00000000000E+00 0.  1.
         -1    1    6    6    0  502  0.33892965368E+02 -0.30469222765E+02  0.66194508141E+02  0.80366781355E+02  0.00000000000E+00 0.  1.
<mgrwt>
<rscale>  0 0.12291660E+04</rscale>
<asrwt>0</asrwt>
<pdfrwt beam="1">  1        2 0.11424147E+00 0.12291660E+04</pdfrwt>
<pdfrwt beam="2">  1       -2 0.78254727E-01 0.12291660E+04</pdfrwt>
<totfact> 0.54367726E+01</totfact>
</mgrwt>
</event>
<event>
12    1  0.1477245E-007  0.2669989E+04  0.7818608E-02  0.8344809E-01
          1   -1    0    0  501    0  0.00000000000E+00  0.00000000000E+00  0.12155671169E+04  0.12155671169E+04  0.00000000000E+00 0. -1.
         -1   -1    0    0    0  501 -0.00000000000E+00 -0.00000000000E+00 -0.14661552280E+04  0.14661552280E+04  0.00000000000E+00 0.  1.
         23    2    1    2    0    0  0.71962449290E+02 -0.11677554411E+04 -0.33027274810E+03  0.12190595456E+04  0.90524710766E+02 0.  0.
        254    2    1    2    0    0 -0.71962449290E+02  0.11677554411E+04  0.79684637018E+02  0.14626627993E+04  0.87418616934E+03 0.  0.
        -24    2    4    4    0    0 -0.45722206441E+03  0.55711056568E+03  0.11721696954E+03  0.73525683568E+03  0.86247306565E+02 0.  0.
         24    2    4    4    0    0  0.38525961512E+03  0.61064487542E+03 -0.37532332527E+02  0.72740596359E+03  0.79991405547E+02 0.  0.
         13    1    3    3    0    0 -0.40906005736E+01 -0.39742049801E+03 -0.78990455306E+02  0.40521510002E+03  0.00000000000E+00 0. -1.
        -13    1    3    3    0    0  0.76053049864E+02 -0.77033494309E+03 -0.25128229280E+03  0.81384444559E+03  0.00000000000E+00 0.  1.
          4    1    6    6  502    0  0.37239681899E+03  0.55081775411E+03 -0.28056009946E+02  0.66548232789E+03  0.00000000000E+00 0. -1.
          3    1    5    5  503    0 -0.37630571516E+03  0.44033248603E+03  0.12652262394E+03  0.59287997427E+03  0.00000000000E+00 0. -1.
         -4    1    5    5    0  503 -0.80916349246E+02  0.11677807965E+03 -0.93056543958E+01  0.14237686141E+03  0.00000000000E+00 0.  1.
         -3    1    6    6    0  502  0.12862796124E+02  0.59827121315E+02 -0.94763225808E+01  0.61923635703E+02  0.00000000000E+00 0.  1.
<mgrwt>
<rscale>  0 0.26699888E+04</rscale>
<asrwt>0</asrwt>
<pdfrwt beam="1">  1        1 0.18701033E+00 0.26699888E+04</pdfrwt>
<pdfrwt beam="2">  1       -1 0.22556234E+00 0.26699888E+04</pdfrwt>
<totfact> 0.92058267E-01</totfact>
</mgrwt>
</event>
<event>
12    1  0.1477245E-007  0.2035916E+04  0.7818608E-02  0.8590010E-01
          1   -1    0    0  501    0  0.00000000000E+00  0.00000000000E+00  0.74052489158E+03  0.74052489158E+03  0.00000000000E+00 0. -1.
         -1   -1    0    0    0  501 -0.00000000000E+00 -0.00000000000E+00 -0.13993304013E+04  0.13993304013E+04  0.00000000000E+00 0.  1.
         23    2    1    2    0    0  0.31155066568E+02  0.69446029339E+03 -0.79917926380E+03  0.10631743096E+04  0.91686310818E+02 0.  0.
        254    2    1    2    0    0 -0.31155066568E+02 -0.69446029339E+03  0.14037375409E+03  0.10766809833E+04  0.81011814674E+03 0.  0.
        -24    2    4    4    0    0 -0.20769996886E+03 -0.30698111542E+03  0.41663696297E+03  0.56282632299E+03  0.76226167780E+02 0.  0.
         24    2    4    4    0    0  0.17654490229E+03 -0.38747917796E+03 -0.27626320888E+03  0.51385466030E+03  0.80106400796E+02 0.  0.
         13    1    3    3    0    0  0.61512545365E+02  0.41840503445E+03 -0.50298856929E+03  0.65714843600E+03  0.00000000000E+00 0.  1.
        -13    1    3    3    0    0 -0.30357478798E+02  0.27605525893E+03 -0.29619069451E+03  0.40602587358E+03  0.00000000000E+00 0. -1.
          2    1    6    6  502    0 -0.29501674757E+01  0.16440120910E+01 -0.69503241982E+01  0.77274362081E+01  0.00000000000E+00 0. -1.
          3    1    5    5  503    0 -0.60534840879E+02 -0.14437800147E+03  0.14193437064E+03  0.21131691802E+03  0.00000000000E+00 0. -1.
         -4    1    5    5    0  503 -0.14716512798E+03 -0.16260311395E+03  0.27470259233E+03  0.35150940498E+03  0.00000000000E+00 0.  1.
         -1    1    6    6    0  502  0.17949506976E+03 -0.38912319005E+03 -0.26931288468E+03  0.50612722409E+03  0.00000000000E+00 0.  1.
<mgrwt>
<rscale>  0 0.20359165E+04</rscale>
<asrwt>0</asrwt>
<pdfrwt beam="1">  1        1 0.11392691E+00 0.20359165E+04</pdfrwt>
<pdfrwt beam="2">  1       -1 0.21528160E+00 0.20359165E+04</pdfrwt>
<totfact> 0.27350201E+00</totfact>
</mgrwt>
</event>
<event>
12    1  0.1477245E-007  0.1451412E+04  0.7818608E-02  0.8917422E-01
         -2   -1    0    0    0  501 -0.00000000000E+00  0.00000000000E+00  0.44467477401E+03  0.44467477401E+03  0.00000000000E+00 0.  1.
          2   -1    0    0  501    0  0.00000000000E+00 -0.00000000000E+00 -0.11843469611E+04  0.11843469611E+04  0.00000000000E+00 0. -1.
         23    2    1    2    0    0  0.25888284578E+02 -0.39548788038E+03  0.47250932528E+01  0.40602652297E+03  0.88058753374E+02 0.  0.
        254    2    1    2    0    0 -0.25888284578E+02  0.39548788038E+03 -0.74439728032E+03  0.12229952121E+04  0.88572518939E+03 0.  0.
        -24    2    4    4    0    0  0.42078807602E+03  0.18671052724E+03 -0.30627300443E+03  0.55855133174E+03  0.79075982687E+02 0.  0.
         24    2    4    4    0    0 -0.44667636060E+03  0.20877735314E+03 -0.43812427589E+03  0.66444388038E+03  0.80156314497E+02 0.  0.
         13    1    3    3    0    0  0.58384986459E+02 -0.22773425753E+03  0.50683390703E+01  0.23515396394E+03  0.00000000000E+00 0. -1.
        -13    1    3    3    0    0 -0.32496701881E+02 -0.16775362285E+03 -0.34324581746E+00  0.17087255903E+03  0.00000000000E+00 0.  1.
          4    1    6    6  502    0 -0.49147687788E+02  0.14775917019E+02 -0.17998247243E+02  0.54385290682E+02  0.00000000000E+00 0. -1.
          3    1    5    5  503    0  0.21732222817E+03  0.12678140276E+03 -0.19943427842E+03  0.32105530108E+03  0.00000000000E+00 0. -1.
         -4    1    5    5    0  503  0.20346584785E+03  0.59929124478E+02 -0.10683872602E+03  0.23749603066E+03  0.00000000000E+00 0.  1.
         -3    1    6    6    0  502 -0.39752867281E+03  0.19400143612E+03 -0.42012602864E+03  0.61005858970E+03  0.00000000000E+00 0.  1.
<mgrwt>
<rscale>  0 0.14514120E+04</rscale>
<asrwt>0</asrwt>
<pdfrwt beam="1">  1        2 0.18220723E+00 0.14514120E+04</pdfrwt>
<pdfrwt beam="2">  1       -2 0.68411504E-01 0.14514120E+04</pdfrwt>
<totfact> 0.36682549E+01</totfact>
</mgrwt>
</event>
<event>
12    1  0.1477245E-007  0.1688633E+04  0.7818608E-02  0.8767874E-01
         -1   -1    0    0    0  501 -0.00000000000E+00  0.00000000000E+00  0.66268227724E+03  0.66268227724E+03  0.00000000000E+00 0.  1.
          1   -1    0    0  501    0  0.00000000000E+00 -0.00000000000E+00 -0.10757351719E+04  0.10757351719E+04  0.00000000000E+00 0. -1.
         23    2    1    2    0    0  0.19289169312E+03 -0.57034541228E+03 -0.16543596494E+03  0.63090181889E+03  0.90371190114E+02 0.  0.
        254    2    1    2    0    0 -0.19289169312E+03  0.57034541228E+03 -0.24761692969E+03  0.11075156302E+04  0.89597747334E+03 0.  0.
        -24    2    4    4    0    0 -0.53064155877E+03  0.42234981780E+03 -0.25929289433E+03  0.73039005326E+03  0.79227472235E+02 0.  0.
         24    2    4    4    0    0  0.33774986565E+03  0.14799559448E+03  0.11675964637E+02  0.37712557696E+03  0.78164601415E+02 0.  0.
         11    1    3    3    0    0  0.14999019761E+03 -0.52564965037E+03 -0.15391669390E+03  0.56788639971E+03  0.00000000000E+00 0. -1.
        -11    1    3    3    0    0  0.42901495505E+02 -0.44695761909E+02 -0.11519271033E+02  0.63015419179E+02  0.00000000000E+00 0.  1.
          2    1    6    6  502    0  0.33830631071E+03  0.14538171340E+03  0.31968518627E+01  0.36823528120E+03  0.00000000000E+00 0. -1.
          3    1    5    5  503    0 -0.35941175198E+03  0.25459079237E+03 -0.13686073660E+03  0.46122027302E+03  0.00000000000E+00 0. -1.
         -4    1    5    5    0  503 -0.17122980679E+03  0.16775902543E+03 -0.12243215773E+03  0.26916978024E+03  0.00000000000E+00 0.  1.
         -1    1    6    6    0  502 -0.55644505276E+00  0.26138810806E+01  0.84791127741E+01  0.88902957676E+01  0.00000000000E+00 0.  1.
<mgrwt>
<rscale>  0 0.16886333E+04</rscale>
<asrwt>0</asrwt>
<pdfrwt beam="1">  1        1 0.16549772E+00 0.16886333E+04</pdfrwt>
<pdfrwt beam="2">  1       -1 0.10195112E+00 0.16886333E+04</pdfrwt>
<totfact> 0.11487528E+01</totfact>
</mgrwt>
</event>
<event>
12    1  0.1477245E-007  0.2024727E+04  0.7818608E-02  0.8595146E-01
          1   -1    0    0  501    0  0.00000000000E+00  0.00000000000E+00  0.16070003935E+04  0.16070003935E+04  0.00000000000E+00 0. -1.
         -1   -1    0    0    0  501 -0.00000000000E+00 -0.00000000000E+00 -0.63775961824E+03  0.63775961824E+03  0.00000000000E+00 0.  1.
         23    2    1    2    0    0  0.80025925795E+03  0.25315123947E+02  0.48417991734E+03  0.94015763945E+03  0.91708555919E+02 0.  0.
        254    2    1    2    0    0 -0.80025925795E+03 -0.25315123947E+02  0.48506085793E+03  0.13046023723E+04  0.90865151652E+03 0.  0.
        -24    2    4    4    0    0 -0.49528785417E+03 -0.42363843525E+03  0.93573699316E+02  0.66328093961E+03  0.80037399624E+02 0.  0.
         24    2    4    4    0    0 -0.30497140377E+03  0.39832331130E+03  0.39148715861E+03  0.64132143268E+03  0.79761940856E+02 0.  0.
         11    1    3    3    0    0  0.33306987448E+03  0.19057987631E+02  0.15039445859E+03  0.36594704720E+03  0.00000000000E+00 0.  1.
        -11    1    3    3    0    0  0.46718938346E+03  0.62571363159E+01  0.33378545875E+03  0.57421059225E+03  0.00000000000E+00 0. -1.
          4    1    6    6  502    0 -0.28857078993E+03  0.35226587106E+03  0.32805582833E+03  0.56123521915E+03  0.00000000000E+00 0. -1.
          3    1    5    5  503    0 -0.35006933510E+03 -0.34352275579E+03  0.79036282178E+02  0.49679287135E+03  0.00000000000E+00 0. -1.
         -4    1    5    5    0  503 -0.14521851908E+03 -0.80115679461E+02  0.14537417139E+02  0.16648806827E+03  0.00000000000E+00 0.  1.
         -3    1    6    6    0  502 -0.16400613845E+02  0.46057440247E+02  0.63431330278E+02  0.80086213529E+02  0.00000000000E+00 0.  1.
<mgrwt>
<rscale>  0 0.20247271E+04</rscale>
<asrwt>0</asrwt>
<pdfrwt beam="1">  1        1 0.24723083E+00 0.20247271E+04</pdfrwt>
<pdfrwt beam="2">  1       -1 0.98116865E-01 0.20247271E+04</pdfrwt>
<totfact> 0.50844908E+00</totfact>
</mgrwt>
</event>
<event>
12    1  0.1477245E-007  0.2095586E+04  0.7818608E-02  0.8563190E-01
         -2   -1    0    0    0  501 -0.00000000000E+00  0.00000000000E+00  0.13992931685E+04  0.13992931685E+04  0.00000000000E+00 0.  1.
          2   -1    0    0  501    0  0.00000000000E+00 -0.00000000000E+00 -0.78458888368E+03  0.78458888368E+03  0.00000000000E+00 0. -1.
         23    2    1    2    0    0 -0.37690455584E+02 -0.26854030084E+03 -0.59013995863E+03  0.65592710067E+03  0.91873429296E+02 0.  0.
        254    2    1    2    0    0  0.37690455584E+02  0.26854030084E+03  0.12048442435E+04  0.15279549516E+04  0.89970118332E+03 0.  0.
        -24    2    4    4    0    0  0.25591578464E+03  0.33540902703E+03  0.12114606755E+04  0.12853187488E+04  0.80095027445E+02 0.  0.
         24    2    4    4    0    0 -0.21822532905E+03 -0.66868726193E+02 -0.66164320211E+01  0.24263620277E+03  0.82066003542E+02 0.  0.
         13    1    3    3    0    0 -0.63485874543E+02 -0.19076386373E+03 -0.46168378863E+03  0.50356055113E+03  0.00000000000E+00 0.  1.
        -13    1    3    3    0    0  0.25795418960E+02 -0.77776437109E+02 -0.12845617000E+03  0.15236654954E+03  0.00000000000E+00 0. -1.
          4    1    6    6  502    0 -0.16126375609E+03 -0.95900697048E+01 -0.92463582375E+01  0.16181305141E+03  0.00000000000E+00 0. -1.
          3    1    5    5  503    0  0.23097307118E+03  0.25492343774E+03  0.93340266913E+03  0.99477387454E+03  0.00000000000E+00 0. -1.
         -4    1    5    5    0  503  0.24942713453E+02  0.80485589286E+02  0.27805800638E+03  0.29054487425E+03  0.00000000000E+00 0.  1.
         -1    1    6    6    0  502 -0.56961572959E+02 -0.57278656488E+02  0.26299262164E+01  0.80823151355E+02  0.00000000000E+00 0.  1.
<mgrwt>
<rscale>  0 0.20955857E+04</rscale>
<asrwt>0</asrwt>
<pdfrwt beam="1">  1        2 0.12070598E+00 0.20955857E+04</pdfrwt>
<pdfrwt beam="2">  1       -2 0.21527587E+00 0.20955857E+04</pdfrwt>
<totfact> 0.34499391E+00</totfact>
</mgrwt>
</event>
<event>
12    1  0.1477245E-007  0.1365716E+04  0.7818608E-02  0.8979016E-01
         -1   -1    0    0    0  501 -0.00000000000E+00  0.00000000000E+00  0.29915277227E+03  0.29915277227E+03  0.00000000000E+00 0.  1.
          1   -1    0    0  501    0  0.00000000000E+00 -0.00000000000E+00 -0.15587189355E+04  0.15587189355E+04  0.00000000000E+00 0. -1.
         23    2    1    2    0    0  0.11075746788E+02  0.20181808052E+03 -0.70182403271E+03  0.73591410058E+03  0.90329290710E+02 0.  0.
        254    2    1    2    0    0 -0.11075746788E+02 -0.20181808052E+03 -0.55774213048E+03  0.11219576071E+04  0.95229164561E+03 0.  0.
        -24    2    4    4    0    0 -0.25128924999E+03 -0.33644774663E+03 -0.68553025518E+03  0.80814173931E+03  0.82449782759E+02 0.  0.
         24    2    4    4    0    0  0.24021350320E+03  0.13462966611E+03  0.12778812470E+03  0.31381586782E+03  0.79516790480E+02 0.  0.
         13    1    3    3    0    0  0.15828585220E+02  0.11614694219E+03 -0.54182714855E+03  0.55436207951E+03  0.00000000000E+00 0.  1.
        -13    1    3    3    0    0 -0.47528384318E+01  0.85671138336E+02 -0.15999688415E+03  0.18155202107E+03  0.00000000000E+00 0. -1.
          2    1    6    6  502    0  0.12956827306E+03  0.30688123326E+02  0.42949388462E+02  0.13990835667E+03  0.00000000000E+00 0. -1.
          1    1    5    5  503    0 -0.74938389704E+02 -0.51508854252E+02 -0.17947918674E+03  0.20120065306E+03  0.00000000000E+00 0. -1.
         -2    1    5    5    0  503 -0.17635086028E+03 -0.28493889238E+03 -0.50605106843E+03  0.60694108625E+03  0.00000000000E+00 0.  1.
         -1    1    6    6    0  502  0.11064523013E+03  0.10394154279E+03  0.84838736238E+02  0.17390751115E+03  0.00000000000E+00 0.  1.
<mgrwt>
<rscale>  0 0.13657161E+04</rscale>
<asrwt>0</asrwt>
<pdfrwt beam="1">  1        1 0.23980291E+00 0.13657161E+04</pdfrwt>
<pdfrwt beam="2">  1       -1 0.46023503E-01 0.13657161E+04</pdfrwt>
<totfact> 0.27345944E+01</totfact>
</mgrwt>
</event>
<event>
12    1  0.1477245E-007  0.1302474E+04  0.7818608E-02  0.9027606E-01
         -1   -1    0    0    0  501 -0.00000000000E+00  0.00000000000E+00  0.61190298678E+03  0.61190298678E+03  0.00000000000E+00 0.  1.
          1   -1    0    0  501    0  0.00000000000E+00 -0.00000000000E+00 -0.69309936538E+03  0.69309936538E+03  0.00000000000E+00 0. -1.
         23    2    1    2    0    0 -0.16558627950E+03  0.26862164649E+03 -0.14352706940E+03  0.35864134443E+03  0.91908592426E+02 0.  0.
        254    2    1    2    0    0  0.16558627950E+03 -0.26862164649E+03  0.62330690803E+02  0.94636100773E+03  0.89002114414E+03 0.  0.
        -24    2    4    4    0    0 -0.15674667241E+03  0.11907550447E+03  0.31262351937E+03  0.37786762376E+03  0.79385018387E+02 0.  0.
         24    2    4    4    0    0  0.32233295191E+03 -0.38769715096E+03 -0.25029282857E+03  0.56849338398E+03  0.79565160993E+02 0.  0.
         11    1    3    3    0    0 -0.11120820275E+02 -0.64203310114E+01 -0.24027361049E+01  0.13063936415E+02  0.00000000000E+00 0.  1.
        -11    1    3    3    0    0 -0.15446545923E+03  0.27504197750E+03 -0.14112433330E+03  0.34557740802E+03  0.00000000000E+00 0. -1.
          2    1    6    6  502    0  0.14339605436E+03 -0.13872635673E+03 -0.63075833759E+02  0.20925102452E+03  0.00000000000E+00 0. -1.
          1    1    5    5  503    0 -0.30904149716E+02  0.18982119639E+02  0.14331414383E+02  0.38997138021E+02  0.00000000000E+00 0. -1.
         -2    1    5    5    0  503 -0.12584252269E+03  0.10009338483E+03  0.29829210499E+03  0.33887048574E+03  0.00000000000E+00 0.  1.
         -1    1    6    6    0  502  0.17893689755E+03 -0.24897079423E+03 -0.18721699481E+03  0.35924235946E+03  0.00000000000E+00 0.  1.
<mgrwt>
<rscale>  0 0.13024739E+04</rscale>
<asrwt>0</asrwt>
<pdfrwt beam="1">  1        1 0.10663067E+00 0.13024739E+04</pdfrwt>
<pdfrwt beam="2">  1       -1 0.94138921E-01 0.13024739E+04</pdfrwt>
<totfact> 0.29707944E+01</totfact>
</mgrwt>
</event>
<event>
12    1  0.1477245E-007  0.1964962E+04  0.7818608E-02  0.8623179E-01
          1   -1    0    0  501    0  0.00000000000E+00  0.00000000000E+00  0.93300544356E+03  0.93300544356E+03  0.00000000000E+00 0. -1.
         -1   -1    0    0    0  501 -0.00000000000E+00 -0.00000000000E+00 -0.10345803400E+04  0.10345803400E+04  0.00000000000E+00 0.  1.
         23    2    1    2    0    0  0.58378842832E+03 -0.18850237307E+03 -0.51725428606E+03  0.80757554618E+03  0.91017540350E+02 0.  0.
        254    2    1    2    0    0 -0.58378842832E+03  0.18850237307E+03  0.41567938960E+03  0.11600102374E+04  0.89246418541E+03 0.  0.
        -24    2    4    4    0    0 -0.43222217196E+03  0.96836757365E+02 -0.21635436756E+03  0.49897833286E+03  0.77309771604E+02 0.  0.
         24    2    4    4    0    0 -0.15156625636E+03  0.91665615705E+02  0.63203375716E+03  0.66103190454E+03  0.78240612640E+02 0.  0.
         11    1    3    3    0    0  0.45716635219E+03 -0.15412690719E+03 -0.45172120415E+03  0.66091468691E+03  0.00000000000E+00 0.  1.
        -11    1    3    3    0    0  0.12662207613E+03 -0.34375465882E+02 -0.65533081912E+02  0.14666085928E+03  0.00000000000E+00 0. -1.
          2    1    6    6  502    0 -0.52747009230E+02  0.21492821671E+02  0.97392185127E+02  0.11282475832E+03  0.00000000000E+00 0. -1.
          3    1    5    5  503    0 -0.19775224850E+03  0.36641071548E+02 -0.14036942777E+03  0.24525924277E+03  0.00000000000E+00 0. -1.
         -2    1    5    5    0  503 -0.23446992347E+03  0.60195685817E+02 -0.75984939785E+02  0.25371909009E+03  0.00000000000E+00 0.  1.
         -1    1    6    6    0  502 -0.98819247128E+02  0.70172794034E+02  0.53464157203E+03  0.54820714622E+03  0.00000000000E+00 0.  1.
<mgrwt>
<rscale>  0 0.19649622E+04</rscale>
<asrwt>0</asrwt>
<pdfrwt beam="1">  1        1 0.14353930E+00 0.19649622E+04</pdfrwt>
<pdfrwt beam="2">  1       -1 0.15916621E+00 0.19649622E+04</pdfrwt>
<totfact> 0.47194816E+00</totfact>
</mgrwt>
</event>
<event>
12    1  0.1477245E-007  0.1089527E+04  0.7818608E-02  0.9215460E-01
         -2   -1    0    0    0  501 -0.00000000000E+00  0.00000000000E+00  0.79155284395E+03  0.79155284395E+03  0.00000000000E+00 0.  1.
          2   -1    0    0  501    0  0.00000000000E+00 -0.00000000000E+00 -0.37491807107E+03  0.37491807107E+03  0.00000000000E+00 0. -1.
         23    2    1    2    0    0  0.13048086245E+03 -0.29902118235E+02  0.38737685009E+02  0.16715228049E+03  0.92303220384E+02 0.  0.
        254    2    1    2    0    0 -0.13048086245E+03  0.29902118235E+02  0.37789708787E+03  0.99931863452E+03  0.91537540503E+03 0.  0.
        -24    2    4    4    0    0  0.72468116191E+02 -0.40421130334E+03  0.27909935302E+03  0.50326285028E+03  0.82089231967E+02 0.  0.
         24    2    4    4    0    0 -0.20294897864E+03  0.43411342157E+03  0.98797734854E+02  0.49605578424E+03  0.81655360770E+02 0.  0.
         13    1    3    3    0    0  0.45210404091E+02 -0.20766413448E+02 -0.29250505837E+02  0.57713227749E+02  0.00000000000E+00 0. -1.
        -13    1    3    3    0    0  0.85270458360E+02 -0.91357047869E+01  0.67988190846E+02  0.10943905274E+03  0.00000000000E+00 0.  1.
          2    1    6    6  502    0 -0.13219712515E+03  0.34248413816E+03  0.50302096778E+02  0.37054252891E+03  0.00000000000E+00 0. -1.
          3    1    5    5  503    0  0.31498962691E+02 -0.34496663529E+03  0.23865182756E+03  0.42065289600E+03  0.00000000000E+00 0. -1.
         -4    1    5    5    0  503  0.40969153500E+02 -0.59244668050E+02  0.40447525463E+02  0.82609954285E+02  0.00000000000E+00 0.  1.
         -1    1    6    6    0  502 -0.70751853492E+02  0.91629283415E+02  0.48495638076E+02  0.12551325533E+03  0.00000000000E+00 0.  1.
<mgrwt>
<rscale>  0 0.10895274E+04</rscale>
<asrwt>0</asrwt>
<pdfrwt beam="1">  1        2 0.57679703E-01 0.10895274E+04</pdfrwt>
<pdfrwt beam="2">  1       -2 0.12177736E+00 0.10895274E+04</pdfrwt>
<totfact> 0.43482109E+01</totfact>
</mgrwt>
</event>
<event>
12    1  0.1477245E-007  0.1354234E+04  0.7818608E-02  0.8987629E-01
         -1   -1    0    0    0  501 -0.00000000000E+00  0.00000000000E+00  0.42741225798E+03  0.42741225798E+03  0.00000000000E+00 0.  1.
          1   -1    0    0  501    0  0.00000000000E+00 -0.00000000000E+00 -0.10727055507E+04  0.10727055507E+04  0.00000000000E+00 0. -1.
         23    2    1    2    0    0  0.32340674138E+03  0.42670088639E+02 -0.37753115291E+03  0.50695525677E+03  0.89784208556E+02 0.  0.
        254    2    1    2    0    0 -0.32340674138E+03 -0.42670088639E+02 -0.26776213979E+03  0.99316255189E+03  0.89903427862E+03 0.  0.
        -24    2    4    4    0    0 -0.61219522699E+03  0.93671410293E+02 -0.21371961401E+03  0.66001913914E+03  0.79949118616E+02 0.  0.
         24    2    4    4    0    0  0.28878848561E+03 -0.13634149893E+03 -0.54042525785E+02  0.33314341275E+03  0.77949631904E+02 0.  0.
         13    1    3    3    0    0  0.23198623937E+03  0.42500562869E+02 -0.20854634812E+03  0.31482613045E+03  0.00000000000E+00 0. -1.
        -13    1    3    3    0    0  0.91420502014E+02  0.16952576950E+00 -0.16898480479E+03  0.19212912631E+03  0.00000000000E+00 0.  1.
          2    1    6    6  502    0  0.20365676564E+02 -0.33893383891E+02 -0.18464156552E+02  0.43639973999E+02  0.00000000000E+00 0. -1.
          3    1    5    5  503    0 -0.37428458341E+03  0.83075392032E+02 -0.10060030402E+03  0.39637216263E+03  0.00000000000E+00 0. -1.
         -4    1    5    5    0  503 -0.23791064358E+03  0.10596018261E+02 -0.11311930999E+03  0.26364697651E+03  0.00000000000E+00 0.  1.
         -1    1    6    6    0  502  0.26842280904E+03 -0.10244811504E+03 -0.35578369233E+02  0.28950343875E+03  0.00000000000E+00 0.  1.
<mgrwt>
<rscale>  0 0.13542341E+04</rscale>
<asrwt>0</asrwt>
<pdfrwt beam="1">  1        1 0.16503162E+00 0.13542341E+04</pdfrwt>
<pdfrwt beam="2">  1       -1 0.65755732E-01 0.13542341E+04</pdfrwt>
<totfact> 0.30503853E+01</totfact>
</mgrwt>
</event>
<event>
12    1  0.1477245E-007  0.4027421E+04  0.7818608E-02  0.7999038E-01
          2   -1    0    0  501    0  0.00000000000E+00  0.00000000000E+00  0.29283645302E+04  0.29283645302E+04  0.00000000000E+00 0.  1.
         -2   -1    0    0    0  501 -0.00000000000E+00 -0.00000000000E+00 -0.13847419586E+04  0.13847419586E+04  0.00000000000E+00 0. -1.
         23    2    1    2    0    0  0.14006461176E+04  0.77338920912E+03  0.18665792820E+04  0.24601595798E+04  0.91249805008E+02 0.  0.
        254    2    1    2    0    0 -0.14006461176E+04 -0.77338920912E+03 -0.32295671034E+03  0.18529469090E+04  0.87702382817E+03 0.  0.
        -24    2    4    4    0    0 -0.12592783681E+04 -0.53518335733E+03  0.62023589535E+02  0.13720439582E+04  0.80339674285E+02 0.  0.
         24    2    4    4    0    0 -0.14136774946E+03 -0.23820585179E+03 -0.38498029987E+03  0.48090295073E+03  0.79567256554E+02 0.  0.
         11    1    3    3    0    0  0.79761566458E+03  0.40310501686E+03  0.99333441320E+03  0.13361877336E+04  0.00000000000E+00 0.  1.
        -11    1    3    3    0    0  0.60303045302E+03  0.37028419226E+03  0.87324486876E+03  0.11239718462E+04  0.00000000000E+00 0. -1.
          4    1    6    6  502    0 -0.87865130782E+01  0.32017760168E+01 -0.31102653400E+02  0.32478134649E+02  0.00000000000E+00 0. -1.
          1    1    5    5  503    0 -0.36569368028E+03 -0.18984423100E+03 -0.14372216087E+00  0.41203485350E+03  0.00000000000E+00 0. -1.
         -4    1    5    5    0  503 -0.89358468785E+03 -0.34533912633E+03  0.62167311696E+02  0.96000910474E+03  0.00000000000E+00 0.  1.
         -3    1    6    6    0  502 -0.13258123638E+03 -0.24140762780E+03 -0.35387764647E+03  0.44842481608E+03  0.00000000000E+00 0.  1.
<mgrwt>
<rscale>  0 0.40274206E+04</rscale>
<asrwt>0</asrwt>
<pdfrwt beam="1">  1        2 0.45051762E+00 0.40274206E+04</pdfrwt>
<pdfrwt beam="2">  1       -2 0.21303722E+00 0.40274206E+04</pdfrwt>
<totfact> 0.16620193E-01</totfact>
</mgrwt>
</event>
<event>
12    1  0.1477245E-007  0.1508965E+04  0.7818608E-02  0.8878513E-01
          1   -1    0    0  501    0  0.00000000000E+00  0.00000000000E+00  0.11153327915E+04  0.11153327915E+04  0.00000000000E+00 0. -1.
         -1   -1    0    0    0  501 -0.00000000000E+00 -0.00000000000E+00 -0.51038002165E+03  0.51038002165E+03  0.00000000000E+00 0.  1.
         23    2    1    2    0    0 -0.15861892599E+03 -0.45933694128E+03  0.11974543062E+03  0.50863902888E+03  0.90687949804E+02 0.  0.
        254    2    1    2    0    0  0.15861892599E+03  0.45933694128E+03  0.48520733924E+03  0.11170737843E+04  0.88106599535E+03 0.  0.
        -24    2    4    4    0    0  0.39909456218E+03  0.85109371852E+02  0.51729284462E+03  0.66386719782E+03  0.81287726701E+02 0.  0.
         24    2    4    4    0    0 -0.24047563620E+03  0.37422756942E+03 -0.32085505379E+02  0.45320658645E+03  0.80572483084E+02 0.  0.
         13    1    3    3    0    0 -0.13530694722E+03 -0.41473965207E+03  0.13394190538E+03  0.45635225757E+03  0.00000000000E+00 0.  1.
        -13    1    3    3    0    0 -0.23311978763E+02 -0.44597289204E+02 -0.14196474766E+02  0.52286771310E+02  0.00000000000E+00 0. -1.
          4    1    6    6  502    0 -0.21127220731E+03  0.26625050111E+03 -0.16737113364E+02  0.34030193341E+03  0.00000000000E+00 0. -1.
          1    1    5    5  503    0  0.30034584366E+03  0.90785508992E+02  0.42741574447E+03  0.53022057021E+03  0.00000000000E+00 0. -1.
         -2    1    5    5    0  503  0.98748718525E+02 -0.56761371401E+01  0.89877100142E+02  0.13364662762E+03  0.00000000000E+00 0.  1.
         -3    1    6    6    0  502 -0.29203428885E+02  0.10797706832E+03 -0.15348392015E+02  0.11290465304E+03  0.00000000000E+00 0.  1.
<mgrwt>
<rscale>  0 0.15089646E+04</rscale>
<asrwt>0</asrwt>
<pdfrwt beam="1">  1        1 0.17158966E+00 0.15089646E+04</pdfrwt>
<pdfrwt beam="2">  1       -1 0.78520004E-01 0.15089646E+04</pdfrwt>
<totfact> 0.19374079E+01</totfact>
</mgrwt>
</event>
<event>
12    1  0.1477245E-007  0.1964571E+04  0.7818608E-02  0.8623366E-01
          1   -1    0    0  501    0  0.00000000000E+00  0.00000000000E+00  0.10815686393E+04  0.10815686393E+04  0.00000000000E+00 0. -1.
         -1   -1    0    0    0  501 -0.00000000000E+00 -0.00000000000E+00 -0.89211652305E+03  0.89211652305E+03  0.00000000000E+00 0.  1.
         23    2    1    2    0    0  0.14613164708E+03 -0.87064774390E+02  0.83060664895E+03  0.85318718941E+03  0.95321779641E+02 0.  0.
        254    2    1    2    0    0 -0.14613164708E+03  0.87064774390E+02 -0.64115453266E+03  0.11204979730E+04  0.90305140467E+03 0.  0.
        -24    2    4    4    0    0 -0.44505928832E+03 -0.15497972219E+03 -0.52782051124E+03  0.71181464678E+03  0.77389371873E+02 0.  0.
         24    2    4    4    0    0  0.29892764124E+03  0.24204449658E+03 -0.11333402142E+03  0.40868332620E+03  0.78956872269E+02 0.  0.
         13    1    3    3    0    0 -0.19165928951E+01 -0.38815620688E+02  0.18921871366E+03  0.19316844291E+03  0.00000000000E+00 0.  1.
        -13    1    3    3    0    0  0.14804823998E+03 -0.48249153702E+02  0.64138793529E+03  0.66001874649E+03  0.00000000000E+00 0. -1.
          4    1    6    6  502    0  0.10845692378E+03  0.12206056757E+03 -0.18201349227E+02  0.16429539125E+03  0.00000000000E+00 0. -1.
          1    1    5    5  503    0 -0.49699993496E+02 -0.17736179698E+02 -0.10156100667E+03  0.11445217124E+03  0.00000000000E+00 0. -1.
         -2    1    5    5    0  503 -0.39535929482E+03 -0.13724354249E+03 -0.42625950457E+03  0.59736247555E+03  0.00000000000E+00 0.  1.
         -3    1    6    6    0  502  0.19047071746E+03  0.11998392901E+03 -0.95132672196E+02  0.24438793495E+03  0.00000000000E+00 0.  1.
<mgrwt>
<rscale>  0 0.19645715E+04</rscale>
<asrwt>0</asrwt>
<pdfrwt beam="1">  1        1 0.16639518E+00 0.19645715E+04</pdfrwt>
<pdfrwt beam="2">  1       -1 0.13724870E+00 0.19645715E+04</pdfrwt>
<totfact> 0.53781169E+00</totfact>
</mgrwt>
</event>
<event>
12    1  0.1477245E-007  0.1429554E+04  0.7818608E-02  0.8932700E-01
         -2   -1    0    0    0  501 -0.00000000000E+00  0.00000000000E+00  0.53228177321E+03  0.53228177321E+03  0.00000000000E+00 0.  1.
          2   -1    0    0  501    0  0.00000000000E+00 -0.00000000000E+00 -0.95984096456E+03  0.95984096456E+03  0.00000000000E+00 0. -1.
         23    2    1    2    0    0  0.26128509659E+03  0.31414667527E+03 -0.48246749400E+01  0.41849688777E+03  0.90323486976E+02 0.  0.
        254    2    1    2    0    0 -0.26128509659E+03 -0.31414667527E+03 -0.42273451641E+03  0.10736258500E+04  0.89833733038E+03 0.  0.
        -24    2    4    4    0    0  0.23220384418E+03 -0.31694582566E+03  0.26100620496E+02  0.40174630600E+03  0.79659088219E+02 0.  0.
         24    2    4    4    0    0 -0.49348894077E+03  0.27991503940E+01 -0.44883513691E+03  0.67187954401E+03  0.80187103872E+02 0.  0.
         11    1    3    3    0    0  0.42027942848E+02  0.44813603674E+02  0.31969651551E+02  0.69257964701E+02  0.00000000000E+00 0. -1.
        -11    1    3    3    0    0  0.21925715375E+03  0.26933307160E+03 -0.36794326491E+02  0.34923892307E+03  0.00000000000E+00 0.  1.
          4    1    6    6  502    0 -0.16741822788E+03 -0.31090301231E+02 -0.12647749256E+03  0.21211323858E+03  0.00000000000E+00 0. -1.
          3    1    5    5  503    0  0.33578509689E+02 -0.62617027906E+02 -0.24387197724E+02  0.75120862013E+02  0.00000000000E+00 0. -1.
         -4    1    5    5    0  503  0.19862533449E+03 -0.25432879776E+03  0.50487818220E+02  0.32662544398E+03  0.00000000000E+00 0.  1.
         -1    1    6    6    0  502 -0.32607071289E+03  0.33889451625E+02 -0.32235764434E+03  0.45976630542E+03  0.00000000000E+00 0.  1.
<mgrwt>
<rscale>  0 0.14295536E+04</rscale>
<asrwt>0</asrwt>
<pdfrwt beam="1">  1        2 0.14766784E+00 0.14295536E+04</pdfrwt>
<pdfrwt beam="2">  1       -2 0.81889504E-01 0.14295536E+04</pdfrwt>
<totfact> 0.34076802E+01</totfact>
</mgrwt>
</event>
<event>
12    1  0.1477245E-007  0.2476840E+04  0.7818608E-02  0.8411283E-01
         -2   -1    0    0    0  501 -0.00000000000E+00  0.00000000000E+00  0.22965959278E+04  0.22965959278E+04  0.00000000000E+00 0.  1.
          2   -1    0    0  501    0  0.00000000000E+00 -0.00000000000E+00 -0.66780752724E+03  0.66780752724E+03  0.00000000000E+00 0. -1.
         23    2    1    2    0    0  0.48333038480E+03  0.47381936159E+03 -0.28790554239E+03  0.74037123022E+03  0.84539392599E+02 0.  0.
        254    2    1    2    0    0 -0.48333038480E+03 -0.47381936159E+03  0.19166939430E+04  0.22240322249E+04  0.90249133950E+03 0.  0.
        -24    2    4    4    0    0 -0.15947793475E+03 -0.69235244839E+03  0.13962378825E+04  0.15686015380E+04  0.79028069993E+02 0.  0.
         24    2    4    4    0    0 -0.32385245005E+03  0.21853308680E+03  0.52045606044E+03  0.65543068688E+03  0.77959957855E+02 0.  0.
         13    1    3    3    0    0  0.27313588686E+03  0.22758894864E+03 -0.11700361011E+03  0.37428570239E+03  0.00000000000E+00 0. -1.
        -13    1    3    3    0    0  0.21019449794E+03  0.24623041295E+03 -0.17090193228E+03  0.36608552783E+03  0.00000000000E+00 0.  1.
          4    1    6    6  502    0 -0.10689706076E+03  0.30392026136E+02  0.13913358996E+03  0.17806968497E+03  0.00000000000E+00 0. -1.
          1    1    5    5  503    0 -0.10895938482E+02 -0.56946707243E+01  0.22511272097E+02  0.25649719716E+02  0.00000000000E+00 0. -1.
         -2    1    5    5    0  503 -0.14858199627E+03 -0.68665777766E+03  0.13737266104E+04  0.15429518183E+04  0.00000000000E+00 0.  1.
         -1    1    6    6    0  502 -0.21695538929E+03  0.18814106066E+03  0.38132247048E+03  0.47736100191E+03  0.00000000000E+00 0.  1.
<mgrwt>
<rscale>  0 0.24768400E+04</rscale>
<asrwt>0</asrwt>
<pdfrwt beam="1">  1        2 0.10273962E+00 0.24768400E+04</pdfrwt>
<pdfrwt beam="2">  1       -2 0.35332245E+00 0.24768400E+04</pdfrwt>
<totfact> 0.57623225E-01</totfact>
</mgrwt>
</event>
<event>
12    1  0.1477245E-007  0.1853547E+04  0.7818608E-02  0.8678331E-01
         -2   -1    0    0    0  501 -0.00000000000E+00  0.00000000000E+00  0.43238530003E+03  0.43238530003E+03  0.00000000000E+00 0.  1.
          2   -1    0    0  501    0  0.00000000000E+00 -0.00000000000E+00 -0.19864430637E+04  0.19864430637E+04  0.00000000000E+00 0. -1.
         23    2    1    2    0    0  0.46525954643E+03  0.14866809360E+03 -0.12657433229E+04  0.13598776257E+04  0.92694929645E+02 0.  0.
        254    2    1    2    0    0 -0.46525954643E+03 -0.14866809360E+03 -0.28831444075E+03  0.10589507379E+04  0.89424985382E+03 0.  0.
        -24    2    4    4    0    0 -0.27142748006E+03  0.84386176139E+02  0.28183968082E+03  0.40829377516E+03  0.80475446511E+02 0.  0.
         24    2    4    4    0    0 -0.19383206636E+03 -0.23305426974E+03 -0.57015412157E+03  0.65065696279E+03  0.79959979296E+02 0.  0.
         11    1    3    3    0    0  0.34792797847E+03  0.67324809742E+02 -0.90311058216E+03  0.97015216941E+03  0.00000000000E+00 0. -1.
        -11    1    3    3    0    0  0.11733156796E+03  0.81343283856E+02 -0.36263274072E+03  0.38972545633E+03  0.00000000000E+00 0.  1.
          2    1    6    6  502    0 -0.14210719284E+03 -0.20888030938E+03 -0.42148174632E+03  0.49139831134E+03  0.00000000000E+00 0. -1.
          1    1    5    5  503    0 -0.23967821003E+03  0.93348296358E+02  0.22114064789E+03  0.33920898417E+03  0.00000000000E+00 0. -1.
         -2    1    5    5    0  503 -0.31749270036E+02 -0.89621202195E+01  0.60699032932E+02  0.69084790986E+02  0.00000000000E+00 0.  1.
         -1    1    6    6    0  502 -0.51724873521E+02 -0.24173960361E+02 -0.14867237525E+03  0.15925865145E+03  0.00000000000E+00 0.  1.
<mgrwt>
<rscale>  0 0.18535466E+04</rscale>
<asrwt>0</asrwt>
<pdfrwt beam="1">  1        2 0.30560662E+00 0.18535466E+04</pdfrwt>
<pdfrwt beam="2">  1       -2 0.66520816E-01 0.18535466E+04</pdfrwt>
<totfact> 0.13271920E+01</totfact>
</mgrwt>
</event>
<event>
12    1  0.1477245E-007  0.1453765E+04  0.7818608E-02  0.8915795E-01
         -1   -1    0    0    0  501 -0.00000000000E+00  0.00000000000E+00  0.40715463305E+03  0.40715463305E+03  0.00000000000E+00 0.  1.
          1   -1    0    0  501    0  0.00000000000E+00 -0.00000000000E+00 -0.12976839067E+04  0.12976839067E+04  0.00000000000E+00 0. -1.
         23    2    1    2    0    0  0.37875857467E+03  0.16813250919E+03 -0.13118104795E+03  0.44474433997E+03  0.94140650402E+02 0.  0.
        254    2    1    2    0    0 -0.37875857467E+03 -0.16813250919E+03 -0.75934822564E+03  0.12600941997E+04  0.91624290769E+03 0.  0.
        -24    2    4    4    0    0  0.29085354183E+03  0.25606381937E+02 -0.19837388544E+03  0.36175188585E+03  0.79124957509E+02 0.  0.
         24    2    4    4    0    0 -0.66961211650E+03 -0.19373889112E+03 -0.56097434020E+03  0.89834231388E+03  0.80072205201E+02 0.  0.
         11    1    3    3    0    0  0.88679600332E+02  0.75139960297E+02 -0.91570768479E+01  0.11659304098E+03  0.00000000000E+00 0. -1.
        -11    1    3    3    0    0  0.29007897434E+03  0.92992548890E+02 -0.12202397111E+03  0.32815129899E+03  0.00000000000E+00 0.  1.
          2    1    6    6  502    0 -0.19532644216E+03 -0.75571134986E+02 -0.12861890077E+03  0.24577680339E+03  0.00000000000E+00 0. -1.
          3    1    5    5  503    0  0.60853107034E+02  0.37130390539E+02 -0.59299345495E+02  0.92726365794E+02  0.00000000000E+00 0. -1.
         -4    1    5    5    0  503  0.23000043480E+03 -0.11524008602E+02 -0.13907453995E+03  0.26902552006E+03  0.00000000000E+00 0.  1.
         -1    1    6    6    0  502 -0.47428567434E+03 -0.11816775614E+03 -0.43235543943E+03  0.65256551049E+03  0.00000000000E+00 0.  1.
<mgrwt>
<rscale>  0 0.14537648E+04</rscale>
<asrwt>0</asrwt>
<pdfrwt beam="1">  1        1 0.19964368E+00 0.14537648E+04</pdfrwt>
<pdfrwt beam="2">  1       -1 0.62639174E-01 0.14537648E+04</pdfrwt>
<totfact> 0.22789890E+01</totfact>
</mgrwt>
</event>
<event>
12    1  0.1477245E-007  0.2337252E+04  0.7818608E-02  0.8463376E-01
         -2   -1    0    0    0  501 -0.00000000000E+00  0.00000000000E+00  0.18788975568E+04  0.18788975568E+04  0.00000000000E+00 0.  1.
          2   -1    0    0  501    0  0.00000000000E+00 -0.00000000000E+00 -0.72685511032E+03  0.72685511032E+03  0.00000000000E+00 0. -1.
         23    2    1    2    0    0  0.61669139131E+03 -0.31354444481E+02 -0.37162359417E+03  0.72644761560E+03  0.91272499512E+02 0.  0.
        254    2    1    2    0    0 -0.61669139131E+03  0.31354444481E+02  0.15236660406E+04  0.18793050515E+04  0.91046026816E+03 0.  0.
        -24    2    4    4    0    0 -0.51065364597E+03  0.16610873342E+03  0.25971453731E+03  0.60156347403E+03  0.77895538633E+02 0.  0.
         24    2    4    4    0    0 -0.10603774534E+03 -0.13475428894E+03  0.12639515033E+04  0.12777415775E+04  0.75149279474E+02 0.  0.
         13    1    3    3    0    0  0.36218594755E+02 -0.11017303321E+02 -0.18503425550E+01  0.37902392353E+02  0.00000000000E+00 0.  1.
        -13    1    3    3    0    0  0.58047279655E+03 -0.20337141160E+02 -0.36977325162E+03  0.68854522325E+03  0.00000000000E+00 0. -1.
          4    1    6    6  502    0 -0.11387486569E+02 -0.87958332117E-01  0.20566806360E+02  0.23509064440E+02  0.00000000000E+00 0. -1.
          1    1    5    5  503    0 -0.11651135624E+03  0.39189021684E+02  0.24489154356E+02  0.12534111151E+03  0.00000000000E+00 0. -1.
         -2    1    5    5    0  503 -0.39414228973E+03  0.12691971173E+03  0.23522538295E+03  0.47622236252E+03  0.00000000000E+00 0.  1.
         -3    1    6    6    0  502 -0.94650258767E+02 -0.13466633061E+03  0.12433846970E+04  0.12542325130E+04  0.00000000000E+00 0.  1.
<mgrwt>
<rscale>  0 0.23372516E+04</rscale>
<asrwt>0</asrwt>
<pdfrwt beam="1">  1        2 0.11182386E+00 0.23372516E+04</pdfrwt>
<pdfrwt beam="2">  1       -2 0.28906116E+00 0.23372516E+04</pdfrwt>
<totfact> 0.13089162E+00</totfact>
</mgrwt>
</event>
<event>
12    1  0.1477245E-007  0.1877308E+04  0.7818608E-02  0.8666235E-01
          1   -1    0    0  501    0  0.00000000000E+00  0.00000000000E+00  0.10610624871E+04  0.10610624871E+04  0.00000000000E+00 0. -1.
         -1   -1    0    0    0  501 -0.00000000000E+00 -0.00000000000E+00 -0.83036724290E+03  0.83036724290E+03  0.00000000000E+00 0.  1.
         23    2    1    2    0    0 -0.62808836000E+03  0.14859611137E+03 -0.23283078791E+03  0.69231017053E+03  0.92235590455E+02 0.  0.
        254    2    1    2    0    0  0.62808836000E+03 -0.14859611137E+03  0.46352603214E+03  0.11991195595E+04  0.89802869842E+03 0.  0.
        -24    2    4    4    0    0  0.48342276908E+03 -0.41193282757E+03 -0.12728864700E+01  0.63983548377E+03  0.77469980968E+02 0.  0.
         24    2    4    4    0    0  0.14466559092E+03  0.26333671621E+03  0.46479891861E+03  0.55928407571E+03  0.80537465258E+02 0.  0.
         13    1    3    3    0    0 -0.30477916026E+03  0.43288753377E+02 -0.14950470687E+03  0.34222201869E+03  0.00000000000E+00 0. -1.
        -13    1    3    3    0    0 -0.32330919974E+03  0.10530735799E+03 -0.83326081044E+02  0.35008815185E+03  0.00000000000E+00 0.  1.
          4    1    6    6  502    0  0.14053666981E+03  0.19853691444E+03  0.39553738955E+03  0.46434608698E+03  0.00000000000E+00 0. -1.
          1    1    5    5  503    0  0.48409600146E+03 -0.41170217893E+03 -0.55351987291E+01  0.63551417072E+03  0.00000000000E+00 0. -1.
         -2    1    5    5    0  503 -0.67323238039E+00 -0.23064864363E+00  0.42623122591E+01  0.43213130446E+01  0.00000000000E+00 0.  1.
         -3    1    6    6    0  502  0.41289211143E+01  0.64799801769E+02  0.69261529053E+02  0.94937988738E+02  0.00000000000E+00 0.  1.
<mgrwt>
<rscale>  0 0.18773082E+04</rscale>
<asrwt>0</asrwt>
<pdfrwt beam="1">  1        1 0.16324038E+00 0.18773082E+04</pdfrwt>
<pdfrwt beam="2">  1       -1 0.12774881E+00 0.18773082E+04</pdfrwt>
<totfact> 0.67435762E+00</totfact>
</mgrwt>
</event>
<event>
12    1  0.1477245E-007  0.1751688E+04  0.7818608E-02  0.8732422E-01
          1   -1    0    0  501    0  0.00000000000E+00  0.00000000000E+00  0.11969506125E+04  0.11969506125E+04  0.00000000000E+00 0. -1.
         -1   -1    0    0    0  501 -0.00000000000E+00 -0.00000000000E+00 -0.64088058356E+03  0.64088058356E+03  0.00000000000E+00 0.  1.
         23    2    1    2    0    0 -0.46648129134E+01  0.56428763492E+03  0.35290356038E+03  0.67176900342E+03  0.91051499893E+02 0.  0.
        254    2    1    2    0    0  0.46648129134E+01 -0.56428763492E+03  0.20316646857E+03  0.11660621926E+04  0.99999106385E+03 0.  0.
        -24    2    4    4    0    0  0.18566603347E+03 -0.75193032573E+03  0.35282675951E+03  0.85508389549E+03  0.82526694819E+02 0.  0.
         24    2    4    4    0    0 -0.18100122056E+03  0.18764269082E+03 -0.14966029094E+03  0.31097829716E+03  0.79612042811E+02 0.  0.
         13    1    3    3    0    0 -0.33965536200E+02  0.20469419450E+03  0.16426826890E+03  0.26464586730E+03  0.00000000000E+00 0.  1.
        -13    1    3    3    0    0  0.29300723287E+02  0.35959344042E+03  0.18863529148E+03  0.40712313613E+03  0.00000000000E+00 0. -1.
          4    1    6    6  502    0 -0.74070115546E+02  0.10534424325E+03 -0.33831164785E+02  0.13314781002E+03  0.00000000000E+00 0. -1.
          1    1    5    5  503    0  0.15220591242E+03 -0.51968511337E+03  0.21274749197E+03  0.58180817472E+03  0.00000000000E+00 0. -1.
         -4    1    5    5    0  503  0.33460121049E+02 -0.23224521236E+03  0.14007926754E+03  0.27327572077E+03  0.00000000000E+00 0.  1.
         -3    1    6    6    0  502 -0.10693110501E+03  0.82298447572E+02 -0.11582912615E+03  0.17783048714E+03  0.00000000000E+00 0.  1.
<mgrwt>
<rscale>  0 0.17516877E+04</rscale>
<asrwt>0</asrwt>
<pdfrwt beam="1">  1        1 0.18414625E+00 0.17516877E+04</pdfrwt>
<pdfrwt beam="2">  1       -1 0.98597013E-01 0.17516877E+04</pdfrwt>
<totfact> 0.10018829E+01</totfact>
</mgrwt>
</event>
<event>
12    1  0.1477245E-007  0.1654550E+04  0.7818608E-02  0.8787719E-01
         -2   -1    0    0    0  501 -0.00000000000E+00  0.00000000000E+00  0.38015904069E+03  0.38015904069E+03  0.00000000000E+00 0.  1.
          2   -1    0    0  501    0  0.00000000000E+00 -0.00000000000E+00 -0.18002568800E+04  0.18002568800E+04  0.00000000000E+00 0. -1.
         23    2    1    2    0    0  0.81265731885E+02  0.27326349631E+03 -0.11591265073E+04  0.11971263784E+04  0.90885907942E+02 0.  0.
        254    2    1    2    0    0 -0.81265731885E+02 -0.27326349631E+03 -0.26097133205E+03  0.98328954238E+03  0.90414336828E+03 0.  0.
        -24    2    4    4    0    0  0.20629373223E+03  0.53183256333E+02  0.22866887619E+03  0.32326046036E+03  0.82597261351E+02 0.  0.
         24    2    4    4    0    0 -0.28755946411E+03 -0.32644675264E+03 -0.48964020824E+03  0.66002908202E+03  0.81442788942E+02 0.  0.
         13    1    3    3    0    0  0.31783038371E+02  0.17021742867E+03 -0.85196009293E+03  0.86937916613E+03  0.00000000000E+00 0. -1.
        -13    1    3    3    0    0  0.49482693513E+02  0.10304606764E+03 -0.30716641436E+03  0.32774721223E+03  0.00000000000E+00 0.  1.
          2    1    6    6  502    0 -0.19813197417E+03 -0.17210943634E+03 -0.32013062797E+03  0.41395839915E+03  0.00000000000E+00 0. -1.
          3    1    5    5  503    0  0.15894895925E+03  0.37933292341E+01  0.17384914917E+03  0.23559008396E+03  0.00000000000E+00 0. -1.
         -4    1    5    5    0  503  0.47344772975E+02  0.49389927098E+02  0.54819727015E+02  0.87670376393E+02  0.00000000000E+00 0.  1.
         -1    1    6    6    0  502 -0.89427489948E+02 -0.15433731631E+03 -0.16950958027E+03  0.24607068287E+03  0.00000000000E+00 0.  1.
<mgrwt>
<rscale>  0 0.16545500E+04</rscale>
<asrwt>0</asrwt>
<pdfrwt beam="1">  1        2 0.27696259E+00 0.16545500E+04</pdfrwt>
<pdfrwt beam="2">  1       -2 0.58486007E-01 0.16545500E+04</pdfrwt>
<totfact> 0.22514923E+01</totfact>
</mgrwt>
</event>
<event>
12    1  0.1477245E-007  0.1240055E+04  0.7818608E-02  0.9078502E-01
          4   -1    0    0  501    0  0.00000000000E+00  0.00000000000E+00  0.27137666524E+03  0.27137666524E+03  0.00000000000E+00 0. -1.
         -4   -1    0    0    0  501 -0.00000000000E+00 -0.00000000000E+00 -0.14166061572E+04  0.14166061572E+04  0.00000000000E+00 0.  1.
         23    2    1    2    0    0 -0.27350314719E+03  0.27657617650E+02 -0.36355984731E+03  0.46456592965E+03  0.89871158205E+02 0.  0.
        254    2    1    2    0    0  0.27350314719E+03 -0.27657617650E+02 -0.78166964467E+03  0.12234168928E+04  0.90009585316E+03 0.  0.
        -24    2    4    4    0    0  0.27191053939E+03  0.23629442544E+03  0.25469278215E+02  0.37034032849E+03  0.82054115367E+02 0.  0.
         24    2    4    4    0    0  0.15926077968E+01 -0.26395204309E+03 -0.80713892289E+03  0.85307656432E+03  0.81198314629E+02 0.  0.
         11    1    3    3    0    0 -0.23638786903E+03  0.40885407307E+01 -0.34156031708E+03  0.41540268535E+03  0.00000000000E+00 0.  1.
        -11    1    3    3    0    0 -0.37115278158E+02  0.23569076919E+02 -0.21999530225E+02  0.49163244296E+02  0.00000000000E+00 0. -1.
          4    1    6    6  502    0 -0.30941929498E+01 -0.26009792147E+03 -0.71685132580E+03  0.76258529102E+03  0.00000000000E+00 0. -1.
          1    1    5    5  503    0  0.27343989303E+03  0.24049219821E+03  0.27964509612E+02  0.36522306375E+03  0.00000000000E+00 0. -1.
         -2    1    5    5    0  503 -0.15293536329E+01 -0.41977727667E+01 -0.24952313976E+01  0.51172647443E+01  0.00000000000E+00 0.  1.
         -3    1    6    6    0  502  0.46868007466E+01 -0.38541216177E+01 -0.90287597091E+02  0.90491273298E+02  0.00000000000E+00 0.  1.
<mgrwt>
<rscale>  0 0.12400546E+04</rscale>
<asrwt>0</asrwt>
<pdfrwt beam="1">  1        4 0.41750256E-01 0.12400546E+04</pdfrwt>
<pdfrwt beam="2">  1       -4 0.21793941E+00 0.12400546E+04</pdfrwt>
<totfact> 0.11076098E+00</totfact>
</mgrwt>
</event>
<event>
12    1  0.1477245E-007  0.1741015E+04  0.7818608E-02  0.8738311E-01
         -1   -1    0    0    0  501 -0.00000000000E+00  0.00000000000E+00  0.84807538760E+03  0.84807538760E+03  0.00000000000E+00 0.  1.
          1   -1    0    0  501    0  0.00000000000E+00 -0.00000000000E+00 -0.89353321918E+03  0.89353321918E+03  0.00000000000E+00 0. -1.
         23    2    1    2    0    0  0.33787590030E+03  0.17823151883E+03  0.49832244274E+03  0.63497401118E+03  0.94552311555E+02 0.  0.
        254    2    1    2    0    0 -0.33787590030E+03 -0.17823151883E+03 -0.54378027431E+03  0.11066345956E+04  0.88488221993E+03 0.  0.
        -24    2    4    4    0    0 -0.36856258395E+03  0.25568006284E+03 -0.76298485225E+02  0.46213268663E+03  0.80836182417E+02 0.  0.
         24    2    4    4    0    0  0.30686683651E+02 -0.43391158167E+03 -0.46748178909E+03  0.64450190897E+03  0.87307240693E+02 0.  0.
         13    1    3    3    0    0  0.24591365162E+03  0.11757035470E+03  0.41642362745E+03  0.49769965828E+03  0.00000000000E+00 0.  1.
        -13    1    3    3    0    0  0.91962248678E+02  0.60661164131E+02  0.81898815294E+02  0.13727435289E+03  0.00000000000E+00 0. -1.
          2    1    6    6  502    0 -0.11488209867E+01 -0.46594356257E+02 -0.17138319276E+02  0.49659599397E+02  0.00000000000E+00 0. -1.
          1    1    5    5  503    0 -0.30618268747E+03  0.17133041125E+03 -0.56831577613E+02  0.35543181644E+03  0.00000000000E+00 0. -1.
         -2    1    5    5    0  503 -0.62379896478E+02  0.84349651585E+02 -0.19466907612E+02  0.10670087019E+03  0.00000000000E+00 0.  1.
         -1    1    6    6    0  502  0.31835504637E+02 -0.38731722541E+03 -0.45034346981E+03  0.59484230957E+03  0.00000000000E+00 0.  1.
<mgrwt>
<rscale>  0 0.17410153E+04</rscale>
<asrwt>0</asrwt>
<pdfrwt beam="1">  1        1 0.13746665E+00 0.17410153E+04</pdfrwt>
<pdfrwt beam="2">  1       -1 0.13047314E+00 0.17410153E+04</pdfrwt>
<totfact> 0.87798826E+00</totfact>
</mgrwt>
</event>
<event>
12    1  0.1477245E-007  0.1759026E+04  0.7818608E-02  0.8728397E-01
         -1   -1    0    0    0  501 -0.00000000000E+00  0.00000000000E+00  0.32908998859E+03  0.32908998859E+03  0.00000000000E+00 0.  1.
          1   -1    0    0  501    0  0.00000000000E+00 -0.00000000000E+00 -0.23505527725E+04  0.23505527725E+04  0.00000000000E+00 0. -1.
         23    2    1    2    0    0 -0.53353870227E+03 -0.22227352310E+03 -0.30405414407E+03  0.65949305088E+03  0.91722929198E+02 0.  0.
        254    2    1    2    0    0  0.53353870227E+03  0.22227352310E+03 -0.17174086398E+04  0.20201497102E+04  0.89299683627E+03 0.  0.
        -24    2    4    4    0    0  0.62524987063E+03  0.46930622033E+03 -0.13287015276E+04  0.15436021724E+04  0.77937077323E+02 0.  0.
         24    2    4    4    0    0 -0.91711168361E+02 -0.24703269723E+03 -0.38870711222E+03  0.47654753780E+03  0.81044708569E+02 0.  0.
         11    1    3    3    0    0 -0.23382963774E+03 -0.71113451291E+02 -0.85432768829E+02  0.25890573658E+03  0.00000000000E+00 0. -1.
        -11    1    3    3    0    0 -0.29970906452E+03 -0.15116007181E+03 -0.21862137524E+03  0.40058731430E+03  0.00000000000E+00 0.  1.
          4    1    6    6  502    0 -0.93348436512E+02 -0.21306500290E+03 -0.37179233552E+03  0.43856603472E+03  0.00000000000E+00 0. -1.
          3    1    5    5  503    0  0.45004308887E+03  0.29708645676E+03 -0.88164239782E+03  0.10334855888E+04  0.00000000000E+00 0. -1.
         -4    1    5    5    0  503  0.17520678176E+03  0.17221976357E+03 -0.44705912976E+03  0.51011658357E+03  0.00000000000E+00 0.  1.
         -3    1    6    6    0  502  0.16372681511E+01 -0.33967694334E+02 -0.16914776706E+02  0.37981503082E+02  0.00000000000E+00 0.  1.
<mgrwt>
<rscale>  0 0.17590263E+04</rscale>
<asrwt>0</asrwt>
<pdfrwt beam="1">  1        1 0.36162352E+00 0.17590263E+04</pdfrwt>
<pdfrwt beam="2">  1       -1 0.50629227E-01 0.17590263E+04</pdfrwt>
<totfact> 0.63818073E+00</totfact>
</mgrwt>
</event>
<event>
12    1  0.1477245E-007  0.1689090E+04  0.7818608E-02  0.8767611E-01
         -1   -1    0    0    0  501 -0.00000000000E+00  0.00000000000E+00  0.37531023400E+03  0.37531023400E+03  0.00000000000E+00 0.  1.
          1   -1    0    0  501    0  0.00000000000E+00 -0.00000000000E+00 -0.19004443139E+04  0.19004443139E+04  0.00000000000E+00 0. -1.
         23    2    1    2    0    0  0.12566737139E+02  0.41635920992E+02  0.26045107458E+03  0.27949380283E+03  0.91599949629E+02 0.  0.
        254    2    1    2    0    0 -0.12566737139E+02 -0.41635920992E+02 -0.17855851545E+04  0.19962607451E+04  0.89154424770E+03 0.  0.
        -24    2    4    4    0    0  0.20570939751E+03  0.29914741454E+03 -0.13332238395E+04  0.13840223610E+04  0.78908539965E+02 0.  0.
         24    2    4    4    0    0 -0.21827613465E+03 -0.34078333553E+03 -0.45236131497E+03  0.61223838406E+03  0.80170611201E+02 0.  0.
         11    1    3    3    0    0 -0.34014759883E+02  0.42942727923E+02  0.13808144003E+03  0.14855155958E+03  0.00000000000E+00 0.  1.
        -11    1    3    3    0    0  0.46581497022E+02 -0.13068069309E+01  0.12236963454E+03  0.13094224325E+03  0.00000000000E+00 0. -1.
          4    1    6    6  502    0 -0.14037543215E+03 -0.22509884058E+03 -0.23739871868E+03  0.35599564830E+03  0.00000000000E+00 0. -1.
          1    1    5    5  503    0  0.13876710448E+03  0.21770859506E+03 -0.10644952766E+04  0.10953554380E+04  0.00000000000E+00 0. -1.
         -2    1    5    5    0  503  0.66942293033E+02  0.81438819484E+02 -0.26872856288E+03  0.28866692298E+03  0.00000000000E+00 0.  1.
         -3    1    6    6    0  502 -0.77900702497E+02 -0.11568449495E+03 -0.21496259630E+03  0.25624273576E+03  0.00000000000E+00 0.  1.
<mgrwt>
<rscale>  0 0.16890899E+04</rscale>
<asrwt>0</asrwt>
<pdfrwt beam="1">  1        1 0.29237604E+00 0.16890899E+04</pdfrwt>
<pdfrwt beam="2">  1       -1 0.57740037E-01 0.16890899E+04</pdfrwt>
<totfact> 0.10077195E+01</totfact>
</mgrwt>
</event>
<event>
12    1  0.1477245E-007  0.4236865E+04  0.7818608E-02  0.7958397E-01
          1   -1    0    0  501    0  0.00000000000E+00  0.00000000000E+00  0.26378087441E+04  0.26378087441E+04  0.00000000000E+00 0. -1.
         -1   -1    0    0    0  501 -0.00000000000E+00 -0.00000000000E+00 -0.17013199124E+04  0.17013199124E+04  0.00000000000E+00 0.  1.
         23    2    1    2    0    0 -0.85699238099E+03  0.83377735516E+03 -0.12238983987E+04  0.17136541702E+04  0.95198243899E+02 0.  0.
        254    2    1    2    0    0  0.85699238099E+03 -0.83377735516E+03  0.21603872304E+04  0.26254744863E+04  0.89231310301E+03 0.  0.
        -24    2    4    4    0    0  0.99600722193E+03 -0.53939308188E+03  0.18380420925E+04  0.21605118147E+04  0.80232691200E+02 0.  0.
         24    2    4    4    0    0 -0.13901484094E+03 -0.29438427329E+03  0.32234513790E+03  0.46496267159E+03  0.79351570138E+02 0.  0.
         11    1    3    3    0    0 -0.65327166121E+03  0.64072714825E+03 -0.87711761702E+03  0.12675292722E+04  0.00000000000E+00 0.  1.
        -11    1    3    3    0    0 -0.20372071978E+03  0.19305020691E+03 -0.34678078164E+03  0.44612489795E+03  0.00000000000E+00 0. -1.
          2    1    6    6  502    0 -0.11416143133E+03 -0.27354180238E+03  0.31328828440E+03  0.43128586714E+03  0.00000000000E+00 0. -1.
          1    1    5    5  503    0  0.99010348642E+03 -0.53143174109E+03  0.18067857640E+04  0.21277216468E+04  0.00000000000E+00 0. -1.
         -2    1    5    5    0  503  0.59037355090E+01 -0.79613407887E+01  0.31256328433E+02  0.32790167844E+02  0.00000000000E+00 0.  1.
         -1    1    6    6    0  502 -0.24853409606E+02 -0.20842470905E+02  0.90568535017E+01  0.33676804448E+02  0.00000000000E+00 0.  1.
<mgrwt>
<rscale>  0 0.42368651E+04</rscale>
<asrwt>0</asrwt>
<pdfrwt beam="1">  1        1 0.40581673E+00 0.42368651E+04</pdfrwt>
<pdfrwt beam="2">  1       -1 0.26174153E+00 0.42368651E+04</pdfrwt>
<totfact> 0.48714538E-02</totfact>
</mgrwt>
</event>
<event>
12    1  0.1477245E-007  0.1150354E+04  0.7818608E-02  0.9157457E-01
         -2   -1    0    0    0  501 -0.00000000000E+00  0.00000000000E+00  0.39524418508E+03  0.39524418508E+03  0.00000000000E+00 0.  1.
          2   -1    0    0  501    0  0.00000000000E+00 -0.00000000000E+00 -0.83702329013E+03  0.83702329013E+03  0.00000000000E+00 0. -1.
         23    2    1    2    0    0  0.22747271395E+01 -0.17860024534E+03 -0.19008137269E+03  0.27720778799E+03  0.93861639997E+02 0.  0.
        254    2    1    2    0    0 -0.22747271395E+01  0.17860024534E+03 -0.25169773236E+03  0.95505968721E+03  0.90381637275E+03 0.  0.
        -24    2    4    4    0    0 -0.27333735286E+03 -0.26502680640E+03 -0.50116294790E+02  0.39221427057E+03  0.79798962736E+02 0.  0.
         24    2    4    4    0    0  0.27106262572E+03  0.44362705174E+03 -0.20158143757E+03  0.56284541665E+03  0.76681020956E+02 0.  0.
         13    1    3    3    0    0  0.15867827503E+02  0.28732262660E+01 -0.33320376827E+02  0.37017440359E+02  0.00000000000E+00 0.  1.
        -13    1    3    3    0    0 -0.13593100364E+02 -0.18147347160E+03 -0.15676099586E+03  0.24019034763E+03  0.00000000000E+00 0. -1.
          2    1    6    6  502    0  0.22710636341E+03  0.39683744535E+03 -0.19882876011E+03  0.49858814083E+03  0.00000000000E+00 0. -1.
          1    1    5    5  503    0 -0.13923802872E+03 -0.18681208122E+03 -0.18024710391E+02  0.23368969279E+03  0.00000000000E+00 0. -1.
         -4    1    5    5    0  503 -0.13409932414E+03 -0.78214725179E+02 -0.32091584399E+02  0.15852457778E+03  0.00000000000E+00 0.  1.
         -3    1    6    6    0  502  0.43956262305E+02  0.46789606391E+02 -0.27526774598E+01  0.64257275816E+02  0.00000000000E+00 0.  1.
<mgrwt>
<rscale>  0 0.11503540E+04</rscale>
<asrwt>0</asrwt>
<pdfrwt beam="1">  1        2 0.12877281E+00 0.11503540E+04</pdfrwt>
<pdfrwt beam="2">  1       -2 0.60806799E-01 0.11503540E+04</pdfrwt>
<totfact> 0.80796333E+01</totfact>
</mgrwt>
</event>
<event>
12    1  0.1477245E-007  0.1464492E+04  0.7818608E-02  0.8908415E-01
         -1   -1    0    0    0  501 -0.00000000000E+00  0.00000000000E+00  0.31209860394E+03  0.31209860394E+03  0.00000000000E+00 0.  1.
          1   -1    0    0  501    0  0.00000000000E+00 -0.00000000000E+00 -0.17179962271E+04  0.17179962271E+04  0.00000000000E+00 0. -1.
         23    2    1    2    0    0 -0.39181674346E+03  0.17602953252E+03 -0.24895819267E+03  0.50499101416E+03  0.92352508945E+02 0.  0.
        254    2    1    2    0    0  0.39181674346E+03 -0.17602953252E+03 -0.11569394305E+04  0.15251038169E+04  0.89606140954E+03 0.  0.
        -24    2    4    4    0    0  0.65432570270E+03 -0.24274585624E+03 -0.91169474699E+03  0.11510464878E+04  0.81566104481E+02 0.  0.
         24    2    4    4    0    0 -0.26250895923E+03  0.66716323726E+02 -0.24524468348E+03  0.37405732909E+03  0.80074397538E+02 0.  0.
         11    1    3    3    0    0 -0.34777417962E+03  0.12005567677E+03 -0.21440411933E+03  0.42582786655E+03  0.00000000000E+00 0.  1.
        -11    1    3    3    0    0 -0.44042563841E+02  0.55973855744E+02 -0.34554073339E+02  0.79163147618E+02  0.00000000000E+00 0. -1.
          2    1    6    6  502    0 -0.69804741940E+02  0.55261867843E+02 -0.86386765831E+02  0.12405341328E+03  0.00000000000E+00 0. -1.
          3    1    5    5  503    0  0.46893216832E+02  0.31136792688E+01 -0.52266067175E+02  0.70288054187E+02  0.00000000000E+00 0. -1.
         -4    1    5    5    0  503  0.60743248586E+03 -0.24585953551E+03 -0.85942867982E+03  0.10807584336E+04  0.00000000000E+00 0.  1.
         -1    1    6    6    0  502 -0.19270421729E+03  0.11454455883E+02 -0.15885791765E+03  0.25000391581E+03  0.00000000000E+00 0.  1.
<mgrwt>
<rscale>  0 0.14644920E+04</rscale>
<asrwt>0</asrwt>
<pdfrwt beam="1">  1        1 0.26430711E+00 0.14644920E+04</pdfrwt>
<pdfrwt beam="2">  1       -1 0.48015171E-01 0.14644920E+04</pdfrwt>
<totfact> 0.19486089E+01</totfact>
</mgrwt>
</event>
<event>
12    1  0.1477245E-007  0.2271575E+04  0.7818608E-02  0.8489214E-01
         -1   -1    0    0    0  501 -0.00000000000E+00  0.00000000000E+00  0.46856209580E+03  0.46856209580E+03  0.00000000000E+00 0.  1.
          1   -1    0    0  501    0  0.00000000000E+00 -0.00000000000E+00 -0.27531324555E+04  0.27531324555E+04  0.00000000000E+00 0. -1.
         23    2    1    2    0    0  0.83873664142E+03  0.21931319578E+02 -0.16064857134E+04  0.18146414432E+04  0.90371919115E+02 0.  0.
        254    2    1    2    0    0 -0.83873664142E+03 -0.21931319578E+02 -0.67808464628E+03  0.14070531080E+04  0.90334906038E+03 0.  0.
        -24    2    4    4    0    0  0.57777535148E+01  0.21497773592E+03  0.82122883652E+02  0.24371546872E+03  0.80026572471E+02 0.  0.
         24    2    4    4    0    0 -0.84451439493E+03 -0.23690905549E+03 -0.76020752993E+03  0.11633376393E+04  0.78156961693E+02 0.  0.
         13    1    3    3    0    0  0.73143797361E+02  0.12572782057E+02 -0.97582965672E+02  0.12259904213E+03  0.00000000000E+00 0.  1.
        -13    1    3    3    0    0  0.76559284405E+03  0.93585375210E+01 -0.15089027477E+04  0.16920424011E+04  0.00000000000E+00 0. -1.
          4    1    6    6  502    0 -0.81162487102E+03 -0.23279938347E+03 -0.71007815959E+03  0.11032413503E+04  0.00000000000E+00 0. -1.
          3    1    5    5  503    0 -0.15554941260E+02  0.15816101035E+03  0.25967817721E+02  0.16103163959E+03  0.00000000000E+00 0. -1.
         -4    1    5    5    0  503  0.21332694774E+02  0.56816725564E+02  0.56155065930E+02  0.82683829131E+02  0.00000000000E+00 0.  1.
         -3    1    6    6    0  502 -0.32889523913E+02 -0.41096720250E+01 -0.50129370334E+02  0.60096289049E+02  0.00000000000E+00 0.  1.
<mgrwt>
<rscale>  0 0.22715752E+04</rscale>
<asrwt>0</asrwt>
<pdfrwt beam="1">  1        1 0.42355883E+00 0.22715752E+04</pdfrwt>
<pdfrwt beam="2">  1       -1 0.72086477E-01 0.22715752E+04</pdfrwt>
<totfact> 0.15837179E+00</totfact>
</mgrwt>
</event>
<event>
12    1  0.1477245E-007  0.2533389E+04  0.7818608E-02  0.8391186E-01
          1   -1    0    0  501    0  0.00000000000E+00  0.00000000000E+00  0.14736822936E+04  0.14736822936E+04  0.00000000000E+00 0. -1.
         -1   -1    0    0    0  501 -0.00000000000E+00 -0.00000000000E+00 -0.10887792456E+04  0.10887792456E+04  0.00000000000E+00 0.  1.
         23    2    1    2    0    0 -0.97087337585E+03 -0.84394993289E+02 -0.35960572132E+03  0.10426817367E+04  0.90284563227E+02 0.  0.
        254    2    1    2    0    0  0.97087337585E+03  0.84394993289E+02  0.74450876933E+03  0.15197798025E+04  0.89761891337E+03 0.  0.
        -24    2    4    4    0    0  0.26747113575E+03 -0.32700747739E+03  0.26879234413E+02  0.43102765550E+03  0.81164326090E+02 0.  0.
         24    2    4    4    0    0  0.70340224009E+03  0.41140247068E+03  0.71762953492E+03  0.10887521470E+04  0.79764553256E+02 0.  0.
         13    1    3    3    0    0 -0.19466775679E+03 -0.72451779839E-01 -0.10657600163E+03  0.22193238815E+03  0.00000000000E+00 0.  1.
        -13    1    3    3    0    0 -0.77620561905E+03 -0.84322541509E+02 -0.25302971969E+03  0.82074934852E+03  0.00000000000E+00 0. -1.
          2    1    6    6  502    0  0.35458769381E+03  0.22997254875E+03  0.41790403043E+03  0.59435981057E+03  0.00000000000E+00 0. -1.
          3    1    5    5  503    0  0.14897854565E+03 -0.15041392923E+03  0.48741341538E+02  0.21724335558E+03  0.00000000000E+00 0. -1.
         -4    1    5    5    0  503  0.11849259011E+03 -0.17659354816E+03 -0.21862107124E+02  0.21378429992E+03  0.00000000000E+00 0.  1.
         -1    1    6    6    0  502  0.34881454629E+03  0.18142992194E+03  0.29972550449E+03  0.49439233642E+03  0.00000000000E+00 0.  1.
<mgrwt>
<rscale>  0 0.25333888E+04</rscale>
<asrwt>0</asrwt>
<pdfrwt beam="1">  1        1 0.22672035E+00 0.25333888E+04</pdfrwt>
<pdfrwt beam="2">  1       -1 0.16750450E+00 0.25333888E+04</pdfrwt>
<totfact> 0.15518055E+00</totfact>
</mgrwt>
</event>
<event>
12    1  0.1477245E-007  0.1988556E+04  0.7818608E-02  0.8611990E-01
          1   -1    0    0  501    0  0.00000000000E+00  0.00000000000E+00  0.24302510575E+04  0.24302510575E+04  0.00000000000E+00 0. -1.
         -1   -1    0    0    0  501 -0.00000000000E+00 -0.00000000000E+00 -0.40678449542E+03  0.40678449542E+03  0.00000000000E+00 0.  1.
         23    2    1    2    0    0 -0.26276302956E+03 -0.38573233328E+03 -0.98126572499E+02  0.48538263638E+03  0.90186677654E+02 0.  0.
        254    2    1    2    0    0  0.26276302956E+03  0.38573233328E+03  0.21215931345E+04  0.23516529165E+04  0.90071092395E+03 0.  0.
        -24    2    4    4    0    0  0.44841088622E+03 -0.10974923757E+03  0.82040996183E+03  0.94475638656E+03  0.79843011205E+02 0.  0.
         24    2    4    4    0    0 -0.18564785666E+03  0.49548157085E+03  0.13011831727E+04  0.14068965299E+04  0.79454913563E+02 0.  0.
         11    1    3    3    0    0 -0.11121037184E+03 -0.15473554963E+03  0.46487111384E+01  0.19061072279E+03  0.00000000000E+00 0.  1.
        -11    1    3    3    0    0 -0.15155265772E+03 -0.23099678365E+03 -0.10277528364E+03  0.29477191359E+03  0.00000000000E+00 0. -1.
          2    1    6    6  502    0 -0.34212681087E+02  0.14892178951E+03  0.30025345364E+03  0.33689812015E+03  0.00000000000E+00 0. -1.
          3    1    5    5  503    0  0.86250174650E+02 -0.15482383595E+02  0.10012043616E+03  0.13305223998E+03  0.00000000000E+00 0. -1.
         -4    1    5    5    0  503  0.36216071157E+03 -0.94266853978E+02  0.72028952568E+03  0.81170414657E+03  0.00000000000E+00 0.  1.
         -1    1    6    6    0  502 -0.15143517557E+03  0.34655978135E+03  0.10009297191E+04  0.10699984098E+04  0.00000000000E+00 0.  1.
<mgrwt>
<rscale>  0 0.19885557E+04</rscale>
<asrwt>0</asrwt>
<pdfrwt beam="1">  1        1 0.37388477E+00 0.19885557E+04</pdfrwt>
<pdfrwt beam="2">  1       -1 0.62582232E-01 0.19885557E+04</pdfrwt>
<totfact> 0.36424902E+00</totfact>
</mgrwt>
</event>
<event>
12    1  0.1477245E-007  0.1396217E+04  0.7818608E-02  0.8956561E-01
          1   -1    0    0  501    0  0.00000000000E+00  0.00000000000E+00  0.13607996927E+04  0.13607996927E+04  0.00000000000E+00 0. -1.
         -1   -1    0    0    0  501 -0.00000000000E+00 -0.00000000000E+00 -0.35813910012E+03  0.35813910012E+03  0.00000000000E+00 0.  1.
         23    2    1    2    0    0 -0.64567722194E+02  0.27632100223E+03  0.53718295896E+03  0.61431805388E+03  0.91098040089E+02 0.  0.
        254    2    1    2    0    0  0.64567722194E+02 -0.27632100223E+03  0.46547763362E+03  0.11046207389E+04  0.96072642437E+03 0.  0.
        -24    2    4    4    0    0 -0.31647680607E+02 -0.52915686253E+03 -0.26744582066E+02  0.53714345609E+03  0.82457618758E+02 0.  0.
         24    2    4    4    0    0  0.96215402801E+02  0.25283586031E+03  0.49222221568E+03  0.56747728285E+03  0.81020867376E+02 0.  0.
         13    1    3    3    0    0 -0.41404301763E+02  0.13383335858E+03  0.35657178601E+03  0.38310458448E+03  0.00000000000E+00 0. -1.
        -13    1    3    3    0    0 -0.23163420431E+02  0.14248764364E+03  0.18061117295E+03  0.23121346940E+03  0.00000000000E+00 0.  1.
          4    1    6    6  502    0  0.72531238316E+02  0.12611701622E+03  0.32707557450E+03  0.35797306288E+03  0.00000000000E+00 0. -1.
          3    1    5    5  503    0 -0.37433847882E+02 -0.11566036928E+03 -0.22222432574E+02  0.12358175634E+03  0.00000000000E+00 0. -1.
         -4    1    5    5    0  503  0.57861672756E+01 -0.41349649325E+03 -0.45221494914E+01  0.41356169975E+03  0.00000000000E+00 0.  1.
         -3    1    6    6    0  502  0.23684164484E+02  0.12671884408E+03  0.16514664118E+03  0.20950421997E+03  0.00000000000E+00 0.  1.
<mgrwt>
<rscale>  0 0.13962171E+04</rscale>
<asrwt>0</asrwt>
<pdfrwt beam="1">  1        1 0.20935380E+00 0.13962171E+04</pdfrwt>
<pdfrwt beam="2">  1       -1 0.55098324E-01 0.13962171E+04</pdfrwt>
<totfact> 0.26586991E+01</totfact>
</mgrwt>
</event>
<event>
12    1  0.1477245E-007  0.2689543E+04  0.7818608E-02  0.8338406E-01
         -2   -1    0    0    0  501 -0.00000000000E+00  0.00000000000E+00  0.22932392138E+04  0.22932392138E+04  0.00000000000E+00 0.  1.
          2   -1    0    0  501    0  0.00000000000E+00 -0.00000000000E+00 -0.78858315637E+03  0.78858315637E+03  0.00000000000E+00 0. -1.
         23    2    1    2    0    0  0.10953942755E+04 -0.30953565097E+03  0.10638923396E+04  0.15615699399E+04  0.10456016940E+03 0.  0.
        254    2    1    2    0    0 -0.10953942755E+04  0.30953565097E+03  0.44076371786E+03  0.15202524303E+04  0.90619747230E+03 0.  0.
        -24    2    4    4    0    0 -0.67826069937E+03  0.62442714500E+03  0.30407556566E+03  0.97418851213E+03  0.81452267118E+02 0.  0.
         24    2    4    4    0    0 -0.41713357611E+03 -0.31489149404E+03  0.13668815220E+03  0.54606391814E+03  0.79656000431E+02 0.  0.
         13    1    3    3    0    0  0.58187555737E+02 -0.20191380065E+02  0.93875251673E+02  0.11227665095E+03  0.00000000000E+00 0.  1.
        -13    1    3    3    0    0  0.10372067197E+04 -0.28934427090E+03  0.97001708792E+03  0.14492932890E+04  0.00000000000E+00 0. -1.
          2    1    6    6  502    0 -0.29768980249E+03 -0.19398438953E+03  0.63168359014E+02  0.36088696772E+03  0.00000000000E+00 0. -1.
          3    1    5    5  503    0 -0.45901133681E+02  0.35962693934E+02 -0.32553744470E+00  0.58312394932E+02  0.00000000000E+00 0. -1.
         -4    1    5    5    0  503 -0.63235956569E+03  0.58846445107E+03  0.30440110311E+03  0.91587611720E+03  0.00000000000E+00 0.  1.
         -1    1    6    6    0  502 -0.11944377362E+03 -0.12090710451E+03  0.73519793182E+02  0.18517695042E+03  0.00000000000E+00 0.  1.
<mgrwt>
<rscale>  0 0.26895426E+04</rscale>
<asrwt>0</asrwt>
<pdfrwt beam="1">  1        2 0.12132049E+00 0.26895426E+04</pdfrwt>
<pdfrwt beam="2">  1       -2 0.35280603E+00 0.26895426E+04</pdfrwt>
<totfact> 0.46051229E-01</totfact>
</mgrwt>
</event>
<event>
12    1  0.1477245E-007  0.1799717E+04  0.7818608E-02  0.8706450E-01
         -3   -1    0    0    0  501 -0.00000000000E+00  0.00000000000E+00  0.10055325006E+04  0.10055325006E+04  0.00000000000E+00 0.  1.
          3   -1    0    0  501    0  0.00000000000E+00 -0.00000000000E+00 -0.80528980176E+03  0.80528980176E+03  0.00000000000E+00 0. -1.
         23    2    1    2    0    0  0.17314743860E+03 -0.36691592542E+03  0.61309602644E+03  0.73970101166E+03  0.81630369367E+02 0.  0.
        254    2    1    2    0    0 -0.17314743860E+03  0.36691592542E+03 -0.41285332758E+03  0.10711212907E+04  0.90124670180E+03 0.  0.
        -24    2    4    4    0    0  0.45912164151E+01  0.25964885871E+03  0.25179034990E+03  0.37012386208E+03  0.78451793345E+02 0.  0.
         24    2    4    4    0    0 -0.17773865501E+03  0.10726706671E+03 -0.66464367748E+03  0.70099742864E+03  0.80925421543E+02 0.  0.
         13    1    3    3    0    0  0.84619332486E+02 -0.96355744118E+02  0.16791684958E+03  0.21128400135E+03  0.00000000000E+00 0. -1.
        -13    1    3    3    0    0  0.88528106113E+02 -0.27056018130E+03  0.44517917686E+03  0.52841701031E+03  0.00000000000E+00 0.  1.
          2    1    6    6  502    0 -0.10428195012E+03  0.79385654747E+02 -0.29054423693E+03  0.31873619329E+03  0.00000000000E+00 0. -1.
          1    1    5    5  503    0  0.25169647291E+02  0.51910315102E+02  0.28147115723E+02  0.64190747638E+02  0.00000000000E+00 0. -1.
         -2    1    5    5    0  503 -0.20578430876E+02  0.20773854360E+03  0.22364323418E+03  0.30593311444E+03  0.00000000000E+00 0.  1.
         -1    1    6    6    0  502 -0.73456704895E+02  0.27881411966E+02 -0.37409944055E+03  0.38226123535E+03  0.00000000000E+00 0.  1.
<mgrwt>
<rscale>  0 0.17997167E+04</rscale>
<asrwt>0</asrwt>
<pdfrwt beam="1">  1        3 0.12389074E+00 0.17997167E+04</pdfrwt>
<pdfrwt beam="2">  1       -3 0.15469731E+00 0.17997167E+04</pdfrwt>
<totfact> 0.38502206E-01</totfact>
</mgrwt>
</event>
<event>
12    1  0.1477245E-007  0.1992090E+04  0.7818608E-02  0.8610328E-01
          2   -1    0    0  501    0  0.00000000000E+00  0.00000000000E+00  0.31866758426E+04  0.31866758426E+04  0.00000000000E+00 0. -1.
         -2   -1    0    0    0  501 -0.00000000000E+00 -0.00000000000E+00 -0.31132918649E+03  0.31132918649E+03  0.00000000000E+00 0.  1.
         23    2    1    2    0    0  0.53018111430E+03  0.42537910225E+03  0.19564784164E+04  0.20732053927E+04  0.91287522801E+02 0.  0.
        254    2    1    2    0    0 -0.53018111430E+03 -0.42537910225E+03  0.91886823969E+03  0.14247996364E+04  0.85070310175E+03 0.  0.
        -24    2    4    4    0    0 -0.15358405176E+02 -0.44859518359E+02 -0.14954577124E+03  0.17671759251E+03  0.81344408604E+02 0.  0.
         24    2    4    4    0    0 -0.51482270912E+03 -0.38051958389E+03  0.10684140109E+04  0.12480820439E+04  0.79766621705E+02 0.  0.
         11    1    3    3    0    0  0.29068342974E+01 -0.27391862655E+01  0.34867073697E+02  0.35095094461E+02  0.00000000000E+00 0.  1.
        -11    1    3    3    0    0  0.52727428000E+03  0.42811828852E+03  0.19216113427E+04  0.20381102982E+04  0.00000000000E+00 0. -1.
          2    1    6    6  502    0 -0.46425570528E+03 -0.31188224982E+03  0.90821321276E+03  0.10666091775E+04  0.00000000000E+00 0. -1.
          3    1    5    5  503    0 -0.32941501580E+02 -0.32847240704E+02 -0.14825690637E+03  0.15538402117E+03  0.00000000000E+00 0. -1.
         -4    1    5    5    0  503  0.17583096405E+02 -0.12012277656E+02 -0.12888648690E+01  0.21333571344E+02  0.00000000000E+00 0.  1.
         -1    1    6    6    0  502 -0.50567003848E+02 -0.68637334074E+02  0.16020079817E+03  0.18147286640E+03  0.00000000000E+00 0.  1.
<mgrwt>
<rscale>  0 0.19920896E+04</rscale>
<asrwt>0</asrwt>
<pdfrwt beam="1">  1        2 0.49025780E+00 0.19920896E+04</pdfrwt>
<pdfrwt beam="2">  1       -2 0.47896800E-01 0.19920896E+04</pdfrwt>
<totfact> 0.50973950E+00</totfact>
</mgrwt>
</event>
<event>
12    1  0.1477245E-007  0.1836765E+04  0.7818608E-02  0.8686989E-01
         -1   -1    0    0    0  501 -0.00000000000E+00  0.00000000000E+00  0.89239684052E+03  0.89239684052E+03  0.00000000000E+00 0.  1.
          1   -1    0    0  501    0  0.00000000000E+00 -0.00000000000E+00 -0.94512503535E+03  0.94512503535E+03  0.00000000000E+00 0. -1.
         23    2    1    2    0    0  0.32856078664E+03 -0.30831152349E+03 -0.54935086553E+03  0.71669763929E+03  0.94132601542E+02 0.  0.
        254    2    1    2    0    0 -0.32856078664E+03  0.30831152349E+03  0.49662267070E+03  0.11208242366E+04  0.89811174483E+03 0.  0.
        -24    2    4    4    0    0  0.39573102125E+02  0.51950224817E+03  0.10394374324E+03  0.53687904975E+03  0.77370511412E+02 0.  0.
         24    2    4    4    0    0 -0.36813388876E+03 -0.21119072468E+03  0.39267892746E+03  0.58394518682E+03  0.81677162675E+02 0.  0.
         11    1    3    3    0    0  0.24853772298E+03 -0.26635342778E+03 -0.39122281621E+03  0.53457500892E+03  0.00000000000E+00 0. -1.
        -11    1    3    3    0    0  0.80023063653E+02 -0.41958095709E+02 -0.15812804932E+03  0.18212263037E+03  0.00000000000E+00 0.  1.
          4    1    6    6  502    0 -0.11255968723E+03 -0.79866420629E+02  0.81016436075E+02  0.16003746826E+03  0.00000000000E+00 0. -1.
          3    1    5    5  503    0  0.25459973140E+02  0.98192522188E+02  0.45953586606E+02  0.11136298204E+03  0.00000000000E+00 0. -1.
         -4    1    5    5    0  503  0.14113128986E+02  0.42130972598E+03  0.57990156638E+02  0.42551606771E+03  0.00000000000E+00 0.  1.
         -3    1    6    6    0  502 -0.25557420153E+03 -0.13132430405E+03  0.31166249138E+03  0.42390771856E+03  0.00000000000E+00 0.  1.
<mgrwt>
<rscale>  0 0.18367652E+04</rscale>
<asrwt>0</asrwt>
<pdfrwt beam="1">  1        1 0.14540385E+00 0.18367652E+04</pdfrwt>
<pdfrwt beam="2">  1       -1 0.13729182E+00 0.18367652E+04</pdfrwt>
<totfact> 0.69398205E+00</totfact>
</mgrwt>
</event>
<event>
12    1  0.1477245E-007  0.2201847E+04  0.7818608E-02  0.8517660E-01
         -2   -1    0    0    0  501 -0.00000000000E+00  0.00000000000E+00  0.68798414596E+03  0.68798414596E+03  0.00000000000E+00 0.  1.
          2   -1    0    0  501    0  0.00000000000E+00 -0.00000000000E+00 -0.17617164345E+04  0.17617164345E+04  0.00000000000E+00 0. -1.
         23    2    1    2    0    0 -0.77535486661E+03  0.43920432094E+03 -0.22317611469E+03  0.92327381468E+03  0.92473531269E+02 0.  0.
        254    2    1    2    0    0  0.77535486661E+03 -0.43920432094E+03 -0.85055617387E+03  0.15264267658E+04  0.90136411163E+03 0.  0.
        -24    2    4    4    0    0  0.23542999632E+03  0.15061510642E+03 -0.62909807262E+03  0.69291231760E+03  0.79062642597E+02 0.  0.
         24    2    4    4    0    0  0.53992487029E+03 -0.58981942736E+03 -0.22145810125E+03  0.83351444821E+03  0.79352519224E+02 0.  0.
         11    1    3    3    0    0 -0.49993601165E+03  0.30312228181E+03 -0.10436087816E+03  0.59389420469E+03  0.00000000000E+00 0.  1.
        -11    1    3    3    0    0 -0.27541885496E+03  0.13608203913E+03 -0.11881523653E+03  0.32937960999E+03  0.00000000000E+00 0. -1.
          2    1    6    6  502    0  0.19559945813E+03 -0.21773578600E+03 -0.41783715362E+02  0.29565841676E+03  0.00000000000E+00 0. -1.
          3    1    5    5  503    0  0.13162525006E+03  0.47402101048E+02 -0.36609919327E+03  0.39191936027E+03  0.00000000000E+00 0. -1.
         -4    1    5    5    0  503  0.10380474626E+03  0.10321300538E+03 -0.26299887934E+03  0.30099295733E+03  0.00000000000E+00 0.  1.
         -1    1    6    6    0  502  0.34432541216E+03 -0.37208364136E+03 -0.17967438589E+03  0.53785603145E+03  0.00000000000E+00 0.  1.
<mgrwt>
<rscale>  0 0.22018474E+04</rscale>
<asrwt>0</asrwt>
<pdfrwt beam="1">  1        2 0.27103330E+00 0.22018474E+04</pdfrwt>
<pdfrwt beam="2">  1       -2 0.10584372E+00 0.22018474E+04</pdfrwt>
<totfact> 0.59718466E+00</totfact>
</mgrwt>
</event>
<event>
12    1  0.1477245E-007  0.1880685E+04  0.7818608E-02  0.8664531E-01
          2   -1    0    0  501    0  0.00000000000E+00  0.00000000000E+00  0.23357989045E+04  0.23357989045E+04  0.00000000000E+00 0. -1.
         -2   -1    0    0    0  501 -0.00000000000E+00 -0.00000000000E+00 -0.37856180507E+03  0.37856180507E+03  0.00000000000E+00 0.  1.
         23    2    1    2    0    0  0.23312707604E+03 -0.46049045432E+03  0.14910059795E+04  0.15808723995E+04  0.98280315799E+02 0.  0.
        254    2    1    2    0    0 -0.23312707604E+03  0.46049045432E+03  0.46623111990E+03  0.11334883101E+04  0.89499977640E+03 0.  0.
        -24    2    4    4    0    0 -0.30475062301E+03 -0.19004822868E+03  0.11131447861E+03  0.38469430112E+03  0.81286657723E+02 0.  0.
         24    2    4    4    0    0  0.71623546966E+02  0.65053868300E+03  0.35491664129E+03  0.74879400893E+03  0.79975840005E+02 0.  0.
         11    1    3    3    0    0  0.23089306919E+03 -0.40474006115E+03  0.13815740015E+04  0.14580373274E+04  0.00000000000E+00 0. -1.
        -11    1    3    3    0    0  0.22340068463E+01 -0.55750393173E+02  0.10943197804E+03  0.12283507212E+03  0.00000000000E+00 0.  1.
          2    1    6    6  502    0  0.51531039944E+02  0.16364539694E+03  0.80218827048E+02  0.18939462567E+03  0.00000000000E+00 0. -1.
          1    1    5    5  503    0 -0.86957222044E+01 -0.30031039398E+02  0.14832358044E+02  0.34604591561E+02  0.00000000000E+00 0. -1.
         -2    1    5    5    0  503 -0.29605490080E+03 -0.16001718928E+03  0.96482120566E+02  0.35008970956E+03  0.00000000000E+00 0.  1.
         -1    1    6    6    0  502  0.20092507023E+02  0.48689328606E+03  0.27469781424E+03  0.55939938326E+03  0.00000000000E+00 0.  1.
<mgrwt>
<rscale>  0 0.18806852E+04</rscale>
<asrwt>0</asrwt>
<pdfrwt beam="1">  1        2 0.35935367E+00 0.18806852E+04</pdfrwt>
<pdfrwt beam="2">  1       -2 0.58240279E-01 0.18806852E+04</pdfrwt>
<totfact> 0.11195834E+01</totfact>
</mgrwt>
</event>
<event>
12    1  0.1477245E-007  0.1260296E+04  0.7818608E-02  0.9061657E-01
         -1   -1    0    0    0  501 -0.00000000000E+00  0.00000000000E+00  0.39395902532E+03  0.39395902532E+03  0.00000000000E+00 0.  1.
          1   -1    0    0  501    0  0.00000000000E+00 -0.00000000000E+00 -0.10079392958E+04  0.10079392958E+04  0.00000000000E+00 0. -1.
         23    2    1    2    0    0 -0.15744087935E+03  0.23641650067E+03 -0.25751725915E+03  0.39280784181E+03  0.85454488179E+02 0.  0.
        254    2    1    2    0    0  0.15744087935E+03 -0.23641650067E+03 -0.35646301136E+03  0.10090904793E+04  0.90028735677E+03 0.  0.
        -24    2    4    4    0    0  0.47403723902E+03  0.33127946478E+02 -0.33140418055E+03  0.58487625563E+03  0.80266672390E+02 0.  0.
         24    2    4    4    0    0 -0.31659635967E+03 -0.26954444714E+03 -0.25058830811E+02  0.42421422372E+03  0.80263931256E+02 0.  0.
         13    1    3    3    0    0 -0.13685940647E+03  0.22671833348E+03 -0.20282241399E+03  0.33356953022E+03  0.00000000000E+00 0. -1.
        -13    1    3    3    0    0 -0.20581472876E+02  0.96981671856E+01 -0.54694845164E+02  0.59238311590E+02  0.00000000000E+00 0.  1.
          2    1    6    6  502    0 -0.99546331133E+02 -0.40219201388E+02 -0.13928105497E+02  0.10826379046E+03  0.00000000000E+00 0. -1.
          3    1    5    5  503    0  0.17344167531E+02  0.17167155500E+02 -0.23293970011E+02  0.33736336703E+02  0.00000000000E+00 0. -1.
         -4    1    5    5    0  503  0.45669307149E+03  0.15960790978E+02 -0.30811021054E+03  0.55113991892E+03  0.00000000000E+00 0.  1.
         -1    1    6    6    0  502 -0.21705002854E+03 -0.22932524576E+03 -0.11130725314E+02  0.31595043325E+03  0.00000000000E+00 0.  1.
<mgrwt>
<rscale>  0 0.12602964E+04</rscale>
<asrwt>0</asrwt>
<pdfrwt beam="1">  1        1 0.15506758E+00 0.12602964E+04</pdfrwt>
<pdfrwt beam="2">  1       -1 0.60609082E-01 0.12602964E+04</pdfrwt>
<totfact> 0.40578386E+01</totfact>
</mgrwt>
</event>
<event>
12    1  0.1477245E-007  0.3038720E+04  0.7818608E-02  0.8232760E-01
         -2   -1    0    0    0  501 -0.00000000000E+00  0.00000000000E+00  0.15307940589E+04  0.15307940589E+04  0.00000000000E+00 0.  1.
          2   -1    0    0  501    0  0.00000000000E+00 -0.00000000000E+00 -0.15080115053E+04  0.15080115053E+04  0.00000000000E+00 0. -1.
         23    2    1    2    0    0  0.27948961964E+03 -0.11702485710E+04 -0.68333579841E+03  0.13866838222E+04  0.91367630022E+02 0.  0.
        254    2    1    2    0    0 -0.27948961964E+03  0.11702485710E+04  0.70611835202E+03  0.16521217419E+04  0.88504630252E+03 0.  0.
        -24    2    4    4    0    0 -0.57323859600E+03  0.96819890748E+03  0.55008248201E+03  0.12552163349E+04  0.83460757082E+02 0.  0.
         24    2    4    4    0    0  0.29374897636E+03  0.20204966356E+03  0.15603587001E+03  0.39690540705E+03  0.77937037140E+02 0.  0.
         13    1    3    3    0    0  0.12585329776E+03 -0.55281741770E+03 -0.27014346171E+03  0.62803155953E+03  0.00000000000E+00 0.  1.
        -13    1    3    3    0    0  0.15363632188E+03 -0.61743115335E+03 -0.41319233670E+03  0.75865226266E+03  0.00000000000E+00 0. -1.
          2    1    6    6  502    0  0.18747117986E+03  0.14544803643E+03  0.13981635634E+03  0.27540731305E+03  0.00000000000E+00 0. -1.
          1    1    5    5  503    0 -0.10507102457E+03  0.22530168965E+03  0.94455311844E+02  0.26593716833E+03  0.00000000000E+00 0. -1.
         -2    1    5    5    0  503 -0.46816757143E+03  0.74289721783E+03  0.45562717017E+03  0.98927916656E+03  0.00000000000E+00 0.  1.
         -1    1    6    6    0  502  0.10627779650E+03  0.56601627134E+02  0.16219513668E+02  0.12149809400E+03  0.00000000000E+00 0.  1.
<mgrwt>
<rscale>  0 0.30387202E+04</rscale>
<asrwt>0</asrwt>
<pdfrwt beam="1">  1        2 0.23200177E+00 0.30387202E+04</pdfrwt>
<pdfrwt beam="2">  1       -2 0.23550678E+00 0.30387202E+04</pdfrwt>
<totfact> 0.84677146E-01</totfact>
</mgrwt>
</event>
<event>
12    1  0.1477245E-007  0.2695239E+04  0.7818608E-02  0.8336551E-01
         -1   -1    0    0    0  501 -0.00000000000E+00  0.00000000000E+00  0.73329508957E+03  0.73329508957E+03  0.00000000000E+00 0. -1.
          1   -1    0    0  501    0  0.00000000000E+00 -0.00000000000E+00 -0.24766001307E+04  0.24766001307E+04  0.00000000000E+00 0.  1.
         23    2    1    2    0    0  0.39112753056E+02 -0.88056944134E+01  0.64535553513E+03  0.65294118816E+03  0.90780398603E+02 0.  0.
        254    2    1    2    0    0 -0.39112753056E+02  0.88056944134E+01 -0.23886605763E+04  0.25569540321E+04  0.91143141597E+03 0.  0.
        -24    2    4    4    0    0  0.12416747385E+03  0.22574747474E+03 -0.22011411014E+04  0.22174542014E+04  0.75508297778E+02 0.  0.
         24    2    4    4    0    0 -0.16328022691E+03 -0.21694178033E+03 -0.18751947487E+03  0.33949983074E+03  0.79827395438E+02 0.  0.
         11    1    3    3    0    0  0.18756188557E+02 -0.37841599943E+02  0.54255570240E+03  0.54419708884E+03  0.00000000000E+00 0. -1.
        -11    1    3    3    0    0  0.20356564498E+02  0.29035905530E+02  0.10279983273E+03  0.10874409932E+03  0.00000000000E+00 0.  1.
          4    1    6    6  502    0 -0.59933096938E+02 -0.81395864982E+02 -0.25308679152E+02  0.10420073025E+03  0.00000000000E+00 0. -1.
          3    1    5    5  503    0  0.48994217197E+02  0.77677541589E+02 -0.11045000170E+04  0.11083115633E+04  0.00000000000E+00 0. -1.
         -4    1    5    5    0  503  0.75173256653E+02  0.14806993315E+03 -0.10966410844E+04  0.11091426381E+04  0.00000000000E+00 0.  1.
         -3    1    6    6    0  502 -0.10334712997E+03 -0.13554591535E+03 -0.16221079572E+03  0.23529910048E+03  0.00000000000E+00 0.  1.
<mgrwt>
<rscale>  0 0.26952393E+04</rscale>
<asrwt>0</asrwt>
<pdfrwt beam="1">  1        1 0.38101541E+00 0.26952393E+04</pdfrwt>
<pdfrwt beam="2">  1       -1 0.11281463E+00 0.26952393E+04</pdfrwt>
<totfact> 0.88248634E-01</totfact>
</mgrwt>
</event>
<event>
12    1  0.1477245E-007  0.1751767E+04  0.7818608E-02  0.8732378E-01
         -2   -1    0    0    0  501 -0.00000000000E+00  0.00000000000E+00  0.95894479507E+03  0.95894479507E+03  0.00000000000E+00 0.  1.
          2   -1    0    0  501    0  0.00000000000E+00 -0.00000000000E+00 -0.80001685771E+03  0.80001685771E+03  0.00000000000E+00 0. -1.
         23    2    1    2    0    0  0.54576124841E+03  0.11387269239E+01 -0.27224866539E+03  0.61673665084E+03  0.91586700596E+02 0.  0.
        254    2    1    2    0    0 -0.54576124841E+03 -0.11387269239E+01  0.43117660275E+03  0.11422250019E+04  0.90603976477E+03 0.  0.
        -24    2    4    4    0    0 -0.66745749581E+03 -0.12521887862E+02  0.61215374753E+03  0.90926921679E+03  0.79887368217E+02 0.  0.
         24    2    4    4    0    0  0.12169624740E+03  0.11383160938E+02 -0.18097714478E+03  0.23295578516E+03  0.81093266806E+02 0.  0.
         13    1    3    3    0    0  0.49255554349E+03  0.24076877842E+02 -0.22534181027E+03  0.54218962636E+03  0.00000000000E+00 0. -1.
        -13    1    3    3    0    0  0.53205704914E+02 -0.22938150918E+02 -0.46906855115E+02  0.74547024486E+02  0.00000000000E+00 0.  1.
          4    1    6    6  502    0  0.20261509035E+02  0.25461078120E+02 -0.90976541074E+02  0.96620527184E+02  0.00000000000E+00 0. -1.
          3    1    5    5  503    0 -0.10508305756E+03  0.23376897651E+02  0.79226498057E+02  0.13366288312E+03  0.00000000000E+00 0. -1.
         -4    1    5    5    0  503 -0.56237443825E+03 -0.35898785513E+02  0.53292724947E+03  0.77560633367E+03  0.00000000000E+00 0.  1.
         -3    1    6    6    0  502  0.10143473836E+03 -0.14077917181E+02 -0.90000603703E+02  0.13633525797E+03  0.00000000000E+00 0.  1.
<mgrwt>
<rscale>  0 0.17517671E+04</rscale>
<asrwt>0</asrwt>
<pdfrwt beam="1">  1        2 0.12307952E+00 0.17517671E+04</pdfrwt>
<pdfrwt beam="2">  1       -2 0.14752997E+00 0.17517671E+04</pdfrwt>
<totfact> 0.10216239E+01</totfact>
</mgrwt>
</event>
<event>
12    1  0.1477245E-007  0.3234586E+04  0.7818608E-02  0.8179742E-01
          2   -1    0    0  501    0  0.00000000000E+00  0.00000000000E+00  0.30842285832E+04  0.30842285832E+04  0.00000000000E+00 0. -1.
         -2   -1    0    0    0  501 -0.00000000000E+00 -0.00000000000E+00 -0.84806825855E+03  0.84806825855E+03  0.00000000000E+00 0.  1.
         23    2    1    2    0    0  0.13408934793E+04 -0.43764852293E+03  0.45924249976E+03  0.14861485814E+04  0.90566992563E+02 0.  0.
        254    2    1    2    0    0 -0.13408934793E+04  0.43764852293E+03  0.17769178249E+04  0.24461482603E+04  0.91469820309E+03 0.  0.
        -24    2    4    4    0    0 -0.13080723421E+04  0.56014994844E+03  0.17977089064E+04  0.22940894523E+04  0.79169981469E+02 0.  0.
         24    2    4    4    0    0 -0.32821137120E+02 -0.12250142551E+03 -0.20791081513E+02  0.15205880803E+03  0.81275984981E+02 0.  0.
         13    1    3    3    0    0  0.16292699959E+03 -0.27443568065E+02  0.37412516189E+02  0.16940499695E+03  0.00000000000E+00 0. -1.
        -13    1    3    3    0    0  0.11779664797E+04 -0.41020495486E+03  0.42182998358E+03  0.13167435845E+04  0.00000000000E+00 0.  1.
          4    1    6    6  502    0 -0.56322686579E+02 -0.94755486502E+02 -0.30596510750E+02  0.11439839910E+03  0.00000000000E+00 0. -1.
          1    1    5    5  503    0 -0.10337724186E+04  0.46070184289E+03  0.14720761698E+04  0.18568629058E+04  0.00000000000E+00 0. -1.
         -2    1    5    5    0  503 -0.27429992357E+03  0.99448105544E+02  0.32563273661E+03  0.43722654645E+03  0.00000000000E+00 0.  1.
         -3    1    6    6    0  502  0.23501549459E+02 -0.27745939010E+02  0.98054292369E+01  0.37660408933E+02  0.00000000000E+00 0.  1.
<mgrwt>
<rscale>  0 0.32345858E+04</rscale>
<asrwt>0</asrwt>
<pdfrwt beam="1">  1        2 0.47449670E+00 0.32345858E+04</pdfrwt>
<pdfrwt beam="2">  1       -2 0.13047204E+00 0.32345858E+04</pdfrwt>
<totfact> 0.55604666E-01</totfact>
</mgrwt>
</event>
<event>
12    1  0.1477245E-007  0.1599524E+04  0.7818608E-02  0.8820841E-01
         -1   -1    0    0    0  501 -0.00000000000E+00  0.00000000000E+00  0.52767534532E+03  0.52767534532E+03  0.00000000000E+00 0.  1.
          1   -1    0    0  501    0  0.00000000000E+00 -0.00000000000E+00 -0.12121450733E+04  0.12121450733E+04  0.00000000000E+00 0. -1.
         23    2    1    2    0    0  0.42635984695E+03  0.32848758595E+03 -0.28872233303E+03  0.61688798952E+03  0.86622126508E+02 0.  0.
        254    2    1    2    0    0 -0.42635984695E+03 -0.32848758595E+03 -0.39574739496E+03  0.11229324291E+04  0.90259316778E+03 0.  0.
        -24    2    4    4    0    0 -0.40677634193E+02 -0.29066944057E+03  0.23029710759E+03  0.38199473766E+03  0.82096456869E+02 0.  0.
         24    2    4    4    0    0 -0.38568221276E+03 -0.37818145380E+02 -0.62604450255E+03  0.74093769146E+03  0.82921421177E+02 0.  0.
         11    1    3    3    0    0  0.12551055599E+03  0.74244333184E+02 -0.11801385287E+03  0.18759634896E+03  0.00000000000E+00 0.  1.
        -11    1    3    3    0    0  0.30084929096E+03  0.25424325277E+03 -0.17070848016E+03  0.42929164055E+03  0.00000000000E+00 0. -1.
          2    1    6    6  502    0 -0.21289040561E+03 -0.61657015256E+02 -0.33758487042E+03  0.40384088088E+03  0.00000000000E+00 0. -1.
          3    1    5    5  503    0  0.16972998046E+01 -0.17616151039E+03  0.17375847443E+03  0.24744244989E+03  0.00000000000E+00 0. -1.
         -4    1    5    5    0  503 -0.42374933998E+02 -0.11450793018E+03  0.56538633159E+02  0.13455228777E+03  0.00000000000E+00 0.  1.
         -3    1    6    6    0  502 -0.17279180715E+03  0.23838869876E+02 -0.28845963212E+03  0.33709681058E+03  0.00000000000E+00 0.  1.
<mgrwt>
<rscale>  0 0.15995238E+04</rscale>
<asrwt>0</asrwt>
<pdfrwt beam="1">  1        1 0.18648386E+00 0.15995238E+04</pdfrwt>
<pdfrwt beam="2">  1       -1 0.81180822E-01 0.15995238E+04</pdfrwt>
<totfact> 0.15189010E+01</totfact>
</mgrwt>
</event>
<event>
12    1  0.1477245E-007  0.1669932E+04  0.7818608E-02  0.8778701E-01
         -1   -1    0    0    0  501 -0.00000000000E+00  0.00000000000E+00  0.81365057531E+03  0.81365057531E+03  0.00000000000E+00 0.  1.
          1   -1    0    0  501    0  0.00000000000E+00 -0.00000000000E+00 -0.85684003416E+03  0.85684003416E+03  0.00000000000E+00 0. -1.
         23    2    1    2    0    0 -0.23912974818E+03  0.44132400851E+03  0.29341081555E+03  0.59000574193E+03  0.10033420092E+03 0.  0.
        254    2    1    2    0    0  0.23912974818E+03 -0.44132400851E+03 -0.33660027440E+03  0.10804848675E+04  0.89565500463E+03 0.  0.
        -24    2    4    4    0    0  0.46487905849E+03 -0.58153971065E+03 -0.23309554067E+03  0.78450743741E+03  0.82567634035E+02 0.  0.
         24    2    4    4    0    0 -0.22574931031E+03  0.14021570214E+03 -0.10350473373E+03  0.29597743013E+03  0.79159427802E+02 0.  0.
         11    1    3    3    0    0 -0.12701070026E+03  0.24112377840E+03  0.21631244202E+03  0.34794175814E+03  0.00000000000E+00 0. -1.
        -11    1    3    3    0    0 -0.11211904792E+03  0.20020023012E+03  0.77098373530E+02  0.24206398378E+03  0.00000000000E+00 0.  1.
          2    1    6    6  502    0 -0.20369635923E+02  0.13763891319E+02 -0.39360544225E+02  0.46407103050E+02  0.00000000000E+00 0. -1.
          1    1    5    5  503    0  0.24430328782E+02 -0.22353342154E+02  0.59078955415E+01  0.33636529244E+02  0.00000000000E+00 0. -1.
         -2    1    5    5    0  503  0.44044872971E+03 -0.55918636850E+03 -0.23900343621E+03  0.75087090817E+03  0.00000000000E+00 0.  1.
         -1    1    6    6    0  502 -0.20537967439E+03  0.12645181082E+03 -0.64144189505E+02  0.24957032708E+03  0.00000000000E+00 0.  1.
<mgrwt>
<rscale>  0 0.16699322E+04</rscale>
<asrwt>0</asrwt>
<pdfrwt beam="1">  1        1 0.13182155E+00 0.16699322E+04</pdfrwt>
<pdfrwt beam="2">  1       -1 0.12517701E+00 0.16699322E+04</pdfrwt>
<totfact> 0.10516625E+01</totfact>
</mgrwt>
</event>
<event>
12    1  0.1477245E-007  0.2559428E+04  0.7818608E-02  0.8382115E-01
         -2   -1    0    0    0  501 -0.00000000000E+00  0.00000000000E+00  0.10387243578E+04  0.10387243578E+04  0.00000000000E+00 0. -1.
          2   -1    0    0  501    0  0.00000000000E+00 -0.00000000000E+00 -0.15766139822E+04  0.15766139822E+04  0.00000000000E+00 0.  1.
         23    2    1    2    0    0 -0.61596931003E+03  0.55086685731E+03  0.54081524883E+03  0.99276498409E+03  0.10113701045E+03 0.  0.
        254    2    1    2    0    0  0.61596931003E+03 -0.55086685731E+03 -0.10787048732E+04  0.16225733560E+04  0.88671732057E+03 0.  0.
        -24    2    4    4    0    0  0.30432576448E+03 -0.66557101989E+03 -0.10461486220E+04  0.12791877741E+04  0.79343988986E+02 0.  0.
         24    2    4    4    0    0  0.31164354555E+03  0.11470416258E+03 -0.32556251235E+02  0.34338558190E+03  0.81086398158E+02 0.  0.
         13    1    3    3    0    0 -0.46378073238E+03  0.35287081604E+03  0.38295072035E+03  0.69732462652E+03  0.00000000000E+00 0. -1.
        -13    1    3    3    0    0 -0.15218857765E+03  0.19799604127E+03  0.15786452847E+03  0.29544035756E+03  0.00000000000E+00 0.  1.
          2    1    6    6  502    0  0.31386789190E+03  0.11527752379E+03 -0.38914746033E+02  0.33662489290E+03  0.00000000000E+00 0. -1.
          3    1    5    5  503    0  0.25235924457E+03 -0.60488247389E+03 -0.95041230801E+03  0.11544919016E+04  0.00000000000E+00 0. -1.
         -4    1    5    5    0  503  0.51966519910E+02 -0.60688545999E+02 -0.95736313980E+02  0.12469587251E+03  0.00000000000E+00 0.  1.
         -1    1    6    6    0  502 -0.22243463521E+01 -0.57336120121E+00  0.63584947978E+01  0.67606890074E+01  0.00000000000E+00 0.  1.
<mgrwt>
<rscale>  0 0.25594276E+04</rscale>
<asrwt>0</asrwt>
<pdfrwt beam="1">  1        2 0.24255600E+00 0.25594276E+04</pdfrwt>
<pdfrwt beam="2">  1       -2 0.15980375E+00 0.25594276E+04</pdfrwt>
<totfact> 0.25785586E+00</totfact>
</mgrwt>
</event>
<event>
12    1  0.1477245E-007  0.1643839E+04  0.7818608E-02  0.8794060E-01
          2   -1    0    0  501    0  0.00000000000E+00  0.00000000000E+00  0.14142575059E+04  0.14142575059E+04  0.00000000000E+00 0. -1.
         -2   -1    0    0    0  501 -0.00000000000E+00 -0.00000000000E+00 -0.47767222882E+03  0.47767222882E+03  0.00000000000E+00 0.  1.
         23    2    1    2    0    0  0.50552327916E+02 -0.21563978437E+03  0.93288781136E+03  0.96326535107E+03  0.92435996926E+02 0.  0.
        254    2    1    2    0    0 -0.50552327916E+02  0.21563978437E+03  0.36974657081E+01  0.92866438363E+03  0.90185797757E+03 0.  0.
        -24    2    4    4    0    0  0.47278796522E+02 -0.54448137999E+02  0.41062625608E+03  0.42457604052E+03  0.80318165254E+02 0.  0.
         24    2    4    4    0    0 -0.97831124438E+02  0.27008792237E+03 -0.40692879037E+03  0.50408834311E+03  0.77431275997E+02 0.  0.
         13    1    3    3    0    0  0.82558183367E+01 -0.36916983685E+02  0.35220203359E+03  0.35422774410E+03  0.00000000000E+00 0.  1.
        -13    1    3    3    0    0  0.42296509579E+02 -0.17872280069E+03  0.58068577777E+03  0.60903760698E+03  0.00000000000E+00 0. -1.
          2    1    6    6  502    0  0.65105972021E+01  0.54694032111E+02 -0.50288153831E+02  0.74583667382E+02  0.00000000000E+00 0. -1.
          1    1    5    5  503    0 -0.37108784609E+01 -0.52747308377E+02  0.15116547716E+03  0.16014696577E+03  0.00000000000E+00 0. -1.
         -2    1    5    5    0  503  0.50989674983E+02 -0.17008296219E+01  0.25946077892E+03  0.26442907475E+03  0.00000000000E+00 0.  1.
         -1    1    6    6    0  502 -0.10434172164E+03  0.21539389026E+03 -0.35664063654E+03  0.42950467572E+03  0.00000000000E+00 0.  1.
<mgrwt>
<rscale>  0 0.16438388E+04</rscale>
<asrwt>0</asrwt>
<pdfrwt beam="1">  1        2 0.21757808E+00 0.16438388E+04</pdfrwt>
<pdfrwt beam="2">  1       -2 0.73488036E-01 0.16438388E+04</pdfrwt>
<totfact> 0.22671841E+01</totfact>
</mgrwt>
</event>
<event>
12    1  0.1477245E-007  0.1700401E+04  0.7818608E-02  0.8761136E-01
          3   -1    0    0  501    0  0.00000000000E+00  0.00000000000E+00  0.88382303342E+03  0.88382303342E+03  0.00000000000E+00 0. -1.
         -3   -1    0    0    0  501 -0.00000000000E+00 -0.00000000000E+00 -0.81785726709E+03  0.81785726709E+03  0.00000000000E+00 0.  1.
         23    2    1    2    0    0 -0.54088967119E+03  0.48266104213E+02  0.30614061050E+03  0.62989812844E+03  0.90323449868E+02 0.  0.
        254    2    1    2    0    0  0.54088967119E+03 -0.48266104213E+02 -0.24017484417E+03  0.10717821721E+04  0.89226779354E+03 0.  0.
        -24    2    4    4    0    0 -0.59140349444E+02  0.31972085477E+03 -0.99428410442E+02  0.34950636559E+03  0.80930123395E+02 0.  0.
         24    2    4    4    0    0  0.60003002063E+03 -0.36798695899E+03 -0.14074643372E+03  0.72227580649E+03  0.80139593125E+02 0.  0.
         11    1    3    3    0    0 -0.26121801207E+03  0.21837830698E+02  0.96298735418E+02  0.27925828031E+03  0.00000000000E+00 0.  1.
        -11    1    3    3    0    0 -0.27967165912E+03  0.26428273515E+02  0.20984187508E+03  0.35063984813E+03  0.00000000000E+00 0. -1.
          2    1    6    6  502    0  0.36441275128E+03 -0.21772565535E+03 -0.45018294637E+02  0.42688143687E+03  0.00000000000E+00 0. -1.
          3    1    5    5  503    0 -0.19263524421E+02  0.24643946067E+03 -0.98441891816E+02  0.26607197750E+03  0.00000000000E+00 0. -1.
         -4    1    5    5    0  503 -0.39876825023E+02  0.73281394103E+02 -0.98651862618E+00  0.83434388082E+02  0.00000000000E+00 0.  1.
         -1    1    6    6    0  502  0.23561726935E+03 -0.15026130364E+03 -0.95728139088E+02  0.29539436961E+03  0.00000000000E+00 0.  1.
<mgrwt>
<rscale>  0 0.17004012E+04</rscale>
<asrwt>0</asrwt>
<pdfrwt beam="1">  1        3 0.13597277E+00 0.17004012E+04</pdfrwt>
<pdfrwt beam="2">  1       -3 0.12582419E+00 0.17004012E+04</pdfrwt>
<totfact> 0.52103530E-01</totfact>
</mgrwt>
</event>
<event>
12    1  0.1477245E-007  0.1240562E+04  0.7818608E-02  0.9078076E-01
         -1   -1    0    0    0  501 -0.00000000000E+00  0.00000000000E+00  0.17645049873E+03  0.17645049873E+03  0.00000000000E+00 0.  1.
          1   -1    0    0  501    0  0.00000000000E+00 -0.00000000000E+00 -0.21804881375E+04  0.21804881375E+04  0.00000000000E+00 0. -1.
         23    2    1    2    0    0  0.25742076750E+03  0.18273770317E+01 -0.25111514751E+03  0.37101363362E+03  0.91233262462E+02 0.  0.
        254    2    1    2    0    0 -0.25742076750E+03 -0.18273770317E+01 -0.17529224913E+04  0.19859250027E+04  0.89715777030E+03 0.  0.
        -24    2    4    4    0    0  0.36662923591E+02  0.36563080251E+03 -0.11893764550E+04  0.12475608002E+04  0.82228612788E+02 0.  0.
         24    2    4    4    0    0 -0.29408369109E+03 -0.36745817954E+03 -0.56354603626E+03  0.73836420242E+03  0.78018134814E+02 0.  0.
         13    1    3    3    0    0  0.35428993749E+02 -0.32175938339E+02 -0.54459408184E+02  0.72500563762E+02  0.00000000000E+00 0. -1.
        -13    1    3    3    0    0  0.22199177375E+03  0.34003315370E+02 -0.19665573933E+03  0.29851306986E+03  0.00000000000E+00 0.  1.
          2    1    6    6  502    0 -0.15370915212E+03 -0.20411860118E+03 -0.24616050549E+03  0.35480403219E+03  0.00000000000E+00 0. -1.
          3    1    5    5  503    0  0.18487955688E+02  0.54697902886E+02 -0.11117530484E+03  0.12527415333E+03  0.00000000000E+00 0. -1.
         -4    1    5    5    0  503  0.18174967904E+02  0.31093289962E+03 -0.10782011502E+04  0.11222866469E+04  0.00000000000E+00 0.  1.
         -1    1    6    6    0  502 -0.14037453897E+03 -0.16333957836E+03 -0.31738553077E+03  0.38356017023E+03  0.00000000000E+00 0.  1.
<mgrwt>
<rscale>  0 0.12405615E+04</rscale>
<asrwt>0</asrwt>
<pdfrwt beam="1">  1        1 0.33545970E+00 0.12405615E+04</pdfrwt>
<pdfrwt beam="2">  1       -1 0.27146231E-01 0.12405615E+04</pdfrwt>
<totfact> 0.27010049E+01</totfact>
</mgrwt>
</event>
<event>
12    1  0.1477245E-007  0.1953654E+04  0.7818608E-02  0.8628601E-01
          1   -1    0    0  501    0  0.00000000000E+00  0.00000000000E+00  0.65924395045E+03  0.65924395045E+03  0.00000000000E+00 0. -1.
         -1   -1    0    0    0  501 -0.00000000000E+00 -0.00000000000E+00 -0.14474023251E+04  0.14474023251E+04  0.00000000000E+00 0.  1.
         23    2    1    2    0    0  0.44341133411E+03 -0.23978178865E+03  0.31392342128E+03  0.60048556885E+03  0.89028571761E+02 0.  0.
        254    2    1    2    0    0 -0.44341133411E+03  0.23978178865E+03 -0.11020817959E+04  0.15061607067E+04  0.89433040431E+03 0.  0.
        -24    2    4    4    0    0 -0.67535450814E+03  0.34415473408E+02 -0.58194168116E+03  0.89568616730E+03  0.79432068754E+02 0.  0.
         24    2    4    4    0    0  0.23194317403E+03  0.20536631524E+03 -0.52014011476E+03  0.61047453938E+03  0.78488628679E+02 0.  0.
         11    1    3    3    0    0  0.10457939532E+03 -0.73865881257E+02  0.12345032680E+03  0.17785668817E+03  0.00000000000E+00 0.  1.
        -11    1    3    3    0    0  0.33883193879E+03 -0.16591590739E+03  0.19047309448E+03  0.42262888069E+03  0.00000000000E+00 0. -1.
          4    1    6    6  502    0  0.17693642108E+03  0.15032972769E+03 -0.31691588220E+03  0.39286282660E+03  0.00000000000E+00 0. -1.
          1    1    5    5  503    0 -0.63894232207E+03  0.14180319382E+02 -0.55032701580E+03  0.84339089200E+03  0.00000000000E+00 0. -1.
         -2    1    5    5    0  503 -0.36412186071E+02  0.20235154026E+02 -0.31614665360E+02  0.52295275301E+02  0.00000000000E+00 0.  1.
         -3    1    6    6    0  502  0.55006752949E+02  0.55036587548E+02 -0.20322423256E+03  0.21761171278E+03  0.00000000000E+00 0.  1.
<mgrwt>
<rscale>  0 0.19536542E+04</rscale>
<asrwt>0</asrwt>
<pdfrwt beam="1">  1        1 0.10142215E+00 0.19536542E+04</pdfrwt>
<pdfrwt beam="2">  1       -1 0.22267728E+00 0.19536542E+04</pdfrwt>
<totfact> 0.29327133E+00</totfact>
</mgrwt>
</event>
<event>
12    1  0.1582132E-007  0.2271941E+04  0.7818608E-02  0.8489067E-01
          1   -1    0    0  501    0  0.00000000000E+00  0.00000000000E+00  0.96591379536E+03  0.96591379536E+03  0.00000000000E+00 0. -1.
         -1   -1    0    0    0  501 -0.00000000000E+00 -0.00000000000E+00 -0.13359668924E+04  0.13359668924E+04  0.00000000000E+00 0.  1.
         23    2    1    2    0    0 -0.41770371907E+03 -0.62700679324E+03 -0.74937921035E+03  0.10665373234E+04  0.91207157176E+02 0.  0.
        254    2    1    2    0    0  0.41770371907E+03  0.62700679324E+03  0.37932611327E+03  0.12353433644E+04  0.90253587860E+03 0.  0.
        -24    2    4    4    0    0 -0.25770154202E+03  0.31560232892E+02  0.10123577554E+03  0.28966269503E+03  0.79054801154E+02 0.  0.
         24    2    4    4    0    0  0.67540526108E+03  0.59544656035E+03  0.27809033773E+03  0.94568066940E+03  0.79049475747E+02 0.  0.
         13    1    3    3    0    0 -0.64119386558E+02 -0.73804004370E+02 -0.60856605584E+02  0.11516011999E+03  0.00000000000E+00 0. -1.
        -13    1    3    3    0    0 -0.35358433251E+03 -0.55320278887E+03 -0.68852260476E+03  0.95137720336E+03  0.00000000000E+00 0.  1.
          2    1    6    6  502    0  0.28118328717E+02  0.34259164366E+02 -0.20095027148E+01  0.44366303138E+02  0.00000000000E+00 0. -1.
          3    1    5    5  503    0 -0.44907364798E+02 -0.24727258940E+02  0.17817697197E+02  0.54273189340E+02  0.00000000000E+00 0. -1.
         -4    1    5    5    0  503 -0.21279417722E+03  0.56287491831E+02  0.83418078343E+02  0.23538950569E+03  0.00000000000E+00 0.  1.
         -1    1    6    6    0  502  0.64728693237E+03  0.56118739598E+03  0.28009984045E+03  0.90131436627E+03  0.00000000000E+00 0.  1.
<mgrwt>
<rscale>  0 0.22719409E+04</rscale>
<asrwt>0</asrwt>
<pdfrwt beam="1">  1        1 0.14860212E+00 0.22719409E+04</pdfrwt>
<pdfrwt beam="2">  1       -1 0.20553337E+00 0.22719409E+04</pdfrwt>
<totfact> 0.20110785E+00</totfact>
</mgrwt>
</event>
<event>
12    1  0.1477245E-007  0.1367577E+04  0.7818608E-02  0.8977628E-01
          2   -1    0    0  501    0  0.00000000000E+00  0.00000000000E+00  0.19986597066E+04  0.19986597066E+04  0.00000000000E+00 0.  1.
         -2   -1    0    0    0  501 -0.00000000000E+00 -0.00000000000E+00 -0.23393999201E+03  0.23393999201E+03  0.00000000000E+00 0. -1.
         23    2    1    2    0    0 -0.54615690441E+02  0.79734746153E+02  0.11354397387E+04  0.11431269273E+04  0.90417190452E+02 0.  0.
        254    2    1    2    0    0  0.54615690441E+02 -0.79734746153E+02  0.62927997587E+03  0.10894727713E+04  0.88409113101E+03 0.  0.
        -24    2    4    4    0    0  0.16705123218E+03  0.28749149550E+03 -0.69685993486E+01  0.34209856185E+03  0.80158533445E+02 0.  0.
         24    2    4    4    0    0 -0.11243554174E+03 -0.36722624166E+03  0.63624857522E+03  0.74737420943E+03  0.79114447735E+02 0.  0.
         13    1    3    3    0    0  0.43166480307E+01 -0.17319094864E+02  0.11287479416E+03  0.11427731032E+03  0.00000000000E+00 0. -1.
        -13    1    3    3    0    0 -0.58932338472E+02  0.97053841017E+02  0.10225649446E+04  0.10288496170E+04  0.00000000000E+00 0.  1.
          4    1    6    6  502    0  0.67535257849E+01 -0.72439105226E+02  0.95327639300E+02  0.11991827588E+03  0.00000000000E+00 0. -1.
          3    1    5    5  503    0  0.18705623340E+02  0.96685792980E+02  0.14147036265E+02  0.99489605205E+02  0.00000000000E+00 0. -1.
         -4    1    5    5    0  503  0.14834560884E+03  0.19080570252E+03 -0.21115635613E+02  0.24260895665E+03  0.00000000000E+00 0.  1.
         -3    1    6    6    0  502 -0.11918906752E+03 -0.29478713643E+03  0.54092093592E+03  0.62745593354E+03  0.00000000000E+00 0.  1.
<mgrwt>
<rscale>  0 0.13675766E+04</rscale>
<asrwt>0</asrwt>
<pdfrwt beam="1">  1        2 0.30748610E+00 0.13675766E+04</pdfrwt>
<pdfrwt beam="2">  1       -2 0.35990769E-01 0.13675766E+04</pdfrwt>
<totfact> 0.47440831E+01</totfact>
</mgrwt>
</event>
<event>
12    1  0.1477245E-007  0.2017692E+04  0.7818608E-02  0.8598393E-01
         -1   -1    0    0    0  501 -0.00000000000E+00  0.00000000000E+00  0.79191235851E+03  0.79191235851E+03  0.00000000000E+00 0.  1.
          1   -1    0    0  501    0  0.00000000000E+00 -0.00000000000E+00 -0.12852058008E+04  0.12852058008E+04  0.00000000000E+00 0. -1.
         23    2    1    2    0    0  0.29946710931E+03  0.18647179909E+03 -0.95423091067E+03  0.10214083510E+04  0.90918134616E+02 0.  0.
        254    2    1    2    0    0 -0.29946710931E+03 -0.18647179909E+03  0.46093746838E+03  0.10557098083E+04  0.88182059863E+03 0.  0.
        -24    2    4    4    0    0  0.24928986456E+03  0.62976899783E+01  0.38240033864E+03  0.46349769566E+03  0.80093679036E+02 0.  0.
         24    2    4    4    0    0 -0.54875697387E+03 -0.19276948907E+03  0.78537129741E+02  0.59221211264E+03  0.79074732481E+02 0.  0.
         11    1    3    3    0    0  0.90630403979E+02  0.10666321606E+02 -0.23077518019E+03  0.24816289879E+03  0.00000000000E+00 0.  1.
        -11    1    3    3    0    0  0.20883670533E+03  0.17580547749E+03 -0.72345573048E+03  0.77324545221E+03  0.00000000000E+00 0. -1.
          2    1    6    6  502    0 -0.41799488932E+03 -0.12231030890E+03  0.32629563468E+02  0.43674274759E+03  0.00000000000E+00 0. -1.
          3    1    5    5  503    0  0.25194303963E+03  0.45824094377E+01  0.38449332132E+03  0.45970795929E+03  0.00000000000E+00 0. -1.
         -4    1    5    5    0  503 -0.26531750690E+01  0.17152805406E+01 -0.20929826807E+01  0.37897363736E+01  0.00000000000E+00 0.  1.
         -1    1    6    6    0  502 -0.13076208455E+03 -0.70459180174E+02  0.45907566273E+02  0.15546936504E+03  0.00000000000E+00 0.  1.
<mgrwt>
<rscale>  0 0.20176921E+04</rscale>
<asrwt>0</asrwt>
<pdfrwt beam="1">  1        1 0.19772397E+00 0.20176921E+04</pdfrwt>
<pdfrwt beam="2">  1       -1 0.12183267E+00 0.20176921E+04</pdfrwt>
<totfact> 0.51208563E+00</totfact>
</mgrwt>
</event>
<event>
12    1  0.1477245E-007  0.1360280E+04  0.7818608E-02  0.8983083E-01
         -2   -1    0    0    0  501 -0.00000000000E+00  0.00000000000E+00  0.14322126846E+03  0.14322126846E+03  0.00000000000E+00 0. -1.
          2   -1    0    0  501    0  0.00000000000E+00 -0.00000000000E+00 -0.32299001277E+04  0.32299001277E+04  0.00000000000E+00 0.  1.
         23    2    1    2    0    0  0.11217621711E+03 -0.23461993735E+02  0.15419224840E+02  0.14878364099E+03  0.93620780255E+02 0.  0.
        254    2    1    2    0    0 -0.11217621711E+03  0.23461993735E+02 -0.31020980841E+04  0.32243377552E+04  0.87189877126E+03 0.  0.
        -24    2    4    4    0    0 -0.56384894958E+02  0.48820150318E+02 -0.31178936134E+04  0.31197729063E+04  0.78484003837E+02 0.  0.
         24    2    4    4    0    0 -0.55791322155E+02 -0.25358156583E+02  0.15795529297E+02  0.10456484891E+03  0.83238219273E+02 0.  0.
         13    1    3    3    0    0 -0.10030380952E+02  0.15654014008E+02  0.80449574413E+01  0.20257789535E+02  0.00000000000E+00 0.  1.
        -13    1    3    3    0    0  0.12220659806E+03 -0.39116007744E+02  0.73742673989E+01  0.12852585145E+03  0.00000000000E+00 0. -1.
          4    1    6    6  502    0  0.14407479432E+02 -0.23691321229E+02 -0.10406760430E+02  0.29616799757E+02  0.00000000000E+00 0. -1.
          1    1    5    5  503    0 -0.45535914223E+02 -0.17194765368E+01 -0.79547455773E+03  0.79677866945E+03  0.00000000000E+00 0. -1.
         -2    1    5    5    0  503 -0.10848980734E+02  0.50539626855E+02 -0.23224190557E+04  0.23229942369E+04  0.00000000000E+00 0.  1.
         -3    1    6    6    0  502 -0.70198801587E+02 -0.16668353534E+01  0.26202289727E+02  0.74948049149E+02  0.00000000000E+00 0.  1.
<mgrwt>
<rscale>  0 0.13602800E+04</rscale>
<asrwt>0</asrwt>
<pdfrwt beam="1">  1        2 0.49690773E+00 0.13602800E+04</pdfrwt>
<pdfrwt beam="2">  1       -2 0.22034040E-01 0.13602800E+04</pdfrwt>
<totfact> 0.22083533E+01</totfact>
</mgrwt>
</event>
<event>
12    1  0.1477245E-007  0.2791146E+04  0.7818608E-02  0.8306022E-01
          2   -1    0    0  501    0  0.00000000000E+00  0.00000000000E+00  0.27322148673E+04  0.27322148673E+04  0.00000000000E+00 0. -1.
         -2   -1    0    0    0  501 -0.00000000000E+00 -0.00000000000E+00 -0.71283704221E+03  0.71283704221E+03  0.00000000000E+00 0.  1.
         23    2    1    2    0    0  0.10585866580E+04 -0.19185862190E+03  0.15831608213E+04  0.19161168412E+04  0.87693327515E+02 0.  0.
        254    2    1    2    0    0 -0.10585866580E+04  0.19185862190E+03  0.43621700380E+03  0.15289350683E+04  0.99495815257E+03 0.  0.
        -24    2    4    4    0    0 -0.10056344013E+04 -0.14473390579E+03  0.67920193997E+02  0.10213040526E+04  0.78742380169E+02 0.  0.
         24    2    4    4    0    0 -0.52952256707E+02  0.33659252769E+03  0.36829680980E+03  0.50763101575E+03  0.77124813458E+02 0.  0.
         11    1    3    3    0    0  0.11686536669E+03 -0.42243154183E+02  0.15093377848E+03  0.19550704206E+03  0.00000000000E+00 0.  1.
        -11    1    3    3    0    0  0.94172129134E+03 -0.14961546772E+03  0.14322270428E+04  0.17206097992E+04  0.00000000000E+00 0. -1.
          4    1    6    6  502    0 -0.37205005363E+01  0.22549772965E+03  0.26642399638E+03  0.34906276520E+03  0.00000000000E+00 0. -1.
          3    1    5    5  503    0 -0.80418549129E+02 -0.40638102916E+00  0.23768420395E+02  0.83858487928E+02  0.00000000000E+00 0. -1.
         -4    1    5    5    0  503 -0.92521585219E+03 -0.14432752476E+03  0.44151773602E+02  0.93744556464E+03  0.00000000000E+00 0.  1.
         -3    1    6    6    0  502 -0.49231756171E+02  0.11109479804E+03  0.10187281342E+03  0.15856825055E+03  0.00000000000E+00 0.  1.
<mgrwt>
<rscale>  0 0.27911460E+04</rscale>
<asrwt>0</asrwt>
<pdfrwt beam="1">  1        2 0.42034074E+00 0.27911460E+04</pdfrwt>
<pdfrwt beam="2">  1       -2 0.10966724E+00 0.27911460E+04</pdfrwt>
<totfact> 0.14635922E+00</totfact>
</mgrwt>
</event>
<event>
12    1  0.1477245E-007  0.1592313E+04  0.7818608E-02  0.8825285E-01
         -1   -1    0    0    0  501 -0.00000000000E+00  0.00000000000E+00  0.32348404422E+03  0.32348404422E+03  0.00000000000E+00 0.  1.
          1   -1    0    0  501    0  0.00000000000E+00 -0.00000000000E+00 -0.19594935928E+04  0.19594935928E+04  0.00000000000E+00 0. -1.
         23    2    1    2    0    0 -0.24908427549E+03 -0.57742401136E+02 -0.12248305648E+04  0.12550812143E+04  0.98192570032E+02 0.  0.
        254    2    1    2    0    0  0.24908427549E+03  0.57742401136E+02 -0.41117898376E+03  0.10278964227E+04  0.90671149653E+03 0.  0.
        -24    2    4    4    0    0 -0.12800324834E+03  0.39439368012E+03 -0.25330364794E+03  0.49241749809E+03  0.79881461335E+02 0.  0.
         24    2    4    4    0    0  0.37708752383E+03 -0.33665127898E+03 -0.15787533583E+03  0.53547892462E+03  0.79271513078E+02 0.  0.
         13    1    3    3    0    0 -0.19095784288E+03 -0.81038759991E+02 -0.10204907429E+04  0.10413613853E+04  0.00000000000E+00 0. -1.
        -13    1    3    3    0    0 -0.58126432611E+02  0.23296358855E+02 -0.20433982191E+03  0.21371982903E+03  0.00000000000E+00 0.  1.
          4    1    6    6  502    0  0.30067634187E+03 -0.24295742215E+03 -0.90301743488E+02  0.39697478058E+03  0.00000000000E+00 0. -1.
          1    1    5    5  503    0 -0.55641983590E+02  0.16666390055E+03 -0.15404351657E+03  0.23367133132E+03  0.00000000000E+00 0. -1.
         -2    1    5    5    0  503 -0.72361264748E+02  0.22772977957E+03 -0.99260131367E+02  0.25874616677E+03  0.00000000000E+00 0.  1.
         -3    1    6    6    0  502  0.76411181960E+02 -0.93693856826E+02 -0.67573592337E+02  0.13850414404E+03  0.00000000000E+00 0.  1.
<mgrwt>
<rscale>  0 0.15923127E+04</rscale>
<asrwt>0</asrwt>
<pdfrwt beam="1">  1        1 0.30146054E+00 0.15923127E+04</pdfrwt>
<pdfrwt beam="2">  1       -1 0.49766778E-01 0.15923127E+04</pdfrwt>
<totfact> 0.12349103E+01</totfact>
</mgrwt>
</event>
<event>
12    1  0.1477245E-007  0.1604413E+04  0.7818608E-02  0.8817842E-01
          2   -1    0    0  501    0  0.00000000000E+00  0.00000000000E+00  0.17874399791E+04  0.17874399791E+04  0.00000000000E+00 0. -1.
         -2   -1    0    0    0  501 -0.00000000000E+00 -0.00000000000E+00 -0.36003163920E+03  0.36003163920E+03  0.00000000000E+00 0.  1.
         23    2    1    2    0    0 -0.46034144844E+03  0.19053698580E+03  0.21534695967E+03  0.55032510295E+03  0.90911021218E+02 0.  0.
        254    2    1    2    0    0  0.46034144844E+03 -0.19053698580E+03  0.12120613803E+04  0.15971465154E+04  0.91299814345E+03 0.  0.
        -24    2    4    4    0    0 -0.66109016250E+01 -0.26281044765E+02 -0.13550985612E+03  0.15927392426E+03  0.79188790301E+02 0.  0.
         24    2    4    4    0    0  0.46695235007E+03 -0.16425594104E+03  0.13475712364E+04  0.14378725911E+04  0.80652586871E+02 0.  0.
         13    1    3    3    0    0 -0.45145271227E+03  0.19640193165E+03  0.21931028560E+03  0.53896221717E+03  0.00000000000E+00 0. -1.
        -13    1    3    3    0    0 -0.88887361782E+01 -0.58649458496E+01 -0.39633259312E+01  0.11362885773E+02  0.00000000000E+00 0.  1.
          2    1    6    6  502    0  0.11630540682E+03 -0.71139871613E+02  0.30844303267E+03  0.33723127582E+03  0.00000000000E+00 0. -1.
          1    1    5    5  503    0  0.32072725058E+01  0.15671325645E+02 -0.10564609956E+03  0.10685024753E+03  0.00000000000E+00 0. -1.
         -2    1    5    5    0  503 -0.98181741307E+01 -0.41952370410E+02 -0.29863756558E+02  0.52423676731E+02  0.00000000000E+00 0.  1.
         -1    1    6    6    0  502  0.35064694325E+03 -0.93116069426E+02  0.10391282037E+04  0.11006413153E+04  0.00000000000E+00 0.  1.
<mgrwt>
<rscale>  0 0.16044126E+04</rscale>
<asrwt>0</asrwt>
<pdfrwt beam="1">  1        2 0.27499076E+00 0.16044126E+04</pdfrwt>
<pdfrwt beam="2">  1       -2 0.55389484E-01 0.16044126E+04</pdfrwt>
<totfact> 0.25749483E+01</totfact>
</mgrwt>
</event>
<event>
12    1  0.1477245E-007  0.1499300E+04  0.7818608E-02  0.8884918E-01
          2   -1    0    0  501    0  0.00000000000E+00  0.00000000000E+00  0.23155048616E+04  0.23155048616E+04  0.00000000000E+00 0. -1.
         -2   -1    0    0    0  501 -0.00000000000E+00 -0.00000000000E+00 -0.24270097244E+03  0.24270097244E+03  0.00000000000E+00 0.  1.
         23    2    1    2    0    0 -0.17025861300E+03 -0.74572736390E+02 -0.77482713185E+02  0.22126807019E+03  0.91689147287E+02 0.  0.
        254    2    1    2    0    0  0.17025861300E+03  0.74572736390E+02  0.21502866024E+04  0.23369377639E+04  0.89610074857E+03 0.  0.
        -24    2    4    4    0    0 -0.10277499362E+03 -0.21660941049E+03  0.17424062629E+04  0.17606480022E+04  0.80121574228E+02 0.  0.
         24    2    4    4    0    0  0.27303360662E+03  0.29118214688E+03  0.40788033947E+03  0.57628976167E+03  0.80057011388E+02 0.  0.
         13    1    3    3    0    0 -0.16472344520E+03 -0.36871304349E+02 -0.68139279475E+02  0.18203369987E+03  0.00000000000E+00 0.  1.
        -13    1    3    3    0    0 -0.55351677983E+01 -0.37701432041E+02 -0.93434337101E+01  0.39234370315E+02  0.00000000000E+00 0. -1.
          4    1    6    6  502    0  0.53326588404E+02  0.99452118984E+02  0.85395635469E+02  0.14151630139E+03  0.00000000000E+00 0. -1.
          1    1    5    5  503    0 -0.31736321150E+02 -0.68500881528E+02  0.84224713507E+03  0.84562391249E+03  0.00000000000E+00 0. -1.
         -2    1    5    5    0  503 -0.71038672472E+02 -0.14810852896E+03  0.90015912785E+03  0.91502408973E+03  0.00000000000E+00 0.  1.
         -3    1    6    6    0  502  0.21970701822E+03  0.19173002790E+03  0.32248470400E+03  0.43477346028E+03  0.00000000000E+00 0.  1.
<mgrwt>
<rscale>  0 0.14993002E+04</rscale>
<asrwt>0</asrwt>
<pdfrwt beam="1">  1        2 0.35623150E+00 0.14993002E+04</pdfrwt>
<pdfrwt beam="2">  1       -2 0.37338613E-01 0.14993002E+04</pdfrwt>
<totfact> 0.29080869E+01</totfact>
</mgrwt>
</event>
<event>
12    1  0.1477245E-007  0.1482738E+04  0.7818608E-02  0.8896014E-01
         -2   -1    0    0    0  501 -0.00000000000E+00  0.00000000000E+00  0.37366163617E+03  0.37366163617E+03  0.00000000000E+00 0.  1.
          2   -1    0    0  501    0  0.00000000000E+00 -0.00000000000E+00 -0.14709240904E+04  0.14709240904E+04  0.00000000000E+00 0. -1.
         23    2    1    2    0    0 -0.38642244573E+03  0.21249181106E+03 -0.53893791462E+03  0.70196140670E+03  0.88434520138E+02 0.  0.
        254    2    1    2    0    0  0.38642244573E+03 -0.21249181106E+03 -0.55832453961E+03  0.11426243199E+04  0.89408554875E+03 0.  0.
        -24    2    4    4    0    0  0.43128369439E+03 -0.17444061942E+02 -0.74062742590E+03  0.86105944086E+03  0.81144663133E+02 0.  0.
         24    2    4    4    0    0 -0.44861248661E+02 -0.19504774911E+03  0.18230288629E+03  0.28156487901E+03  0.77383994947E+02 0.  0.
         11    1    3    3    0    0 -0.31223026633E+03  0.17044824128E+03 -0.48345435843E+03  0.60022367402E+03  0.00000000000E+00 0. -1.
        -11    1    3    3    0    0 -0.74192179402E+02  0.42043569774E+02 -0.55483556190E+02  0.10173773268E+03  0.00000000000E+00 0.  1.
          2    1    6    6  502    0  0.79450259383E+01 -0.12203275962E+03  0.12446991737E+03  0.17449320384E+03  0.00000000000E+00 0. -1.
          1    1    5    5  503    0  0.11260933420E+03 -0.19583089090E+02 -0.26431441395E+03  0.28796956254E+03  0.00000000000E+00 0. -1.
         -2    1    5    5    0  503  0.31867436020E+03  0.21390271485E+01 -0.47631301195E+03  0.57308987832E+03  0.00000000000E+00 0.  1.
         -1    1    6    6    0  502 -0.52806274599E+02 -0.73014989492E+02  0.57832968921E+02  0.10707167516E+03  0.00000000000E+00 0.  1.
<mgrwt>
<rscale>  0 0.14827379E+04</rscale>
<asrwt>0</asrwt>
<pdfrwt beam="1">  1        2 0.22629602E+00 0.14827379E+04</pdfrwt>
<pdfrwt beam="2">  1       -2 0.57486404E-01 0.14827379E+04</pdfrwt>
<totfact> 0.36148094E+01</totfact>
</mgrwt>
</event>
<event>
12    1  0.1477245E-007  0.1645586E+04  0.7818608E-02  0.8793022E-01
         -1   -1    0    0    0  501 -0.00000000000E+00  0.00000000000E+00  0.39992181194E+03  0.39992181194E+03  0.00000000000E+00 0.  1.
          1   -1    0    0  501    0  0.00000000000E+00 -0.00000000000E+00 -0.16928024154E+04  0.16928024154E+04  0.00000000000E+00 0. -1.
         23    2    1    2    0    0 -0.21530703811E+03 -0.30779183472E+03  0.97203770238E+02  0.39883977816E+03  0.92366993637E+02 0.  0.
        254    2    1    2    0    0  0.21530703811E+03  0.30779183472E+03 -0.13900843737E+04  0.16938844492E+04  0.89208577335E+03 0.  0.
        -24    2    4    4    0    0  0.28084766206E+03  0.44331722009E+03 -0.14244231166E+04  0.15200578860E+04  0.78671434419E+02 0.  0.
         24    2    4    4    0    0 -0.65540623956E+02 -0.13552538537E+03  0.34338742916E+02  0.17382656323E+03  0.79836215786E+02 0.  0.
         13    1    3    3    0    0 -0.22056411231E+03 -0.29891496971E+03  0.10485384438E+03  0.38599613397E+03  0.00000000000E+00 0.  1.
        -13    1    3    3    0    0  0.52570742080E+01 -0.88768650113E+01 -0.76500741430E+01  0.12843644189E+02  0.00000000000E+00 0. -1.
          4    1    6    6  502    0 -0.13280871571E+02 -0.92178431130E+02 -0.85435616376E+01  0.93521319284E+02  0.00000000000E+00 0. -1.
          1    1    5    5  503    0  0.26722109346E+03  0.42649379378E+03 -0.13050020083E+04  0.13986902125E+04  0.00000000000E+00 0. -1.
         -2    1    5    5    0  503  0.13626568600E+02  0.16823426314E+02 -0.11942110833E+03  0.12136767345E+03  0.00000000000E+00 0.  1.
         -3    1    6    6    0  502 -0.52259752385E+02 -0.43346954238E+02  0.42882304553E+02  0.80305243944E+02  0.00000000000E+00 0.  1.
<mgrwt>
<rscale>  0 0.16455864E+04</rscale>
<asrwt>0</asrwt>
<pdfrwt beam="1">  1        1 0.26043114E+00 0.16455864E+04</pdfrwt>
<pdfrwt beam="2">  1       -1 0.61526433E-01 0.16455864E+04</pdfrwt>
<totfact> 0.12345720E+01</totfact>
</mgrwt>
</event>
<event>
12    1  0.1477245E-007  0.1392758E+04  0.7818608E-02  0.8959077E-01
         -2   -1    0    0    0  501 -0.00000000000E+00  0.00000000000E+00  0.27618758797E+03  0.27618758797E+03  0.00000000000E+00 0.  1.
          2   -1    0    0  501    0  0.00000000000E+00 -0.00000000000E+00 -0.17558488046E+04  0.17558488046E+04  0.00000000000E+00 0. -1.
         23    2    1    2    0    0 -0.16463399326E+03 -0.17545261544E+03  0.32704501045E+02  0.25686432681E+03  0.83795739737E+02 0.  0.
        254    2    1    2    0    0  0.16463399326E+03  0.17545261544E+03 -0.15123657177E+04  0.17751720658E+04  0.89782950889E+03 0.  0.
        -24    2    4    4    0    0 -0.14944205090E+03  0.38751153845E+03 -0.35210130652E+03  0.55190159721E+03  0.90121717383E+02 0.  0.
         24    2    4    4    0    0  0.31407604415E+03 -0.21205892301E+03 -0.11602644112E+04  0.12232704686E+04  0.81020905125E+02 0.  0.
         11    1    3    3    0    0 -0.14925086071E+03 -0.16272417256E+03  0.26976341853E+01  0.22082176747E+03  0.00000000000E+00 0.  1.
        -11    1    3    3    0    0 -0.15383132549E+02 -0.12728442881E+02  0.30006866860E+02  0.36042559342E+02  0.00000000000E+00 0. -1.
          2    1    6    6  502    0  0.27817678310E+03 -0.21032171834E+03 -0.10012500615E+04  0.10602448932E+04  0.00000000000E+00 0. -1.
          1    1    5    5  503    0 -0.99392078869E+02  0.22531831039E+03 -0.26260949535E+03  0.36001510161E+03  0.00000000000E+00 0. -1.
         -2    1    5    5    0  503 -0.50049972030E+02  0.16219322806E+03 -0.89491811170E+02  0.19188649560E+03  0.00000000000E+00 0.  1.
         -1    1    6    6    0  502  0.35899261059E+02 -0.17372046712E+01 -0.15901434973E+03  0.16302557543E+03  0.00000000000E+00 0.  1.
<mgrwt>
<rscale>  0 0.13927579E+04</rscale>
<asrwt>0</asrwt>
<pdfrwt beam="1">  1        2 0.27013059E+00 0.13927579E+04</pdfrwt>
<pdfrwt beam="2">  1       -2 0.42490398E-01 0.13927579E+04</pdfrwt>
<totfact> 0.46679178E+01</totfact>
</mgrwt>
</event>
<event>
12    1  0.1477245E-007  0.1817271E+04  0.7818608E-02  0.8697169E-01
         -1   -1    0    0    0  501 -0.00000000000E+00  0.00000000000E+00  0.15269961296E+04  0.15269961296E+04  0.00000000000E+00 0.  1.
          1   -1    0    0  501    0  0.00000000000E+00 -0.00000000000E+00 -0.54068124861E+03  0.54068124861E+03  0.00000000000E+00 0. -1.
         23    2    1    2    0    0  0.57147242049E+03 -0.33785468466E+03  0.22258717540E+03  0.70722188463E+03  0.99454653601E+02 0.  0.
        254    2    1    2    0    0 -0.57147242049E+03  0.33785468466E+03  0.76372770559E+03  0.13604554936E+04  0.90930337424E+03 0.  0.
        -24    2    4    4    0    0 -0.45267405037E+03  0.53538607404E+03  0.18134928527E+03  0.72850358506E+03  0.79232985705E+02 0.  0.
         24    2    4    4    0    0 -0.11879837012E+03 -0.19753138938E+03  0.58237842032E+03  0.63195190853E+03  0.84064782746E+02 0.  0.
         11    1    3    3    0    0  0.37112000836E+03 -0.17096265648E+03  0.10967514617E+03  0.42306846751E+03  0.00000000000E+00 0.  1.
        -11    1    3    3    0    0  0.20035241213E+03 -0.16689202818E+03  0.11291202922E+03  0.28415341712E+03  0.00000000000E+00 0. -1.
          2    1    6    6  502    0 -0.11714115955E+03 -0.19753742617E+03  0.58521594974E+03  0.62866588410E+03  0.00000000000E+00 0. -1.
          3    1    5    5  503    0 -0.17120936511E+03  0.16198160670E+03  0.33364221851E+02  0.23804171675E+03  0.00000000000E+00 0. -1.
         -4    1    5    5    0  503 -0.28146468526E+03  0.37340446734E+03  0.14798506342E+03  0.49046186831E+03  0.00000000000E+00 0.  1.
         -1    1    6    6    0  502 -0.16572105668E+01  0.60367945642E-02 -0.28375294195E+01  0.32860244236E+01  0.00000000000E+00 0.  1.
<mgrwt>
<rscale>  0 0.18172707E+04</rscale>
<asrwt>0</asrwt>
<pdfrwt beam="1">  1        1 0.83181731E-01 0.18172707E+04</pdfrwt>
<pdfrwt beam="2">  1       -1 0.23492248E+00 0.18172707E+04</pdfrwt>
<totfact> 0.32785307E+00</totfact>
</mgrwt>
</event>
<event>
12    1  0.1477245E-007  0.1500577E+04  0.7818608E-02  0.8884069E-01
          2   -1    0    0  501    0  0.00000000000E+00  0.00000000000E+00  0.19587119586E+04  0.19587119586E+04  0.00000000000E+00 0. -1.
         -2   -1    0    0    0  501 -0.00000000000E+00 -0.00000000000E+00 -0.28739947801E+03  0.28739947801E+03  0.00000000000E+00 0.  1.
         23    2    1    2    0    0  0.29046771181E+03 -0.19523026929E+03  0.10390475220E+04  0.11002961310E+04  0.92441728550E+02 0.  0.
        254    2    1    2    0    0 -0.29046771181E+03  0.19523026929E+03  0.63226495860E+03  0.11458153056E+04  0.88918355087E+03 0.  0.
        -24    2    4    4    0    0 -0.47033630638E+02 -0.22085524703E+03 -0.10469739164E+03  0.26151963783E+03  0.80260666577E+02 0.  0.
         24    2    4    4    0    0 -0.24343408117E+03  0.41608551632E+03  0.73696235024E+03  0.88429566782E+03  0.80486108727E+02 0.  0.
         11    1    3    3    0    0  0.93003755505E+01 -0.22163736219E+02  0.15017844282E+03  0.15208975270E+03  0.00000000000E+00 0.  1.
        -11    1    3    3    0    0  0.28116733626E+03 -0.17306653307E+03  0.88886907919E+03  0.94820637827E+03  0.00000000000E+00 0. -1.
          2    1    6    6  502    0 -0.68392954644E+01  0.60200800998E+02  0.75729785792E+02  0.96984085598E+02  0.00000000000E+00 0. -1.
          1    1    5    5  503    0 -0.15083187401E+02 -0.12480038412E+02 -0.33885198966E+02  0.39133880588E+02  0.00000000000E+00 0. -1.
         -2    1    5    5    0  503 -0.31950443237E+02 -0.20837520862E+03 -0.70812192676E+02  0.22238575724E+03  0.00000000000E+00 0.  1.
         -1    1    6    6    0  502 -0.23659478571E+03  0.35588471532E+03  0.66123256445E+03  0.78731158222E+03  0.00000000000E+00 0.  1.
<mgrwt>
<rscale>  0 0.15005769E+04</rscale>
<asrwt>0</asrwt>
<pdfrwt beam="1">  1        2 0.30134029E+00 0.15005769E+04</pdfrwt>
<pdfrwt beam="2">  1       -2 0.44215306E-01 0.15005769E+04</pdfrwt>
<totfact> 0.33021918E+01</totfact>
</mgrwt>
</event>
<event>
12    1  0.1477245E-007  0.1309916E+04  0.7818608E-02  0.9021738E-01
          2   -1    0    0  501    0  0.00000000000E+00  0.00000000000E+00  0.37194541684E+04  0.37194541684E+04  0.00000000000E+00 0. -1.
         -2   -1    0    0    0  501 -0.00000000000E+00 -0.00000000000E+00 -0.11533144374E+03  0.11533144374E+03  0.00000000000E+00 0.  1.
         23    2    1    2    0    0 -0.19423899157E+03 -0.29655553616E+03  0.97968254859E+03  0.10458690039E+04  0.91597518353E+02 0.  0.
        254    2    1    2    0    0  0.19423899157E+03  0.29655553616E+03  0.26244401761E+04  0.27889166083E+04  0.87446877488E+03 0.  0.
        -24    2    4    4    0    0  0.41895325406E+03  0.19813657534E+03  0.24051845040E+04  0.24504240543E+04  0.69897179407E+02 0.  0.
         24    2    4    4    0    0 -0.22471426250E+03  0.98418960817E+02  0.21925567209E+03  0.33849255405E+03  0.79507029810E+02 0.  0.
         11    1    3    3    0    0 -0.65185616787E+02 -0.50472978226E+02  0.31120264966E+03  0.32193753326E+03  0.00000000000E+00 0. -1.
        -11    1    3    3    0    0 -0.12905337478E+03 -0.24608255793E+03  0.66847989892E+03  0.72393147060E+03  0.00000000000E+00 0.  1.
          4    1    6    6  502    0 -0.22473746311E+03  0.93753195542E+02  0.18998986816E+03  0.30885714983E+03  0.00000000000E+00 0. -1.
          1    1    5    5  503    0  0.31866796124E+03  0.12300399692E+03  0.16604025705E+04  0.16951743123E+04  0.00000000000E+00 0. -1.
         -2    1    5    5    0  503  0.10028529282E+03  0.75132578424E+02  0.74478193352E+03  0.75524974200E+03  0.00000000000E+00 0.  1.
         -3    1    6    6    0  502  0.23200610532E-01  0.46657652751E+01  0.29265803929E+02  0.29635404223E+02  0.00000000000E+00 0.  1.
<mgrwt>
<rscale>  0 0.13099161E+04</rscale>
<asrwt>0</asrwt>
<pdfrwt beam="1">  1        2 0.57222363E+00 0.13099161E+04</pdfrwt>
<pdfrwt beam="2">  1       -2 0.17743302E-01 0.13099161E+04</pdfrwt>
<totfact> 0.14945055E+01</totfact>
</mgrwt>
</event>
<event>
12    1  0.1477245E-007  0.1126364E+04  0.7818608E-02  0.9179870E-01
         -1   -1    0    0    0  501 -0.00000000000E+00  0.00000000000E+00  0.63852323398E+03  0.63852323398E+03  0.00000000000E+00 0.  1.
          1   -1    0    0  501    0  0.00000000000E+00 -0.00000000000E+00 -0.49673032641E+03  0.49673032641E+03  0.00000000000E+00 0. -1.
         23    2    1    2    0    0  0.11995859998E+02  0.30215100423E+02  0.20538786114E+03  0.22687324004E+03  0.90721775735E+02 0.  0.
        254    2    1    2    0    0 -0.11995859998E+02 -0.30215100423E+02 -0.63594953570E+02  0.90838032034E+03  0.90556812848E+03 0.  0.
        -24    2    4    4    0    0 -0.37391750325E+02  0.31128624237E+03  0.27214181633E+03  0.42269927322E+03  0.79474773995E+02 0.  0.
         24    2    4    4    0    0  0.25395890328E+02 -0.34150134279E+03 -0.33573676990E+03  0.48568104712E+03  0.76803531811E+02 0.  0.
         11    1    3    3    0    0 -0.27526049924E+02  0.13353161416E+02  0.16530246213E+03  0.16810976870E+03  0.00000000000E+00 0.  1.
        -11    1    3    3    0    0  0.39521909922E+02  0.16861939007E+02  0.40085399009E+02  0.58763471346E+02  0.00000000000E+00 0. -1.
          2    1    6    6  502    0  0.44378105731E+02 -0.12873192742E+03 -0.11161920532E+03  0.17606865820E+03  0.00000000000E+00 0. -1.
          1    1    5    5  503    0 -0.43065172018E+02  0.11101256431E+03  0.70175748668E+02  0.13821372644E+03  0.00000000000E+00 0. -1.
         -2    1    5    5    0  503  0.56734216931E+01  0.20027367806E+03  0.20196606766E+03  0.28448554678E+03  0.00000000000E+00 0.  1.
         -1    1    6    6    0  502 -0.18982215404E+02 -0.21276941537E+03 -0.22411756458E+03  0.30961238892E+03  0.00000000000E+00 0.  1.
<mgrwt>
<rscale>  0 0.11263638E+04</rscale>
<asrwt>0</asrwt>
<pdfrwt beam="1">  1        1 0.76420050E-01 0.11263638E+04</pdfrwt>
<pdfrwt beam="2">  1       -1 0.98234344E-01 0.11263638E+04</pdfrwt>
<totfact> 0.44190910E+01</totfact>
</mgrwt>
</event>
<event>
12    1  0.1477245E-007  0.1604189E+04  0.7818608E-02  0.8817979E-01
         -2   -1    0    0    0  501 -0.00000000000E+00  0.00000000000E+00  0.19962576116E+03  0.19962576116E+03  0.00000000000E+00 0.  1.
          2   -1    0    0  501    0  0.00000000000E+00 -0.00000000000E+00 -0.32228087409E+04  0.32228087409E+04  0.00000000000E+00 0. -1.
         23    2    1    2    0    0  0.29132539555E+03 -0.48685376546E+02 -0.21545739650E+04  0.21766508457E+04  0.91537867917E+02 0.  0.
        254    2    1    2    0    0 -0.29132539555E+03  0.48685376546E+02 -0.86860901465E+03  0.12457836563E+04  0.84276600907E+03 0.  0.
        -24    2    4    4    0    0 -0.13716797046E+03 -0.16051905243E+03  0.94319323858E+02  0.24523773555E+03  0.81633288401E+02 0.  0.
         24    2    4    4    0    0 -0.15415742509E+03  0.20920442897E+03 -0.96292833851E+03  0.10005459208E+04  0.79562237576E+02 0.  0.
         13    1    3    3    0    0  0.30393435487E+02 -0.14599708374E+02 -0.10571576898E+03  0.11096276951E+03  0.00000000000E+00 0.  1.
        -13    1    3    3    0    0  0.26093196006E+03 -0.34085668172E+02 -0.20488581961E+04  0.20656880762E+04  0.00000000000E+00 0. -1.
          2    1    6    6  502    0 -0.14674433925E+03  0.15749503746E+03 -0.69504274882E+03  0.72761460308E+03  0.00000000000E+00 0. -1.
          3    1    5    5  503    0 -0.32966830834E+02 -0.95478405639E+02  0.60863499419E+02  0.11792923064E+03  0.00000000000E+00 0. -1.
         -4    1    5    5    0  503 -0.10420113963E+03 -0.65040646786E+02  0.33455824439E+02  0.12730850491E+03  0.00000000000E+00 0.  1.
         -1    1    6    6    0  502 -0.74130858420E+01  0.51709391516E+02 -0.26788558969E+03  0.27293131769E+03  0.00000000000E+00 0.  1.
<mgrwt>
<rscale>  0 0.16041891E+04</rscale>
<asrwt>0</asrwt>
<pdfrwt beam="1">  1        2 0.49581670E+00 0.16041891E+04</pdfrwt>
<pdfrwt beam="2">  1       -2 0.30711658E-01 0.16041891E+04</pdfrwt>
<totfact> 0.11885652E+01</totfact>
</mgrwt>
</event>
<event>
12    1  0.1477245E-007  0.2614943E+04  0.7818608E-02  0.8363143E-01
         -2   -1    0    0    0  501 -0.00000000000E+00  0.00000000000E+00  0.89752357057E+03  0.89752357057E+03  0.00000000000E+00 0.  1.
          2   -1    0    0  501    0  0.00000000000E+00 -0.00000000000E+00 -0.19046654526E+04  0.19046654526E+04  0.00000000000E+00 0. -1.
         23    2    1    2    0    0  0.51747997381E+03 -0.69571977379E+03  0.37331635230E+03  0.94841778167E+03  0.91212185348E+02 0.  0.
        254    2    1    2    0    0 -0.51747997381E+03  0.69571977379E+03 -0.13804582343E+04  0.18537712415E+04  0.88260486750E+03 0.  0.
        -24    2    4    4    0    0 -0.52544462570E+02 -0.16847793609E+03 -0.53068621758E+02  0.20106719042E+03  0.80411447892E+02 0.  0.
         24    2    4    4    0    0 -0.46493551124E+03  0.86419770988E+03 -0.13273896125E+04  0.16527040510E+04  0.80403889895E+02 0.  0.
         11    1    3    3    0    0  0.37278667638E+03 -0.46885499416E+03  0.21615126624E+03  0.63680160296E+03  0.00000000000E+00 0. -1.
        -11    1    3    3    0    0  0.14469329743E+03 -0.22686477963E+03  0.15716508606E+03  0.31161617871E+03  0.00000000000E+00 0.  1.
          2    1    6    6  502    0 -0.33938946619E+03  0.57317965137E+03 -0.94200981174E+03  0.11537342016E+04  0.00000000000E+00 0. -1.
          3    1    5    5  503    0 -0.16509358123E+01 -0.11146112707E+03 -0.67008188249E+01  0.11167456922E+03  0.00000000000E+00 0. -1.
         -4    1    5    5    0  503 -0.50893526757E+02 -0.57016809018E+02 -0.46367802933E+02  0.89392621201E+02  0.00000000000E+00 0.  1.
         -1    1    6    6    0  502 -0.12554604505E+03  0.29101805851E+03 -0.38537980079E+03  0.49896984946E+03  0.00000000000E+00 0.  1.
<mgrwt>
<rscale>  0 0.26149433E+04</rscale>
<asrwt>0</asrwt>
<pdfrwt beam="1">  1        2 0.29302545E+00 0.26149433E+04</pdfrwt>
<pdfrwt beam="2">  1       -2 0.13808055E+00 0.26149433E+04</pdfrwt>
<totfact> 0.24827469E+00</totfact>
</mgrwt>
</event>
<event>
12    1  0.1477245E-007  0.1473001E+04  0.7818608E-02  0.8902608E-01
         -2   -1    0    0    0  501 -0.00000000000E+00  0.00000000000E+00  0.19382229792E+04  0.19382229792E+04  0.00000000000E+00 0.  1.
          2   -1    0    0  501    0  0.00000000000E+00 -0.00000000000E+00 -0.27986092032E+03  0.27986092032E+03  0.00000000000E+00 0. -1.
         23    2    1    2    0    0  0.35675233017E+03 -0.27612955506E+03  0.41947900792E+03  0.62340767573E+03  0.95680383656E+02 0.  0.
        254    2    1    2    0    0 -0.35675233017E+03  0.27612955506E+03  0.12388830510E+04  0.15946762238E+04  0.89701799788E+03 0.  0.
        -24    2    4    4    0    0 -0.31331220410E+03 -0.19834752748E+02  0.12433174506E+04  0.12851118592E+04  0.84357886666E+02 0.  0.
         24    2    4    4    0    0 -0.43440126073E+02  0.29596430780E+03 -0.44343996253E+01  0.30956436460E+03  0.79551969694E+02 0.  0.
         11    1    3    3    0    0  0.16036725132E+03 -0.96153159607E+02  0.23048066685E+03  0.29679020063E+03  0.00000000000E+00 0.  1.
        -11    1    3    3    0    0  0.19638507885E+03 -0.17997639545E+03  0.18899834107E+03  0.32661747510E+03  0.00000000000E+00 0. -1.
          4    1    6    6  502    0 -0.30264224065E+02  0.28458383961E+03  0.10853917718E+02  0.28639429560E+03  0.00000000000E+00 0. -1.
          3    1    5    5  503    0 -0.26504671868E+03  0.22893345651E+01  0.11183883093E+04  0.11493682675E+04  0.00000000000E+00 0. -1.
         -4    1    5    5    0  503 -0.48265485420E+02 -0.22124087313E+02  0.12492914137E+03  0.13574359169E+03  0.00000000000E+00 0.  1.
         -3    1    6    6    0  502 -0.13175902008E+02  0.11380468197E+02 -0.15288317343E+02  0.23170068996E+02  0.00000000000E+00 0.  1.
<mgrwt>
<rscale>  0 0.14730008E+04</rscale>
<asrwt>0</asrwt>
<pdfrwt beam="1">  1        2 0.43055527E-01 0.14730008E+04</pdfrwt>
<pdfrwt beam="2">  1       -2 0.29818814E+00 0.14730008E+04</pdfrwt>
<totfact> 0.37597601E+00</totfact>
</mgrwt>
</event>
<event>
12    1  0.1477245E-007  0.1239490E+04  0.7818608E-02  0.9078977E-01
          2   -1    0    0  501    0  0.00000000000E+00  0.00000000000E+00  0.21004811173E+04  0.21004811173E+04  0.00000000000E+00 0. -1.
         -2   -1    0    0    0  501 -0.00000000000E+00 -0.00000000000E+00 -0.18285510909E+03  0.18285510909E+03  0.00000000000E+00 0.  1.
         23    2    1    2    0    0 -0.10780882170E+03  0.21288403853E+03  0.75042472841E+03  0.79239107518E+03  0.88340178372E+02 0.  0.
        254    2    1    2    0    0  0.10780882170E+03 -0.21288403853E+03  0.11672012798E+04  0.14909451512E+04  0.89644646268E+03 0.  0.
        -24    2    4    4    0    0  0.41825837975E+03  0.11706812071E+03  0.74249931577E+03  0.86390176867E+03  0.79849952203E+02 0.  0.
         24    2    4    4    0    0 -0.31044955806E+03 -0.32995215924E+03  0.42470196399E+03  0.62704338252E+03  0.86972925984E+02 0.  0.
         13    1    3    3    0    0 -0.75348783254E+02  0.15086962431E+03  0.63838598461E+03  0.66028459624E+03  0.00000000000E+00 0. -1.
        -13    1    3    3    0    0 -0.32460038441E+02  0.62014414217E+02  0.11203874380E+03  0.13210647894E+03  0.00000000000E+00 0.  1.
          4    1    6    6  502    0 -0.19915895280E+03 -0.15071789018E+03  0.24583935122E+03  0.35045278927E+03  0.00000000000E+00 0. -1.
          1    1    5    5  503    0  0.35127344765E+03  0.75667422173E+02  0.56312217618E+03  0.66800088257E+03  0.00000000000E+00 0. -1.
         -2    1    5    5    0  503  0.66984932103E+02  0.41400698534E+02  0.17937713959E+03  0.19590088610E+03  0.00000000000E+00 0.  1.
         -3    1    6    6    0  502 -0.11129060526E+03 -0.17923426906E+03  0.17886261277E+03  0.27659059324E+03  0.00000000000E+00 0.  1.
<mgrwt>
<rscale>  0 0.12394897E+04</rscale>
<asrwt>0</asrwt>
<pdfrwt beam="1">  1        2 0.32315092E+00 0.12394897E+04</pdfrwt>
<pdfrwt beam="2">  1       -2 0.28131557E-01 0.12394897E+04</pdfrwt>
<totfact> 0.66910046E+01</totfact>
</mgrwt>
</event>
<event>
12    1  0.1477245E-007  0.1500293E+04  0.7818608E-02  0.8884258E-01
          2   -1    0    0  501    0  0.00000000000E+00  0.00000000000E+00  0.69905477168E+03  0.69905477168E+03  0.00000000000E+00 0. -1.
         -2   -1    0    0    0  501 -0.00000000000E+00 -0.00000000000E+00 -0.80497185623E+03  0.80497185623E+03  0.00000000000E+00 0.  1.
         23    2    1    2    0    0  0.12078226186E+03 -0.38685041097E+03  0.20578516630E+03  0.46847483329E+03  0.11348805887E+03 0.  0.
        254    2    1    2    0    0 -0.12078226186E+03  0.38685041097E+03 -0.31170225085E+03  0.10355517946E+04  0.90053741228E+03 0.  0.
        -24    2    4    4    0    0  0.16438754101E+03  0.55386919530E+03 -0.36968986253E+03  0.69056850288E+03  0.80124363162E+02 0.  0.
         24    2    4    4    0    0 -0.28516980287E+03 -0.16701878433E+03  0.57987611682E+02  0.34498329175E+03  0.80211082074E+02 0.  0.
         11    1    3    3    0    0  0.10031667449E+03 -0.31575504892E+03  0.11353091908E+03  0.35021986763E+03  0.00000000000E+00 0. -1.
        -11    1    3    3    0    0  0.20465587376E+02 -0.71095362054E+02  0.92254247218E+02  0.11825496566E+03  0.00000000000E+00 0.  1.
          4    1    6    6  502    0 -0.31122032558E+02 -0.32194350541E+01 -0.13963238699E+02  0.34262482507E+02  0.00000000000E+00 0. -1.
          3    1    5    5  503    0  0.71826352884E+02  0.16769027830E+03 -0.80962211759E+02  0.19958440354E+03  0.00000000000E+00 0. -1.
         -4    1    5    5    0  503  0.92561188127E+02  0.38617891700E+03 -0.28872765077E+03  0.49098409933E+03  0.00000000000E+00 0.  1.
         -3    1    6    6    0  502 -0.25404777032E+03 -0.16379934927E+03  0.71950850381E+02  0.31072080924E+03  0.00000000000E+00 0.  1.
<mgrwt>
<rscale>  0 0.15002925E+04</rscale>
<asrwt>0</asrwt>
<pdfrwt beam="1">  1        2 0.10754689E+00 0.15002925E+04</pdfrwt>
<pdfrwt beam="2">  1       -2 0.12384182E+00 0.15002925E+04</pdfrwt>
<totfact> 0.19459387E+01</totfact>
</mgrwt>
</event>
<event>
12    1  0.1477245E-007  0.1607221E+04  0.7818608E-02  0.8816124E-01
         -2   -1    0    0    0  501 -0.00000000000E+00  0.00000000000E+00  0.18054315971E+03  0.18054315971E+03  0.00000000000E+00 0.  1.
          2   -1    0    0  501    0  0.00000000000E+00 -0.00000000000E+00 -0.35769278711E+04  0.35769278711E+04  0.00000000000E+00 0. -1.
         23    2    1    2    0    0 -0.29413481563E+03  0.40323409537E+03 -0.62451336346E+03  0.80442341956E+03  0.89258452528E+02 0.  0.
        254    2    1    2    0    0  0.29413481563E+03 -0.40323409537E+03 -0.27718713479E+04  0.29530476113E+04  0.88775356911E+03 0.  0.
        -24    2    4    4    0    0  0.19344504426E+03 -0.54306610509E+03 -0.26776823440E+04  0.27402136352E+04  0.80288549003E+02 0.  0.
         24    2    4    4    0    0  0.10068977137E+03  0.13983200971E+03 -0.94189003877E+02  0.21283397609E+03  0.82068946176E+02 0.  0.
         13    1    3    3    0    0 -0.91658201617E+02  0.73423036162E+02 -0.11272591709E+03  0.16278605759E+03  0.00000000000E+00 0. -1.
        -13    1    3    3    0    0 -0.20247661402E+03  0.32981105921E+03 -0.51178744638E+03  0.64163736197E+03  0.00000000000E+00 0.  1.
          2    1    6    6  502    0  0.43324432850E+02  0.36315654208E+02 -0.73443008228E+02  0.92680681266E+02  0.00000000000E+00 0. -1.
          1    1    5    5  503    0  0.89779199123E+02 -0.14823916315E+03 -0.85295775553E+03  0.87038617108E+03  0.00000000000E+00 0. -1.
         -2    1    5    5    0  503  0.10366584514E+03 -0.39482694193E+03 -0.18247245885E+04  0.18698274641E+04  0.00000000000E+00 0.  1.
         -1    1    6    6    0  502  0.57365338519E+02  0.10351635551E+03 -0.20745995648E+02  0.12015329482E+03  0.00000000000E+00 0.  1.
<mgrwt>
<rscale>  0 0.16072210E+04</rscale>
<asrwt>0</asrwt>
<pdfrwt beam="1">  1        2 0.55029661E+00 0.16072210E+04</pdfrwt>
<pdfrwt beam="2">  1       -2 0.27775870E-01 0.16072210E+04</pdfrwt>
<totfact> 0.82376140E+00</totfact>
</mgrwt>
</event>
<event>
12    1  0.1477245E-007  0.1663420E+04  0.7818608E-02  0.8782507E-01
         -1   -1    0    0    0  501 -0.00000000000E+00  0.00000000000E+00  0.20251208950E+04  0.20251208950E+04  0.00000000000E+00 0.  1.
          1   -1    0    0  501    0  0.00000000000E+00 -0.00000000000E+00 -0.34158032455E+03  0.34158032455E+03  0.00000000000E+00 0. -1.
         23    2    1    2    0    0  0.18058544127E+03  0.13227538755E+03  0.13685414400E+04  0.13897672513E+04  0.91866534011E+02 0.  0.
        254    2    1    2    0    0 -0.18058544127E+03 -0.13227538755E+03  0.31499913051E+03  0.97693396829E+03  0.89725561934E+03 0.  0.
        -24    2    4    4    0    0 -0.39187733884E+02  0.37329720638E+03  0.20297299125E+03  0.43413401452E+03  0.79923867552E+02 0.  0.
         24    2    4    4    0    0 -0.14139770738E+03 -0.50557259393E+03  0.11202613925E+03  0.54279995377E+03  0.80529339665E+02 0.  0.
         13    1    3    3    0    0  0.62404799310E+01 -0.13122030825E+02  0.10394809115E+03  0.10495873921E+03  0.00000000000E+00 0. -1.
        -13    1    3    3    0    0  0.17434496134E+03  0.14539741838E+03  0.12645933488E+04  0.12848085121E+04  0.00000000000E+00 0.  1.
          4    1    6    6  502    0 -0.39865112122E+02 -0.27807544695E+03  0.76541510899E+02  0.29115937947E+03  0.00000000000E+00 0. -1.
          1    1    5    5  503    0 -0.24873007104E+02  0.33775534752E+03  0.15423215215E+03  0.37213559090E+03  0.00000000000E+00 0. -1.
         -4    1    5    5    0  503 -0.14314726780E+02  0.35541858863E+02  0.48740839105E+02  0.61998423616E+02  0.00000000000E+00 0.  1.
         -3    1    6    6    0  502 -0.10153259526E+03 -0.22749714698E+03  0.35484628354E+02  0.25164057430E+03  0.00000000000E+00 0.  1.
<mgrwt>
<rscale>  0 0.16634199E+04</rscale>
<asrwt>0</asrwt>
<pdfrwt beam="1">  1        1 0.52550821E-01 0.16634199E+04</pdfrwt>
<pdfrwt beam="2">  1       -1 0.31155705E+00 0.16634199E+04</pdfrwt>
<totfact> 0.19651762E+00</totfact>
</mgrwt>
</event>
<event>
12    1  0.1477245E-007  0.1055454E+04  0.7818608E-02  0.9249731E-01
         -1   -1    0    0    0  501 -0.00000000000E+00  0.00000000000E+00  0.42439348533E+03  0.42439348533E+03  0.00000000000E+00 0.  1.
          1   -1    0    0  501    0  0.00000000000E+00 -0.00000000000E+00 -0.65622130090E+03  0.65622130090E+03  0.00000000000E+00 0. -1.
         23    2    1    2    0    0  0.17292940828E+02  0.97050134801E+02  0.34299909162E+02  0.14025447726E+03  0.93685965627E+02 0.  0.
        254    2    1    2    0    0 -0.17292940828E+02 -0.97050134801E+02 -0.26612772474E+03  0.94036030897E+03  0.89651311778E+03 0.  0.
        -24    2    4    4    0    0 -0.26714909325E+03 -0.19177781805E+03  0.20246960705E+03  0.39443301641E+03  0.80225264984E+02 0.  0.
         24    2    4    4    0    0  0.24985615242E+03  0.94727683252E+02 -0.46859733178E+03  0.54592729255E+03  0.83974511182E+02 0.  0.
         11    1    3    3    0    0 -0.17162343495E+02  0.53611900747E+02 -0.22737022185E+02  0.60710411906E+02  0.00000000000E+00 0. -1.
        -11    1    3    3    0    0  0.34455284323E+02  0.43438234053E+02  0.57036931347E+02  0.79544065353E+02  0.00000000000E+00 0.  1.
          2    1    6    6  502    0  0.25478633601E+02  0.38020561316E+02 -0.51290460527E+02  0.68741800922E+02  0.00000000000E+00 0. -1.
          1    1    5    5  503    0 -0.18978747110E+03 -0.14244061502E+03  0.10176114963E+03  0.25819361837E+03  0.00000000000E+00 0. -1.
         -2    1    5    5    0  503 -0.77361622146E+02 -0.49337203033E+02  0.10070845742E+03  0.13623939804E+03  0.00000000000E+00 0.  1.
         -1    1    6    6    0  502  0.22437751882E+03  0.56707121936E+02 -0.41730687125E+03  0.47718549163E+03  0.00000000000E+00 0.  1.
<mgrwt>
<rscale>  0 0.10554545E+04</rscale>
<asrwt>0</asrwt>
<pdfrwt beam="1">  1        1 0.10095712E+00 0.10554545E+04</pdfrwt>
<pdfrwt beam="2">  1       -1 0.65291305E-01 0.10554545E+04</pdfrwt>
<totfact> 0.71380880E+01</totfact>
</mgrwt>
</event>
<event>
12    1  0.1477245E-007  0.1488600E+04  0.7818608E-02  0.8892069E-01
          1   -1    0    0  501    0  0.00000000000E+00  0.00000000000E+00  0.10640351618E+04  0.10640351618E+04  0.00000000000E+00 0. -1.
         -1   -1    0    0    0  501 -0.00000000000E+00 -0.00000000000E+00 -0.52064328482E+03  0.52064328482E+03  0.00000000000E+00 0.  1.
         23    2    1    2    0    0  0.94754085232E+02  0.17065280734E+03  0.62518946152E+03  0.66124980171E+03  0.91042408456E+02 0.  0.
        254    2    1    2    0    0 -0.94754085232E+02 -0.17065280734E+03 -0.81797584527E+02  0.92342864494E+03  0.89884865252E+03 0.  0.
        -24    2    4    4    0    0 -0.11568053948E+02  0.36150307665E+03  0.96383340374E+01  0.37124722195E+03  0.83146304952E+02 0.  0.
         24    2    4    4    0    0 -0.83186031283E+02 -0.53215588399E+03 -0.91435918564E+02  0.55218142299E+03  0.80212193733E+02 0.  0.
         11    1    3    3    0    0  0.74538852740E+02  0.77107463159E+02  0.21783490347E+03  0.24280372034E+03  0.00000000000E+00 0. -1.
        -11    1    3    3    0    0  0.20215232492E+02  0.93545344182E+02  0.40735455806E+03  0.41844608137E+03  0.00000000000E+00 0.  1.
          2    1    6    6  502    0 -0.93011081420E+02 -0.35491689868E+03 -0.67592578709E+02  0.37307616237E+03  0.00000000000E+00 0. -1.
          1    1    5    5  503    0 -0.43264448489E+02  0.13234664866E+03 -0.61177772537E+01  0.13937315062E+03  0.00000000000E+00 0. -1.
         -2    1    5    5    0  503  0.31696394540E+02  0.22915642798E+03  0.15756111291E+02  0.23187407133E+03  0.00000000000E+00 0.  1.
         -1    1    6    6    0  502  0.98250501371E+01 -0.17723898531E+03 -0.23843339855E+02  0.17910526061E+03  0.00000000000E+00 0.  1.
<mgrwt>
<rscale>  0 0.14886004E+04</rscale>
<asrwt>0</asrwt>
<pdfrwt beam="1">  1        1 0.16369772E+00 0.14886004E+04</pdfrwt>
<pdfrwt beam="2">  1       -1 0.80098967E-01 0.14886004E+04</pdfrwt>
<totfact> 0.20341356E+01</totfact>
</mgrwt>
</event>
<event>
12    1  0.1477245E-007  0.2948215E+04  0.7818608E-02  0.8258675E-01
          1   -1    0    0  501    0  0.00000000000E+00  0.00000000000E+00  0.40309473012E+04  0.40309473012E+04  0.00000000000E+00 0. -1.
         -1   -1    0    0    0  501 -0.00000000000E+00 -0.00000000000E+00 -0.53907742892E+03  0.53907742892E+03  0.00000000000E+00 0.  1.
         23    2    1    2    0    0  0.24076699455E+02  0.10900732014E+04  0.27755063183E+04  0.29833114625E+04  0.88728164091E+02 0.  0.
        254    2    1    2    0    0 -0.24076699455E+02 -0.10900732014E+04  0.71636355393E+03  0.15867132676E+04  0.90312954801E+03 0.  0.
        -24    2    4    4    0    0 -0.29274786879E+03 -0.31462345864E+03  0.61725018360E+03  0.75635532278E+03  0.79914640345E+02 0.  0.
         24    2    4    4    0    0  0.26867116933E+03 -0.77544974274E+03  0.99113370331E+02  0.83035794486E+03  0.78513410738E+02 0.  0.
         13    1    3    3    0    0  0.34647009034E+02  0.29876542951E+03  0.69000500121E+03  0.75270717998E+03  0.00000000000E+00 0. -1.
        -13    1    3    3    0    0 -0.10570309578E+02  0.79130777187E+03  0.20855013171E+04  0.22306042825E+04  0.00000000000E+00 0.  1.
          4    1    6    6  502    0  0.16182067857E+03 -0.54089718310E+03  0.40512466849E+02  0.56603617788E+03  0.00000000000E+00 0. -1.
          1    1    5    5  503    0 -0.26825802364E+03 -0.28862793398E+03  0.59695030308E+03  0.71527485337E+03  0.00000000000E+00 0. -1.
         -2    1    5    5    0  503 -0.24489845148E+02 -0.25995524660E+02  0.20299880517E+02  0.41080469407E+02  0.00000000000E+00 0.  1.
         -3    1    6    6    0  502  0.10685049077E+03 -0.23455255964E+03  0.58600903482E+02  0.26432176698E+03  0.00000000000E+00 0.  1.
<mgrwt>
<rscale>  0 0.29482149E+04</rscale>
<asrwt>0</asrwt>
<pdfrwt beam="1">  1        1 0.62014572E+00 0.29482149E+04</pdfrwt>
<pdfrwt beam="2">  1       -1 0.82934992E-01 0.29482149E+04</pdfrwt>
<totfact> 0.11115279E-01</totfact>
</mgrwt>
</event>
<event>
12    1  0.1477245E-007  0.2963055E+04  0.7818608E-02  0.8254360E-01
         -2   -1    0    0    0  501 -0.00000000000E+00  0.00000000000E+00  0.16251157422E+04  0.16251157422E+04  0.00000000000E+00 0. -1.
          2   -1    0    0  501    0  0.00000000000E+00 -0.00000000000E+00 -0.13506263330E+04  0.13506263330E+04  0.00000000000E+00 0.  1.
         23    2    1    2    0    0  0.73537627172E+03  0.14971293837E+03  0.13011463997E+04  0.15049720434E+04  0.93630513915E+02 0.  0.
        254    2    1    2    0    0 -0.73537627172E+03 -0.14971293837E+03 -0.10266569905E+04  0.14707700317E+04  0.73888272767E+03 0.  0.
        -24    2    4    4    0    0  0.55014078489E+02  0.24620752780E+02 -0.47925914847E+03  0.48992189465E+03  0.81862086273E+02 0.  0.
         24    2    4    4    0    0 -0.79039035021E+03 -0.17433369115E+03 -0.54739784200E+03  0.98084813709E+03  0.85495783623E+02 0.  0.
         13    1    3    3    0    0  0.20320507137E+03  0.46276218105E+01  0.39251421311E+03  0.44201936995E+03  0.00000000000E+00 0.  1.
        -13    1    3    3    0    0  0.53217120035E+03  0.14508531656E+03  0.90863218658E+03  0.10629526735E+04  0.00000000000E+00 0. -1.
          2    1    6    6  502    0 -0.43663641717E+02  0.36893397975E+01 -0.48278062678E+02  0.65198897015E+02  0.00000000000E+00 0. -1.
          1    1    5    5  503    0  0.40591246192E+02  0.52540975349E+02 -0.25634914721E+03  0.26480764459E+03  0.00000000000E+00 0. -1.
         -2    1    5    5    0  503  0.14422832297E+02 -0.27920222569E+02 -0.22291000126E+03  0.22511425006E+03  0.00000000000E+00 0.  1.
         -1    1    6    6    0  502 -0.74672670850E+03 -0.17802303095E+03 -0.49911977932E+03  0.91564924007E+03  0.00000000000E+00 0.  1.
<mgrwt>
<rscale>  0 0.29630553E+04</rscale>
<asrwt>0</asrwt>
<pdfrwt beam="1">  1        2 0.20778867E+00 0.29630553E+04</pdfrwt>
<pdfrwt beam="2">  1       -2 0.25001781E+00 0.29630553E+04</pdfrwt>
<totfact> 0.85221005E-01</totfact>
</mgrwt>
</event>
<event>
12    1  0.1477245E-007  0.2785356E+04  0.7818608E-02  0.8307829E-01
          2   -1    0    0  501    0  0.00000000000E+00  0.00000000000E+00  0.90548966838E+03  0.90548966838E+03  0.00000000000E+00 0. -1.
         -2   -1    0    0    0  501 -0.00000000000E+00 -0.00000000000E+00 -0.21419921804E+04  0.21419921804E+04  0.00000000000E+00 0.  1.
         23    2    1    2    0    0  0.10826839989E+04 -0.50637393911E+03 -0.17399102480E+03  0.12113033839E+04  0.91453832132E+02 0.  0.
        254    2    1    2    0    0 -0.10826839989E+04  0.50637393911E+03 -0.10625114872E+04  0.18361784649E+04  0.90222030950E+03 0.  0.
        -24    2    4    4    0    0 -0.65187778998E+03  0.19199990588E+03 -0.11004082592E+04  0.12956547125E+04  0.77551145499E+02 0.  0.
         24    2    4    4    0    0 -0.43080620892E+03  0.31437403323E+03  0.37896771951E+02  0.54052375245E+03  0.79402388017E+02 0.  0.
         13    1    3    3    0    0  0.68101889496E+03 -0.29593301136E+03 -0.68133967826E+02  0.74565764268E+03  0.00000000000E+00 0.  1.
        -13    1    3    3    0    0  0.40166510393E+03 -0.21044092775E+03 -0.10585705698E+03  0.46564574120E+03  0.00000000000E+00 0. -1.
          2    1    6    6  502    0 -0.14389750682E+03  0.12337543017E+03 -0.21540741157E+02  0.19076685448E+03  0.00000000000E+00 0. -1.
          1    1    5    5  503    0 -0.28461374771E+03  0.94500608528E+02 -0.55648317660E+03  0.63214624593E+03  0.00000000000E+00 0. -1.
         -2    1    5    5    0  503 -0.36726404226E+03  0.97499297350E+02 -0.54392508257E+03  0.66350846654E+03  0.00000000000E+00 0.  1.
         -1    1    6    6    0  502 -0.28690870210E+03  0.19099860306E+03  0.59437513108E+02  0.34975689797E+03  0.00000000000E+00 0.  1.
<mgrwt>
<rscale>  0 0.27853558E+04</rscale>
<asrwt>0</asrwt>
<pdfrwt beam="1">  1        2 0.13930610E+00 0.27853558E+04</pdfrwt>
<pdfrwt beam="2">  1       -2 0.32953726E+00 0.27853558E+04</pdfrwt>
<totfact> 0.52925864E-01</totfact>
</mgrwt>
</event>
<event>
12    1  0.1477245E-007  0.1964262E+04  0.7818608E-02  0.8623514E-01
          2   -1    0    0  501    0  0.00000000000E+00  0.00000000000E+00  0.15135085885E+04  0.15135085885E+04  0.00000000000E+00 0. -1.
         -2   -1    0    0    0  501 -0.00000000000E+00 -0.00000000000E+00 -0.63731465343E+03  0.63731465343E+03  0.00000000000E+00 0.  1.
         23    2    1    2    0    0 -0.53093361537E+03  0.38252554211E+03 -0.10698277231E+03  0.66935828177E+03  0.91536339820E+02 0.  0.
        254    2    1    2    0    0  0.53093361537E+03 -0.38252554211E+03  0.98317670737E+03  0.14814649602E+04  0.89436329081E+03 0.  0.
        -24    2    4    4    0    0  0.76492036095E+03 -0.21744819908E+03  0.61595842638E+03  0.10090112679E+04  0.79448585830E+02 0.  0.
         24    2    4    4    0    0 -0.23398674557E+03 -0.16507734303E+03  0.36721828099E+03  0.47245369228E+03  0.79767782790E+02 0.  0.
         11    1    3    3    0    0 -0.49427627164E+03  0.36313116610E+03 -0.76915198665E+02  0.61813366215E+03  0.00000000000E+00 0.  1.
        -11    1    3    3    0    0 -0.36657343734E+02  0.19394376007E+02 -0.30067573646E+02  0.51224619621E+02  0.00000000000E+00 0. -1.
          2    1    6    6  502    0 -0.76586605427E+02 -0.50023506677E+02  0.62818107330E+02  0.11096834666E+03  0.00000000000E+00 0. -1.
          3    1    5    5  503    0  0.67916561726E+03 -0.16593185436E+03  0.54009575378E+03  0.88346066082E+03  0.00000000000E+00 0. -1.
         -4    1    5    5    0  503  0.85754743685E+02 -0.51516344717E+02  0.75862672601E+02  0.12555060705E+03  0.00000000000E+00 0.  1.
         -1    1    6    6    0  502 -0.15740014015E+03 -0.11505383635E+03  0.30440017366E+03  0.36148534562E+03  0.00000000000E+00 0.  1.
<mgrwt>
<rscale>  0 0.19642619E+04</rscale>
<asrwt>0</asrwt>
<pdfrwt beam="1">  1        2 0.23284747E+00 0.19642619E+04</pdfrwt>
<pdfrwt beam="2">  1       -2 0.98048409E-01 0.19642619E+04</pdfrwt>
<totfact> 0.10058002E+01</totfact>
</mgrwt>
</event>
<event>
12    1  0.1477245E-007  0.1679112E+04  0.7818608E-02  0.8773368E-01
          2   -1    0    0  501    0  0.00000000000E+00  0.00000000000E+00  0.15973035219E+04  0.15973035219E+04  0.00000000000E+00 0. -1.
         -2   -1    0    0    0  501 -0.00000000000E+00 -0.00000000000E+00 -0.44127738064E+03  0.44127738064E+03  0.00000000000E+00 0.  1.
         23    2    1    2    0    0  0.18580133214E+03  0.20210282394E+03 -0.21370144520E+03  0.35920621984E+03  0.89404218143E+02 0.  0.
        254    2    1    2    0    0 -0.18580133214E+03 -0.20210282394E+03  0.13697275865E+04  0.16793746827E+04  0.93208260220E+03 0.  0.
        -24    2    4    4    0    0  0.12934530254E+03  0.28537141683E+03  0.79685815202E+03  0.85979997335E+03  0.78141070489E+02 0.  0.
         24    2    4    4    0    0 -0.31514663467E+03 -0.48747424077E+03  0.57286943447E+03  0.81957470938E+03  0.81085008116E+02 0.  0.
         11    1    3    3    0    0  0.90922944346E+02  0.51377494013E+02 -0.44415315829E+02  0.11348721946E+03  0.00000000000E+00 0. -1.
        -11    1    3    3    0    0  0.94878387789E+02  0.15072532993E+03 -0.16928612937E+03  0.24571900038E+03  0.00000000000E+00 0.  1.
          2    1    6    6  502    0 -0.31043797416E+03 -0.45520616172E+03  0.52098841492E+03  0.75829632331E+03  0.00000000000E+00 0. -1.
          1    1    5    5  503    0  0.92250538523E+02  0.12841131130E+03  0.33128741118E+03  0.36708442562E+03  0.00000000000E+00 0. -1.
         -2    1    5    5    0  503  0.37094764013E+02  0.15696010553E+03  0.46557074084E+03  0.49271554773E+03  0.00000000000E+00 0.  1.
         -1    1    6    6    0  502 -0.47086605162E+01 -0.32268079052E+02  0.51881019547E+02  0.61278386066E+02  0.00000000000E+00 0.  1.
<mgrwt>
<rscale>  0 0.16791116E+04</rscale>
<asrwt>0</asrwt>
<pdfrwt beam="1">  1        2 0.24573900E+00 0.16791116E+04</pdfrwt>
<pdfrwt beam="2">  1       -2 0.67888829E-01 0.16791116E+04</pdfrwt>
<totfact> 0.21193482E+01</totfact>
</mgrwt>
</event>
<event>
12    1  0.1477245E-007  0.1337432E+04  0.7818608E-02  0.9000397E-01
         -2   -1    0    0    0  501 -0.00000000000E+00  0.00000000000E+00  0.46312015516E+03  0.46312015516E+03  0.00000000000E+00 0.  1.
          2   -1    0    0  501    0  0.00000000000E+00 -0.00000000000E+00 -0.96558282900E+03  0.96558282900E+03  0.00000000000E+00 0. -1.
         23    2    1    2    0    0  0.21388682420E+03  0.21823924134E+03  0.61654587469E+02  0.32496091570E+03  0.91773463208E+02 0.  0.
        254    2    1    2    0    0 -0.21388682420E+03 -0.21823924134E+03 -0.56411726131E+03  0.11037420685E+04  0.89813269016E+03 0.  0.
        -24    2    4    4    0    0  0.42600403322E+01 -0.85489615836E+02  0.23449089408E+03  0.26156445672E+03  0.78124024801E+02 0.  0.
         24    2    4    4    0    0 -0.21814686454E+03 -0.13274962551E+03 -0.79860815540E+03  0.84217761174E+03  0.79231472699E+02 0.  0.
         13    1    3    3    0    0  0.18895425509E+03  0.19994193396E+03  0.23871207322E+02  0.27613460849E+03  0.00000000000E+00 0. -1.
        -13    1    3    3    0    0  0.24932569117E+02  0.18297307388E+02  0.37783380147E+02  0.48826307210E+02  0.00000000000E+00 0.  1.
          4    1    6    6  502    0 -0.13572227322E+03 -0.12467332262E+03 -0.56788384649E+03  0.59703939227E+03  0.00000000000E+00 0. -1.
          1    1    5    5  503    0 -0.16520035262E+02 -0.89505694298E+02  0.21183511925E+03  0.23056083497E+03  0.00000000000E+00 0. -1.
         -2    1    5    5    0  503  0.20780075594E+02  0.40160784626E+01  0.22655774836E+02  0.31003621745E+02  0.00000000000E+00 0.  1.
         -3    1    6    6    0  502 -0.82424591316E+02 -0.80763028897E+01 -0.23072430891E+03  0.24513821947E+03  0.00000000000E+00 0.  1.
<mgrwt>
<rscale>  0 0.13374317E+04</rscale>
<asrwt>0</asrwt>
<pdfrwt beam="1">  1        2 0.14855121E+00 0.13374317E+04</pdfrwt>
<pdfrwt beam="2">  1       -2 0.71249254E-01 0.13374317E+04</pdfrwt>
<totfact> 0.46372534E+01</totfact>
</mgrwt>
</event>
<event>
12    1  0.1477245E-007  0.1406376E+04  0.7818608E-02  0.8949216E-01
          2   -1    0    0  501    0  0.00000000000E+00  0.00000000000E+00  0.57560123503E+03  0.57560123503E+03  0.00000000000E+00 0. -1.
         -2   -1    0    0    0  501 -0.00000000000E+00 -0.00000000000E+00 -0.85905562202E+03  0.85905562202E+03  0.00000000000E+00 0.  1.
         23    2    1    2    0    0  0.67776496836E+02 -0.26056196054E+03  0.22339419866E+03  0.36178729256E+03  0.92189415124E+02 0.  0.
        254    2    1    2    0    0 -0.67776496836E+02  0.26056196054E+03 -0.50684858565E+03  0.10728695645E+04  0.90645872760E+03 0.  0.
        -24    2    4    4    0    0  0.30712765057E+03 -0.15110602127E+03 -0.33206851206E+03  0.48383481978E+03  0.81646878221E+02 0.  0.
         24    2    4    4    0    0 -0.37490414741E+03  0.41166798181E+03 -0.17478007359E+03  0.58903474472E+03  0.79938785140E+02 0.  0.
         13    1    3    3    0    0  0.11754440037E+02 -0.16606383828E+03  0.17563722424E+03  0.24199958633E+03  0.00000000000E+00 0. -1.
        -13    1    3    3    0    0  0.56022056799E+02 -0.94498122259E+02  0.47756974417E+02  0.11978770623E+03  0.00000000000E+00 0.  1.
          2    1    6    6  502    0 -0.36636345572E+03  0.37275741254E+03 -0.16137248792E+03  0.54700214821E+03  0.00000000000E+00 0. -1.
          1    1    5    5  503    0  0.27503580202E+03 -0.11798636210E+03 -0.31541913374E+03  0.43480421337E+03  0.00000000000E+00 0. -1.
         -4    1    5    5    0  503  0.32091848553E+02 -0.33119659167E+02 -0.16649378320E+02  0.49030606414E+02  0.00000000000E+00 0.  1.
         -1    1    6    6    0  502 -0.85406916845E+01  0.38910569271E+02 -0.13407585670E+02  0.42032596505E+02  0.00000000000E+00 0.  1.
<mgrwt>
<rscale>  0 0.14063762E+04</rscale>
<asrwt>0</asrwt>
<pdfrwt beam="1">  1        2 0.88554036E-01 0.14063762E+04</pdfrwt>
<pdfrwt beam="2">  1       -2 0.13216240E+00 0.14063762E+04</pdfrwt>
<totfact> 0.21116837E+01</totfact>
</mgrwt>
</event>
<event>
12    1  0.1477245E-007  0.1780868E+04  0.7818608E-02  0.8716540E-01
          1   -1    0    0  501    0  0.00000000000E+00  0.00000000000E+00  0.13393040942E+04  0.13393040942E+04  0.00000000000E+00 0. -1.
         -1   -1    0    0    0  501 -0.00000000000E+00 -0.00000000000E+00 -0.59200330295E+03  0.59200330295E+03  0.00000000000E+00 0.  1.
         23    2    1    2    0    0 -0.21995621963E+03  0.98944208248E+02 -0.43015221941E+03  0.50237507224E+03  0.95807548995E+02 0.  0.
        254    2    1    2    0    0  0.21995621963E+03 -0.98944208248E+02  0.11774530107E+04  0.14289323249E+04  0.77283976474E+03 0.  0.
        -24    2    4    4    0    0  0.14591535287E+03 -0.24534129076E+03  0.12081776641E+04  0.12440219687E+04  0.80085899131E+02 0.  0.
         24    2    4    4    0    0  0.74040866767E+02  0.14639708251E+03 -0.30724653448E+02  0.18491035628E+03  0.79584419387E+02 0.  0.
         11    1    3    3    0    0 -0.85109196822E+02  0.69398216878E+02 -0.11873998280E+03  0.16173704401E+03  0.00000000000E+00 0.  1.
        -11    1    3    3    0    0 -0.13484702281E+03  0.29545991370E+02 -0.31141223661E+03  0.34063802823E+03  0.00000000000E+00 0. -1.
          4    1    6    6  502    0  0.19744318728E+02  0.92414189002E+01  0.19331545667E+02  0.29136756910E+02  0.00000000000E+00 0. -1.
          1    1    5    5  503    0 -0.34286274226E+01  0.12123011130E+01  0.26226912044E+01  0.44837115368E+01  0.00000000000E+00 0. -1.
         -4    1    5    5    0  503  0.14934398029E+03 -0.24655359187E+03  0.12055549729E+04  0.12395382571E+04  0.00000000000E+00 0.  1.
         -3    1    6    6    0  502  0.54296548039E+02  0.13715566361E+03 -0.50056199116E+02  0.15577359937E+03  0.00000000000E+00 0.  1.
<mgrwt>
<rscale>  0 0.17808677E+04</rscale>
<asrwt>0</asrwt>
<pdfrwt beam="1">  1        1 0.20604678E+00 0.17808677E+04</pdfrwt>
<pdfrwt beam="2">  1       -1 0.91077432E-01 0.17808677E+04</pdfrwt>
<totfact> 0.94303465E+00</totfact>
</mgrwt>
</event>
<event>
12    1  0.1477245E-007  0.2440402E+04  0.7818608E-02  0.8424531E-01
          2   -1    0    0  501    0  0.00000000000E+00  0.00000000000E+00  0.19596007857E+04  0.19596007857E+04  0.00000000000E+00 0. -1.
         -2   -1    0    0    0  501 -0.00000000000E+00 -0.00000000000E+00 -0.75979277953E+03  0.75979277953E+03  0.00000000000E+00 0.  1.
         23    2    1    2    0    0 -0.70168664114E+03  0.56308530153E+03 -0.82395570117E+02  0.90716716915E+03  0.82061218944E+02 0.  0.
        254    2    1    2    0    0  0.70168664114E+03 -0.56308530153E+03  0.12822035763E+04  0.18122263961E+04  0.91142158216E+03 0.  0.
        -24    2    4    4    0    0  0.60537148458E+03 -0.75323155468E+03  0.12500070870E+04  0.15820616854E+04  0.81049673790E+02 0.  0.
         24    2    4    4    0    0  0.96315156566E+02  0.19014625315E+03  0.32196489314E+02  0.23016471068E+03  0.80665811501E+02 0.  0.
         11    1    3    3    0    0 -0.45387468500E+03  0.34270902718E+03 -0.15965989565E+02  0.56895221225E+03  0.00000000000E+00 0.  1.
        -11    1    3    3    0    0 -0.24781195614E+03  0.22037627435E+03 -0.66429580552E+02  0.33821495690E+03  0.00000000000E+00 0. -1.
          2    1    6    6  502    0  0.67448620219E+02  0.18119088647E+03  0.11789813547E+02  0.19369680795E+03  0.00000000000E+00 0. -1.
          1    1    5    5  503    0  0.57552177781E+03 -0.68239992886E+03  0.11591446855E+04  0.14630486600E+04  0.00000000000E+00 0. -1.
         -2    1    5    5    0  503  0.29849706763E+02 -0.70831625812E+02  0.90862401471E+02  0.11901302538E+03  0.00000000000E+00 0.  1.
         -1    1    6    6    0  502  0.28866536347E+02  0.89553666834E+01  0.20406675767E+02  0.36467902722E+02  0.00000000000E+00 0.  1.
<mgrwt>
<rscale>  0 0.24404020E+04</rscale>
<asrwt>0</asrwt>
<pdfrwt beam="1">  1        2 0.30147704E+00 0.24404020E+04</pdfrwt>
<pdfrwt beam="2">  1       -2 0.11689120E+00 0.24404020E+04</pdfrwt>
<totfact> 0.35728708E+00</totfact>
</mgrwt>
</event>
<event>
12    1  0.1477245E-007  0.1517564E+04  0.7818608E-02  0.8872856E-01
         -2   -1    0    0    0  501 -0.00000000000E+00  0.00000000000E+00  0.17834599747E+03  0.17834599747E+03  0.00000000000E+00 0.  1.
          2   -1    0    0  501    0  0.00000000000E+00 -0.00000000000E+00 -0.32282759809E+04  0.32282759809E+04  0.00000000000E+00 0. -1.
         23    2    1    2    0    0  0.41242855008E+03  0.42275050158E+02 -0.15979753921E+04  0.16534305731E+04  0.91775908852E+02 0.  0.
        254    2    1    2    0    0 -0.41242855008E+03 -0.42275050158E+02 -0.14519545914E+04  0.17531914053E+04  0.89085547622E+03 0.  0.
        -24    2    4    4    0    0 -0.26430080500E+03 -0.27292309798E+03 -0.14128934644E+04  0.14652958772E+04  0.80511694705E+02 0.  0.
         24    2    4    4    0    0 -0.14812774508E+03  0.23064804782E+03 -0.39061126929E+02  0.28789552811E+03  0.78852473930E+02 0.  0.
         13    1    3    3    0    0  0.13874606341E+03  0.23407353106E+02 -0.38742346185E+03  0.41218359147E+03  0.00000000000E+00 0. -1.
        -13    1    3    3    0    0  0.27368248667E+03  0.18867697052E+02 -0.12105519302E+04  0.12412469816E+04  0.00000000000E+00 0.  1.
          4    1    6    6  502    0 -0.66363833719E+02  0.43462490911E+02 -0.24882070095E+02  0.83140026187E+02  0.00000000000E+00 0. -1.
          1    1    5    5  503    0 -0.80197954282E+02 -0.13951337531E+03 -0.60032246502E+03  0.62151649677E+03  0.00000000000E+00 0. -1.
         -2    1    5    5    0  503 -0.18410285072E+03 -0.13340972267E+03 -0.81257099941E+03  0.84377938042E+03  0.00000000000E+00 0.  1.
         -3    1    6    6    0  502 -0.81763911361E+02  0.18718555691E+03 -0.14179056833E+02  0.20475550193E+03  0.00000000000E+00 0.  1.
<mgrwt>
<rscale>  0 0.15175640E+04</rscale>
<asrwt>0</asrwt>
<pdfrwt beam="1">  1        2 0.49665780E+00 0.15175640E+04</pdfrwt>
<pdfrwt beam="2">  1       -2 0.27437848E-01 0.15175640E+04</pdfrwt>
<totfact> 0.14653155E+01</totfact>
</mgrwt>
</event>
<event>
12    1  0.1477245E-007  0.1797198E+04  0.7818608E-02  0.8707791E-01
         -2   -1    0    0    0  501 -0.00000000000E+00  0.00000000000E+00  0.24332899353E+03  0.24332899353E+03  0.00000000000E+00 0.  1.
          2   -1    0    0  501    0  0.00000000000E+00 -0.00000000000E+00 -0.33184705574E+04  0.33184705574E+04  0.00000000000E+00 0. -1.
         23    2    1    2    0    0 -0.80308340958E+02  0.78073735059E+02 -0.24795684368E+04  0.24837802662E+04  0.91432160630E+02 0.  0.
        254    2    1    2    0    0  0.80308340958E+02 -0.78073735059E+02 -0.59557312707E+03  0.10780192848E+04  0.89155666727E+03 0.  0.
        -24    2    4    4    0    0  0.36586548586E+02  0.17484864744E+03  0.17458617996E+03  0.26210738124E+03  0.79431228223E+02 0.  0.
         24    2    4    4    0    0  0.43721792371E+02 -0.25292238250E+03 -0.77015930703E+03  0.81591190355E+03  0.81765209266E+02 0.  0.
         11    1    3    3    0    0 -0.44734715645E+02  0.94158433154E+02 -0.16456278270E+04  0.16489263023E+04  0.00000000000E+00 0. -1.
        -11    1    3    3    0    0 -0.35573625312E+02 -0.16084698095E+02 -0.83394060981E+03  0.83485396389E+03  0.00000000000E+00 0.  1.
          2    1    6    6  502    0  0.15000713174E+02 -0.12758874605E+03 -0.50694583285E+03  0.52297034998E+03  0.00000000000E+00 0. -1.
          1    1    5    5  503    0  0.69041945897E+01  0.43786504224E+02  0.97699600844E+02  0.10728531055E+03  0.00000000000E+00 0. -1.
         -2    1    5    5    0  503  0.29682353997E+02  0.13106214322E+03  0.76886579115E+02  0.15482207069E+03  0.00000000000E+00 0.  1.
         -1    1    6    6    0  502  0.28721079197E+02 -0.12533363645E+03 -0.26321347418E+03  0.29294155356E+03  0.00000000000E+00 0.  1.
<mgrwt>
<rscale>  0 0.17971979E+04</rscale>
<asrwt>0</asrwt>
<pdfrwt beam="1">  1        2 0.51053390E+00 0.17971979E+04</pdfrwt>
<pdfrwt beam="2">  1       -2 0.37435232E-01 0.17971979E+04</pdfrwt>
<totfact> 0.69243176E+00</totfact>
</mgrwt>
</event>
<event>
12    1  0.1477245E-007  0.2027794E+04  0.7818608E-02  0.8593735E-01
          1   -1    0    0  501    0  0.00000000000E+00  0.00000000000E+00  0.14993653340E+04  0.14993653340E+04  0.00000000000E+00 0. -1.
         -1   -1    0    0    0  501 -0.00000000000E+00 -0.00000000000E+00 -0.68561516998E+03  0.68561516998E+03  0.00000000000E+00 0.  1.
         23    2    1    2    0    0  0.21066814810E+02 -0.34945211483E+03  0.11085008511E+04  0.11662075228E+04  0.93301972020E+02 0.  0.
        254    2    1    2    0    0 -0.21066814810E+02  0.34945211483E+03 -0.29475068711E+03  0.10187729812E+04  0.91019768646E+03 0.  0.
        -24    2    4    4    0    0  0.50876886225E+02 -0.22308592108E+03  0.15164188421E+03  0.28496325007E+03  0.76504948227E+02 0.  0.
         24    2    4    4    0    0 -0.71943701035E+02  0.57253803591E+03 -0.44639257132E+03  0.73380973113E+03  0.78960085466E+02 0.  0.
         13    1    3    3    0    0 -0.23040734697E+02 -0.26612055020E+03  0.78177716613E+03  0.82615165689E+03  0.00000000000E+00 0. -1.
        -13    1    3    3    0    0  0.44107549507E+02 -0.83331564624E+02  0.32672368498E+03  0.34005586587E+03  0.00000000000E+00 0.  1.
          4    1    6    6  502    0 -0.63781028015E+01  0.30031511042E+03 -0.20040846963E+03  0.36110026370E+03  0.00000000000E+00 0. -1.
          1    1    5    5  503    0  0.50233556651E+01 -0.17310388041E+03  0.10295006154E+03  0.20146687739E+03  0.00000000000E+00 0. -1.
         -2    1    5    5    0  503  0.45853530560E+02 -0.49982040676E+02  0.48691822668E+02  0.83496372674E+02  0.00000000000E+00 0.  1.
         -1    1    6    6    0  502 -0.65565598234E+02  0.27222292549E+03 -0.24598410169E+03  0.37270946744E+03  0.00000000000E+00 0.  1.
<mgrwt>
<rscale>  0 0.20277945E+04</rscale>
<asrwt>0</asrwt>
<pdfrwt beam="1">  1        1 0.23067159E+00 0.20277945E+04</pdfrwt>
<pdfrwt beam="2">  1       -1 0.10547926E+00 0.20277945E+04</pdfrwt>
<totfact> 0.51045445E+00</totfact>
</mgrwt>
</event>
<event>
12    1  0.1477245E-007  0.1343286E+04  0.7818608E-02  0.8995926E-01
          1   -1    0    0  501    0  0.00000000000E+00  0.00000000000E+00  0.10626482271E+04  0.10626482271E+04  0.00000000000E+00 0. -1.
         -1   -1    0    0    0  501 -0.00000000000E+00 -0.00000000000E+00 -0.42450945389E+03  0.42450945389E+03  0.00000000000E+00 0.  1.
         23    2    1    2    0    0 -0.20731595740E+03  0.16744214557E+03  0.42924902702E+03  0.51342759977E+03  0.91303859161E+02 0.  0.
        254    2    1    2    0    0  0.20731595740E+03 -0.16744214557E+03  0.20888974619E+03  0.97373008123E+03  0.91296142674E+03 0.  0.
        -24    2    4    4    0    0 -0.29191188772E+03  0.16378838319E+03  0.41454064867E+02  0.34666074743E+03  0.80100247551E+02 0.  0.
         24    2    4    4    0    0  0.49922784512E+03 -0.33123052876E+03  0.16743568132E+03  0.62706933379E+03  0.78988210966E+02 0.  0.
         13    1    3    3    0    0 -0.16764894172E+03  0.84562111699E+02  0.31618309590E+03  0.36773450821E+03  0.00000000000E+00 0. -1.
        -13    1    3    3    0    0 -0.39667015686E+02  0.82880033872E+02  0.11306593112E+03  0.14569309156E+03  0.00000000000E+00 0.  1.
          2    1    6    6  502    0  0.40692620801E+02 -0.30557841754E+02 -0.76726225187E+01  0.51463970083E+02  0.00000000000E+00 0. -1.
          3    1    5    5  503    0 -0.11720827549E+03  0.35636832147E+02  0.43456362701E+02  0.12998545729E+03  0.00000000000E+00 0. -1.
         -4    1    5    5    0  503 -0.17470361223E+03  0.12815155104E+03 -0.20022978339E+01  0.21667529014E+03  0.00000000000E+00 0.  1.
         -1    1    6    6    0  502  0.45853522432E+03 -0.30067268701E+03  0.17510830384E+03  0.57560536371E+03  0.00000000000E+00 0.  1.
<mgrwt>
<rscale>  0 0.13432858E+04</rscale>
<asrwt>0</asrwt>
<pdfrwt beam="1">  1        1 0.16348434E+00 0.13432858E+04</pdfrwt>
<pdfrwt beam="2">  1       -1 0.65309147E-01 0.13432858E+04</pdfrwt>
<totfact> 0.31504818E+01</totfact>
</mgrwt>
</event>
<event>
12    1  0.1477245E-007  0.1640326E+04  0.7818608E-02  0.8796150E-01
         -2   -1    0    0    0  501 -0.00000000000E+00  0.00000000000E+00  0.14312888236E+04  0.14312888236E+04  0.00000000000E+00 0.  1.
          2   -1    0    0  501    0  0.00000000000E+00 -0.00000000000E+00 -0.46997321920E+03  0.46997321920E+03  0.00000000000E+00 0. -1.
         23    2    1    2    0    0  0.27604481690E+03 -0.35306851782E+03 -0.10757082775E+03  0.46936179524E+03  0.88718051370E+02 0.  0.
        254    2    1    2    0    0 -0.27604481690E+03  0.35306851782E+03  0.10688864322E+04  0.14319002476E+04  0.84081032042E+03 0.  0.
        -24    2    4    4    0    0 -0.20064042552E+03 -0.11272855182E+03  0.88593127967E+03  0.91884953231E+03  0.80286511773E+02 0.  0.
         24    2    4    4    0    0 -0.75404391380E+02  0.46579706964E+03  0.18295515248E+03  0.51305071525E+03  0.84236074665E+02 0.  0.
         11    1    3    3    0    0  0.24854757076E+03 -0.28417016379E+03 -0.11538494160E+03  0.39476861788E+03  0.00000000000E+00 0. -1.
        -11    1    3    3    0    0  0.27497246144E+02 -0.68898354031E+02  0.78141138499E+01  0.74593177362E+02  0.00000000000E+00 0.  1.
          2    1    6    6  502    0 -0.74868014332E+02  0.42585237421E+03  0.19034206368E+03  0.47242519555E+03  0.00000000000E+00 0. -1.
          3    1    5    5  503    0 -0.20807493755E+03 -0.10803176085E+03  0.86333638064E+03  0.89460368160E+03  0.00000000000E+00 0. -1.
         -4    1    5    5    0  503  0.74345120268E+01 -0.46967909725E+01  0.22594899032E+02  0.24245850713E+02  0.00000000000E+00 0.  1.
         -1    1    6    6    0  502 -0.53637704857E+00  0.39944695439E+02 -0.73869111987E+01  0.40625519703E+02  0.00000000000E+00 0.  1.
<mgrwt>
<rscale>  0 0.16403261E+04</rscale>
<asrwt>0</asrwt>
<pdfrwt beam="1">  1        2 0.72303573E-01 0.16403261E+04</pdfrwt>
<pdfrwt beam="2">  1       -2 0.22019828E+00 0.16403261E+04</pdfrwt>
<totfact> 0.62288400E+00</totfact>
</mgrwt>
</event>
<event>
12    1  0.1477245E-007  0.2271213E+04  0.7818608E-02  0.8489359E-01
          1   -1    0    0  501    0  0.00000000000E+00  0.00000000000E+00  0.31587023716E+04  0.31587023716E+04  0.00000000000E+00 0. -1.
         -1   -1    0    0    0  501 -0.00000000000E+00 -0.00000000000E+00 -0.40826950453E+03  0.40826950453E+03  0.00000000000E+00 0.  1.
         23    2    1    2    0    0  0.80777979800E+02  0.26823763601E+03 -0.25468313462E+03  0.38979912080E+03  0.92754213509E+02 0.  0.
        254    2    1    2    0    0 -0.80777979800E+02 -0.26823763601E+03  0.30051160017E+04  0.31771727553E+04  0.99258653134E+03 0.  0.
        -24    2    4    4    0    0  0.10086442242E+03 -0.24576102614E+03  0.29596157296E+04  0.29725493708E+04  0.78437116959E+02 0.  0.
         24    2    4    4    0    0 -0.18164240222E+03 -0.22476609876E+02  0.45500272098E+02  0.20462338453E+03  0.79380693248E+02 0.  0.
         13    1    3    3    0    0  0.10141777585E+03  0.21906996094E+03 -0.20096764963E+03  0.31411018647E+03  0.00000000000E+00 0.  1.
        -13    1    3    3    0    0 -0.20639796050E+02  0.49167675072E+02 -0.53715484989E+02  0.75688934334E+02  0.00000000000E+00 0. -1.
          2    1    6    6  502    0 -0.10156690891E+03 -0.45612152320E+01 -0.14872505028E+02  0.10275131666E+03  0.00000000000E+00 0. -1.
          3    1    5    5  503    0  0.91961572366E+02 -0.12285386791E+03  0.17101751951E+04  0.17170466510E+04  0.00000000000E+00 0. -1.
         -4    1    5    5    0  503  0.89028500512E+01 -0.12290715823E+03  0.12494405344E+04  0.12555027198E+04  0.00000000000E+00 0.  1.
         -1    1    6    6    0  502 -0.80075493306E+02 -0.17915394644E+02  0.60372777126E+02  0.10187206787E+03  0.00000000000E+00 0.  1.
<mgrwt>
<rscale>  0 0.22712128E+04</rscale>
<asrwt>0</asrwt>
<pdfrwt beam="1">  1        1 0.48595419E+00 0.22712128E+04</pdfrwt>
<pdfrwt beam="2">  1       -1 0.62810695E-01 0.22712128E+04</pdfrwt>
<totfact> 0.10644216E+00</totfact>
</mgrwt>
</event>
<event>
12    1  0.1477245E-007  0.2980105E+04  0.7818608E-02  0.8249435E-01
         -2   -1    0    0    0  501 -0.00000000000E+00  0.00000000000E+00  0.97340324475E+03  0.97340324475E+03  0.00000000000E+00 0.  1.
          2   -1    0    0  501    0  0.00000000000E+00 -0.00000000000E+00 -0.22809208157E+04  0.22809208157E+04  0.00000000000E+00 0. -1.
         23    2    1    2    0    0  0.12586331036E+04  0.37799115970E+03 -0.95388025525E+03  0.16263562430E+04  0.90069315702E+02 0.  0.
        254    2    1    2    0    0 -0.12586331036E+04 -0.37799115970E+03 -0.35363731568E+03  0.16279678174E+04  0.89341214305E+03 0.  0.
        -24    2    4    4    0    0 -0.26005762577E+03 -0.14440089080E+03  0.28345037708E+03  0.41836986036E+03  0.78788563916E+02 0.  0.
         24    2    4    4    0    0 -0.99857547779E+03 -0.23359026890E+03 -0.63708769276E+03  0.12095979571E+04  0.74357857073E+02 0.  0.
         11    1    3    3    0    0  0.10525685226E+04  0.28086565328E+03 -0.78375526376E+03  0.13420351424E+04  0.00000000000E+00 0. -1.
        -11    1    3    3    0    0  0.20606458097E+03  0.97125506418E+02 -0.17012499149E+03  0.28432110062E+03  0.00000000000E+00 0.  1.
          4    1    6    6  502    0 -0.91230607874E+03 -0.23136918097E+03 -0.57045648971E+03  0.11005701640E+04  0.00000000000E+00 0. -1.
          1    1    5    5  503    0 -0.22133379670E+03 -0.14331066671E+03  0.26991621265E+03  0.37733454468E+03  0.00000000000E+00 0. -1.
         -2    1    5    5    0  503 -0.38723829071E+02 -0.10902240908E+01  0.13534164434E+02  0.41035315686E+02  0.00000000000E+00 0.  1.
         -3    1    6    6    0  502 -0.86269399051E+02 -0.22210879317E+01 -0.66631203051E+02  0.10902779308E+03  0.00000000000E+00 0.  1.
<mgrwt>
<rscale>  0 0.29801045E+04</rscale>
<asrwt>0</asrwt>
<pdfrwt beam="1">  1        2 0.35091089E+00 0.29801045E+04</pdfrwt>
<pdfrwt beam="2">  1       -2 0.14975435E+00 0.29801045E+04</pdfrwt>
<totfact> 0.11991787E+00</totfact>
</mgrwt>
</event>
<event>
12    1  0.1477245E-007  0.2203673E+04  0.7818608E-02  0.8516901E-01
         -1   -1    0    0    0  501 -0.00000000000E+00  0.00000000000E+00  0.11402430834E+04  0.11402430834E+04  0.00000000000E+00 0.  1.
          1   -1    0    0  501    0  0.00000000000E+00 -0.00000000000E+00 -0.10647232404E+04  0.10647232404E+04  0.00000000000E+00 0. -1.
         23    2    1    2    0    0  0.43740556478E+03  0.64935241361E+03  0.50716829137E+03  0.93738362271E+03  0.92120547100E+02 0.  0.
        254    2    1    2    0    0 -0.43740556478E+03 -0.64935241361E+03 -0.43164844836E+03  0.12675827011E+04  0.89858963720E+03 0.  0.
        -24    2    4    4    0    0 -0.50929982645E+03 -0.25878710180E+03  0.11317181630E+03  0.58894043551E+03  0.87669260851E+02 0.  0.
         24    2    4    4    0    0  0.71894261669E+02 -0.39056531181E+03 -0.54482026466E+03  0.67864226562E+03  0.77563884993E+02 0.  0.
         11    1    3    3    0    0  0.26558235109E+02  0.20116102566E+02  0.41869882463E+02  0.53507798423E+02  0.00000000000E+00 0. -1.
        -11    1    3    3    0    0  0.41084732967E+03  0.62923631104E+03  0.46529840891E+03  0.88387582429E+03  0.00000000000E+00 0.  1.
          4    1    6    6  502    0  0.85392749766E+02 -0.35625311132E+03 -0.47698860601E+03  0.60143688887E+03  0.00000000000E+00 0. -1.
          1    1    5    5  503    0 -0.36410654854E+03 -0.21906161481E+03  0.10745859758E+03  0.43830231572E+03  0.00000000000E+00 0. -1.
         -2    1    5    5    0  503 -0.14519327791E+03 -0.39725486995E+02  0.57132187205E+01  0.15063811979E+03  0.00000000000E+00 0.  1.
         -3    1    6    6    0  502 -0.13498488097E+02 -0.34312200490E+02 -0.67831658650E+02  0.77205376747E+02  0.00000000000E+00 0.  1.
<mgrwt>
<rscale>  0 0.22036727E+04</rscale>
<asrwt>0</asrwt>
<pdfrwt beam="1">  1        1 0.16380358E+00 0.22036727E+04</pdfrwt>
<pdfrwt beam="2">  1       -1 0.17542201E+00 0.22036727E+04</pdfrwt>
<totfact> 0.27604463E+00</totfact>
</mgrwt>
</event>
<event>
12    1  0.1477245E-007  0.1041017E+04  0.7818608E-02  0.9264668E-01
          2   -1    0    0  501    0  0.00000000000E+00  0.00000000000E+00  0.26595942794E+04  0.26595942794E+04  0.00000000000E+00 0. -1.
         -2   -1    0    0    0  501 -0.00000000000E+00 -0.00000000000E+00 -0.10186851940E+03  0.10186851940E+03  0.00000000000E+00 0.  1.
         23    2    1    2    0    0 -0.71140084954E+02  0.54221129449E+02  0.19212685519E+03  0.23034273697E+03  0.90245251533E+02 0.  0.
        254    2    1    2    0    0  0.71140084954E+02 -0.54221129449E+02  0.23655989048E+04  0.25311200618E+04  0.89582908324E+03 0.  0.
        -24    2    4    4    0    0 -0.98402626391E+02 -0.13257630654E+03  0.28784228211E+02  0.18547492018E+03  0.79453510210E+02 0.  0.
         24    2    4    4    0    0  0.16954271134E+03  0.78355177093E+02  0.23368146766E+04  0.23456451416E+04  0.80399210398E+02 0.  0.
         13    1    3    3    0    0  0.66478482115E+01  0.26992707876E+02  0.85014216628E+01  0.29070162273E+02  0.00000000000E+00 0.  1.
        -13    1    3    3    0    0 -0.77787933166E+02  0.27228421573E+02  0.18362543352E+03  0.20127257470E+03  0.00000000000E+00 0. -1.
          2    1    6    6  502    0  0.12989567107E+03  0.91176469293E+02  0.16676338797E+04  0.16751682872E+04  0.00000000000E+00 0. -1.
          3    1    5    5  503    0 -0.45465037503E+02 -0.76786045491E+01 -0.27979049316E+01  0.46193710340E+02  0.00000000000E+00 0. -1.
         -4    1    5    5    0  503 -0.52937588888E+02 -0.12489770199E+03  0.31582133143E+02  0.13928120984E+03  0.00000000000E+00 0.  1.
         -1    1    6    6    0  502  0.39647040280E+02 -0.12821292200E+02  0.66918079689E+03  0.67047685438E+03  0.00000000000E+00 0.  1.
<mgrwt>
<rscale>  0 0.10410167E+04</rscale>
<asrwt>0</asrwt>
<pdfrwt beam="1">  1        2 0.40916830E+00 0.10410167E+04</pdfrwt>
<pdfrwt beam="2">  1       -2 0.15672082E-01 0.10410167E+04</pdfrwt>
<totfact> 0.92407941E+01</totfact>
</mgrwt>
</event>
<event>
12    1  0.1477245E-007  0.2767217E+04  0.7818608E-02  0.8313519E-01
         -2   -1    0    0    0  501 -0.00000000000E+00  0.00000000000E+00  0.88389742220E+03  0.88389742220E+03  0.00000000000E+00 0. -1.
          2   -1    0    0  501    0  0.00000000000E+00 -0.00000000000E+00 -0.21658306219E+04  0.21658306219E+04  0.00000000000E+00 0.  1.
         23    2    1    2    0    0 -0.21825219774E+03 -0.10462819221E+04 -0.12790804868E+04  0.16692736260E+04  0.89931442750E+02 0.  0.
        254    2    1    2    0    0  0.21825219774E+03  0.10462819221E+04 -0.28527128250E+01  0.13804544181E+04  0.87367406972E+03 0.  0.
        -24    2    4    4    0    0 -0.22103747006E+03  0.83750055776E+03  0.10024805766E+03  0.87539875602E+03  0.77514911854E+02 0.  0.
         24    2    4    4    0    0  0.43928966780E+03  0.20878136431E+03 -0.10310077048E+03  0.50505566204E+03  0.88805307063E+02 0.  0.
         13    1    3    3    0    0  0.17183682542E+01 -0.36484867334E+02 -0.25196660623E+02  0.44373077878E+02  0.00000000000E+00 0. -1.
        -13    1    3    3    0    0 -0.21997056599E+03 -0.10097970547E+04 -0.12538838262E+04  0.16249005481E+04  0.00000000000E+00 0.  1.
          2    1    6    6  502    0  0.43512850593E+03  0.21491974091E+03 -0.10656018045E+03  0.49687260315E+03  0.00000000000E+00 0. -1.
          1    1    5    5  503    0 -0.20253993420E+03  0.64164091586E+03  0.73269565429E+02  0.67682635814E+03  0.00000000000E+00 0. -1.
         -2    1    5    5    0  503 -0.18497535858E+02  0.19585964190E+03  0.26978492229E+02  0.19857239788E+03  0.00000000000E+00 0.  1.
         -1    1    6    6    0  502  0.41611618674E+01 -0.61383765981E+01  0.34594099693E+01  0.81830588830E+01  0.00000000000E+00 0.  1.
<mgrwt>
<rscale>  0 0.27672167E+04</rscale>
<asrwt>0</asrwt>
<pdfrwt beam="1">  1        2 0.33320471E+00 0.27672167E+04</pdfrwt>
<pdfrwt beam="2">  1       -2 0.13598422E+00 0.27672167E+04</pdfrwt>
<totfact> 0.18235454E+00</totfact>
</mgrwt>
</event>
<event>
12    1  0.1477245E-007  0.1180222E+04  0.7818608E-02  0.9130347E-01
         -2   -1    0    0    0  501 -0.00000000000E+00  0.00000000000E+00  0.27337183535E+03  0.27337183535E+03  0.00000000000E+00 0.  1.
          2   -1    0    0  501    0  0.00000000000E+00 -0.00000000000E+00 -0.12738355675E+04  0.12738355675E+04  0.00000000000E+00 0. -1.
         23    2    1    2    0    0  0.11227269175E+03 -0.24660250374E+03 -0.27985453225E+02  0.28676927619E+03  0.89640838983E+02 0.  0.
        254    2    1    2    0    0 -0.11227269175E+03  0.24660250374E+03 -0.97247827896E+03  0.12604381267E+04  0.75470014973E+03 0.  0.
        -24    2    4    4    0    0  0.18654898440E+03  0.38987159051E+02 -0.83758322177E+03  0.86272687612E+03  0.80196553703E+02 0.  0.
         24    2    4    4    0    0 -0.29882167615E+03  0.20761534469E+03 -0.13489505718E+03  0.39771125057E+03  0.87057664187E+02 0.  0.
         11    1    3    3    0    0 -0.15443282166E+02 -0.20137368519E+02 -0.36206970937E+01  0.25634313378E+02  0.00000000000E+00 0. -1.
        -11    1    3    3    0    0  0.12771597392E+03 -0.22646513522E+03 -0.24364756131E+02  0.26113496282E+03  0.00000000000E+00 0.  1.
          4    1    6    6  502    0 -0.15896430237E+03  0.74009634487E+02 -0.30707663436E+02  0.17801695430E+03  0.00000000000E+00 0. -1.
          3    1    5    5  503    0  0.16296629693E+03  0.46081399798E+01 -0.61314094166E+03  0.63444547696E+03  0.00000000000E+00 0. -1.
         -4    1    5    5    0  503  0.23582687470E+02  0.34379019071E+02 -0.22444228011E+03  0.22828139916E+03  0.00000000000E+00 0.  1.
         -3    1    6    6    0  502 -0.13985737378E+03  0.13360571020E+03 -0.10418739375E+03  0.21969429627E+03  0.00000000000E+00 0.  1.
<mgrwt>
<rscale>  0 0.11802216E+04</rscale>
<asrwt>0</asrwt>
<pdfrwt beam="1">  1        2 0.19597470E+00 0.11802216E+04</pdfrwt>
<pdfrwt beam="2">  1       -2 0.42057206E-01 0.11802216E+04</pdfrwt>
<totfact> 0.90601088E+01</totfact>
</mgrwt>
</event>
<event>
12    1  0.1477245E-007  0.1981267E+04  0.7818608E-02  0.8615429E-01
         -2   -1    0    0    0  501 -0.00000000000E+00  0.00000000000E+00  0.28538993951E+03  0.28538993951E+03  0.00000000000E+00 0.  1.
          2   -1    0    0  501    0  0.00000000000E+00 -0.00000000000E+00 -0.34386458129E+04  0.34386458129E+04  0.00000000000E+00 0. -1.
         23    2    1    2    0    0  0.35214181149E+03  0.51677484928E+03 -0.21416596376E+04  0.22340902902E+04  0.11572951681E+03 0.  0.
        254    2    1    2    0    0 -0.35214181149E+03 -0.51677484928E+03 -0.10115962358E+04  0.14899454623E+04  0.89752461582E+03 0.  0.
        -24    2    4    4    0    0 -0.58711365376E+03 -0.57868193878E+03 -0.68268800015E+03  0.10730430842E+04  0.76048184080E+02 0.  0.
         24    2    4    4    0    0  0.23497184227E+03  0.61907089502E+02 -0.32890823567E+03  0.41690237808E+03  0.81133907614E+02 0.  0.
         11    1    3    3    0    0  0.20305239471E+03  0.38347352134E+03 -0.15469534176E+04  0.16066571173E+04  0.00000000000E+00 0. -1.
        -11    1    3    3    0    0  0.14908941678E+03  0.13330132793E+03 -0.59470622003E+03  0.62743317283E+03  0.00000000000E+00 0.  1.
          2    1    6    6  502    0  0.14896798744E+03  0.78180912908E+02 -0.20498573624E+03  0.26518459323E+03  0.00000000000E+00 0. -1.
          1    1    5    5  503    0 -0.10042869269E+03 -0.13699176593E+03 -0.15930737272E+03  0.23287658803E+03  0.00000000000E+00 0. -1.
         -2    1    5    5    0  503 -0.48668496107E+03 -0.44169017285E+03 -0.52338062743E+03  0.84016649617E+03  0.00000000000E+00 0.  1.
         -1    1    6    6    0  502  0.86003854831E+02 -0.16273823406E+02 -0.12392249943E+03  0.15171778485E+03  0.00000000000E+00 0.  1.
<mgrwt>
<rscale>  0 0.19812672E+04</rscale>
<asrwt>0</asrwt>
<pdfrwt beam="1">  1        2 0.52902242E+00 0.19812672E+04</pdfrwt>
<pdfrwt beam="2">  1       -2 0.43906146E-01 0.19812672E+04</pdfrwt>
<totfact> 0.41272958E+00</totfact>
</mgrwt>
</event>
<event>
12    1  0.1477245E-007  0.2518706E+04  0.7818608E-02  0.8396352E-01
         -2   -1    0    0    0  501 -0.00000000000E+00  0.00000000000E+00  0.38543713143E+03  0.38543713143E+03  0.00000000000E+00 0.  1.
          2   -1    0    0  501    0  0.00000000000E+00 -0.00000000000E+00 -0.41147294896E+04  0.41147294896E+04  0.00000000000E+00 0. -1.
         23    2    1    2    0    0 -0.22665350723E+02  0.10384159804E+04 -0.10061897832E+04  0.14489466825E+04  0.90593280052E+02 0.  0.
        254    2    1    2    0    0  0.22665350723E+02 -0.10384159804E+04 -0.27231025751E+04  0.30512199386E+04  0.90323530317E+03 0.  0.
        -24    2    4    4    0    0  0.13552717184E+03 -0.64889297195E+03 -0.24873383143E+04  0.25753915605E+04  0.79750213947E+02 0.  0.
         24    2    4    4    0    0 -0.11286182111E+03 -0.38952300848E+03 -0.23576426077E+03  0.47582837814E+03  0.79761481836E+02 0.  0.
         13    1    3    3    0    0 -0.32814061448E+02  0.10086226652E+04 -0.95848083975E+03  0.13917909195E+04  0.00000000000E+00 0.  1.
        -13    1    3    3    0    0  0.10148710726E+02  0.29793315204E+02 -0.47708943405E+02  0.57155762973E+02  0.00000000000E+00 0. -1.
          2    1    6    6  502    0 -0.11279581769E+03 -0.31338722159E+03 -0.21664728057E+03  0.39732919767E+03  0.00000000000E+00 0. -1.
          1    1    5    5  503    0  0.14198852026E+03 -0.63694888347E+03 -0.24061269256E+04  0.24930526272E+04  0.00000000000E+00 0. -1.
         -4    1    5    5    0  503 -0.64613484268E+01 -0.11944088471E+02 -0.81211388687E+02  0.82338933229E+02  0.00000000000E+00 0.  1.
         -1    1    6    6    0  502 -0.66003426308E-01 -0.76135786894E+02 -0.19116980198E+02  0.78499180469E+02  0.00000000000E+00 0.  1.
<mgrwt>
<rscale>  0 0.25187056E+04</rscale>
<asrwt>0</asrwt>
<pdfrwt beam="1">  1        2 0.63303531E+00 0.25187056E+04</pdfrwt>
<pdfrwt beam="2">  1       -2 0.59298019E-01 0.25187056E+04</pdfrwt>
<totfact> 0.65280948E-01</totfact>
</mgrwt>
</event>
<event>
12    1  0.1477245E-007  0.1496747E+04  0.7818608E-02  0.8886619E-01
         -1   -1    0    0    0  501 -0.00000000000E+00  0.00000000000E+00  0.39584785409E+03  0.39584785409E+03  0.00000000000E+00 0.  1.
          1   -1    0    0  501    0  0.00000000000E+00 -0.00000000000E+00 -0.14148431030E+04  0.14148431030E+04  0.00000000000E+00 0. -1.
         23    2    1    2    0    0  0.16366747226E+03 -0.28824569892E+03  0.76424364237E+02  0.35231499165E+03  0.91719929530E+02 0.  0.
        254    2    1    2    0    0 -0.16366747226E+03  0.28824569892E+03 -0.10954196132E+04  0.14583759655E+04  0.90390469814E+03 0.  0.
        -24    2    4    4    0    0 -0.44564604408E+03  0.19282463449E+03 -0.23749768264E+03  0.54632156839E+03  0.79248789044E+02 0.  0.
         24    2    4    4    0    0  0.28197857182E+03  0.95421064430E+02 -0.85792193056E+03  0.91205439710E+03  0.84829769735E+02 0.  0.
         13    1    3    3    0    0  0.32935719643E+02 -0.76668765226E+01  0.13684776922E+02  0.36480347359E+02  0.00000000000E+00 0. -1.
        -13    1    3    3    0    0  0.13073175261E+03 -0.28057882240E+03  0.62739587315E+02  0.31583464429E+03  0.00000000000E+00 0.  1.
          4    1    6    6  502    0  0.54713786497E+02  0.52521332595E+02 -0.26441500050E+03  0.27507704611E+03  0.00000000000E+00 0. -1.
          3    1    5    5  503    0 -0.10216802194E+03  0.82003206192E+02 -0.58977916140E+02  0.14367054369E+03  0.00000000000E+00 0. -1.
         -4    1    5    5    0  503 -0.34347802213E+03  0.11082142830E+03 -0.17851976650E+03  0.40265102470E+03  0.00000000000E+00 0.  1.
         -3    1    6    6    0  502  0.22726478532E+03  0.42899731835E+02 -0.59350693006E+03  0.63697735099E+03  0.00000000000E+00 0.  1.
<mgrwt>
<rscale>  0 0.14967466E+04</rscale>
<asrwt>0</asrwt>
<pdfrwt beam="1">  1        1 0.21766817E+00 0.14967466E+04</pdfrwt>
<pdfrwt beam="2">  1       -1 0.60899671E-01 0.14967466E+04</pdfrwt>
<totfact> 0.19844798E+01</totfact>
</mgrwt>
</event>
<event>
12    1  0.1477245E-007  0.1557197E+04  0.7818608E-02  0.8847284E-01
          2   -1    0    0  501    0  0.00000000000E+00  0.00000000000E+00  0.16090943007E+04  0.16090943007E+04  0.00000000000E+00 0.  1.
         -2   -1    0    0    0  501 -0.00000000000E+00 -0.00000000000E+00 -0.37674350627E+03  0.37674350627E+03  0.00000000000E+00 0. -1.
         23    2    1    2    0    0 -0.37610822666E+03 -0.23417249107E+02  0.86440495882E+03  0.94691789355E+03  0.86323800805E+02 0.  0.
        254    2    1    2    0    0  0.37610822666E+03  0.23417249107E+02  0.36794583559E+03  0.10389199134E+04  0.89552480859E+03 0.  0.
        -24    2    4    4    0    0  0.23486822029E+03 -0.38123852287E+03  0.39488386838E+03  0.60226167266E+03  0.79246202624E+02 0.  0.
         24    2    4    4    0    0  0.14124000637E+03  0.40465577198E+03 -0.26938032790E+02  0.43665824073E+03  0.79055223680E+02 0.  0.
         13    1    3    3    0    0 -0.28918947272E+03 -0.54021228527E+02  0.64323111137E+03  0.70731542249E+03  0.00000000000E+00 0.  1.
        -13    1    3    3    0    0 -0.86918753941E+02  0.30603979420E+02  0.22117384745E+03  0.23960247106E+03  0.00000000000E+00 0. -1.
          4    1    6    6  502    0  0.10527673363E+03  0.21923365023E+03  0.13216433511E+02  0.24355955771E+03  0.00000000000E+00 0. -1.
          1    1    5    5  503    0  0.19408969577E+03 -0.35932224240E+03  0.35190894995E+03  0.53909479031E+03  0.00000000000E+00 0. -1.
         -2    1    5    5    0  503  0.40778524527E+02 -0.21916280471E+02  0.42974918425E+02  0.63166882351E+02  0.00000000000E+00 0.  1.
         -3    1    6    6    0  502  0.35963272739E+02  0.18542212175E+03 -0.40154466301E+02  0.19309868302E+03  0.00000000000E+00 0.  1.
<mgrwt>
<rscale>  0 0.15571973E+04</rscale>
<asrwt>0</asrwt>
<pdfrwt beam="1">  1        2 0.24755297E+00 0.15571973E+04</pdfrwt>
<pdfrwt beam="2">  1       -2 0.57960540E-01 0.15571973E+04</pdfrwt>
<totfact> 0.29537343E+01</totfact>
</mgrwt>
</event>
<event>
12    1  0.1477245E-007  0.1591049E+04  0.7818608E-02  0.8826066E-01
         -1   -1    0    0    0  501 -0.00000000000E+00  0.00000000000E+00  0.87323890648E+03  0.87323890648E+03  0.00000000000E+00 0.  1.
          1   -1    0    0  501    0  0.00000000000E+00 -0.00000000000E+00 -0.72472607368E+03  0.72472607368E+03  0.00000000000E+00 0. -1.
         23    2    1    2    0    0 -0.33862995218E+03 -0.41140089685E+03  0.12770971745E+03  0.55543047478E+03  0.90952173946E+02 0.  0.
        254    2    1    2    0    0  0.33862995218E+03  0.41140089685E+03  0.20803115350E+02  0.10425345054E+04  0.89583730825E+03 0.  0.
        -24    2    4    4    0    0 -0.13503030548E+03  0.37375951954E+03  0.28348284755E+03  0.49402317680E+03  0.75940848760E+02 0.  0.
         24    2    4    4    0    0  0.47366025765E+03  0.37641377305E+02 -0.26267973220E+03  0.54851132858E+03  0.78058458266E+02 0.  0.
         13    1    3    3    0    0 -0.13589976499E+03 -0.12062289719E+03  0.10235523908E+02  0.18199833901E+03  0.00000000000E+00 0. -1.
        -13    1    3    3    0    0 -0.20273018719E+03 -0.29077799966E+03  0.11747419354E+03  0.37343213577E+03  0.00000000000E+00 0.  1.
          2    1    6    6  502    0  0.38216615130E+03  0.41857769165E+02 -0.17756141457E+03  0.42347502404E+03  0.00000000000E+00 0. -1.
          1    1    5    5  503    0 -0.11479285671E+03  0.26734925075E+03  0.24052289762E+03  0.37749739881E+03  0.00000000000E+00 0. -1.
         -2    1    5    5    0  503 -0.20237448770E+02  0.10641026880E+03  0.42959949927E+02  0.11652577799E+03  0.00000000000E+00 0.  1.
         -1    1    6    6    0  502  0.91494106351E+02 -0.42163918598E+01 -0.85118317629E+02  0.12503630454E+03  0.00000000000E+00 0.  1.
<mgrwt>
<rscale>  0 0.15910487E+04</rscale>
<asrwt>0</asrwt>
<pdfrwt beam="1">  1        1 0.11149632E+00 0.15910487E+04</pdfrwt>
<pdfrwt beam="2">  1       -1 0.13434445E+00 0.15910487E+04</pdfrwt>
<totfact> 0.11571922E+01</totfact>
</mgrwt>
</event>
<event>
12    1  0.1477245E-007  0.1917983E+04  0.7818608E-02  0.8645957E-01
          2   -1    0    0  501    0  0.00000000000E+00  0.00000000000E+00  0.96477025493E+03  0.96477025493E+03  0.00000000000E+00 0. -1.
         -2   -1    0    0    0  501 -0.00000000000E+00 -0.00000000000E+00 -0.95324734936E+03  0.95324734936E+03  0.00000000000E+00 0.  1.
         23    2    1    2    0    0 -0.42140499334E+03 -0.61231400424E+03  0.51333154638E+02  0.75044956267E+03  0.89603823264E+02 0.  0.
        254    2    1    2    0    0  0.42140499334E+03  0.61231400424E+03 -0.39810249069E+02  0.11675680416E+04  0.89951079354E+03 0.  0.
        -24    2    4    4    0    0 -0.20527678948E+03  0.44379026515E+03 -0.11898575979E+03  0.50908358803E+03  0.76942373417E+02 0.  0.
         24    2    4    4    0    0  0.62668178282E+03  0.16852373908E+03  0.79175510720E+02  0.65848445359E+03  0.78757263598E+02 0.  0.
         11    1    3    3    0    0 -0.38853878589E+03 -0.54640325542E+03  0.20981143313E+02  0.67078991797E+03  0.00000000000E+00 0. -1.
        -11    1    3    3    0    0 -0.32866207452E+02 -0.65910748816E+02  0.30352011325E+02  0.79659644697E+02  0.00000000000E+00 0.  1.
          2    1    6    6  502    0  0.55497652575E+03  0.17438308829E+03  0.68353972768E+02  0.58573088633E+03  0.00000000000E+00 0. -1.
          1    1    5    5  503    0 -0.70866627054E+02  0.10070169712E+03 -0.55950614115E+02  0.13525302900E+03  0.00000000000E+00 0. -1.
         -4    1    5    5    0  503 -0.13441016242E+03  0.34308856803E+03 -0.63035145673E+02  0.37383055904E+03  0.00000000000E+00 0.  1.
         -1    1    6    6    0  502  0.71705257076E+02 -0.58593492055E+01  0.10821537951E+02  0.72753567260E+02  0.00000000000E+00 0.  1.
<mgrwt>
<rscale>  0 0.19179830E+04</rscale>
<asrwt>0</asrwt>
<pdfrwt beam="1">  1        2 0.14842619E+00 0.19179830E+04</pdfrwt>
<pdfrwt beam="2">  1       -2 0.14665344E+00 0.19179830E+04</pdfrwt>
<totfact> 0.78959826E+00</totfact>
</mgrwt>
</event>
<event>
12    1  0.1477245E-007  0.2310062E+04  0.7818608E-02  0.8473964E-01
          2   -1    0    0  501    0  0.00000000000E+00  0.00000000000E+00  0.13151605299E+04  0.13151605299E+04  0.00000000000E+00 0. -1.
         -2   -1    0    0    0  501 -0.00000000000E+00 -0.00000000000E+00 -0.10143981050E+04  0.10143981050E+04  0.00000000000E+00 0.  1.
         23    2    1    2    0    0 -0.73098088716E+03 -0.42719386810E+03  0.60976473008E+03  0.10475649017E+04  0.93549660555E+02 0.  0.
        254    2    1    2    0    0  0.73098088716E+03  0.42719386810E+03 -0.30900230519E+03  0.12819937332E+04  0.91170052597E+03 0.  0.
        -24    2    4    4    0    0 -0.16982078470E+03  0.19093487535E+03 -0.21334590620E+03  0.34240268015E+03  0.80174148860E+02 0.  0.
         24    2    4    4    0    0  0.90080167186E+03  0.23625899276E+03 -0.95656398996E+02  0.93959105306E+03  0.80120138881E+02 0.  0.
         13    1    3    3    0    0 -0.43217707189E+03 -0.19942964885E+03  0.33186900114E+03  0.58024670635E+03  0.00000000000E+00 0. -1.
        -13    1    3    3    0    0 -0.29880381526E+03 -0.22776421925E+03  0.27789572894E+03  0.46731819540E+03  0.00000000000E+00 0.  1.
          4    1    6    6  502    0  0.63804616761E+03  0.19891859705E+03 -0.87818872053E+02  0.67407987253E+03  0.00000000000E+00 0. -1.
          3    1    5    5  503    0 -0.60587082797E+02  0.28559482833E+02 -0.27134035043E+02  0.72268212371E+02  0.00000000000E+00 0. -1.
         -4    1    5    5    0  503 -0.10923370190E+03  0.16237539251E+03 -0.18621187115E+03  0.27013446778E+03  0.00000000000E+00 0.  1.
         -3    1    6    6    0  502  0.26275550424E+03  0.37340395702E+02 -0.78375269431E+01  0.26551118054E+03  0.00000000000E+00 0.  1.
<mgrwt>
<rscale>  0 0.23100618E+04</rscale>
<asrwt>0</asrwt>
<pdfrwt beam="1">  1        2 0.20233239E+00 0.23100618E+04</pdfrwt>
<pdfrwt beam="2">  1       -2 0.15606125E+00 0.23100618E+04</pdfrwt>
<totfact> 0.39553067E+00</totfact>
</mgrwt>
</event>
<event>
12    1  0.1477245E-007  0.1204373E+04  0.7818608E-02  0.9109037E-01
          1   -1    0    0  501    0  0.00000000000E+00  0.00000000000E+00  0.39668304800E+04  0.39668304800E+04  0.00000000000E+00 0. -1.
         -1   -1    0    0    0  501 -0.00000000000E+00 -0.00000000000E+00 -0.91415260695E+02  0.91415260695E+02  0.00000000000E+00 0.  1.
         23    2    1    2    0    0  0.12881766943E+02  0.99290685332E+02  0.16557166347E+04  0.16611837758E+04  0.90052109850E+02 0.  0.
        254    2    1    2    0    0 -0.12881766943E+02 -0.99290685332E+02  0.22196985846E+04  0.23970619648E+04  0.89934402586E+03 0.  0.
        -24    2    4    4    0    0 -0.28821477884E+03 -0.39296388276E+03  0.12538275514E+04  0.13475653126E+04  0.79751934341E+02 0.  0.
         24    2    4    4    0    0  0.27533301190E+03  0.29367319743E+03  0.96587103313E+03  0.10494966523E+04  0.80524258126E+02 0.  0.
         11    1    3    3    0    0  0.40817684718E+02  0.83945341996E+02  0.14511519131E+04  0.14541508790E+04  0.00000000000E+00 0. -1.
        -11    1    3    3    0    0 -0.27935917775E+02  0.15345343335E+02  0.20456472154E+03  0.20703289682E+03  0.00000000000E+00 0.  1.
          2    1    6    6  502    0  0.27977572021E+03  0.29427092304E+03  0.95596297409E+03  0.10386217009E+04  0.00000000000E+00 0. -1.
          1    1    5    5  503    0 -0.24922527400E+03 -0.32956716352E+03  0.97421100469E+03  0.10582130382E+04  0.00000000000E+00 0. -1.
         -2    1    5    5    0  503 -0.38989504844E+02 -0.63396719238E+02  0.27961654675E+03  0.28935227442E+03  0.00000000000E+00 0.  1.
         -1    1    6    6    0  502 -0.44427083115E+01 -0.59772561585E+00  0.99080590436E+01  0.10874951359E+02  0.00000000000E+00 0.  1.
<mgrwt>
<rscale>  0 0.12043734E+04</rscale>
<asrwt>0</asrwt>
<pdfrwt beam="1">  1        1 0.61028148E+00 0.12043734E+04</pdfrwt>
<pdfrwt beam="2">  1       -1 0.14063889E-01 0.12043734E+04</pdfrwt>
<totfact> 0.38348796E+00</totfact>
</mgrwt>
</event>
<event>
12    1  0.1477245E-007  0.1331420E+04  0.7818608E-02  0.9005014E-01
         -1   -1    0    0    0  501 -0.00000000000E+00  0.00000000000E+00  0.51998286246E+03  0.51998286246E+03  0.00000000000E+00 0.  1.
          1   -1    0    0  501    0  0.00000000000E+00 -0.00000000000E+00 -0.85227727881E+03  0.85227727881E+03  0.00000000000E+00 0. -1.
         23    2    1    2    0    0 -0.22006297181E+03  0.13481058190E+03  0.16126388836E+03  0.31792469331E+03  0.92024259708E+02 0.  0.
        254    2    1    2    0    0  0.22006297181E+03 -0.13481058190E+03 -0.49355830471E+03  0.10543354480E+04  0.89522166648E+03 0.  0.
        -24    2    4    4    0    0  0.18160011391E+02  0.25260538352E+03 -0.54602167770E+03  0.60717689598E+03  0.79905223196E+02 0.  0.
         24    2    4    4    0    0  0.20190296042E+03 -0.38741596542E+03  0.52463372984E+02  0.44715855199E+03  0.79639371088E+02 0.  0.
         13    1    3    3    0    0 -0.11811613868E+03  0.51849981203E+02  0.30567367067E+02  0.13256774380E+03  0.00000000000E+00 0.  1.
        -13    1    3    3    0    0 -0.10194683313E+03  0.82960600694E+02  0.13069652130E+03  0.18535694951E+03  0.00000000000E+00 0. -1.
          4    1    6    6  502    0  0.10300079749E+03 -0.25624449972E+03  0.60358809948E+02  0.28268992528E+03  0.00000000000E+00 0. -1.
          3    1    5    5  503    0 -0.34445117542E+01  0.10278692422E+03 -0.31158989667E+03  0.32812387929E+03  0.00000000000E+00 0. -1.
         -4    1    5    5    0  503  0.21604523145E+02  0.14981845930E+03 -0.23443178102E+03  0.27905301668E+03  0.00000000000E+00 0.  1.
         -3    1    6    6    0  502  0.98902162926E+02 -0.13117146570E+03 -0.78954369633E+01  0.16446862670E+03  0.00000000000E+00 0.  1.
<mgrwt>
<rscale>  0 0.13314197E+04</rscale>
<asrwt>0</asrwt>
<pdfrwt beam="1">  1        1 0.13111958E+00 0.13314197E+04</pdfrwt>
<pdfrwt beam="2">  1       -1 0.79997364E-01 0.13314197E+04</pdfrwt>
<totfact> 0.30500910E+01</totfact>
</mgrwt>
</event>
<event>
12    1  0.1477245E-007  0.2052422E+04  0.7818608E-02  0.8582497E-01
         -2   -1    0    0    0  501 -0.00000000000E+00  0.00000000000E+00  0.29640890795E+03  0.29640890795E+03  0.00000000000E+00 0. -1.
          2   -1    0    0  501    0  0.00000000000E+00 -0.00000000000E+00 -0.35528911656E+04  0.35528911656E+04  0.00000000000E+00 0.  1.
         23    2    1    2    0    0  0.23250710862E+03 -0.43747370314E+03 -0.77871357481E+02  0.50875772987E+03  0.85601886015E+02 0.  0.
        254    2    1    2    0    0 -0.23250710862E+03  0.43747370314E+03 -0.31786109002E+04  0.33405423437E+04  0.90011838038E+03 0.  0.
        -24    2    4    4    0    0 -0.29747207089E+03 -0.13176732163E+03 -0.51225215723E+03  0.61214873504E+03  0.80445889990E+02 0.  0.
         24    2    4    4    0    0  0.64964962270E+02  0.56924102478E+03 -0.26663587430E+04  0.27283936086E+04  0.80043406764E+02 0.  0.
         11    1    3    3    0    0  0.15400753737E+03 -0.35645219497E+03 -0.77430144487E+02  0.39594433465E+03  0.00000000000E+00 0. -1.
        -11    1    3    3    0    0  0.78499571246E+02 -0.81021508170E+02 -0.44121299432E+00  0.11281339522E+03  0.00000000000E+00 0.  1.
          2    1    6    6  502    0  0.79991057862E+01  0.56339566602E+02 -0.39976090678E+03  0.40379068222E+03  0.00000000000E+00 0. -1.
          1    1    5    5  503    0 -0.12849873171E+03 -0.56080342680E+02 -0.29557096241E+03  0.32713777328E+03  0.00000000000E+00 0. -1.
         -2    1    5    5    0  503 -0.16897333917E+03 -0.75686978955E+02 -0.21668119482E+03  0.28501096176E+03  0.00000000000E+00 0.  1.
         -1    1    6    6    0  502  0.56965856483E+02  0.51290145818E+03 -0.22665978362E+04  0.23246029264E+04  0.00000000000E+00 0.  1.
<mgrwt>
<rscale>  0 0.20524216E+04</rscale>
<asrwt>0</asrwt>
<pdfrwt beam="1">  1        2 0.54659867E+00 0.20524216E+04</pdfrwt>
<pdfrwt beam="2">  1       -2 0.45601368E-01 0.20524216E+04</pdfrwt>
<totfact> 0.31645802E+00</totfact>
</mgrwt>
</event>
<event>
12    1  0.1477245E-007  0.2087232E+04  0.7818608E-02  0.8566889E-01
         -3   -1    0    0    0  501 -0.00000000000E+00  0.00000000000E+00  0.87049476827E+03  0.87049476827E+03  0.00000000000E+00 0.  1.
          3   -1    0    0  501    0  0.00000000000E+00 -0.00000000000E+00 -0.12511674530E+04  0.12511674530E+04  0.00000000000E+00 0. -1.
         23    2    1    2    0    0 -0.81752372602E+03  0.10973412612E+03  0.35632775020E+02  0.83064346659E+03  0.91171557401E+02 0.  0.
        254    2    1    2    0    0  0.81752372602E+03 -0.10973412612E+03 -0.41630545974E+03  0.12910187547E+04  0.90168318608E+03 0.  0.
        -24    2    4    4    0    0 -0.11812934940E+03 -0.21246502812E+03 -0.19379430191E+03  0.32081207655E+03  0.79172126658E+02 0.  0.
         24    2    4    4    0    0  0.93565307543E+03  0.10273090200E+03 -0.22251115783E+03  0.97020667813E+03  0.76088548000E+02 0.  0.
         11    1    3    3    0    0 -0.98523700195E+02  0.35478547214E+02 -0.16202141264E+02  0.10596299446E+03  0.00000000000E+00 0. -1.
        -11    1    3    3    0    0 -0.71900002583E+03  0.74255578908E+02  0.51834916284E+02  0.72468047213E+03  0.00000000000E+00 0.  1.
          2    1    6    6  502    0  0.29680135373E+03 -0.25709282131E+01 -0.75096128047E+02  0.30616512162E+03  0.00000000000E+00 0. -1.
          1    1    5    5  503    0 -0.63967730595E+02 -0.69458329632E+02 -0.11495697836E+03  0.14876638392E+03  0.00000000000E+00 0. -1.
         -2    1    5    5    0  503 -0.54161618809E+02 -0.14300669849E+03 -0.78837323553E+02  0.17204569262E+03  0.00000000000E+00 0.  1.
         -1    1    6    6    0  502  0.63885172170E+03  0.10530183021E+03 -0.14741502979E+03  0.66404155651E+03  0.00000000000E+00 0.  1.
<mgrwt>
<rscale>  0 0.20872324E+04</rscale>
<asrwt>0</asrwt>
<pdfrwt beam="1">  1        3 0.19248730E+00 0.20872324E+04</pdfrwt>
<pdfrwt beam="2">  1       -3 0.13392227E+00 0.20872324E+04</pdfrwt>
<totfact> 0.17073249E-01</totfact>
</mgrwt>
</event>
<event>
12    1  0.1477245E-007  0.1570167E+04  0.7818608E-02  0.8839088E-01
         -2   -1    0    0    0  501 -0.00000000000E+00  0.00000000000E+00  0.41126334022E+03  0.41126334022E+03  0.00000000000E+00 0.  1.
          2   -1    0    0  501    0  0.00000000000E+00 -0.00000000000E+00 -0.14986904717E+04  0.14986904717E+04  0.00000000000E+00 0. -1.
         23    2    1    2    0    0  0.44046592627E+03 -0.81943740603E+02 -0.30884072529E+02  0.45398234459E+03  0.66491611764E+02 0.  0.
        254    2    1    2    0    0 -0.44046592627E+03  0.81943740603E+02 -0.10565430589E+04  0.14559714673E+04  0.89601599841E+03 0.  0.
        -24    2    4    4    0    0 -0.27746857155E+03 -0.19384565863E+03  0.18899773010E+01  0.34736894571E+03  0.78081142817E+02 0.  0.
         24    2    4    4    0    0 -0.16299735472E+03  0.27578939924E+03 -0.10584330362E+04  0.11086025216E+04  0.78045681031E+02 0.  0.
         11    1    3    3    0    0  0.19242737677E+01 -0.30344330254E+01 -0.68680863307E+01  0.77512078520E+01  0.00000000000E+00 0. -1.
        -11    1    3    3    0    0  0.43854165250E+03 -0.78909307577E+02 -0.24015986198E+02  0.44623113674E+03  0.00000000000E+00 0.  1.
          4    1    6    6  502    0 -0.16476922559E+03  0.27389639409E+03 -0.10587895233E+04  0.11059852562E+04  0.00000000000E+00 0. -1.
          1    1    5    5  503    0 -0.19326207974E+03 -0.88994144399E+02 -0.32333973447E+01  0.21279249061E+03  0.00000000000E+00 0. -1.
         -2    1    5    5    0  503 -0.84206491811E+02 -0.10485151423E+03  0.51233746457E+01  0.13457645510E+03  0.00000000000E+00 0.  1.
         -3    1    6    6    0  502  0.17718708634E+01  0.18930051474E+01  0.35648707146E+00  0.26172653432E+01  0.00000000000E+00 0.  1.
<mgrwt>
<rscale>  0 0.15701674E+04</rscale>
<asrwt>0</asrwt>
<pdfrwt beam="1">  1        2 0.23056776E+00 0.15701674E+04</pdfrwt>
<pdfrwt beam="2">  1       -2 0.63271283E-01 0.15701674E+04</pdfrwt>
<totfact> 0.28266368E+01</totfact>
</mgrwt>
</event>
<event>
12    1  0.1477245E-007  0.1833034E+04  0.7818608E-02  0.8688927E-01
          2   -1    0    0  501    0  0.00000000000E+00  0.00000000000E+00  0.13522729002E+04  0.13522729002E+04  0.00000000000E+00 0. -1.
         -2   -1    0    0    0  501 -0.00000000000E+00 -0.00000000000E+00 -0.62117896408E+03  0.62117896408E+03  0.00000000000E+00 0.  1.
         23    2    1    2    0    0 -0.12775485889E+03 -0.82410608609E+02 -0.44976058417E+03  0.48301270192E+03  0.88903738697E+02 0.  0.
        254    2    1    2    0    0  0.12775485889E+03  0.82410608609E+02  0.11808545203E+04  0.14904391624E+04  0.89659282078E+03 0.  0.
        -24    2    4    4    0    0 -0.31811370017E+03  0.13246212496E+03  0.19374133166E+03  0.40376198397E+03  0.82130964452E+02 0.  0.
         24    2    4    4    0    0  0.44586855907E+03 -0.50051516351E+02  0.98711318867E+03  0.10866771784E+04  0.71909085856E+02 0.  0.
         11    1    3    3    0    0 -0.49952580360E+02  0.36278346426E+00 -0.23293542728E+03  0.23823162086E+03  0.00000000000E+00 0. -1.
        -11    1    3    3    0    0 -0.77802278535E+02 -0.82773392074E+02 -0.21682515690E+03  0.24478108106E+03  0.00000000000E+00 0.  1.
          4    1    6    6  502    0  0.82740791456E+02 -0.36387203554E+02  0.22015385720E+03  0.23798694921E+03  0.00000000000E+00 0. -1.
          3    1    5    5  503    0 -0.10403349945E+03  0.60238859747E+02  0.27670497182E+02  0.12335860588E+03  0.00000000000E+00 0. -1.
         -4    1    5    5    0  503 -0.21408020072E+03  0.72223265214E+02  0.16607083448E+03  0.28040337809E+03  0.00000000000E+00 0.  1.
         -3    1    6    6    0  502  0.36312776761E+03 -0.13664312797E+02  0.76695933147E+03  0.84869022923E+03  0.00000000000E+00 0.  1.
<mgrwt>
<rscale>  0 0.18330341E+04</rscale>
<asrwt>0</asrwt>
<pdfrwt beam="1">  1        2 0.20804198E+00 0.18330341E+04</pdfrwt>
<pdfrwt beam="2">  1       -2 0.95565995E-01 0.18330341E+04</pdfrwt>
<totfact> 0.13342704E+01</totfact>
</mgrwt>
</event>
<event>
12    1  0.1477245E-007  0.2343525E+04  0.7818608E-02  0.8460955E-01
          2   -1    0    0  501    0  0.00000000000E+00  0.00000000000E+00  0.11184642140E+04  0.11184642140E+04  0.00000000000E+00 0. -1.
         -2   -1    0    0    0  501 -0.00000000000E+00 -0.00000000000E+00 -0.12276005186E+04  0.12276005186E+04  0.00000000000E+00 0.  1.
         23    2    1    2    0    0  0.14784216164E+03 -0.97983148543E+03  0.12170804004E+03  0.10041994972E+04  0.10805895836E+03 0.  0.
        254    2    1    2    0    0 -0.14784216164E+03  0.97983148543E+03 -0.23084434459E+03  0.13418652355E+04  0.87486350604E+03 0.  0.
        -24    2    4    4    0    0  0.30308961610E+02  0.56826145988E+03 -0.54206224277E+03  0.79012370938E+03  0.81389686986E+02 0.  0.
         24    2    4    4    0    0 -0.17815112325E+03  0.41157002555E+03  0.31121789818E+03  0.55174152612E+03  0.80214854303E+02 0.  0.
         11    1    3    3    0    0  0.60618956055E+02 -0.29386355061E+03 -0.10269880347E+02  0.30022643896E+03  0.00000000000E+00 0.  1.
        -11    1    3    3    0    0  0.87223205584E+02 -0.68596793482E+03  0.13197792038E+03  0.70397305819E+03  0.00000000000E+00 0. -1.
          2    1    6    6  502    0 -0.83379617825E+02  0.28746857415E+03  0.19839829993E+03  0.35909918854E+03  0.00000000000E+00 0. -1.
          1    1    5    5  503    0 -0.20317058348E+02  0.68824349089E+02 -0.84799064051E+02  0.11108760125E+03  0.00000000000E+00 0. -1.
         -2    1    5    5    0  503  0.50626019958E+02  0.49943711079E+03 -0.45726317872E+03  0.67903610813E+03  0.00000000000E+00 0.  1.
         -1    1    6    6    0  502 -0.94771505424E+02  0.12410145140E+03  0.11281959825E+03  0.19264233758E+03  0.00000000000E+00 0.  1.
<mgrwt>
<rscale>  0 0.23435249E+04</rscale>
<asrwt>0</asrwt>
<pdfrwt beam="1">  1        2 0.17207142E+00 0.23435249E+04</pdfrwt>
<pdfrwt beam="2">  1       -2 0.18886162E+00 0.23435249E+04</pdfrwt>
<totfact> 0.30243969E+00</totfact>
</mgrwt>
</event>
<event>
12    1  0.1477245E-007  0.2321903E+04  0.7818608E-02  0.8469335E-01
          2   -1    0    0  501    0  0.00000000000E+00  0.00000000000E+00  0.13172922910E+04  0.13172922910E+04  0.00000000000E+00 0. -1.
         -2   -1    0    0    0  501 -0.00000000000E+00 -0.00000000000E+00 -0.10231660314E+04  0.10231660314E+04  0.00000000000E+00 0.  1.
         23    2    1    2    0    0  0.53762208738E+03  0.55373614988E+03  0.75637559934E+03  0.10844815483E+04  0.91295940257E+02 0.  0.
        254    2    1    2    0    0 -0.53762208738E+03 -0.55373614988E+03 -0.46224933971E+03  0.12559767742E+04  0.87643708999E+03 0.  0.
        -24    2    4    4    0    0 -0.28341722364E+03  0.20752594049E+03 -0.12421372649E+03  0.38138117869E+03  0.81426131985E+02 0.  0.
         24    2    4    4    0    0 -0.25420486374E+03 -0.76126209037E+03 -0.33803561322E+03  0.87459559550E+03  0.80680213679E+02 0.  0.
         13    1    3    3    0    0  0.37652868560E+03  0.32814591787E+03  0.46736091135E+03  0.68401740910E+03  0.00000000000E+00 0.  1.
        -13    1    3    3    0    0  0.16109340178E+03  0.22559023201E+03  0.28901468799E+03  0.40046413915E+03  0.00000000000E+00 0. -1.
          2    1    6    6  502    0 -0.14323870598E+03 -0.49387134906E+03 -0.18033821717E+03  0.54492945313E+03  0.00000000000E+00 0. -1.
          1    1    5    5  503    0  0.24020112531E+01  0.69308007930E+01 -0.12974416677E+02  0.14904400216E+02  0.00000000000E+00 0. -1.
         -2    1    5    5    0  503 -0.28581923490E+03  0.20059513970E+03 -0.11123930982E+03  0.36647677847E+03  0.00000000000E+00 0.  1.
         -1    1    6    6    0  502 -0.11096615776E+03 -0.26739074131E+03 -0.15769739605E+03  0.32966614237E+03  0.00000000000E+00 0.  1.
<mgrwt>
<rscale>  0 0.23219033E+04</rscale>
<asrwt>0</asrwt>
<pdfrwt beam="1">  1        2 0.20266035E+00 0.23219033E+04</pdfrwt>
<pdfrwt beam="2">  1       -2 0.15741016E+00 0.23219033E+04</pdfrwt>
<totfact> 0.38495131E+00</totfact>
</mgrwt>
</event>
<event>
12    1  0.1477245E-007  0.1230924E+04  0.7818608E-02  0.9086212E-01
          4   -1    0    0  501    0  0.00000000000E+00  0.00000000000E+00  0.99841075515E+03  0.99841075515E+03  0.00000000000E+00 0. -1.
         -4   -1    0    0    0  501 -0.00000000000E+00 -0.00000000000E+00 -0.37939620855E+03  0.37939620855E+03  0.00000000000E+00 0.  1.
         23    2    1    2    0    0  0.63621598879E+02  0.16704358172E+03  0.38514506922E+03  0.43454669502E+03  0.92427483868E+02 0.  0.
        254    2    1    2    0    0 -0.63621598879E+02 -0.16704358172E+03  0.23386947738E+03  0.94326026868E+03  0.89615497319E+03 0.  0.
        -24    2    4    4    0    0  0.11731178934E+02  0.21331096779E+03 -0.23612684532E+03  0.32859118246E+03  0.81099251366E+02 0.  0.
         24    2    4    4    0    0 -0.75352777813E+02 -0.38035454950E+03  0.46999632271E+03  0.61466908621E+03  0.81079699918E+02 0.  0.
         11    1    3    3    0    0  0.10518547388E+02 -0.10496285398E+02  0.42154220991E+02  0.44696646336E+02  0.00000000000E+00 0.  1.
        -11    1    3    3    0    0  0.53103051491E+02  0.17753986711E+03  0.34299084823E+03  0.38985004869E+03  0.00000000000E+00 0. -1.
          4    1    6    6  502    0 -0.10332037169E+02 -0.32492589334E+01  0.28075447041E+02  0.30092181746E+02  0.00000000000E+00 0. -1.
          1    1    5    5  503    0  0.39552918208E+01  0.75236990093E+02 -0.31602831717E+02  0.81700599656E+02  0.00000000000E+00 0. -1.
         -2    1    5    5    0  503  0.77758871131E+01  0.13807397769E+03 -0.20452401361E+03  0.24689058281E+03  0.00000000000E+00 0.  1.
         -3    1    6    6    0  502 -0.65020740644E+02 -0.37710529057E+03  0.44192087567E+03  0.58457690447E+03  0.00000000000E+00 0.  1.
<mgrwt>
<rscale>  0 0.12309236E+04</rscale>
<asrwt>0</asrwt>
<pdfrwt beam="1">  1        4 0.15360165E+00 0.12309236E+04</pdfrwt>
<pdfrwt beam="2">  1       -4 0.58368648E-01 0.12309236E+04</pdfrwt>
<totfact> 0.15278739E+00</totfact>
</mgrwt>
</event>
<event>
12    1  0.1477245E-007  0.2549646E+04  0.7818608E-02  0.8385509E-01
          2   -1    0    0  501    0  0.00000000000E+00  0.00000000000E+00  0.15039958872E+04  0.15039958872E+04  0.00000000000E+00 0.  1.
         -2   -1    0    0    0  501 -0.00000000000E+00 -0.00000000000E+00 -0.10805708923E+04  0.10805708923E+04  0.00000000000E+00 0. -1.
         23    2    1    2    0    0  0.17596227068E+03 -0.66105225699E+03  0.10788382531E+04  0.12805914783E+04  0.89831790748E+02 0.  0.
        254    2    1    2    0    0 -0.17596227068E+03  0.66105225699E+03 -0.65541325827E+03  0.13039753013E+04  0.89600906249E+03 0.  0.
        -24    2    4    4    0    0  0.13250047183E+03  0.43215843031E+03  0.84082315502E+02  0.46667964953E+03  0.80017345503E+02 0.  0.
         24    2    4    4    0    0 -0.30846274250E+03  0.22889382668E+03 -0.73949557377E+03  0.83729565175E+03  0.81661847957E+02 0.  0.
         11    1    3    3    0    0  0.33396081537E+02 -0.10902154733E+03  0.24784614016E+03  0.27281624812E+03  0.00000000000E+00 0. -1.
        -11    1    3    3    0    0  0.14256618914E+03 -0.55203070966E+03  0.83099211296E+03  0.10077752301E+04  0.00000000000E+00 0.  1.
          4    1    6    6  502    0 -0.14580067315E+03  0.64045077589E+02 -0.34194469784E+03  0.37720787987E+03  0.00000000000E+00 0. -1.
          1    1    5    5  503    0  0.85577958285E+02  0.35491228096E+03  0.43708543089E+02  0.36769110794E+03  0.00000000000E+00 0. -1.
         -2    1    5    5    0  503  0.46922513543E+02  0.77246149347E+02  0.40373772413E+02  0.98988541584E+02  0.00000000000E+00 0.  1.
         -3    1    6    6    0  502 -0.16266206936E+03  0.16484874909E+03 -0.39755087593E+03  0.46008777189E+03  0.00000000000E+00 0.  1.
<mgrwt>
<rscale>  0 0.25496464E+04</rscale>
<asrwt>0</asrwt>
<pdfrwt beam="1">  1        2 0.23138398E+00 0.25496464E+04</pdfrwt>
<pdfrwt beam="2">  1       -2 0.16624168E+00 0.25496464E+04</pdfrwt>
<totfact> 0.25440811E+00</totfact>
</mgrwt>
</event>
<event>
12    1  0.1477245E-007  0.1502927E+04  0.7818608E-02  0.8882509E-01
         -2   -1    0    0    0  501 -0.00000000000E+00  0.00000000000E+00  0.84862429380E+03  0.84862429380E+03  0.00000000000E+00 0.  1.
          2   -1    0    0  501    0  0.00000000000E+00 -0.00000000000E+00 -0.66542703521E+03  0.66542703521E+03  0.00000000000E+00 0. -1.
         23    2    1    2    0    0  0.23554041321E+03  0.12441163623E+03 -0.34171962262E+03  0.44361949640E+03  0.95228229108E+02 0.  0.
        254    2    1    2    0    0 -0.23554041321E+03 -0.12441163623E+03  0.52491688121E+03  0.10704318326E+04  0.89405203126E+03 0.  0.
        -24    2    4    4    0    0 -0.47049279173E+03 -0.35436163295E+03  0.32723928271E+03  0.67856930967E+03  0.80219236491E+02 0.  0.
         24    2    4    4    0    0  0.23495237852E+03  0.22994999672E+03  0.19767759850E+03  0.39186252293E+03  0.80001142290E+02 0.  0.
         11    1    3    3    0    0  0.30986943109E+02  0.47056164800E+02 -0.11803323596E+03  0.13079112386E+03  0.00000000000E+00 0.  1.
        -11    1    3    3    0    0  0.20455347010E+03  0.77355471426E+02 -0.22368638666E+03  0.31282837254E+03  0.00000000000E+00 0. -1.
          4    1    6    6  502    0  0.11498413370E+03  0.11384833959E+03  0.51071347551E+02  0.16967933867E+03  0.00000000000E+00 0. -1.
          3    1    5    5  503    0 -0.24464540471E+03 -0.14346409792E+03  0.18327225619E+03  0.33767149913E+03  0.00000000000E+00 0. -1.
         -4    1    5    5    0  503 -0.22584738702E+03 -0.21089753503E+03  0.14396702652E+03  0.34089781054E+03  0.00000000000E+00 0.  1.
         -3    1    6    6    0  502  0.11996824482E+03  0.11610165713E+03  0.14660625095E+03  0.22218318427E+03  0.00000000000E+00 0.  1.
<mgrwt>
<rscale>  0 0.15029272E+04</rscale>
<asrwt>0</asrwt>
<pdfrwt beam="1">  1        2 0.10237339E+00 0.15029272E+04</pdfrwt>
<pdfrwt beam="2">  1       -2 0.13055758E+00 0.15029272E+04</pdfrwt>
<totfact> 0.18116616E+01</totfact>
</mgrwt>
</event>
<event>
12    1  0.1477245E-007  0.1287338E+04  0.7818608E-02  0.9039667E-01
          1   -1    0    0  501    0  0.00000000000E+00  0.00000000000E+00  0.65783661496E+03  0.65783661496E+03  0.00000000000E+00 0. -1.
         -1   -1    0    0    0  501 -0.00000000000E+00 -0.00000000000E+00 -0.62980627613E+03  0.62980627613E+03  0.00000000000E+00 0.  1.
         23    2    1    2    0    0  0.72288823470E+02 -0.10086486825E+03 -0.28071909751E+03  0.32033295052E+03  0.91709278905E+02 0.  0.
        254    2    1    2    0    0 -0.72288823470E+02  0.10086486825E+03  0.30874943633E+03  0.96730994057E+03  0.90827468921E+03 0.  0.
        -24    2    4    4    0    0 -0.18843690261E+03 -0.25758253051E+02  0.59164653422E+03  0.62667495271E+03  0.80646891005E+02 0.  0.
         24    2    4    4    0    0  0.11614807915E+03  0.12662312130E+03 -0.28289709789E+03  0.34063498786E+03  0.80483761237E+02 0.  0.
         11    1    3    3    0    0  0.70945623424E+01 -0.20928253528E+02 -0.16011853963E+03  0.16163623153E+03  0.00000000000E+00 0.  1.
        -11    1    3    3    0    0  0.65194261127E+02 -0.79936614721E+02 -0.12060055788E+03  0.15869671899E+03  0.00000000000E+00 0. -1.
          4    1    6    6  502    0  0.29082099684E+02  0.44116381881E+02 -0.16170835077E+03  0.17012235121E+03  0.00000000000E+00 0. -1.
          3    1    5    5  503    0 -0.68387819503E+02  0.28811961909E+02  0.23441961051E+03  0.24588529195E+03  0.00000000000E+00 0. -1.
         -4    1    5    5    0  503 -0.12004908311E+03 -0.54570214960E+02  0.35722692371E+03  0.38078966076E+03  0.00000000000E+00 0.  1.
         -3    1    6    6    0  502  0.87065979461E+02  0.82506739420E+02 -0.12118874712E+03  0.17051263665E+03  0.00000000000E+00 0.  1.
<mgrwt>
<rscale>  0 0.12873378E+04</rscale>
<asrwt>0</asrwt>
<pdfrwt beam="1">  1        1 0.10120563E+00 0.12873378E+04</pdfrwt>
<pdfrwt beam="2">  1       -1 0.96893273E-01 0.12873378E+04</pdfrwt>
<totfact> 0.30148446E+01</totfact>
</mgrwt>
</event>
<event>
12    1  0.1477245E-007  0.1775400E+04  0.7818608E-02  0.8719492E-01
         -1   -1    0    0    0  501 -0.00000000000E+00  0.00000000000E+00  0.42234119389E+03  0.42234119389E+03  0.00000000000E+00 0.  1.
          1   -1    0    0  501    0  0.00000000000E+00 -0.00000000000E+00 -0.18658163914E+04  0.18658163914E+04  0.00000000000E+00 0. -1.
         23    2    1    2    0    0 -0.43764503770E+03 -0.49030173744E+03 -0.52052736777E+03  0.84315432623E+03  0.89618661479E+02 0.  0.
        254    2    1    2    0    0  0.43764503770E+03  0.49030173744E+03 -0.92294782974E+03  0.14450032591E+04  0.89681254983E+03 0.  0.
        -24    2    4    4    0    0 -0.14299477834E+03 -0.12546440688E+03 -0.38753706978E+03  0.44022985996E+03  0.86188892092E+02 0.  0.
         24    2    4    4    0    0  0.58063981603E+03  0.61576614432E+03 -0.53541075995E+03  0.10047733991E+04  0.81205672278E+02 0.  0.
         11    1    3    3    0    0 -0.40712611714E+02 -0.93473987137E+02 -0.84363291555E+02  0.13233317039E+03  0.00000000000E+00 0. -1.
        -11    1    3    3    0    0 -0.39693242598E+03 -0.39682775030E+03 -0.43616407622E+03  0.71082115584E+03  0.00000000000E+00 0.  1.
          2    1    6    6  502    0  0.75171716211E+02  0.10871843306E+03 -0.58668582266E+02  0.14461150421E+03  0.00000000000E+00 0. -1.
          1    1    5    5  503    0 -0.18762807302E+02 -0.51334849796E+02 -0.17335938925E+03  0.18177125070E+03  0.00000000000E+00 0. -1.
         -2    1    5    5    0  503 -0.12423197103E+03 -0.74129557085E+02 -0.21417768053E+03  0.25845860926E+03  0.00000000000E+00 0.  1.
         -1    1    6    6    0  502  0.50546809982E+03  0.50704771126E+03 -0.47674217769E+03  0.86016189489E+03  0.00000000000E+00 0.  1.
<mgrwt>
<rscale>  0 0.17753998E+04</rscale>
<asrwt>0</asrwt>
<pdfrwt beam="1">  1        1 0.28704868E+00 0.17753998E+04</pdfrwt>
<pdfrwt beam="2">  1       -1 0.64975567E-01 0.17753998E+04</pdfrwt>
<totfact> 0.83462788E+00</totfact>
</mgrwt>
</event>
<event>
12    1  0.1477245E-007  0.1527001E+04  0.7818608E-02  0.8866693E-01
         -2   -1    0    0    0  501 -0.00000000000E+00  0.00000000000E+00  0.19588582901E+03  0.19588582901E+03  0.00000000000E+00 0.  1.
          2   -1    0    0  501    0  0.00000000000E+00 -0.00000000000E+00 -0.29758824145E+04  0.29758824145E+04  0.00000000000E+00 0. -1.
         23    2    1    2    0    0 -0.21777699795E+02 -0.43233952292E+03 -0.14657675419E+04  0.15322004148E+04  0.10849835391E+03 0.  0.
        254    2    1    2    0    0  0.21777699795E+02  0.43233952292E+03 -0.13142290436E+04  0.16395678288E+04  0.87954133207E+03 0.  0.
        -24    2    4    4    0    0 -0.13192526718E+03 -0.12209780299E+03  0.62710389073E+01  0.19668747601E+03  0.79589494749E+02 0.  0.
         24    2    4    4    0    0  0.15370296698E+03  0.55443732591E+03 -0.13205000825E+04  0.14428803528E+04  0.84604338374E+02 0.  0.
         13    1    3    3    0    0 -0.36764471791E+02 -0.41796534461E+03 -0.13232420150E+04  0.13881700493E+04  0.00000000000E+00 0. -1.
        -13    1    3    3    0    0  0.14986771995E+02 -0.14374178304E+02 -0.14252552693E+03  0.14403036543E+03  0.00000000000E+00 0.  1.
          4    1    6    6  502    0  0.25748338809E+02  0.38934652817E+02 -0.15873111736E+03  0.16545226430E+03  0.00000000000E+00 0. -1.
          3    1    5    5  503    0 -0.85356014822E+02 -0.31442662613E+02  0.21943855060E+02  0.93572555129E+02  0.00000000000E+00 0. -1.
         -4    1    5    5    0  503 -0.46569252358E+02 -0.90655140377E+02 -0.15672816152E+02  0.10311492088E+03  0.00000000000E+00 0.  1.
         -3    1    6    6    0  502  0.12795462817E+03  0.51550267309E+03 -0.11617689652E+04  0.12774280885E+04  0.00000000000E+00 0.  1.
<mgrwt>
<rscale>  0 0.15270012E+04</rscale>
<asrwt>0</asrwt>
<pdfrwt beam="1">  1        2 0.45782802E+00 0.15270012E+04</pdfrwt>
<pdfrwt beam="2">  1       -2 0.30136284E-01 0.15270012E+04</pdfrwt>
<totfact> 0.17792659E+01</totfact>
</mgrwt>
</event>
<event>
12    1  0.1477245E-007  0.1248517E+04  0.7818608E-02  0.9071418E-01
          1   -1    0    0  501    0  0.00000000000E+00  0.00000000000E+00  0.56766479272E+03  0.56766479272E+03  0.00000000000E+00 0. -1.
         -1   -1    0    0    0  501 -0.00000000000E+00 -0.00000000000E+00 -0.68649444821E+03  0.68649444821E+03  0.00000000000E+00 0.  1.
         23    2    1    2    0    0 -0.15673554504E+03  0.45652705122E+02 -0.27876720993E+03  0.33566657687E+03  0.91163001997E+02 0.  0.
        254    2    1    2    0    0  0.15673554504E+03 -0.45652705122E+02  0.15993755444E+03  0.91849266406E+03  0.88960584083E+03 0.  0.
        -24    2    4    4    0    0 -0.20464165022E+03  0.30717340332E+03  0.15256093159E+03  0.40701922204E+03  0.78460847239E+02 0.  0.
         24    2    4    4    0    0  0.36137719526E+03 -0.35282610845E+03  0.73766228553E+01  0.51147344202E+03  0.80442073977E+02 0.  0.
         13    1    3    3    0    0 -0.72376219843E+02 -0.16893181800E+02 -0.16427872005E+03  0.18030860947E+03  0.00000000000E+00 0.  1.
        -13    1    3    3    0    0 -0.84359325197E+02  0.62545886922E+02 -0.11448848988E+03  0.15535796740E+03  0.00000000000E+00 0. -1.
          2    1    6    6  502    0  0.31864008032E+02 -0.52443855845E+01  0.37607519703E+01  0.32510949592E+02  0.00000000000E+00 0. -1.
          1    1    5    5  503    0 -0.12517904748E+03  0.20429908123E+03  0.58702819582E+02  0.24668589247E+03  0.00000000000E+00 0. -1.
         -2    1    5    5    0  503 -0.79462602745E+02  0.10287432210E+03  0.93858112006E+02  0.16033332957E+03  0.00000000000E+00 0.  1.
         -3    1    6    6    0  502  0.32951318723E+03 -0.34758172286E+03  0.36158708850E+01  0.47896249242E+03  0.00000000000E+00 0.  1.
<mgrwt>
<rscale>  0 0.12485171E+04</rscale>
<asrwt>0</asrwt>
<pdfrwt beam="1">  1        1 0.87333046E-01 0.12485171E+04</pdfrwt>
<pdfrwt beam="2">  1       -1 0.10561453E+00 0.12485171E+04</pdfrwt>
<totfact> 0.30735309E+01</totfact>
</mgrwt>
</event>
<event>
12    1  0.1477245E-007  0.2039603E+04  0.7818608E-02  0.8588326E-01
         -1   -1    0    0    0  501 -0.00000000000E+00  0.00000000000E+00  0.38477204516E+03  0.38477204516E+03  0.00000000000E+00 0. -1.
          1   -1    0    0  501    0  0.00000000000E+00 -0.00000000000E+00 -0.27028854012E+04  0.27028854012E+04  0.00000000000E+00 0.  1.
         23    2    1    2    0    0  0.41644374562E+03 -0.70149996965E+03 -0.10123265130E+04  0.13032398544E+04  0.90008601930E+02 0.  0.
        254    2    1    2    0    0 -0.41644374562E+03  0.70149996965E+03 -0.13057868431E+04  0.17844175920E+04  0.90196411371E+03 0.  0.
        -24    2    4    4    0    0 -0.17784277409E+03  0.76558381490E+03 -0.13040211956E+04  0.15246583173E+04  0.79781426569E+02 0.  0.
         24    2    4    4    0    0 -0.23860097153E+03 -0.64083845246E+02 -0.17656474157E+01  0.25975927465E+03  0.80215961131E+02 0.  0.
         11    1    3    3    0    0  0.18697167379E+03 -0.25331763629E+03 -0.43851418413E+03  0.53983601337E+03  0.00000000000E+00 0.  1.
        -11    1    3    3    0    0  0.22947207183E+03 -0.44818233337E+03 -0.57381232887E+03  0.76340384100E+03  0.00000000000E+00 0. -1.
          4    1    6    6  502    0 -0.14724558694E+03 -0.73685065452E+02  0.18507168836E+02  0.16569027444E+03  0.00000000000E+00 0. -1.
          1    1    5    5  503    0 -0.17175941523E+03  0.65167850019E+03 -0.10745986850E+04  0.12684433366E+04  0.00000000000E+00 0. -1.
         -2    1    5    5    0  503 -0.60833588631E+01  0.11390531472E+03 -0.22942251065E+03  0.25621498076E+03  0.00000000000E+00 0.  1.
         -3    1    6    6    0  502 -0.91355384589E+02  0.96012202056E+01 -0.20272816252E+02  0.94069000216E+02  0.00000000000E+00 0.  1.
<mgrwt>
<rscale>  0 0.20396027E+04</rscale>
<asrwt>0</asrwt>
<pdfrwt beam="1">  1        1 0.41582853E+00 0.20396027E+04</pdfrwt>
<pdfrwt beam="2">  1       -1 0.59195699E-01 0.20396027E+04</pdfrwt>
<totfact> 0.26143744E+00</totfact>
</mgrwt>
</event>
<event>
12    1  0.1477245E-007  0.1654040E+04  0.7818608E-02  0.8788020E-01
          2   -1    0    0  501    0  0.00000000000E+00  0.00000000000E+00  0.26718888308E+04  0.26718888308E+04  0.00000000000E+00 0. -1.
         -2   -1    0    0    0  501 -0.00000000000E+00 -0.00000000000E+00 -0.25598451311E+03  0.25598451311E+03  0.00000000000E+00 0.  1.
         23    2    1    2    0    0  0.41550797595E+03  0.29022283999E+03  0.36657855595E+03  0.63209375690E+03  0.91030241663E+02 0.  0.
        254    2    1    2    0    0 -0.41550797595E+03 -0.29022283999E+03  0.20493257617E+04  0.22957795870E+04  0.90221486326E+03 0.  0.
        -24    2    4    4    0    0  0.22522860984E+03 -0.14417230104E+03  0.23922969565E+03  0.36845998294E+03  0.83775489649E+02 0.  0.
         24    2    4    4    0    0 -0.64073658579E+03 -0.14605053895E+03  0.18100960661E+04  0.19273196041E+04  0.78987059070E+02 0.  0.
         13    1    3    3    0    0  0.14521071798E+03  0.11564525629E+03  0.83597377752E+02  0.20358904559E+03  0.00000000000E+00 0. -1.
        -13    1    3    3    0    0  0.27029725798E+03  0.17457758370E+03  0.28298117820E+03  0.42850471131E+03  0.00000000000E+00 0.  1.
          4    1    6    6  502    0 -0.28747358347E+03 -0.95770499830E+02  0.75576977224E+03  0.81424873255E+03  0.00000000000E+00 0. -1.
          1    1    5    5  503    0  0.21561443632E+03 -0.11575916161E+03  0.23283612158E+03  0.33779050928E+03  0.00000000000E+00 0. -1.
         -2    1    5    5    0  503  0.96141735166E+01 -0.28413139437E+02  0.63935740729E+01  0.30669473659E+02  0.00000000000E+00 0.  1.
         -3    1    6    6    0  502 -0.35326300233E+03 -0.50280039119E+02  0.10543262938E+04  0.11130708715E+04  0.00000000000E+00 0.  1.
<mgrwt>
<rscale>  0 0.16540401E+04</rscale>
<asrwt>0</asrwt>
<pdfrwt beam="1">  1        2 0.41105980E+00 0.16540401E+04</pdfrwt>
<pdfrwt beam="2">  1       -2 0.39382235E-01 0.16540401E+04</pdfrwt>
<totfact> 0.16115027E+01</totfact>
</mgrwt>
</event>
<event>
12    1  0.1477245E-007  0.1174000E+04  0.7818608E-02  0.9135924E-01
          2   -1    0    0  501    0  0.00000000000E+00  0.00000000000E+00  0.19921300019E+04  0.19921300019E+04  0.00000000000E+00 0. -1.
         -2   -1    0    0    0  501 -0.00000000000E+00 -0.00000000000E+00 -0.17296502899E+03  0.17296502899E+03  0.00000000000E+00 0.  1.
         23    2    1    2    0    0  0.64592668477E+02  0.19784393801E+03  0.20184195530E+03  0.30368213817E+03  0.90378257872E+02 0.  0.
        254    2    1    2    0    0 -0.64592668477E+02 -0.19784393801E+03  0.16173230176E+04  0.18614128928E+04  0.89766908007E+03 0.  0.
        -24    2    4    4    0    0  0.28457482184E+03 -0.34511893792E+03  0.48418936835E+03  0.66398796892E+03  0.79691705426E+02 0.  0.
         24    2    4    4    0    0 -0.34916749032E+03  0.14727499992E+03  0.11331336493E+04  0.11974249238E+04  0.78909563222E+02 0.  0.
         13    1    3    3    0    0  0.69807598279E+02  0.20412422519E+03  0.20196801622E+03  0.29551798535E+03  0.00000000000E+00 0.  1.
        -13    1    3    3    0    0 -0.52149298021E+01 -0.62802871864E+01 -0.12606091397E+00  0.81641528243E+01  0.00000000000E+00 0. -1.
          2    1    6    6  502    0 -0.26333147554E+02  0.38011020210E+02  0.13934502530E+03  0.14681726191E+03  0.00000000000E+00 0. -1.
          1    1    5    5  503    0  0.18213313193E+03 -0.24650741804E+03  0.27979167376E+03  0.41499610311E+03  0.00000000000E+00 0. -1.
         -2    1    5    5    0  503  0.10244168991E+03 -0.98611519887E+02  0.20439769459E+03  0.24899186581E+03  0.00000000000E+00 0.  1.
         -1    1    6    6    0  502 -0.32283434277E+03  0.10926397971E+03  0.99378862399E+03  0.10506076619E+04  0.00000000000E+00 0.  1.
<mgrwt>
<rscale>  0 0.11739997E+04</rscale>
<asrwt>0</asrwt>
<pdfrwt beam="1">  1        2 0.30648152E+00 0.11739997E+04</pdfrwt>
<pdfrwt beam="2">  1       -2 0.26610006E-01 0.11739997E+04</pdfrwt>
<totfact> 0.85524483E+01</totfact>
</mgrwt>
</event>
<event>
12    1  0.1477245E-007  0.1112022E+04  0.7818608E-02  0.9193553E-01
         -2   -1    0    0    0  501 -0.00000000000E+00  0.00000000000E+00  0.11477956256E+03  0.11477956256E+03  0.00000000000E+00 0.  1.
          2   -1    0    0  501    0  0.00000000000E+00 -0.00000000000E+00 -0.26934080506E+04  0.26934080506E+04  0.00000000000E+00 0. -1.
         23    2    1    2    0    0  0.12818479958E+03  0.10841534926E+03 -0.32942163769E+03  0.38050687310E+03  0.89897910433E+02 0.  0.
        254    2    1    2    0    0 -0.12818479958E+03 -0.10841534926E+03 -0.22492068503E+04  0.24276807400E+04  0.89806296506E+03 0.  0.
        -24    2    4    4    0    0  0.21506023994E+03  0.65729123096E+02 -0.18573486277E+04  0.18727160980E+04  0.82161027109E+02 0.  0.
         24    2    4    4    0    0 -0.34324503953E+03 -0.17414447235E+03 -0.39185822261E+03  0.55496464204E+03  0.79305944833E+02 0.  0.
         11    1    3    3    0    0  0.37516915660E+02  0.23493401713E+01 -0.23676450228E+02  0.44425360497E+02  0.00000000000E+00 0. -1.
        -11    1    3    3    0    0  0.90667883924E+02  0.10606600908E+03 -0.30574518746E+03  0.33608151260E+03  0.00000000000E+00 0.  1.
          2    1    6    6  502    0 -0.31617137398E+03 -0.17029699228E+03 -0.33162864497E+03  0.48881792262E+03  0.00000000000E+00 0. -1.
          3    1    5    5  503    0  0.13863402496E+03  0.78871697658E+02 -0.11198735780E+04  0.11311750387E+04  0.00000000000E+00 0. -1.
         -4    1    5    5    0  503  0.76426214985E+02 -0.13142574562E+02 -0.73747504973E+03  0.74154105927E+03  0.00000000000E+00 0.  1.
         -1    1    6    6    0  502 -0.27073665543E+02 -0.38474800665E+01 -0.60229577634E+02  0.66146719426E+02  0.00000000000E+00 0.  1.
<mgrwt>
<rscale>  0 0.11120219E+04</rscale>
<asrwt>0</asrwt>
<pdfrwt beam="1">  1        2 0.41437049E+00 0.11120219E+04</pdfrwt>
<pdfrwt beam="2">  1       -2 0.17658393E-01 0.11120219E+04</pdfrwt>
<totfact> 0.71452999E+01</totfact>
</mgrwt>
</event>
<event>
12    1  0.1477245E-007  0.1563348E+04  0.7818608E-02  0.8843387E-01
          3   -1    0    0  501    0  0.00000000000E+00  0.00000000000E+00  0.69049287226E+03  0.69049287226E+03  0.00000000000E+00 0. -1.
         -3   -1    0    0    0  501 -0.00000000000E+00 -0.00000000000E+00 -0.88489559816E+03  0.88489559816E+03  0.00000000000E+00 0.  1.
         23    2    1    2    0    0 -0.41705997099E+03 -0.26699890340E+03 -0.43029245017E+02  0.50528634624E+03  0.90748784813E+02 0.  0.
        254    2    1    2    0    0  0.41705997099E+03  0.26699890340E+03 -0.15137348088E+03  0.10701021242E+04  0.93647060373E+03 0.  0.
        -24    2    4    4    0    0  0.34483864383E+03  0.47672185371E+03 -0.40823773273E+03  0.72111065874E+03  0.84647029665E+02 0.  0.
         24    2    4    4    0    0  0.72221327161E+02 -0.20972295031E+03  0.25686425185E+03  0.34899146545E+03  0.81339800159E+02 0.  0.
         13    1    3    3    0    0 -0.35721551470E+03 -0.26103290498E+03 -0.28088156835E+02  0.44331709417E+03  0.00000000000E+00 0.  1.
        -13    1    3    3    0    0 -0.59844456294E+02 -0.59659984186E+01 -0.14941088181E+02  0.61969252072E+02  0.00000000000E+00 0. -1.
          4    1    6    6  502    0  0.71360590321E+02 -0.91363511242E+02  0.14955928333E+03  0.18922897312E+03  0.00000000000E+00 0. -1.
          3    1    5    5  503    0  0.30406097056E+03  0.44768972744E+03 -0.39286454890E+03  0.66874637917E+03  0.00000000000E+00 0. -1.
         -4    1    5    5    0  503  0.40777673269E+02  0.29032126276E+02 -0.15373183831E+02  0.52364279566E+02  0.00000000000E+00 0.  1.
         -3    1    6    6    0  502  0.86073684030E+00 -0.11835943907E+03  0.10730496852E+03  0.15976249232E+03  0.00000000000E+00 0.  1.
<mgrwt>
<rscale>  0 0.15633478E+04</rscale>
<asrwt>0</asrwt>
<pdfrwt beam="1">  1        3 0.10622967E+00 0.15633478E+04</pdfrwt>
<pdfrwt beam="2">  1       -3 0.13613778E+00 0.15633478E+04</pdfrwt>
<totfact> 0.78998730E-01</totfact>
</mgrwt>
</event>
<event>
12    1  0.1477245E-007  0.2276206E+04  0.7818608E-02  0.8487362E-01
          2   -1    0    0  501    0  0.00000000000E+00  0.00000000000E+00  0.26543042679E+04  0.26543042679E+04  0.00000000000E+00 0. -1.
         -2   -1    0    0    0  501 -0.00000000000E+00 -0.00000000000E+00 -0.48799172238E+03  0.48799172238E+03  0.00000000000E+00 0.  1.
         23    2    1    2    0    0  0.87012837559E+03 -0.13641287443E+03  0.14244119242E+04  0.16772293347E+04  0.91744476664E+02 0.  0.
        254    2    1    2    0    0 -0.87012837559E+03  0.13641287443E+03  0.74190062132E+03  0.14650666556E+04  0.90568863918E+03 0.  0.
        -24    2    4    4    0    0 -0.52856651690E+03 -0.36467374096E+03  0.44345557731E+03  0.78456702728E+03  0.80765531709E+02 0.  0.
         24    2    4    4    0    0 -0.34156185868E+03  0.50108661539E+03  0.29844504401E+03  0.68049962832E+03  0.79107524400E+02 0.  0.
         11    1    3    3    0    0  0.80543704948E+03 -0.10280028839E+03  0.13238621580E+04  0.15530317941E+04  0.00000000000E+00 0. -1.
        -11    1    3    3    0    0  0.64691326105E+02 -0.33612586038E+02  0.10054976616E+03  0.12419754059E+03  0.00000000000E+00 0.  1.
          2    1    6    6  502    0 -0.33771015258E+03  0.47864496523E+03  0.29907826914E+03  0.65772103582E+03  0.00000000000E+00 0. -1.
          1    1    5    5  503    0 -0.48230107404E+03 -0.31522650226E+03  0.37045857835E+03  0.68499754161E+03  0.00000000000E+00 0. -1.
         -2    1    5    5    0  503 -0.46265442864E+02 -0.49447238708E+02  0.72996998959E+02  0.99569485669E+02  0.00000000000E+00 0.  1.
         -1    1    6    6    0  502 -0.38517061050E+01  0.22441650166E+02 -0.63322513094E+00  0.22778592498E+02  0.00000000000E+00 0.  1.
<mgrwt>
<rscale>  0 0.22762061E+04</rscale>
<asrwt>0</asrwt>
<pdfrwt beam="1">  1        2 0.40835449E+00 0.22762061E+04</pdfrwt>
<pdfrwt beam="2">  1       -2 0.75075651E-01 0.22762061E+04</pdfrwt>
<totfact> 0.40918739E+00</totfact>
</mgrwt>
</event>
<event>
12    1  0.1477245E-007  0.1531161E+04  0.7818608E-02  0.8863992E-01
         -2   -1    0    0    0  501 -0.00000000000E+00  0.00000000000E+00  0.35690862028E+03  0.35690862028E+03  0.00000000000E+00 0.  1.
          2   -1    0    0  501    0  0.00000000000E+00 -0.00000000000E+00 -0.16421943156E+04  0.16421943156E+04  0.00000000000E+00 0. -1.
         23    2    1    2    0    0 -0.37370009868E+02 -0.29432267229E+03  0.88936476612E+02  0.32272949116E+03  0.90676758493E+02 0.  0.
        254    2    1    2    0    0  0.37370009868E+02  0.29432267229E+03 -0.13742221719E+04  0.16763734447E+04  0.91308214049E+03 0.  0.
        -24    2    4    4    0    0  0.78857535399E+02 -0.19616233821E+03 -0.10666310997E+04  0.10902997321E+04  0.79708401518E+02 0.  0.
         24    2    4    4    0    0 -0.41487525531E+02  0.49048501050E+03 -0.30759107225E+03  0.58607371258E+03  0.81076313124E+02 0.  0.
         13    1    3    3    0    0 -0.41658965479E+02 -0.10741578992E+03  0.70017336063E+02  0.13481857690E+03  0.00000000000E+00 0. -1.
        -13    1    3    3    0    0  0.42889556114E+01 -0.18690688237E+03  0.18919140549E+02  0.18791091426E+03  0.00000000000E+00 0.  1.
          4    1    6    6  502    0  0.18691171896E+02  0.19720631011E+03 -0.14405449373E+03  0.24493139002E+03  0.00000000000E+00 0. -1.
          3    1    5    5  503    0 -0.55490553867E+01 -0.35694852953E+02 -0.31707896079E+03  0.31913003920E+03  0.00000000000E+00 0. -1.
         -4    1    5    5    0  503  0.84406590786E+02 -0.16046748526E+03 -0.74955213889E+03  0.77116969294E+03  0.00000000000E+00 0.  1.
         -3    1    6    6    0  502 -0.60178697427E+02  0.29327870039E+03 -0.16353657851E+03  0.34114232256E+03  0.00000000000E+00 0.  1.
<mgrwt>
<rscale>  0 0.15311607E+04</rscale>
<asrwt>0</asrwt>
<pdfrwt beam="1">  1        2 0.25264528E+00 0.15311607E+04</pdfrwt>
<pdfrwt beam="2">  1       -2 0.54909018E-01 0.15311607E+04</pdfrwt>
<totfact> 0.31758145E+01</totfact>
</mgrwt>
</event>
<event>
12    1  0.1477245E-007  0.2329260E+04  0.7818608E-02  0.8466473E-01
         -2   -1    0    0    0  501 -0.00000000000E+00  0.00000000000E+00  0.17739616505E+04  0.17739616505E+04  0.00000000000E+00 0.  1.
          2   -1    0    0  501    0  0.00000000000E+00 -0.00000000000E+00 -0.76459539479E+03  0.76459539479E+03  0.00000000000E+00 0. -1.
         23    2    1    2    0    0  0.58643395841E+03  0.59618817140E+03 -0.14435744737E+03  0.85335480300E+03  0.89611516522E+02 0.  0.
        254    2    1    2    0    0 -0.58643395841E+03 -0.59618817140E+03  0.11537237030E+04  0.16852022422E+04  0.89971278253E+03 0.  0.
        -24    2    4    4    0    0  0.91271071304E+02 -0.17449816128E+03  0.76507273274E+03  0.79373282255E+03  0.76782097223E+02 0.  0.
         24    2    4    4    0    0 -0.67770502972E+03 -0.42169001011E+03  0.38865097029E+03  0.89146941970E+03  0.81003565500E+02 0.  0.
         13    1    3    3    0    0  0.19428996245E+03  0.18131459062E+03 -0.53699307879E+01  0.26580520393E+03  0.00000000000E+00 0.  1.
        -13    1    3    3    0    0  0.39214399597E+03  0.41487358078E+03 -0.13898751658E+03  0.58754959907E+03  0.00000000000E+00 0. -1.
          4    1    6    6  502    0 -0.26654201917E+03 -0.18437581956E+03  0.19859665627E+03  0.38010488382E+03  0.00000000000E+00 0. -1.
          3    1    5    5  503    0  0.39532144045E+02 -0.14806788694E+03  0.55861647402E+03  0.57925750284E+03  0.00000000000E+00 0. -1.
         -4    1    5    5    0  503  0.51738927259E+02 -0.26430274347E+02  0.20645625872E+03  0.21447531970E+03  0.00000000000E+00 0.  1.
         -3    1    6    6    0  502 -0.41116301055E+03 -0.23731419055E+03  0.19005431401E+03  0.51136453588E+03  0.00000000000E+00 0.  1.
<mgrwt>
<rscale>  0 0.23292599E+04</rscale>
<asrwt>0</asrwt>
<pdfrwt beam="1">  1        2 0.11763006E+00 0.23292599E+04</pdfrwt>
<pdfrwt beam="2">  1       -2 0.27291718E+00 0.23292599E+04</pdfrwt>
<totfact> 0.15386503E+00</totfact>
</mgrwt>
</event>
<event>
12    1  0.1477245E-007  0.1716227E+04  0.7818608E-02  0.8752163E-01
         -2   -1    0    0    0  501 -0.00000000000E+00  0.00000000000E+00  0.92202788394E+03  0.92202788394E+03  0.00000000000E+00 0. -1.
          2   -1    0    0  501    0  0.00000000000E+00 -0.00000000000E+00 -0.79862940205E+03  0.79862940205E+03  0.00000000000E+00 0.  1.
         23    2    1    2    0    0 -0.31761955523E+03 -0.28609261903E+03 -0.37341445524E+03  0.57484315477E+03  0.90967734285E+02 0.  0.
        254    2    1    2    0    0  0.31761955523E+03  0.28609261903E+03  0.49681293713E+03  0.11458141312E+04  0.93985943645E+03 0.  0.
        -24    2    4    4    0    0  0.16801239894E+03 -0.30906399404E+03  0.36475824635E+03  0.51321111983E+03  0.81168692443E+02 0.  0.
         24    2    4    4    0    0  0.14960715629E+03  0.59515661307E+03  0.13205469079E+03  0.63260301139E+03  0.78450196776E+02 0.  0.
         13    1    3    3    0    0 -0.88473963572E+02 -0.30735641499E+02 -0.88753025101E+02  0.12903263677E+03  0.00000000000E+00 0. -1.
        -13    1    3    3    0    0 -0.22914559165E+03 -0.25535697753E+03 -0.28466143014E+03  0.44581051800E+03  0.00000000000E+00 0.  1.
          4    1    6    6  502    0  0.15755903002E+03  0.52806300020E+03  0.11550584457E+03  0.56304260962E+03  0.00000000000E+00 0. -1.
          3    1    5    5  503    0  0.13509438606E+03 -0.19627721550E+03  0.20140102112E+03  0.31198975909E+03  0.00000000000E+00 0. -1.
         -4    1    5    5    0  503  0.32918012880E+02 -0.11278677853E+03  0.16335722522E+03  0.20122136074E+03  0.00000000000E+00 0.  1.
         -3    1    6    6    0  502 -0.79518737291E+01  0.67093612871E+02  0.16548846218E+02  0.69560401775E+02  0.00000000000E+00 0.  1.
<mgrwt>
<rscale>  0 0.17162268E+04</rscale>
<asrwt>0</asrwt>
<pdfrwt beam="1">  1        2 0.12286606E+00 0.17162268E+04</pdfrwt>
<pdfrwt beam="2">  1       -2 0.14185044E+00 0.17162268E+04</pdfrwt>
<totfact> 0.11384153E+01</totfact>
</mgrwt>
</event>
<event>
12    1  0.1477245E-007  0.4706316E+04  0.7818608E-02  0.7875480E-01
         -1   -1    0    0    0  501 -0.00000000000E+00  0.00000000000E+00  0.13183471825E+04  0.13183471825E+04  0.00000000000E+00 0.  1.
          1   -1    0    0  501    0  0.00000000000E+00 -0.00000000000E+00 -0.42002225093E+04  0.42002225093E+04  0.00000000000E+00 0. -1.
         23    2    1    2    0    0  0.11317241474E+03 -0.21227337597E+04 -0.23127106287E+04  0.31424949125E+04  0.88528035347E+02 0.  0.
        254    2    1    2    0    0 -0.11317241474E+03  0.21227337597E+04 -0.56916469818E+03  0.23760747794E+04  0.89608944498E+03 0.  0.
        -24    2    4    4    0    0 -0.52107154209E+01  0.14040371882E+03  0.19030089763E+03  0.24911273544E+03  0.78117651680E+02 0.  0.
         24    2    4    4    0    0 -0.10796169932E+03  0.19823300409E+04 -0.75946559581E+03  0.21269620439E+04  0.76755622306E+02 0.  0.
         11    1    3    3    0    0  0.38590161364E+02 -0.14517776772E+04 -0.15993755553E+04  0.21603587182E+04  0.00000000000E+00 0. -1.
        -11    1    3    3    0    0  0.74582253380E+02 -0.67095608255E+03 -0.71333507332E+03  0.98213619424E+03  0.00000000000E+00 0.  1.
          2    1    6    6  502    0 -0.96218540964E+02  0.16837936401E+04 -0.67379038275E+03  0.18161532177E+04  0.00000000000E+00 0. -1.
          1    1    5    5  503    0 -0.34672297849E+02  0.99119688828E+02  0.15537518425E+03  0.18753220745E+03  0.00000000000E+00 0. -1.
         -2    1    5    5    0  503  0.29461582428E+02  0.41284029992E+02  0.34925713380E+02  0.61580527983E+02  0.00000000000E+00 0.  1.
         -1    1    6    6    0  502 -0.11743158359E+02  0.29853640075E+03 -0.85675213059E+02  0.31080882625E+03  0.00000000000E+00 0.  1.
<mgrwt>
<rscale>  0 0.47063155E+04</rscale>
<asrwt>0</asrwt>
<pdfrwt beam="1">  1        1 0.64618808E+00 0.47063155E+04</pdfrwt>
<pdfrwt beam="2">  1       -1 0.20282264E+00 0.47063155E+04</pdfrwt>
<totfact> 0.66909161E-03</totfact>
</mgrwt>
</event>
<event>
12    1  0.1477245E-007  0.2436332E+04  0.7818608E-02  0.8426025E-01
          1   -1    0    0  501    0  0.00000000000E+00  0.00000000000E+00  0.19888719716E+04  0.19888719716E+04  0.00000000000E+00 0. -1.
         -1   -1    0    0    0  501 -0.00000000000E+00 -0.00000000000E+00 -0.74611586251E+03  0.74611586251E+03  0.00000000000E+00 0.  1.
         23    2    1    2    0    0 -0.72784987686E+03 -0.11176714603E+03  0.13634774013E+04  0.15523762965E+04  0.92434863666E+02 0.  0.
        254    2    1    2    0    0  0.72784987686E+03  0.11176714603E+03 -0.12072129219E+03  0.11826115376E+04  0.91746339453E+03 0.  0.
        -24    2    4    4    0    0  0.82245180857E+03 -0.17708295184E+03 -0.17595250406E+03  0.86326395115E+03  0.80498549132E+02 0.  0.
         24    2    4    4    0    0 -0.94601931717E+02  0.28885009787E+03  0.55231211869E+02  0.31934758645E+03  0.80922738962E+02 0.  0.
         11    1    3    3    0    0 -0.60737663329E+03 -0.12143671203E+03  0.10973767976E+04  0.12601147113E+04  0.00000000000E+00 0. -1.
        -11    1    3    3    0    0 -0.12047324357E+03  0.96695660036E+01  0.26610060369E+03  0.29226158524E+03  0.00000000000E+00 0.  1.
          2    1    6    6  502    0 -0.35606512754E+02  0.31280504057E+02  0.24424109468E+02  0.53318203344E+02  0.00000000000E+00 0. -1.
          1    1    5    5  503    0  0.56808681304E+03 -0.10183578770E+03 -0.88068515786E+02  0.58382293402E+03  0.00000000000E+00 0. -1.
         -2    1    5    5    0  503  0.25436499553E+03 -0.75247164145E+02 -0.87883988269E+02  0.27944101713E+03  0.00000000000E+00 0.  1.
         -1    1    6    6    0  502 -0.58995418963E+02  0.25756959382E+03  0.30807102401E+02  0.26602938311E+03  0.00000000000E+00 0.  1.
<mgrwt>
<rscale>  0 0.24363324E+04</rscale>
<asrwt>0</asrwt>
<pdfrwt beam="1">  1        1 0.30598030E+00 0.24363324E+04</pdfrwt>
<pdfrwt beam="2">  1       -1 0.11478706E+00 0.24363324E+04</pdfrwt>
<totfact> 0.18672724E+00</totfact>
</mgrwt>
</event>
<event>
12    1  0.1477245E-007  0.1702579E+04  0.7818608E-02  0.8759895E-01
         -2   -1    0    0    0  501 -0.00000000000E+00  0.00000000000E+00  0.29282658096E+03  0.29282658096E+03  0.00000000000E+00 0.  1.
          2   -1    0    0  501    0  0.00000000000E+00 -0.00000000000E+00 -0.24748233283E+04  0.24748233283E+04  0.00000000000E+00 0. -1.
         23    2    1    2    0    0 -0.41133016837E+03 -0.25313620731E+03 -0.18262990828E+03  0.52495071611E+03  0.94599810141E+02 0.  0.
        254    2    1    2    0    0  0.41133016837E+03  0.25313620731E+03 -0.19993668391E+04  0.22426991932E+04  0.89384644488E+03 0.  0.
        -24    2    4    4    0    0  0.34802417165E+03 -0.14738856116E+03 -0.16694802211E+04  0.17138406156E+04  0.85095447666E+02 0.  0.
         24    2    4    4    0    0  0.63305996713E+02  0.40052476847E+03 -0.32988661799E+03  0.52885857754E+03  0.80240107965E+02 0.  0.
         13    1    3    3    0    0 -0.65782164866E+02 -0.26622539101E+02 -0.62772778423E+02  0.94744258473E+02  0.00000000000E+00 0. -1.
        -13    1    3    3    0    0 -0.34554800350E+03 -0.22651366821E+03 -0.11985712986E+03  0.43020645763E+03  0.00000000000E+00 0.  1.
          2    1    6    6  502    0 -0.66968108503E+01  0.18604475769E+03 -0.17225112907E+03  0.25362955389E+03  0.00000000000E+00 0. -1.
          1    1    5    5  503    0  0.23615646069E+03 -0.95595611276E+02 -0.93509571087E+03  0.96918129538E+03  0.00000000000E+00 0. -1.
         -4    1    5    5    0  503  0.11186771097E+03 -0.51792949883E+02 -0.73438451022E+03  0.74465932027E+03  0.00000000000E+00 0.  1.
         -1    1    6    6    0  502  0.70002807563E+02  0.21448001078E+03 -0.15763548892E+03  0.27522902365E+03  0.00000000000E+00 0.  1.
<mgrwt>
<rscale>  0 0.17025793E+04</rscale>
<asrwt>0</asrwt>
<pdfrwt beam="1">  1        2 0.38074203E+00 0.17025793E+04</pdfrwt>
<pdfrwt beam="2">  1       -2 0.45050246E-01 0.17025793E+04</pdfrwt>
<totfact> 0.16027663E+01</totfact>
</mgrwt>
</event>
<event>
12    1  0.1477245E-007  0.1933566E+04  0.7818608E-02  0.8638327E-01
         -2   -1    0    0    0  501 -0.00000000000E+00  0.00000000000E+00  0.64582386110E+03  0.64582386110E+03  0.00000000000E+00 0.  1.
          2   -1    0    0  501    0  0.00000000000E+00 -0.00000000000E+00 -0.14472510834E+04  0.14472510834E+04  0.00000000000E+00 0. -1.
         23    2    1    2    0    0 -0.46677348656E+03 -0.49862833460E+03 -0.64907497508E+03  0.94654491091E+03  0.90228827313E+02 0.  0.
        254    2    1    2    0    0  0.46677348656E+03  0.49862833460E+03 -0.15235224719E+03  0.11465300336E+04  0.90819172360E+03 0.  0.
        -24    2    4    4    0    0  0.47075530627E+03 -0.51415553462E+02 -0.30561928775E+03  0.56989431774E+03  0.84393523594E+02 0.  0.
         24    2    4    4    0    0 -0.39818197105E+01  0.55004388806E+03  0.15326704056E+03  0.57663571583E+03  0.80335729041E+02 0.  0.
         11    1    3    3    0    0 -0.14400712860E+02  0.10675303356E+01 -0.19035115544E+02  0.23892588300E+02  0.00000000000E+00 0.  1.
        -11    1    3    3    0    0 -0.45237277370E+03 -0.49969586493E+03 -0.63003985953E+03  0.92265232261E+03  0.00000000000E+00 0. -1.
          4    1    6    6  502    0  0.12850287457E+02  0.52661065363E+03  0.14121242115E+03  0.54536671909E+03  0.00000000000E+00 0. -1.
          3    1    5    5  503    0  0.36244410383E+03 -0.83820513882E+01 -0.25254595222E+03  0.44183191959E+03  0.00000000000E+00 0. -1.
         -4    1    5    5    0  503  0.10831120244E+03 -0.43033502074E+02 -0.53073335534E+02  0.12806239815E+03  0.00000000000E+00 0.  1.
         -3    1    6    6    0  502 -0.16832107168E+02  0.23433234433E+02  0.12054619414E+02  0.31268996736E+02  0.00000000000E+00 0.  1.
<mgrwt>
<rscale>  0 0.19335659E+04</rscale>
<asrwt>0</asrwt>
<pdfrwt beam="1">  1        2 0.22265401E+00 0.19335659E+04</pdfrwt>
<pdfrwt beam="2">  1       -2 0.99357517E-01 0.19335659E+04</pdfrwt>
<totfact> 0.10654706E+01</totfact>
</mgrwt>
</event>
<event>
12    1  0.1477245E-007  0.2147929E+04  0.7818608E-02  0.8540419E-01
         -2   -1    0    0    0  501 -0.00000000000E+00  0.00000000000E+00  0.95582228614E+03  0.95582228614E+03  0.00000000000E+00 0. -1.
          2   -1    0    0  501    0  0.00000000000E+00 -0.00000000000E+00 -0.12067089210E+04  0.12067089210E+04  0.00000000000E+00 0.  1.
         23    2    1    2    0    0 -0.36580417843E+03  0.78187618155E+03 -0.28691315444E+02  0.86818108929E+03  0.88159809367E+02 0.  0.
        254    2    1    2    0    0  0.36580417843E+03 -0.78187618155E+03 -0.22219531938E+03  0.12943501178E+04  0.93852459066E+03 0.  0.
        -24    2    4    4    0    0 -0.52493888191E+02  0.45664493131E+02 -0.34014078935E+03  0.35621210573E+03  0.79689732471E+02 0.  0.
         24    2    4    4    0    0  0.41829806662E+03 -0.82754067468E+03  0.11794546997E+03  0.93813801207E+03  0.79968462664E+02 0.  0.
         13    1    3    3    0    0 -0.30821621283E+03  0.59799469014E+03 -0.48382631618E+02  0.67448926035E+03  0.00000000000E+00 0.  1.
        -13    1    3    3    0    0 -0.57587965598E+02  0.18388149141E+03  0.19691316174E+02  0.19369182894E+03  0.00000000000E+00 0. -1.
          4    1    6    6  502    0  0.26197561591E+02 -0.59363945606E+02 -0.11864170559E+02  0.65963238355E+02  0.00000000000E+00 0. -1.
          1    1    5    5  503    0 -0.43795394546E+00  0.30184298735E+02 -0.34754401711E+02  0.46034249554E+02  0.00000000000E+00 0. -1.
         -2    1    5    5    0  503 -0.52055934245E+02  0.15480194396E+02 -0.30538638764E+03  0.31017785618E+03  0.00000000000E+00 0.  1.
         -3    1    6    6    0  502  0.39210050503E+03 -0.76817672908E+03  0.12980964053E+03  0.87217477372E+03  0.00000000000E+00 0.  1.
<mgrwt>
<rscale>  0 0.21479286E+04</rscale>
<asrwt>0</asrwt>
<pdfrwt beam="1">  1        2 0.18564752E+00 0.21479286E+04</pdfrwt>
<pdfrwt beam="2">  1       -2 0.14704958E+00 0.21479286E+04</pdfrwt>
<totfact> 0.54405620E+00</totfact>
</mgrwt>
</event>
<event>
12    1  0.1477245E-007  0.1390213E+04  0.7818608E-02  0.8960934E-01
         -2   -1    0    0    0  501 -0.00000000000E+00  0.00000000000E+00  0.74824887891E+03  0.74824887891E+03  0.00000000000E+00 0. -1.
          2   -1    0    0  501    0  0.00000000000E+00 -0.00000000000E+00 -0.64573802285E+03  0.64573802285E+03  0.00000000000E+00 0.  1.
         23    2    1    2    0    0  0.16518065657E+03 -0.33778984157E+03 -0.99575192080E+01  0.39096126647E+03  0.10660644124E+03 0.  0.
        254    2    1    2    0    0 -0.16518065657E+03  0.33778984157E+03  0.11246837526E+03  0.10030256353E+04  0.92305182045E+03 0.  0.
        -24    2    4    4    0    0 -0.45345677968E+03  0.33108719551E+03  0.30886467595E+03  0.64592863615E+03  0.81145750779E+02 0.  0.
         24    2    4    4    0    0  0.28827612311E+03  0.67026460612E+01 -0.19639630069E+03  0.35709699914E+03  0.76149269536E+02 0.  0.
         11    1    3    3    0    0  0.15621735182E+03 -0.34422194202E+03 -0.16062318186E+02  0.37835248704E+03  0.00000000000E+00 0.  1.
        -11    1    3    3    0    0  0.89633047473E+01  0.64321004495E+01  0.61047989777E+01  0.12608779431E+02  0.00000000000E+00 0. -1.
          4    1    6    6  502    0  0.10536337834E+03 -0.32968510669E+01 -0.11688660959E+03  0.15740009601E+03  0.00000000000E+00 0. -1.
          1    1    5    5  503    0 -0.15055661147E+03  0.15658897045E+03  0.13165107381E+03  0.25400670101E+03  0.00000000000E+00 0. -1.
         -2    1    5    5    0  503 -0.30290016822E+03  0.17449822506E+03  0.17721360214E+03  0.39192193513E+03  0.00000000000E+00 0.  1.
         -1    1    6    6    0  502  0.18291274477E+03  0.99994971281E+01 -0.79509691102E+02  0.19969690313E+03  0.00000000000E+00 0.  1.
<mgrwt>
<rscale>  0 0.13902126E+04</rscale>
<asrwt>0</asrwt>
<pdfrwt beam="1">  1        2 0.99344311E-01 0.13902126E+04</pdfrwt>
<pdfrwt beam="2">  1       -2 0.11511521E+00 0.13902126E+04</pdfrwt>
<totfact> 0.25968317E+01</totfact>
</mgrwt>
</event>
<event>
12    1  0.1477245E-007  0.1349410E+04  0.7818608E-02  0.8991275E-01
          1   -1    0    0  501    0  0.00000000000E+00  0.00000000000E+00  0.23948811643E+03  0.23948811643E+03  0.00000000000E+00 0. -1.
         -1   -1    0    0    0  501 -0.00000000000E+00 -0.00000000000E+00 -0.19008316117E+04  0.19008316117E+04  0.00000000000E+00 0.  1.
         23    2    1    2    0    0 -0.21375075339E+03 -0.45637978260E+02 -0.12464222101E+03  0.26860209943E+03  0.94016992750E+02 0.  0.
        254    2    1    2    0    0  0.21375075339E+03  0.45637978260E+02 -0.15367012743E+04  0.18717176287E+04  0.10459941996E+04 0.  0.
        -24    2    4    4    0    0 -0.34110014621E+03 -0.12916174747E+03 -0.22789900521E+03  0.43723361862E+03  0.78760484577E+02 0.  0.
         24    2    4    4    0    0  0.55485089959E+03  0.17479972573E+03 -0.13088022691E+04  0.14344840101E+04  0.79790543155E+02 0.  0.
         13    1    3    3    0    0 -0.20777042880E+03 -0.17828810002E+02 -0.11714898275E+03  0.23918675069E+03  0.00000000000E+00 0. -1.
        -13    1    3    3    0    0 -0.59803245879E+01 -0.27809168258E+02 -0.74932382602E+01  0.29415348732E+02  0.00000000000E+00 0.  1.
          4    1    6    6  502    0  0.49310833538E+03  0.15034421748E+03 -0.12121109713E+04  0.13171834424E+04  0.00000000000E+00 0. -1.
          1    1    5    5  503    0 -0.22918814582E+03 -0.58271197288E+02 -0.11398979954E+03  0.26251935741E+03  0.00000000000E+00 0. -1.
         -2    1    5    5    0  503 -0.11191200039E+03 -0.70890550181E+02 -0.11390920567E+03  0.17471426121E+03  0.00000000000E+00 0.  1.
         -3    1    6    6    0  502  0.61742564213E+02  0.24455508248E+02 -0.96691297815E+02  0.11730056774E+03  0.00000000000E+00 0.  1.
<mgrwt>
<rscale>  0 0.13494096E+04</rscale>
<asrwt>0</asrwt>
<pdfrwt beam="1">  1        1 0.36844325E-01 0.13494096E+04</pdfrwt>
<pdfrwt beam="2">  1       -1 0.29243564E+00 0.13494096E+04</pdfrwt>
<totfact> 0.42717747E+00</totfact>
</mgrwt>
</event>
<event>
12    1  0.1477245E-007  0.1808342E+04  0.7818608E-02  0.8701876E-01
         -2   -1    0    0    0  501 -0.00000000000E+00  0.00000000000E+00  0.44424663709E+03  0.44424663709E+03  0.00000000000E+00 0.  1.
          2   -1    0    0  501    0  0.00000000000E+00 -0.00000000000E+00 -0.18402508318E+04  0.18402508318E+04  0.00000000000E+00 0. -1.
         23    2    1    2    0    0  0.37862323144E+03 -0.47196176151E+03 -0.14686617654E+03  0.62925501674E+03  0.91042553600E+02 0.  0.
        254    2    1    2    0    0 -0.37862323144E+03  0.47196176151E+03 -0.12491380182E+04  0.16552424522E+04  0.90187489781E+03 0.  0.
        -24    2    4    4    0    0  0.95758173114E+02  0.16932045900E+03  0.68195809003E+02  0.22054012229E+03  0.78410660099E+02 0.  0.
         24    2    4    4    0    0 -0.47438140456E+03  0.30264130250E+03 -0.13173338272E+04  0.14347023299E+04  0.79830371105E+02 0.  0.
         11    1    3    3    0    0  0.35992469512E+03 -0.45673878306E+03 -0.12113993555E+03  0.59399577952E+03  0.00000000000E+00 0. -1.
        -11    1    3    3    0    0  0.18698536322E+02 -0.15222978448E+02 -0.25726240990E+02  0.35259237213E+02  0.00000000000E+00 0.  1.
          2    1    6    6  502    0 -0.35556779179E+03  0.19214074560E+03 -0.99132482456E+03  0.10705472565E+04  0.00000000000E+00 0. -1.
          1    1    5    5  503    0  0.77468790407E+02  0.81703923294E+02  0.67016433071E+02  0.13102727529E+03  0.00000000000E+00 0. -1.
         -2    1    5    5    0  503  0.18289382707E+02  0.87616535709E+02  0.11793759320E+01  0.89512846994E+02  0.00000000000E+00 0.  1.
         -1    1    6    6    0  502 -0.11881361277E+03  0.11050055690E+03 -0.32600900266E+03  0.36415507338E+03  0.00000000000E+00 0.  1.
<mgrwt>
<rscale>  0 0.18083421E+04</rscale>
<asrwt>0</asrwt>
<pdfrwt beam="1">  1        2 0.28311551E+00 0.18083421E+04</pdfrwt>
<pdfrwt beam="2">  1       -2 0.68345638E-01 0.18083421E+04</pdfrwt>
<totfact> 0.15142310E+01</totfact>
</mgrwt>
</event>
<event>
12    1  0.1477245E-007  0.1956677E+04  0.7818608E-02  0.8627148E-01
          1   -1    0    0  501    0  0.00000000000E+00  0.00000000000E+00  0.63538935352E+03  0.63538935352E+03  0.00000000000E+00 0. -1.
         -1   -1    0    0    0  501 -0.00000000000E+00 -0.00000000000E+00 -0.15063933300E+04  0.15063933300E+04  0.00000000000E+00 0.  1.
         23    2    1    2    0    0  0.64226645787E+03 -0.30151157839E+03 -0.71225855645E+03  0.10095078669E+04  0.91533858217E+02 0.  0.
        254    2    1    2    0    0 -0.64226645787E+03  0.30151157839E+03 -0.15874542003E+03  0.11322748167E+04  0.86800386939E+03 0.  0.
        -24    2    4    4    0    0 -0.31152468939E+03  0.25633410565E+03  0.33599487452E+03  0.53087923606E+03  0.78647325176E+02 0.  0.
         24    2    4    4    0    0 -0.33074176848E+03  0.45177472741E+02 -0.49474029454E+03  0.60139558061E+03  0.74010565945E+02 0.  0.
         13    1    3    3    0    0  0.40178561563E+03 -0.20028825456E+03 -0.38850344010E+03  0.59370193600E+03  0.00000000000E+00 0. -1.
        -13    1    3    3    0    0  0.24048084223E+03 -0.10122332384E+03 -0.32375511635E+03  0.41580593085E+03  0.00000000000E+00 0.  1.
          2    1    6    6  502    0 -0.32544592127E+03  0.37699427853E+02 -0.49320533610E+03  0.59210454997E+03  0.00000000000E+00 0. -1.
          1    1    5    5  503    0 -0.21055234135E+03  0.20330465821E+03  0.27468609405E+03  0.40139447276E+03  0.00000000000E+00 0. -1.
         -2    1    5    5    0  503 -0.10097234804E+03  0.53029447438E+02  0.61308780473E+02  0.12948476330E+03  0.00000000000E+00 0.  1.
         -1    1    6    6    0  502 -0.52958472087E+01  0.74780448880E+01 -0.15349584434E+01  0.92910306440E+01  0.00000000000E+00 0.  1.
<mgrwt>
<rscale>  0 0.19566771E+04</rscale>
<asrwt>0</asrwt>
<pdfrwt beam="1">  1        1 0.97752209E-01 0.19566771E+04</pdfrwt>
<pdfrwt beam="2">  1       -1 0.23175282E+00 0.19566771E+04</pdfrwt>
<totfact> 0.26949139E+00</totfact>
</mgrwt>
</event>
<event>
12    1  0.1477245E-007  0.2084722E+04  0.7818608E-02  0.8568004E-01
          2   -1    0    0  501    0  0.00000000000E+00  0.00000000000E+00  0.88938027817E+03  0.88938027817E+03  0.00000000000E+00 0. -1.
         -2   -1    0    0    0  501 -0.00000000000E+00 -0.00000000000E+00 -0.12216552158E+04  0.12216552158E+04  0.00000000000E+00 0.  1.
         23    2    1    2    0    0 -0.74290532815E+03  0.39868669834E+03 -0.86749953996E+02  0.85249749547E+03  0.91471390175E+02 0.  0.
        254    2    1    2    0    0  0.74290532815E+03 -0.39868669834E+03 -0.24552498363E+03  0.12585379985E+04  0.90154088430E+03 0.  0.
        -24    2    4    4    0    0 -0.78283492929E+02 -0.33335842493E+03  0.94097272172E+02  0.36381380989E+03  0.79057238121E+02 0.  0.
         24    2    4    4    0    0  0.82118882108E+03 -0.65328273412E+02 -0.33962225580E+03  0.89472418861E+03  0.81050810452E+02 0.  0.
         13    1    3    3    0    0 -0.20044724425E+03  0.13276716501E+03  0.10157644885E+02  0.24064371087E+03  0.00000000000E+00 0. -1.
        -13    1    3    3    0    0 -0.54245808390E+03  0.26591953333E+03 -0.96907598881E+02  0.61185378459E+03  0.00000000000E+00 0.  1.
          4    1    6    6  502    0  0.19568886187E+03  0.17170639458E+02 -0.92606764768E+02  0.21717498567E+03  0.00000000000E+00 0. -1.
          1    1    5    5  503    0 -0.48914541310E+01  0.25292752577E+01 -0.33660690571E+01  0.64539892890E+01  0.00000000000E+00 0. -1.
         -2    1    5    5    0  503 -0.73392038798E+02 -0.33588770019E+03  0.97463341229E+02  0.35735982060E+03  0.00000000000E+00 0.  1.
         -3    1    6    6    0  502  0.62549995921E+03 -0.82498912870E+02 -0.24701549104E+03  0.67754920294E+03  0.00000000000E+00 0.  1.
<mgrwt>
<rscale>  0 0.20847216E+04</rscale>
<asrwt>0</asrwt>
<pdfrwt beam="1">  1        2 0.13682774E+00 0.20847216E+04</pdfrwt>
<pdfrwt beam="2">  1       -2 0.18794696E+00 0.20847216E+04</pdfrwt>
<totfact> 0.44001069E+00</totfact>
</mgrwt>
</event>
<event>
12    1  0.1477245E-007  0.1330635E+04  0.7818608E-02  0.9005618E-01
          2   -1    0    0  501    0  0.00000000000E+00  0.00000000000E+00  0.13982045503E+04  0.13982045503E+04  0.00000000000E+00 0. -1.
         -2   -1    0    0    0  501 -0.00000000000E+00 -0.00000000000E+00 -0.31658248904E+03  0.31658248904E+03  0.00000000000E+00 0.  1.
         23    2    1    2    0    0  0.32578241395E+03 -0.88464173365E+02  0.18726197521E+03  0.39699758168E+03  0.92627972499E+02 0.  0.
        254    2    1    2    0    0 -0.32578241395E+03  0.88464173365E+02  0.89436008605E+03  0.13177894577E+04  0.90704410034E+03 0.  0.
        -24    2    4    4    0    0  0.23326193527E+03 -0.10193362137E+03  0.33236760570E+02  0.27047109715E+03  0.85137174775E+02 0.  0.
         24    2    4    4    0    0 -0.55904434922E+03  0.19039779473E+03  0.86112332548E+03  0.10473183605E+04  0.80996678516E+02 0.  0.
         11    1    3    3    0    0  0.18912009217E+03 -0.22121796136E+02  0.62458103169E+02  0.20039161105E+03  0.00000000000E+00 0.  1.
        -11    1    3    3    0    0  0.13666232178E+03 -0.66342377229E+02  0.12480387204E+03  0.19660597063E+03  0.00000000000E+00 0. -1.
          4    1    6    6  502    0 -0.44776550129E+03  0.18000756972E+03  0.72901127030E+03  0.87427347067E+03  0.00000000000E+00 0. -1.
          1    1    5    5  503    0  0.23666772242E+03 -0.10898936024E+03  0.31595540022E+02  0.26246632095E+03  0.00000000000E+00 0. -1.
         -2    1    5    5    0  503 -0.34057871550E+01  0.70557388695E+01  0.16412205479E+01  0.80047762009E+01  0.00000000000E+00 0.  1.
         -3    1    6    6    0  502 -0.11127884793E+03  0.10390225017E+02  0.13211205518E+03  0.17304488983E+03  0.00000000000E+00 0.  1.
<mgrwt>
<rscale>  0 0.13306346E+04</rscale>
<asrwt>0</asrwt>
<pdfrwt beam="1">  1        2 0.21510839E+00 0.13306346E+04</pdfrwt>
<pdfrwt beam="2">  1       -2 0.48704999E-01 0.13306346E+04</pdfrwt>
<totfact> 0.56621417E+01</totfact>
</mgrwt>
</event>
<event>
12    1  0.1477245E-007  0.1890691E+04  0.7818608E-02  0.8659504E-01
         -1   -1    0    0    0  501 -0.00000000000E+00  0.00000000000E+00  0.52093572939E+03  0.52093572939E+03  0.00000000000E+00 0.  1.
          1   -1    0    0  501    0  0.00000000000E+00 -0.00000000000E+00 -0.17155250940E+04  0.17155250940E+04  0.00000000000E+00 0. -1.
         23    2    1    2    0    0 -0.44415380803E+03 -0.22259152894E+03 -0.10928269709E+04  0.12036806660E+04  0.88072490243E+02 0.  0.
        254    2    1    2    0    0  0.44415380803E+03  0.22259152894E+03 -0.10176239369E+03  0.10327801573E+04  0.89969976917E+03 0.  0.
        -24    2    4    4    0    0  0.33636473662E+03  0.42972490248E+03 -0.37343831659E+03  0.66604683085E+03  0.79733786670E+02 0.  0.
         24    2    4    4    0    0  0.10778907141E+03 -0.20713337354E+03  0.27167592290E+03  0.36673332647E+03  0.78503549680E+02 0.  0.
         13    1    3    3    0    0 -0.28220239092E+02 -0.36399723945E+02 -0.68326447466E+02  0.82400395757E+02  0.00000000000E+00 0.  1.
        -13    1    3    3    0    0 -0.41593356894E+03 -0.18619180499E+03 -0.10245005234E+04  0.11212802703E+04  0.00000000000E+00 0. -1.
          2    1    6    6  502    0  0.11615310522E+03 -0.20736275431E+03  0.25882931377E+03  0.35140214768E+03  0.00000000000E+00 0. -1.
          3    1    5    5  503    0  0.99085671424E+02  0.18951557417E+03 -0.14695238444E+03  0.25947856641E+03  0.00000000000E+00 0. -1.
         -4    1    5    5    0  503  0.23727906519E+03  0.24020932831E+03 -0.22648593215E+03  0.40656826444E+03  0.00000000000E+00 0.  1.
         -1    1    6    6    0  502 -0.83640338079E+01  0.22938076940E+00  0.12846609124E+02  0.15331178789E+02  0.00000000000E+00 0.  1.
<mgrwt>
<rscale>  0 0.18906912E+04</rscale>
<asrwt>0</asrwt>
<pdfrwt beam="1">  1        1 0.26392693E+00 0.18906912E+04</pdfrwt>
<pdfrwt beam="2">  1       -1 0.80143960E-01 0.18906912E+04</pdfrwt>
<totfact> 0.67668953E+00</totfact>
</mgrwt>
</event>
<event>
12    1  0.1477245E-007  0.2386757E+04  0.7818608E-02  0.8444478E-01
         -1   -1    0    0    0  501 -0.00000000000E+00  0.00000000000E+00  0.93440587514E+03  0.93440587514E+03  0.00000000000E+00 0.  1.
          1   -1    0    0  501    0  0.00000000000E+00 -0.00000000000E+00 -0.15241256626E+04  0.15241256626E+04  0.00000000000E+00 0. -1.
         23    2    1    2    0    0 -0.33018661102E+03  0.46748952017E+03  0.62614677096E+03  0.85363936962E+03  0.95240458897E+02 0.  0.
        254    2    1    2    0    0  0.33018661102E+03 -0.46748952017E+03 -0.12158665584E+04  0.16048921681E+04  0.87736978171E+03 0.  0.
        -24    2    4    4    0    0  0.20994094189E+03  0.22842391529E+03 -0.25354289623E+03  0.40848231135E+03  0.79505435717E+02 0.  0.
         24    2    4    4    0    0  0.12024566914E+03 -0.69591343545E+03 -0.96232366222E+03  0.11964098568E+04  0.81087508072E+02 0.  0.
         13    1    3    3    0    0 -0.23083843588E+03  0.33724413776E+03  0.38055079913E+03  0.55842537787E+03  0.00000000000E+00 0.  1.
        -13    1    3    3    0    0 -0.99348175145E+02  0.13024538241E+03  0.24559597183E+03  0.29521399175E+03  0.00000000000E+00 0. -1.
          2    1    6    6  502    0  0.37382244259E+02 -0.12345603402E+03 -0.22404153650E+03  0.25852163275E+03  0.00000000000E+00 0. -1.
          1    1    5    5  503    0  0.41355911716E+02  0.65051925377E+02 -0.25486565375E+02  0.81188850489E+02  0.00000000000E+00 0. -1.
         -2    1    5    5    0  503  0.16858503017E+03  0.16337198991E+03 -0.22805633085E+03  0.32729346087E+03  0.00000000000E+00 0.  1.
         -1    1    6    6    0  502  0.82863424877E+02 -0.57245740143E+03 -0.73828212571E+03  0.93788822403E+03  0.00000000000E+00 0.  1.
<mgrwt>
<rscale>  0 0.23867568E+04</rscale>
<asrwt>0</asrwt>
<pdfrwt beam="1">  1        1 0.23448087E+00 0.23867568E+04</pdfrwt>
<pdfrwt beam="2">  1       -1 0.14375475E+00 0.23867568E+04</pdfrwt>
<totfact> 0.22077087E+00</totfact>
</mgrwt>
</event>
<event>
12    1  0.1477245E-007  0.2749923E+04  0.7818608E-02  0.8318986E-01
          2   -1    0    0  501    0  0.00000000000E+00  0.00000000000E+00  0.30922068138E+04  0.30922068138E+04  0.00000000000E+00 0. -1.
         -2   -1    0    0    0  501 -0.00000000000E+00 -0.00000000000E+00 -0.61138184317E+03  0.61138184317E+03  0.00000000000E+00 0.  1.
         23    2    1    2    0    0  0.10010512339E+04  0.26736812075E+03  0.22661529492E+03  0.10644919238E+04  0.90549869831E+02 0.  0.
        254    2    1    2    0    0 -0.10010512339E+04 -0.26736812075E+03  0.22542096757E+04  0.26390967331E+04  0.89987833623E+03 0.  0.
        -24    2    4    4    0    0  0.96499523868E+02  0.67347186365E+02  0.64857251108E+03  0.66395874726E+03  0.79668778847E+02 0.  0.
         24    2    4    4    0    0 -0.10975507578E+04 -0.33471530712E+03  0.16056371646E+04  0.19751379859E+04  0.80295430436E+02 0.  0.
         11    1    3    3    0    0  0.34336447401E+03  0.76512750773E+02  0.35904912516E+02  0.35361352602E+03  0.00000000000E+00 0.  1.
        -11    1    3    3    0    0  0.65768675994E+03  0.19085536998E+03  0.19071038241E+03  0.71087839776E+03  0.00000000000E+00 0. -1.
          4    1    6    6  502    0 -0.36345263355E+03 -0.14222743158E+03  0.50570729585E+03  0.63880069522E+03  0.00000000000E+00 0. -1.
          3    1    5    5  503    0 -0.49625250451E+01  0.14213811404E+02  0.19979689245E+02  0.25016935700E+02  0.00000000000E+00 0. -1.
         -4    1    5    5    0  503  0.10146204891E+03  0.53133374961E+02  0.62859282183E+03  0.63894181156E+03  0.00000000000E+00 0.  1.
         -3    1    6    6    0  502 -0.73409812427E+03 -0.19248787554E+03  0.10999298687E+04  0.13363372907E+04  0.00000000000E+00 0.  1.
<mgrwt>
<rscale>  0 0.27499230E+04</rscale>
<asrwt>0</asrwt>
<pdfrwt beam="1">  1        2 0.47572412E+00 0.27499230E+04</pdfrwt>
<pdfrwt beam="2">  1       -2 0.94058746E-01 0.27499230E+04</pdfrwt>
<totfact> 0.12683286E+00</totfact>
</mgrwt>
</event>
<event>
12    1  0.1477245E-007  0.1400447E+04  0.7818608E-02  0.8953495E-01
          2   -1    0    0  501    0  0.00000000000E+00  0.00000000000E+00  0.59895801229E+03  0.59895801229E+03  0.00000000000E+00 0. -1.
         -2   -1    0    0    0  501 -0.00000000000E+00 -0.00000000000E+00 -0.81861035472E+03  0.81861035472E+03  0.00000000000E+00 0.  1.
         23    2    1    2    0    0 -0.11822073536E+03  0.12937929592E+03  0.29443994221E+03  0.35329994872E+03  0.86086176110E+02 0.  0.
        254    2    1    2    0    0  0.11822073536E+03 -0.12937929592E+03 -0.51409228464E+03  0.10642684183E+04  0.91523835397E+03 0.  0.
        -24    2    4    4    0    0  0.41731852593E+03 -0.12634755164E+03 -0.59711710038E+03  0.74372998437E+03  0.80417673382E+02 0.  0.
         24    2    4    4    0    0 -0.29909779057E+03 -0.30317442789E+01  0.83024815744E+02  0.32053843393E+03  0.79894228810E+02 0.  0.
         13    1    3    3    0    0  0.79089259087E+00 -0.72256666415E+01  0.41708439011E+02  0.42337095487E+02  0.00000000000E+00 0.  1.
        -13    1    3    3    0    0 -0.11901162795E+03  0.13660496256E+03  0.25273150319E+03  0.31096285323E+03  0.00000000000E+00 0. -1.
          4    1    6    6  502    0 -0.29513876219E+03  0.28146484784E-01  0.92944838806E+02  0.30942791212E+03  0.00000000000E+00 0. -1.
          1    1    5    5  503    0  0.41849931840E+03 -0.11819034340E+03 -0.58213624736E+03  0.72663143840E+03  0.00000000000E+00 0. -1.
         -2    1    5    5    0  503 -0.11807924743E+01 -0.81572082354E+01 -0.14980853021E+02  0.17098545971E+02  0.00000000000E+00 0.  1.
         -3    1    6    6    0  502 -0.39590283783E+01 -0.30598907637E+01 -0.99200230617E+01  0.11110521803E+02  0.00000000000E+00 0.  1.
<mgrwt>
<rscale>  0 0.14004474E+04</rscale>
<asrwt>0</asrwt>
<pdfrwt beam="1">  1        2 0.92147387E-01 0.14004474E+04</pdfrwt>
<pdfrwt beam="2">  1       -2 0.12594005E+00 0.14004474E+04</pdfrwt>
<totfact> 0.22753457E+01</totfact>
</mgrwt>
</event>
<event>
12    1  0.1477245E-007  0.1350947E+04  0.7818608E-02  0.8990112E-01
         -1   -1    0    0    0  501 -0.00000000000E+00  0.00000000000E+00  0.13889960061E+04  0.13889960061E+04  0.00000000000E+00 0.  1.
          1   -1    0    0  501    0  0.00000000000E+00 -0.00000000000E+00 -0.32848494325E+03  0.32848494325E+03  0.00000000000E+00 0. -1.
         23    2    1    2    0    0  0.31935409165E+03 -0.82008534061E+02  0.48853961435E+03  0.59643373239E+03  0.91377277424E+02 0.  0.
        254    2    1    2    0    0 -0.31935409165E+03  0.82008534061E+02  0.57197144852E+03  0.11210472170E+04  0.90602598708E+03 0.  0.
        -24    2    4    4    0    0 -0.25705939611E+03  0.41652810024E+03  0.57842799077E+02  0.49935962490E+03  0.80243717246E+02 0.  0.
         24    2    4    4    0    0 -0.62294695540E+02 -0.33451956618E+03  0.51412864944E+03  0.62168759208E+03  0.79895085683E+02 0.  0.
         13    1    3    3    0    0  0.27321739462E+03 -0.43388580843E+02  0.43703324997E+03  0.51723145230E+03  0.00000000000E+00 0.  1.
        -13    1    3    3    0    0  0.46136697028E+02 -0.38619953218E+02  0.51506364380E+02  0.79202280086E+02  0.00000000000E+00 0. -1.
          4    1    6    6  502    0  0.43818552177E+01 -0.70967171640E+02  0.63099923489E+02  0.95063875631E+02  0.00000000000E+00 0. -1.
          1    1    5    5  503    0 -0.64324006643E+01  0.11031741407E+02 -0.12058452901E+02  0.17563638095E+02  0.00000000000E+00 0. -1.
         -2    1    5    5    0  503 -0.25062699544E+03  0.40549635883E+03  0.69901251978E+02  0.48179598680E+03  0.00000000000E+00 0.  1.
         -3    1    6    6    0  502 -0.66676550758E+02 -0.26355239454E+03  0.45102872596E+03  0.52662371645E+03  0.00000000000E+00 0.  1.
<mgrwt>
<rscale>  0 0.13509467E+04</rscale>
<asrwt>0</asrwt>
<pdfrwt beam="1">  1        1 0.50536146E-01 0.13509467E+04</pdfrwt>
<pdfrwt beam="2">  1       -1 0.21369169E+00 0.13509467E+04</pdfrwt>
<totfact> 0.92490834E+00</totfact>
</mgrwt>
</event>
<event>
12    1  0.1477245E-007  0.2580506E+04  0.7818608E-02  0.8374853E-01
          2   -1    0    0  501    0  0.00000000000E+00  0.00000000000E+00  0.24714553776E+04  0.24714553776E+04  0.00000000000E+00 0. -1.
         -2   -1    0    0    0  501 -0.00000000000E+00 -0.00000000000E+00 -0.67359216235E+03  0.67359216235E+03  0.00000000000E+00 0.  1.
         23    2    1    2    0    0 -0.43577510643E+03 -0.35441804382E+03  0.20891514273E+04  0.21653125410E+04  0.92263866253E+02 0.  0.
        254    2    1    2    0    0  0.43577510643E+03  0.35441804382E+03 -0.29128821200E+03  0.97973499896E+03  0.74801052972E+03 0.  0.
        -24    2    4    4    0    0  0.59624401348E+03  0.42827819895E+03 -0.26335389930E+03  0.78365244922E+03  0.76333122516E+02 0.  0.
         24    2    4    4    0    0 -0.16046890704E+03 -0.73860155124E+02 -0.27934312695E+02  0.19608254974E+03  0.80389351556E+02 0.  0.
         13    1    3    3    0    0 -0.17838392606E+03 -0.14154628490E+03  0.10241700581E+04  0.10491808632E+04  0.00000000000E+00 0. -1.
        -13    1    3    3    0    0 -0.25739118037E+03 -0.21287175892E+03  0.10649813692E+04  0.11161316778E+04  0.00000000000E+00 0.  1.
          2    1    6    6  502    0 -0.12984058886E+03 -0.89237601935E+02 -0.11210845027E+02  0.15794812807E+03  0.00000000000E+00 0. -1.
          1    1    5    5  503    0  0.30631242311E+03  0.26620035206E+03 -0.15113081616E+03  0.43304786292E+03  0.00000000000E+00 0. -1.
         -2    1    5    5    0  503  0.28993159037E+03  0.16207784689E+03 -0.11222308314E+03  0.35060458630E+03  0.00000000000E+00 0.  1.
         -1    1    6    6    0  502 -0.30628318188E+02  0.15377446811E+02 -0.16723467668E+02  0.38134421673E+02  0.00000000000E+00 0.  1.
<mgrwt>
<rscale>  0 0.25805061E+04</rscale>
<asrwt>0</asrwt>
<pdfrwt beam="1">  1        2 0.38022390E+00 0.25805061E+04</pdfrwt>
<pdfrwt beam="2">  1       -2 0.10362956E+00 0.25805061E+04</pdfrwt>
<totfact> 0.24300414E+00</totfact>
</mgrwt>
</event>
<event>
12    1  0.1477245E-007  0.3535580E+04  0.7818608E-02  0.8105409E-01
          2   -1    0    0  501    0  0.00000000000E+00  0.00000000000E+00  0.22378024069E+04  0.22378024069E+04  0.00000000000E+00 0. -1.
         -2   -1    0    0    0  501 -0.00000000000E+00 -0.00000000000E+00 -0.13964953605E+04  0.13964953605E+04  0.00000000000E+00 0.  1.
         23    2    1    2    0    0 -0.15192500040E+04 -0.80794913277E+02  0.10572024027E+04  0.18549906696E+04  0.93086365177E+02 0.  0.
        254    2    1    2    0    0  0.15192500040E+04  0.80794913277E+02 -0.21589535626E+03  0.17793070978E+04  0.89703653821E+03 0.  0.
        -24    2    4    4    0    0  0.26194480778E+03  0.91236576603E+02  0.30095292664E+03  0.41748657446E+03  0.82360066563E+02 0.  0.
         24    2    4    4    0    0  0.12573051962E+04 -0.10441663326E+02 -0.51684828290E+03  0.13618205234E+04  0.80607726554E+02 0.  0.
         13    1    3    3    0    0 -0.36151512410E+03  0.13822830753E+02  0.22474738403E+03  0.42590567293E+03  0.00000000000E+00 0.  1.
        -13    1    3    3    0    0 -0.11577348799E+04 -0.94617744030E+02  0.83245501865E+03  0.14290849966E+04  0.00000000000E+00 0. -1.
          2    1    6    6  502    0  0.79061913744E+03 -0.42434499734E+02 -0.34125192355E+03  0.86216714306E+03  0.00000000000E+00 0. -1.
          1    1    5    5  503    0  0.26638283698E+03  0.81381198714E+02  0.28935291098E+03  0.40163145100E+03  0.00000000000E+00 0. -1.
         -2    1    5    5    0  503 -0.44380291963E+01  0.98553778888E+01  0.11600015658E+02  0.15855123454E+02  0.00000000000E+00 0.  1.
         -1    1    6    6    0  502  0.46668605876E+03  0.31992836408E+02 -0.17559635935E+03  0.49965338030E+03  0.00000000000E+00 0.  1.
<mgrwt>
<rscale>  0 0.35355795E+04</rscale>
<asrwt>0</asrwt>
<pdfrwt beam="1">  1        2 0.34427729E+00 0.35355795E+04</pdfrwt>
<pdfrwt beam="2">  1       -2 0.21484544E+00 0.35355795E+04</pdfrwt>
<totfact> 0.42939513E-01</totfact>
</mgrwt>
</event>
<event>
12    1  0.1477245E-007  0.1431872E+04  0.7818608E-02  0.8931066E-01
         -2   -1    0    0    0  501 -0.00000000000E+00  0.00000000000E+00  0.32610565203E+03  0.32610565203E+03  0.00000000000E+00 0.  1.
          2   -1    0    0  501    0  0.00000000000E+00 -0.00000000000E+00 -0.15717735377E+04  0.15717735377E+04  0.00000000000E+00 0. -1.
         23    2    1    2    0    0 -0.28320914166E+03  0.94580837414E+02 -0.78301535486E+03  0.84326989000E+03  0.94011215829E+02 0.  0.
        254    2    1    2    0    0  0.28320914166E+03 -0.94580837414E+02 -0.46265253082E+03  0.10546092997E+04  0.89944452754E+03 0.  0.
        -24    2    4    4    0    0  0.49325021552E+03 -0.15834600728E+03  0.13540957802E+02  0.52417620772E+03  0.78791535492E+02 0.  0.
         24    2    4    4    0    0 -0.21004107387E+03  0.63765169864E+02 -0.47619348862E+03  0.53043309203E+03  0.80098544994E+02 0.  0.
         11    1    3    3    0    0 -0.14900202103E+03  0.59976204292E+02 -0.54142049665E+03  0.56474321735E+03  0.00000000000E+00 0. -1.
        -11    1    3    3    0    0 -0.13420712063E+03  0.34604633123E+02 -0.24159485822E+03  0.27852667265E+03  0.00000000000E+00 0.  1.
          2    1    6    6  502    0 -0.97130465480E+02  0.49978450731E+02 -0.15445343113E+03  0.18917725881E+03  0.00000000000E+00 0. -1.
          1    1    5    5  503    0  0.25410136069E+03 -0.11852318923E+03  0.24757938663E+02  0.28147504936E+03  0.00000000000E+00 0. -1.
         -2    1    5    5    0  503  0.23914885484E+03 -0.39822818053E+02 -0.11216980862E+02  0.24270115836E+03  0.00000000000E+00 0.  1.
         -1    1    6    6    0  502 -0.11291060839E+03  0.13786719133E+02 -0.32174005749E+03  0.34125583322E+03  0.00000000000E+00 0.  1.
<mgrwt>
<rscale>  0 0.14318718E+04</rscale>
<asrwt>0</asrwt>
<pdfrwt beam="1">  1        2 0.24181131E+00 0.14318718E+04</pdfrwt>
<pdfrwt beam="2">  1       -2 0.50170101E-01 0.14318718E+04</pdfrwt>
<totfact> 0.42198773E+01</totfact>
</mgrwt>
</event>
<event>
12    1  0.1477245E-007  0.1117319E+04  0.7818608E-02  0.9188474E-01
         -2   -1    0    0    0  501 -0.00000000000E+00  0.00000000000E+00  0.30853380255E+03  0.30853380255E+03  0.00000000000E+00 0. -1.
          2   -1    0    0  501    0  0.00000000000E+00 -0.00000000000E+00 -0.10115606218E+04  0.10115606218E+04  0.00000000000E+00 0.  1.
         23    2    1    2    0    0  0.51769419122E+02  0.79699245808E+02 -0.30930903621E+03  0.33506639899E+03  0.86979131472E+02 0.  0.
        254    2    1    2    0    0 -0.51769419122E+02 -0.79699245808E+02 -0.39371778300E+03  0.98502802531E+03  0.89790560499E+03 0.  0.
        -24    2    4    4    0    0  0.27135147706E+03  0.25107018166E+03 -0.34647960251E+03  0.51300635131E+03  0.80371271667E+02 0.  0.
         24    2    4    4    0    0 -0.32312089618E+03 -0.33076942747E+03 -0.47238180483E+02  0.47202167400E+03  0.82203937450E+02 0.  0.
         13    1    3    3    0    0  0.27696719222E+02  0.10087473204E+02 -0.17884742907E+02  0.34477955278E+02  0.00000000000E+00 0. -1.
        -13    1    3    3    0    0  0.24072699901E+02  0.69611772604E+02 -0.29142429330E+03  0.30058844371E+03  0.00000000000E+00 0.  1.
          2    1    6    6  502    0 -0.27461648032E+03 -0.25795287804E+03 -0.66092550381E+02  0.38252074946E+03  0.00000000000E+00 0. -1.
          1    1    5    5  503    0  0.27467489541E+03  0.24500738183E+03 -0.32703300513E+03  0.49236724278E+03  0.00000000000E+00 0. -1.
         -2    1    5    5    0  503 -0.33234183523E+01  0.60627998387E+01 -0.19446597378E+02  0.20639108533E+02  0.00000000000E+00 0.  1.
         -1    1    6    6    0  502 -0.48504415863E+02 -0.72816549435E+02  0.18854369898E+02  0.89500924543E+02  0.00000000000E+00 0.  1.
<mgrwt>
<rscale>  0 0.11173194E+04</rscale>
<asrwt>0</asrwt>
<pdfrwt beam="1">  1        2 0.15562471E+00 0.11173194E+04</pdfrwt>
<pdfrwt beam="2">  1       -2 0.47466739E-01 0.11173194E+04</pdfrwt>
<totfact> 0.10326894E+02</totfact>
</mgrwt>
</event>
<event>
12    1  0.1477245E-007  0.1906982E+04  0.7818608E-02  0.8651389E-01
         -2   -1    0    0    0  501 -0.00000000000E+00  0.00000000000E+00  0.55761955785E+03  0.55761955785E+03  0.00000000000E+00 0.  1.
          2   -1    0    0  501    0  0.00000000000E+00 -0.00000000000E+00 -0.16304034808E+04  0.16304034808E+04  0.00000000000E+00 0. -1.
         23    2    1    2    0    0 -0.33775541410E+01 -0.11007370877E+03  0.41974420072E+03  0.44379365224E+03  0.92951506148E+02 0.  0.
        254    2    1    2    0    0  0.33775541410E+01  0.11007370877E+03 -0.14925281236E+04  0.17442293864E+04  0.89586177683E+03 0.  0.
        -24    2    4    4    0    0 -0.31282954734E+03 -0.44583861470E+02 -0.15800046827E+03  0.36211687224E+03  0.79463417986E+02 0.  0.
         24    2    4    4    0    0  0.31620710148E+03  0.15465757024E+03 -0.13345276554E+04  0.13821125141E+04  0.73246458711E+02 0.  0.
         11    1    3    3    0    0 -0.23552026380E+02  0.68801406920E+01  0.92279976686E+02  0.95486273253E+02  0.00000000000E+00 0. -1.
        -11    1    3    3    0    0  0.20174472239E+02 -0.11695384946E+03  0.32746422404E+03  0.34830737899E+03  0.00000000000E+00 0.  1.
          4    1    6    6  502    0  0.29965076561E+03  0.12539662194E+03 -0.11745062711E+04  0.12185975032E+04  0.00000000000E+00 0. -1.
          3    1    5    5  503    0 -0.10680051479E+03 -0.50117139915E+02 -0.75792726186E+02  0.14022344674E+03  0.00000000000E+00 0. -1.
         -4    1    5    5    0  503 -0.20602903255E+03  0.55332784452E+01 -0.82207742084E+02  0.22189342550E+03  0.00000000000E+00 0.  1.
         -3    1    6    6    0  502  0.16556335865E+02  0.29260948299E+02 -0.16002138431E+03  0.16351501090E+03  0.00000000000E+00 0.  1.
<mgrwt>
<rscale>  0 0.19069818E+04</rscale>
<asrwt>0</asrwt>
<pdfrwt beam="1">  1        2 0.25083130E+00 0.19069818E+04</pdfrwt>
<pdfrwt beam="2">  1       -2 0.85787625E-01 0.19069818E+04</pdfrwt>
<totfact> 0.11842546E+01</totfact>
</mgrwt>
</event>
<event>
12    1  0.1477245E-007  0.1480174E+04  0.7818608E-02  0.8897745E-01
          2   -1    0    0  501    0  0.00000000000E+00  0.00000000000E+00  0.20930611293E+04  0.20930611293E+04  0.00000000000E+00 0. -1.
         -2   -1    0    0    0  501 -0.00000000000E+00 -0.00000000000E+00 -0.26168797229E+03  0.26168797229E+03  0.00000000000E+00 0.  1.
         23    2    1    2    0    0  0.42487179162E+03  0.16557272967E+03  0.72504829075E+03  0.86078332463E+03  0.85571840645E+02 0.  0.
        254    2    1    2    0    0 -0.42487179162E+03 -0.16557272967E+03  0.11063248662E+04  0.14939657770E+04  0.89445439510E+03 0.  0.
        -24    2    4    4    0    0 -0.95027534322E+02 -0.32662759942E+03  0.10587798752E+04  0.11150153720E+04  0.80799967162E+02 0.  0.
         24    2    4    4    0    0 -0.32984425730E+03  0.16105486975E+03  0.47544991056E+02  0.37895040496E+03  0.81283319939E+02 0.  0.
         13    1    3    3    0    0  0.11030023229E+02 -0.38860002667E+01  0.47822960564E+02  0.49232082706E+02  0.00000000000E+00 0.  1.
        -13    1    3    3    0    0  0.41384176840E+03  0.16945872993E+03  0.67722533018E+03  0.81155124192E+03  0.00000000000E+00 0. -1.
          2    1    6    6  502    0 -0.17056340971E+00 -0.28570262580E+01  0.81943308174E+01  0.86797896553E+01  0.00000000000E+00 0. -1.
          3    1    5    5  503    0  0.47570154512E+01  0.26948261358E+01  0.19294914862E+02  0.20054551190E+02  0.00000000000E+00 0. -1.
         -4    1    5    5    0  503 -0.99784549773E+02 -0.32932242556E+03  0.10394849603E+04  0.10949608208E+04  0.00000000000E+00 0.  1.
         -1    1    6    6    0  502 -0.32967369389E+03  0.16391189601E+03  0.39350660239E+02  0.37027061531E+03  0.00000000000E+00 0.  1.
<mgrwt>
<rscale>  0 0.14801742E+04</rscale>
<asrwt>0</asrwt>
<pdfrwt beam="1">  1        2 0.32200939E+00 0.14801742E+04</pdfrwt>
<pdfrwt beam="2">  1       -2 0.40259689E-01 0.14801742E+04</pdfrwt>
<totfact> 0.33524367E+01</totfact>
</mgrwt>
</event>
<event>
12    1  0.1477245E-007  0.1932130E+04  0.7818608E-02  0.8639027E-01
          2   -1    0    0  501    0  0.00000000000E+00  0.00000000000E+00  0.11770015750E+04  0.11770015750E+04  0.00000000000E+00 0. -1.
         -2   -1    0    0    0  501 -0.00000000000E+00 -0.00000000000E+00 -0.79293112238E+03  0.79293112238E+03  0.00000000000E+00 0.  1.
         23    2    1    2    0    0 -0.68867607957E+03  0.31067551796E+03  0.21494029104E+02  0.76112785426E+03  0.89775259479E+02 0.  0.
        254    2    1    2    0    0  0.68867607957E+03 -0.31067551796E+03  0.36257642349E+03  0.12088048431E+04  0.87117935338E+03 0.  0.
        -24    2    4    4    0    0  0.29183973947E+03  0.20145751052E+03 -0.13523831150E+03  0.38782550494E+03  0.79772547321E+02 0.  0.
         24    2    4    4    0    0  0.39683634010E+03 -0.51213302848E+03  0.49781473499E+03  0.82097933814E+03  0.80176328151E+02 0.  0.
         13    1    3    3    0    0 -0.14327949060E+03  0.77517394227E+02  0.39818621900E+02  0.16770057091E+03  0.00000000000E+00 0. -1.
        -13    1    3    3    0    0 -0.54539658897E+03  0.23315812374E+03 -0.18324592795E+02  0.59342728335E+03  0.00000000000E+00 0.  1.
          2    1    6    6  502    0  0.32497130961E+03 -0.36485488079E+03  0.38445080822E+03  0.62171364795E+03  0.00000000000E+00 0. -1.
          3    1    5    5  503    0  0.27794021478E+03  0.17115355481E+03 -0.13797318318E+03  0.35437395727E+03  0.00000000000E+00 0. -1.
         -4    1    5    5    0  503  0.13899524691E+02  0.30303955712E+02  0.27348716786E+01  0.33451547670E+02  0.00000000000E+00 0.  1.
         -1    1    6    6    0  502  0.71865030493E+02 -0.14727814769E+03  0.11336392677E+03  0.19926569019E+03  0.00000000000E+00 0.  1.
<mgrwt>
<rscale>  0 0.19321296E+04</rscale>
<asrwt>0</asrwt>
<pdfrwt beam="1">  1        2 0.18107717E+00 0.19321296E+04</pdfrwt>
<pdfrwt beam="2">  1       -2 0.12198940E+00 0.19321296E+04</pdfrwt>
<totfact> 0.93108302E+00</totfact>
</mgrwt>
</event>
<event>
12    1  0.1477245E-007  0.2468210E+04  0.7818608E-02  0.8414399E-01
          2   -1    0    0  501    0  0.00000000000E+00  0.00000000000E+00  0.44651327838E+04  0.44651327838E+04  0.00000000000E+00 0. -1.
         -2   -1    0    0    0  501 -0.00000000000E+00 -0.00000000000E+00 -0.34109054435E+03  0.34109054435E+03  0.00000000000E+00 0.  1.
         23    2    1    2    0    0 -0.32157026674E+03 -0.46914949145E+02 -0.18705389688E+03  0.39016758531E+03  0.10785701362E+03 0.  0.
        254    2    1    2    0    0  0.32157026674E+03  0.46914949145E+02  0.43110961363E+04  0.44160557428E+04  0.90021662858E+03 0.  0.
        -24    2    4    4    0    0  0.41902139374E+03 -0.59624306864E+02  0.86724202988E+03  0.96823304492E+03  0.78946212654E+02 0.  0.
         24    2    4    4    0    0 -0.97451126997E+02  0.10653925601E+03  0.34438541064E+04  0.34478226979E+04  0.80640651502E+02 0.  0.
         11    1    3    3    0    0 -0.31182086015E+03 -0.61508322709E+02 -0.19275757194E+03  0.37171360498E+03  0.00000000000E+00 0.  1.
        -11    1    3    3    0    0 -0.97494065940E+01  0.14593373563E+02  0.57036750657E+01  0.18453980333E+02  0.00000000000E+00 0. -1.
          4    1    6    6  502    0 -0.67921079211E+02  0.15768495357E+02  0.15377442127E+04  0.15393242616E+04  0.00000000000E+00 0. -1.
          1    1    5    5  503    0  0.41833994641E+03 -0.64430871155E+02  0.86473315007E+03  0.96276843984E+03  0.00000000000E+00 0. -1.
         -2    1    5    5    0  503  0.68144732871E+00  0.48065642911E+01  0.25088798156E+01  0.54646050795E+01  0.00000000000E+00 0.  1.
         -3    1    6    6    0  502 -0.29530047785E+02  0.90770760652E+02  0.19061098937E+04  0.19084984363E+04  0.00000000000E+00 0.  1.
<mgrwt>
<rscale>  0 0.24682095E+04</rscale>
<asrwt>0</asrwt>
<pdfrwt beam="1">  1        2 0.68694346E+00 0.24682095E+04</pdfrwt>
<pdfrwt beam="2">  1       -2 0.52475472E-01 0.24682095E+04</pdfrwt>
<totfact> 0.41032407E-01</totfact>
</mgrwt>
</event>
<event>
12    1  0.1477245E-007  0.2325963E+04  0.7818608E-02  0.8467754E-01
          2   -1    0    0  501    0  0.00000000000E+00  0.00000000000E+00  0.20781296408E+04  0.20781296408E+04  0.00000000000E+00 0. -1.
         -2   -1    0    0    0  501 -0.00000000000E+00 -0.00000000000E+00 -0.65083804642E+03  0.65083804642E+03  0.00000000000E+00 0.  1.
         23    2    1    2    0    0 -0.58077279722E+03  0.80601237010E+03  0.86628379353E+03  0.13211414435E+04  0.89521617256E+02 0.  0.
        254    2    1    2    0    0  0.58077279722E+03 -0.80601237010E+03  0.56100780083E+03  0.14078262437E+04  0.82479815542E+03 0.  0.
        -24    2    4    4    0    0  0.63468372600E+03 -0.19273921925E+03  0.33396030093E+03  0.74688775680E+03  0.79624116884E+02 0.  0.
         24    2    4    4    0    0 -0.53910928776E+02 -0.61327315085E+03  0.22704749990E+03  0.66093848692E+03  0.79238693103E+02 0.  0.
         13    1    3    3    0    0 -0.53939213746E+03  0.72689684620E+03  0.81595723196E+03  0.12186505272E+04  0.00000000000E+00 0.  1.
        -13    1    3    3    0    0 -0.41380659762E+02  0.79115523903E+02  0.50326561570E+02  0.10249091630E+03  0.00000000000E+00 0. -1.
          2    1    6    6  502    0 -0.16947931474E+02 -0.19496950374E+03  0.33512383941E+02  0.19855331689E+03  0.00000000000E+00 0. -1.
          1    1    5    5  503    0  0.29259802043E+03 -0.11885908597E+03  0.12772036460E+03  0.34066636965E+03  0.00000000000E+00 0. -1.
         -2    1    5    5    0  503  0.34208570557E+03 -0.73880133280E+02  0.20623993633E+03  0.40622138716E+03  0.00000000000E+00 0.  1.
         -1    1    6    6    0  502 -0.36962997302E+02 -0.41830364711E+03  0.19353511596E+03  0.46238517004E+03  0.00000000000E+00 0.  1.
<mgrwt>
<rscale>  0 0.23259629E+04</rscale>
<asrwt>0</asrwt>
<pdfrwt beam="1">  1        2 0.31971225E+00 0.23259629E+04</pdfrwt>
<pdfrwt beam="2">  1       -2 0.10012893E+00 0.23259629E+04</pdfrwt>
<totfact> 0.45021172E+00</totfact>
</mgrwt>
</event>
<event>
12    1  0.1477245E-007  0.1149468E+04  0.7818608E-02  0.9158275E-01
          3   -1    0    0  501    0  0.00000000000E+00  0.00000000000E+00  0.11752326220E+04  0.11752326220E+04  0.00000000000E+00 0. -1.
         -3   -1    0    0    0  501 -0.00000000000E+00 -0.00000000000E+00 -0.28106682029E+03  0.28106682029E+03  0.00000000000E+00 0.  1.
         23    2    1    2    0    0 -0.92800410822E+02  0.44784862230E+02 -0.52911249989E+02  0.13774447276E+03  0.74540856364E+02 0.  0.
        254    2    1    2    0    0  0.92800410822E+02 -0.44784862230E+02  0.94707705172E+03  0.13185549696E+04  0.91160005798E+03 0.  0.
        -24    2    4    4    0    0  0.27499076724E+03 -0.84184637442E+02 -0.48417442896E+02  0.30258256871E+03  0.80653498763E+02 0.  0.
         24    2    4    4    0    0 -0.18219035642E+03  0.39399775212E+02  0.99549449462E+03  0.10159724008E+04  0.80280521974E+02 0.  0.
         13    1    3    3    0    0 -0.55138601016E+02  0.64336371833E+02 -0.36104770309E+02  0.92103140564E+02  0.00000000000E+00 0.  1.
        -13    1    3    3    0    0 -0.37661809807E+02 -0.19551509603E+02 -0.16806479680E+02  0.45641332199E+02  0.00000000000E+00 0. -1.
          4    1    6    6  502    0 -0.18348599511E+03  0.41096632978E+02  0.85372015048E+03  0.87418198276E+03  0.00000000000E+00 0. -1.
          1    1    5    5  503    0  0.24953503434E+03 -0.87046695829E+02 -0.21083366786E+02  0.26512142307E+03  0.00000000000E+00 0. -1.
         -2    1    5    5    0  503  0.25455732902E+02  0.28620583868E+01 -0.27334076110E+02  0.37461145639E+02  0.00000000000E+00 0.  1.
         -3    1    6    6    0  502  0.12956386915E+01 -0.16968577662E+01  0.14177434414E+03  0.14179041809E+03  0.00000000000E+00 0.  1.
<mgrwt>
<rscale>  0 0.11494675E+04</rscale>
<asrwt>0</asrwt>
<pdfrwt beam="1">  1        3 0.18080502E+00 0.11494675E+04</pdfrwt>
<pdfrwt beam="2">  1       -3 0.43241050E-01 0.11494675E+04</pdfrwt>
<totfact> 0.27120915E+00</totfact>
</mgrwt>
</event>
<event>
12    1  0.1582350E-007  0.2199170E+04  0.7818608E-02  0.8518774E-01
          2   -1    0    0  501    0  0.00000000000E+00  0.00000000000E+00  0.11243997999E+04  0.11243997999E+04  0.00000000000E+00 0. -1.
         -2   -1    0    0    0  501 -0.00000000000E+00 -0.00000000000E+00 -0.10753177653E+04  0.10753177653E+04  0.00000000000E+00 0.  1.
         23    2    1    2    0    0 -0.32244109059E+03  0.81020635207E+03  0.29289240155E+03  0.92452376011E+03  0.92496671775E+02 0.  0.
        254    2    1    2    0    0  0.32244109059E+03 -0.81020635207E+03 -0.24381036692E+03  0.12751938051E+04  0.89792714392E+03 0.  0.
        -24    2    4    4    0    0  0.62512111511E+03 -0.55602354111E+03 -0.95685774129E+02  0.84568321867E+03  0.78011230870E+02 0.  0.
         24    2    4    4    0    0 -0.30268002452E+03 -0.25418281096E+03 -0.14812459279E+03  0.42951058646E+03  0.79462886076E+02 0.  0.
         11    1    3    3    0    0 -0.21013225701E+03  0.51978726883E+03  0.14120700895E+03  0.57816415459E+03  0.00000000000E+00 0.  1.
        -11    1    3    3    0    0 -0.11230883358E+03  0.29041908324E+03  0.15168539260E+03  0.34635960552E+03  0.00000000000E+00 0. -1.
          2    1    6    6  502    0 -0.61616008071E+02 -0.37330812337E+02 -0.59319604792E+02  0.93321688332E+02  0.00000000000E+00 0. -1.
          1    1    5    5  503    0  0.56521632151E+02 -0.74495481138E+02 -0.27493524989E+02  0.97468792582E+02  0.00000000000E+00 0. -1.
         -2    1    5    5    0  503  0.56859948296E+03 -0.48152805997E+03 -0.68192249140E+02  0.74821442608E+03  0.00000000000E+00 0.  1.
         -1    1    6    6    0  502 -0.24106401645E+03 -0.21685199862E+03 -0.88804987995E+02  0.33618889813E+03  0.00000000000E+00 0.  1.
<mgrwt>
<rscale>  0 0.21991699E+04</rscale>
<asrwt>0</asrwt>
<pdfrwt beam="1">  1        2 0.17298458E+00 0.21991699E+04</pdfrwt>
<pdfrwt beam="2">  1       -2 0.16543350E+00 0.21991699E+04</pdfrwt>
<totfact> 0.44217457E+00</totfact>
</mgrwt>
</event>
<event>
12    1  0.1477245E-007  0.1601912E+04  0.7818608E-02  0.8819374E-01
          2   -1    0    0  501    0  0.00000000000E+00  0.00000000000E+00  0.26359097446E+04  0.26359097446E+04  0.00000000000E+00 0. -1.
         -2   -1    0    0    0  501 -0.00000000000E+00 -0.00000000000E+00 -0.24338100679E+03  0.24338100679E+03  0.00000000000E+00 0.  1.
         23    2    1    2    0    0  0.35838860934E+03 -0.21278057428E+03  0.20464805735E+03  0.47321734713E+03  0.91300942767E+02 0.  0.
        254    2    1    2    0    0 -0.35838860934E+03  0.21278057428E+03  0.21878806805E+04  0.24060734043E+04  0.91030181078E+03 0.  0.
        -24    2    4    4    0    0 -0.86436494384E+02 -0.25787459748E+03  0.20589030032E+03  0.34934720359E+03  0.75379554974E+02 0.  0.
         24    2    4    4    0    0 -0.27195211496E+03  0.47065517175E+03  0.19819903801E+04  0.20567262007E+04  0.79765619410E+02 0.  0.
         11    1    3    3    0    0  0.25462244016E+02 -0.13755290109E+02 -0.91051797160E+01  0.30338724001E+02  0.00000000000E+00 0. -1.
        -11    1    3    3    0    0  0.33292636533E+03 -0.19902528417E+03  0.21375323707E+03  0.44287862313E+03  0.00000000000E+00 0.  1.
          2    1    6    6  502    0 -0.15238897208E+03  0.20241720447E+03  0.82381876590E+03  0.86190050617E+03  0.00000000000E+00 0. -1.
          1    1    5    5  503    0 -0.65955663984E+02 -0.25257255955E+03  0.18909952011E+03  0.32233782892E+03  0.00000000000E+00 0. -1.
         -2    1    5    5    0  503 -0.20480830400E+02 -0.53020379266E+01  0.16790780209E+02  0.27009374670E+02  0.00000000000E+00 0.  1.
         -1    1    6    6    0  502 -0.11956314288E+03  0.26823796729E+03  0.11581716142E+04  0.11948256945E+04  0.00000000000E+00 0.  1.
<mgrwt>
<rscale>  0 0.16019118E+04</rscale>
<asrwt>0</asrwt>
<pdfrwt beam="1">  1        2 0.40552456E+00 0.16019118E+04</pdfrwt>
<pdfrwt beam="2">  1       -2 0.37443234E-01 0.16019118E+04</pdfrwt>
<totfact> 0.18750477E+01</totfact>
</mgrwt>
</event>
<event>
12    1  0.1477245E-007  0.2356588E+04  0.7818608E-02  0.8455937E-01
          2   -1    0    0  501    0  0.00000000000E+00  0.00000000000E+00  0.12688346668E+04  0.12688346668E+04  0.00000000000E+00 0. -1.
         -2   -1    0    0    0  501 -0.00000000000E+00 -0.00000000000E+00 -0.10942142955E+04  0.10942142955E+04  0.00000000000E+00 0.  1.
         23    2    1    2    0    0  0.73324269025E+03 -0.46001530474E+03  0.57436193793E+03  0.10422208819E+04  0.84105930948E+02 0.  0.
        254    2    1    2    0    0 -0.73324269025E+03  0.46001530474E+03 -0.39974156662E+03  0.13208280804E+04  0.91407580349E+03 0.  0.
        -24    2    4    4    0    0 -0.46382236197E+03  0.70758532340E+03 -0.13007627775E+03  0.85972590586E+03  0.80003886274E+02 0.  0.
         24    2    4    4    0    0 -0.26942032828E+03 -0.24757001867E+03 -0.26966528888E+03  0.46110217455E+03  0.77573319642E+02 0.  0.
         11    1    3    3    0    0  0.78599703445E+02 -0.31480949756E+02  0.33542811944E+02  0.91071860705E+02  0.00000000000E+00 0.  1.
        -11    1    3    3    0    0  0.65464298681E+03 -0.42853435498E+03  0.54081912599E+03  0.95114902124E+03  0.00000000000E+00 0. -1.
          2    1    6    6  502    0 -0.16921967382E+03 -0.10876209513E+03 -0.12387110516E+03  0.23623831620E+03  0.00000000000E+00 0. -1.
          3    1    5    5  503    0 -0.45156783426E+00  0.22560031886E+02 -0.67688993979E+01  0.23557948792E+02  0.00000000000E+00 0. -1.
         -4    1    5    5    0  503 -0.46337079414E+03  0.68502529151E+03 -0.12330737835E+03  0.83616795707E+03  0.00000000000E+00 0.  1.
         -1    1    6    6    0  502 -0.10020065446E+03 -0.13880792353E+03 -0.14579418372E+03  0.22486385836E+03  0.00000000000E+00 0.  1.
<mgrwt>
<rscale>  0 0.23565882E+04</rscale>
<asrwt>0</asrwt>
<pdfrwt beam="1">  1        2 0.19520533E+00 0.23565882E+04</pdfrwt>
<pdfrwt beam="2">  1       -2 0.16834066E+00 0.23565882E+04</pdfrwt>
<totfact> 0.34081635E+00</totfact>
</mgrwt>
</event>
<event>
12    1  0.1477245E-007  0.1787205E+04  0.7818608E-02  0.8713133E-01
         -2   -1    0    0    0  501 -0.00000000000E+00  0.00000000000E+00  0.54561937426E+03  0.54561937426E+03  0.00000000000E+00 0.  1.
          2   -1    0    0  501    0  0.00000000000E+00 -0.00000000000E+00 -0.14635218062E+04  0.14635218062E+04  0.00000000000E+00 0. -1.
         23    2    1    2    0    0  0.19726110457E+02  0.58254263192E+02  0.39727598691E+03  0.41101197992E+03  0.85556760394E+02 0.  0.
        254    2    1    2    0    0 -0.19726110457E+02 -0.58254263192E+02 -0.13151784189E+04  0.15981292005E+04  0.90583662412E+03 0.  0.
        -24    2    4    4    0    0  0.54464408678E+01 -0.41023022461E+03 -0.28419161554E+03  0.50547624296E+03  0.80142728605E+02 0.  0.
         24    2    4    4    0    0 -0.25172551325E+02  0.35197596142E+03 -0.10309868033E+04  0.10926529576E+04  0.80224449844E+02 0.  0.
         13    1    3    3    0    0  0.31216302860E+02  0.38614932600E+02  0.37783580785E+03  0.38108459464E+03  0.00000000000E+00 0.  1.
        -13    1    3    3    0    0 -0.11490192403E+02  0.19639330592E+02  0.19440179068E+02  0.29927385281E+02  0.00000000000E+00 0. -1.
          2    1    6    6  502    0 -0.33335919625E+02  0.16634443347E+03 -0.59520546977E+03  0.61891138730E+03  0.00000000000E+00 0. -1.
          1    1    5    5  503    0  0.25284515417E+02 -0.36537091293E+03 -0.26798387398E+03  0.45381776899E+03  0.00000000000E+00 0. -1.
         -2    1    5    5    0  503 -0.19838074549E+02 -0.44859311686E+02 -0.16207741558E+02  0.51658473972E+02  0.00000000000E+00 0.  1.
         -1    1    6    6    0  502  0.81633683005E+01  0.18563152796E+03 -0.43578133354E+03  0.47374157029E+03  0.00000000000E+00 0.  1.
<mgrwt>
<rscale>  0 0.17872055E+04</rscale>
<asrwt>0</asrwt>
<pdfrwt beam="1">  1        2 0.22515720E+00 0.17872055E+04</pdfrwt>
<pdfrwt beam="2">  1       -2 0.83941443E-01 0.17872055E+04</pdfrwt>
<totfact> 0.15597614E+01</totfact>
</mgrwt>
</event>
<event>
12    1  0.1477245E-007  0.2103871E+04  0.7818608E-02  0.8559540E-01
          2   -1    0    0  501    0  0.00000000000E+00  0.00000000000E+00  0.33768225149E+04  0.33768225149E+04  0.00000000000E+00 0. -1.
         -2   -1    0    0    0  501 -0.00000000000E+00 -0.00000000000E+00 -0.32769526775E+03  0.32769526775E+03  0.00000000000E+00 0.  1.
         23    2    1    2    0    0  0.16818331511E+03 -0.26146892364E+03 -0.15816545304E+03  0.36071842496E+03  0.91923044240E+02 0.  0.
        254    2    1    2    0    0 -0.16818331511E+03  0.26146892364E+03  0.32072927002E+04  0.33437993577E+04  0.89309353054E+03 0.  0.
        -24    2    4    4    0    0 -0.12430372490E+03  0.25384611126E+03  0.32318044406E+04  0.32451052969E+04  0.79114988295E+02 0.  0.
         24    2    4    4    0    0 -0.43879590219E+02  0.76228123803E+01 -0.24511740448E+02  0.98694060767E+02  0.84594128073E+02 0.  0.
         13    1    3    3    0    0  0.16589670519E+03 -0.21580733938E+03 -0.10800112048E+03  0.29284597752E+03  0.00000000000E+00 0.  1.
        -13    1    3    3    0    0  0.22866099287E+01 -0.45661584255E+02 -0.50164332554E+02  0.67872447445E+02  0.00000000000E+00 0. -1.
          4    1    6    6  502    0 -0.13847032891E+02  0.43172827848E+02 -0.25747634107E+02  0.52139946743E+02  0.00000000000E+00 0. -1.
          1    1    5    5  503    0 -0.12089999335E+03  0.18795217758E+03  0.26976889697E+04  0.27069297380E+04  0.00000000000E+00 0. -1.
         -2    1    5    5    0  503 -0.34037315414E+01  0.65893933672E+02  0.53411547094E+03  0.53817555889E+03  0.00000000000E+00 0.  1.
         -3    1    6    6    0  502 -0.30032557328E+02 -0.35550015467E+02  0.12358936586E+01  0.46554114024E+02  0.00000000000E+00 0.  1.
<mgrwt>
<rscale>  0 0.21038714E+04</rscale>
<asrwt>0</asrwt>
<pdfrwt beam="1">  1        2 0.51951113E+00 0.21038714E+04</pdfrwt>
<pdfrwt beam="2">  1       -2 0.50414659E-01 0.21038714E+04</pdfrwt>
<totfact> 0.34017819E+00</totfact>
</mgrwt>
</event>
<event>
12    1  0.1477245E-007  0.1699102E+04  0.7818608E-02  0.8761877E-01
          2   -1    0    0  501    0  0.00000000000E+00  0.00000000000E+00  0.13282220686E+04  0.13282220686E+04  0.00000000000E+00 0.  1.
         -2   -1    0    0    0  501 -0.00000000000E+00 -0.00000000000E+00 -0.54338580414E+03  0.54338580414E+03  0.00000000000E+00 0. -1.
         23    2    1    2    0    0 -0.15970032841E+03 -0.58302709122E+03  0.22678279222E+03  0.65197235505E+03  0.90624129874E+02 0.  0.
        254    2    1    2    0    0  0.15970032841E+03  0.58302709122E+03  0.55805347225E+03  0.12196355177E+04  0.90036788822E+03 0.  0.
        -24    2    4    4    0    0 -0.18208166079E+03  0.56144552595E+03  0.62320348241E+03  0.86204169896E+03  0.79740205906E+02 0.  0.
         24    2    4    4    0    0  0.34178198920E+03  0.21581565268E+02 -0.65150010165E+02  0.35759381873E+03  0.79675110729E+02 0.  0.
         11    1    3    3    0    0 -0.12470233798E+03 -0.39134598973E+03  0.11160538546E+03  0.42562673651E+03  0.00000000000E+00 0. -1.
        -11    1    3    3    0    0 -0.34997990430E+02 -0.19168110150E+03  0.11517740676E+03  0.22634561854E+03  0.00000000000E+00 0.  1.
          2    1    6    6  502    0  0.29526018359E+03  0.17111215861E+02 -0.26488754239E+02  0.29693942787E+03  0.00000000000E+00 0. -1.
          3    1    5    5  503    0 -0.10197081250E+03  0.42769256623E+03  0.45844571633E+03  0.63520977057E+03  0.00000000000E+00 0. -1.
         -4    1    5    5    0  503 -0.80110848300E+02  0.13375295973E+03  0.16475776608E+03  0.22683192838E+03  0.00000000000E+00 0.  1.
         -1    1    6    6    0  502  0.46521805606E+02  0.44703494074E+01 -0.38661255927E+02  0.60654390859E+02  0.00000000000E+00 0.  1.
<mgrwt>
<rscale>  0 0.16991021E+04</rscale>
<asrwt>0</asrwt>
<pdfrwt beam="1">  1        2 0.20434186E+00 0.16991021E+04</pdfrwt>
<pdfrwt beam="2">  1       -2 0.83597816E-01 0.16991021E+04</pdfrwt>
<totfact> 0.18956913E+01</totfact>
</mgrwt>
</event>
<event>
12    1  0.1477245E-007  0.2085246E+04  0.7818608E-02  0.8567771E-01
         -1   -1    0    0    0  501 -0.00000000000E+00  0.00000000000E+00  0.76612505571E+03  0.76612505571E+03  0.00000000000E+00 0.  1.
          1   -1    0    0  501    0  0.00000000000E+00 -0.00000000000E+00 -0.14189098826E+04  0.14189098826E+04  0.00000000000E+00 0. -1.
         23    2    1    2    0    0 -0.47284496991E+03  0.16534244254E+03  0.44692070437E+03  0.67781595434E+03  0.93679576658E+02 0.  0.
        254    2    1    2    0    0  0.47284496991E+03 -0.16534244254E+03 -0.10997055313E+04  0.15072189840E+04  0.90079760283E+03 0.  0.
        -24    2    4    4    0    0  0.16149803326E+03  0.83172365685E+02  0.11268465368E+03  0.22840797469E+03  0.80455668318E+02 0.  0.
         24    2    4    4    0    0  0.31134693665E+03 -0.24851480823E+03 -0.12123901850E+04  0.12788110093E+04  0.82286766965E+02 0.  0.
         13    1    3    3    0    0 -0.83806527890E+02  0.17560963993E+02  0.12574923177E+03  0.15213412130E+03  0.00000000000E+00 0. -1.
        -13    1    3    3    0    0 -0.38903844202E+03  0.14778147855E+03  0.32117147261E+03  0.52568183304E+03  0.00000000000E+00 0.  1.
          4    1    6    6  502    0  0.28221044148E+02 -0.53541329713E+02 -0.23735627088E+03  0.24495122095E+03  0.00000000000E+00 0. -1.
          3    1    5    5  503    0  0.11337536630E+03  0.66985480971E+02  0.36138345366E+02  0.13655404919E+03  0.00000000000E+00 0. -1.
         -4    1    5    5    0  503  0.48122666960E+02  0.16186884714E+02  0.76546308316E+02  0.91853925495E+02  0.00000000000E+00 0.  1.
         -3    1    6    6    0  502  0.28312589250E+03 -0.19497347851E+03 -0.97503391409E+03  0.10338597883E+04  0.00000000000E+00 0.  1.
<mgrwt>
<rscale>  0 0.20852457E+04</rscale>
<asrwt>0</asrwt>
<pdfrwt beam="1">  1        1 0.21829383E+00 0.20852457E+04</pdfrwt>
<pdfrwt beam="2">  1       -1 0.11786539E+00 0.20852457E+04</pdfrwt>
<totfact> 0.44384486E+00</totfact>
</mgrwt>
</event>
<event>
12    1  0.1477245E-007  0.2284640E+04  0.7818608E-02  0.8484002E-01
         -1   -1    0    0    0  501 -0.00000000000E+00  0.00000000000E+00  0.93350557291E+03  0.93350557291E+03  0.00000000000E+00 0.  1.
          1   -1    0    0  501    0  0.00000000000E+00 -0.00000000000E+00 -0.13978437190E+04  0.13978437190E+04  0.00000000000E+00 0. -1.
         23    2    1    2    0    0  0.52979704518E+03  0.67981930746E+03  0.23890863813E+03  0.89910494758E+03  0.92049820751E+02 0.  0.
        254    2    1    2    0    0 -0.52979704518E+03 -0.67981930746E+03 -0.70324678422E+03  0.14322443443E+04  0.90217992800E+03 0.  0.
        -24    2    4    4    0    0 -0.64072232154E+03 -0.10957391181E+03 -0.44600278907E+03  0.79231172299E+03  0.79421930639E+02 0.  0.
         24    2    4    4    0    0  0.11092527636E+03 -0.57024539565E+03 -0.25724399514E+03  0.63993262134E+03  0.76518354839E+02 0.  0.
         13    1    3    3    0    0  0.39973857585E+03  0.46060147756E+03  0.19620795546E+03  0.64065764019E+03  0.00000000000E+00 0.  1.
        -13    1    3    3    0    0  0.13005846933E+03  0.21921782991E+03  0.42700682668E+02  0.25844730739E+03  0.00000000000E+00 0. -1.
          4    1    6    6  502    0  0.84652158301E+02 -0.42770677670E+03 -0.15573665554E+03  0.46298270013E+03  0.00000000000E+00 0. -1.
          1    1    5    5  503    0 -0.35585035191E+03 -0.30702627458E+02 -0.27544413919E+03  0.45104500674E+03  0.00000000000E+00 0. -1.
         -2    1    5    5    0  503 -0.28487196963E+03 -0.78871284356E+02 -0.17055864988E+03  0.34126671626E+03  0.00000000000E+00 0.  1.
         -3    1    6    6    0  502  0.26273118056E+02 -0.14253861895E+03 -0.10150733960E+03  0.17694992121E+03  0.00000000000E+00 0.  1.
<mgrwt>
<rscale>  0 0.22846399E+04</rscale>
<asrwt>0</asrwt>
<pdfrwt beam="1">  1        1 0.21505288E+00 0.22846399E+04</pdfrwt>
<pdfrwt beam="2">  1       -1 0.14361624E+00 0.22846399E+04</pdfrwt>
<totfact> 0.27350144E+00</totfact>
</mgrwt>
</event>
<event>
12    1  0.1477245E-007  0.2183092E+04  0.7818608E-02  0.8525499E-01
         -1   -1    0    0    0  501 -0.00000000000E+00  0.00000000000E+00  0.12929510521E+04  0.12929510521E+04  0.00000000000E+00 0.  1.
          1   -1    0    0  501    0  0.00000000000E+00 -0.00000000000E+00 -0.92151422442E+03  0.92151422442E+03  0.00000000000E+00 0. -1.
         23    2    1    2    0    0 -0.16318745416E+03  0.91389858852E+03  0.10466402905E+03  0.93859593469E+03  0.90371424364E+02 0.  0.
        254    2    1    2    0    0  0.16318745416E+03 -0.91389858852E+03  0.26677279859E+03  0.12758693418E+04  0.83356707945E+03 0.  0.
        -24    2    4    4    0    0 -0.32445517987E+03 -0.47465995650E+03  0.18431603050E+03  0.60974252145E+03  0.85089983674E+02 0.  0.
         24    2    4    4    0    0  0.48764263403E+03 -0.43923863202E+03  0.82456768089E+02  0.66612682033E+03  0.78739493155E+02 0.  0.
         11    1    3    3    0    0 -0.50177889886E+02  0.46665845828E+03  0.21335043122E+02  0.46983307821E+03  0.00000000000E+00 0. -1.
        -11    1    3    3    0    0 -0.11300956428E+03  0.44724013024E+03  0.83328985933E+02  0.46876285647E+03  0.00000000000E+00 0.  1.
          4    1    6    6  502    0  0.22033120605E+03 -0.23629115386E+03  0.68217863821E+02  0.33020149408E+03  0.00000000000E+00 0. -1.
          3    1    5    5  503    0 -0.17742717765E+03 -0.19905990800E+03  0.58545872185E+02  0.27300708689E+03  0.00000000000E+00 0. -1.
         -2    1    5    5    0  503 -0.14702800222E+03 -0.27560004850E+03  0.12577015831E+03  0.33673543457E+03  0.00000000000E+00 0.  1.
         -3    1    6    6    0  502  0.26731142798E+03 -0.20294747816E+03  0.14238904267E+02  0.33592532625E+03  0.00000000000E+00 0.  1.
<mgrwt>
<rscale>  0 0.21830921E+04</rscale>
<asrwt>0</asrwt>
<pdfrwt beam="1">  1        1 0.14177142E+00 0.21830921E+04</pdfrwt>
<pdfrwt beam="2">  1       -1 0.19891555E+00 0.21830921E+04</pdfrwt>
<totfact> 0.24431029E+00</totfact>
</mgrwt>
</event>
<event>
12    1  0.1477245E-007  0.1676196E+04  0.7818608E-02  0.8775058E-01
         -1   -1    0    0    0  501 -0.00000000000E+00  0.00000000000E+00  0.67321643313E+03  0.67321643313E+03  0.00000000000E+00 0.  1.
          1   -1    0    0  501    0  0.00000000000E+00 -0.00000000000E+00 -0.10433623119E+04  0.10433623119E+04  0.00000000000E+00 0. -1.
         23    2    1    2    0    0 -0.33845878758E+03  0.28023430557E+03  0.27645753097E+03  0.52632166449E+03  0.86603182231E+02 0.  0.
        254    2    1    2    0    0  0.33845878758E+03 -0.28023430557E+03 -0.64660340976E+03  0.11902570806E+04  0.89751341572E+03 0.  0.
        -24    2    4    4    0    0  0.27099286571E+03  0.75358236110E+01 -0.79916843217E+03  0.84774451222E+03  0.80663827902E+02 0.  0.
         24    2    4    4    0    0  0.67465921873E+02 -0.28777012918E+03  0.15256502241E+03  0.34251256833E+03  0.81703583395E+02 0.  0.
         13    1    3    3    0    0 -0.15417945907E+03  0.10980609977E+03  0.71761989715E+02  0.20243139162E+03  0.00000000000E+00 0. -1.
        -13    1    3    3    0    0 -0.18427932851E+03  0.17042820580E+03  0.20469554126E+03  0.32389027287E+03  0.00000000000E+00 0.  1.
          4    1    6    6  502    0  0.15617949082E+02 -0.60530575354E+02  0.73270304032E+02  0.96314112877E+02  0.00000000000E+00 0. -1.
          3    1    5    5  503    0  0.43424284890E+02 -0.27445202101E+02 -0.17859947595E+03  0.18584047042E+03  0.00000000000E+00 0. -1.
         -4    1    5    5    0  503  0.22756858082E+03  0.34981025712E+02 -0.62056895622E+03  0.66190404180E+03  0.00000000000E+00 0.  1.
         -3    1    6    6    0  502  0.51847972790E+02 -0.22723955383E+03  0.79294718376E+02  0.24619845546E+03  0.00000000000E+00 0.  1.
<mgrwt>
<rscale>  0 0.16761965E+04</rscale>
<asrwt>0</asrwt>
<pdfrwt beam="1">  1        1 0.16051728E+00 0.16761965E+04</pdfrwt>
<pdfrwt beam="2">  1       -1 0.10357176E+00 0.16761965E+04</pdfrwt>
<totfact> 0.11737655E+01</totfact>
</mgrwt>
</event>
<event>
12    1  0.1477245E-007  0.1370965E+04  0.7818608E-02  0.8975108E-01
         -1   -1    0    0    0  501 -0.00000000000E+00  0.00000000000E+00  0.28311858666E+03  0.28311858666E+03  0.00000000000E+00 0.  1.
          1   -1    0    0  501    0  0.00000000000E+00 -0.00000000000E+00 -0.16596804341E+04  0.16596804341E+04  0.00000000000E+00 0. -1.
         23    2    1    2    0    0  0.11070313818E+03  0.16544986121E+03 -0.85042244612E+03  0.87827361142E+03  0.92289535022E+02 0.  0.
        254    2    1    2    0    0 -0.11070313818E+03 -0.16544986121E+03 -0.52613940129E+03  0.10645254093E+04  0.90374932150E+03 0.  0.
        -24    2    4    4    0    0  0.16081691733E+03 -0.23128036457E+03  0.15015332184E+03  0.32919332410E+03  0.80433429864E+02 0.  0.
         24    2    4    4    0    0 -0.27152005550E+03  0.65830503357E+02 -0.67629272314E+03  0.73533208522E+03  0.72695477649E+02 0.  0.
         13    1    3    3    0    0  0.41319623802E+02  0.53568761739E+02 -0.13685700626E+03  0.15266552888E+03  0.00000000000E+00 0.  1.
        -13    1    3    3    0    0  0.69383514375E+02  0.11188109947E+03 -0.71356543986E+03  0.72560808255E+03  0.00000000000E+00 0. -1.
          2    1    6    6  502    0 -0.22326820687E+02  0.59043770552E+00 -0.12305335477E+03  0.12506383833E+03  0.00000000000E+00 0. -1.
          1    1    5    5  503    0  0.28202185378E+02 -0.11988233296E+02 -0.27577876816E+01  0.30768269216E+02  0.00000000000E+00 0. -1.
         -2    1    5    5    0  503  0.13261473195E+03 -0.21929213127E+03  0.15291110952E+03  0.29842505489E+03  0.00000000000E+00 0.  1.
         -1    1    6    6    0  502 -0.24919323482E+03  0.65240065651E+02 -0.55323936837E+03  0.61026824689E+03  0.00000000000E+00 0.  1.
<mgrwt>
<rscale>  0 0.13709652E+04</rscale>
<asrwt>0</asrwt>
<pdfrwt beam="1">  1        1 0.25533545E+00 0.13709652E+04</pdfrwt>
<pdfrwt beam="2">  1       -1 0.43556705E-01 0.13709652E+04</pdfrwt>
<totfact> 0.25830441E+01</totfact>
</mgrwt>
</event>
<event>
12    1  0.1477245E-007  0.1625622E+04  0.7818608E-02  0.8804960E-01
          2   -1    0    0  501    0  0.00000000000E+00  0.00000000000E+00  0.15416847501E+04  0.15416847501E+04  0.00000000000E+00 0. -1.
         -2   -1    0    0    0  501 -0.00000000000E+00 -0.00000000000E+00 -0.42853252718E+03  0.42853252718E+03  0.00000000000E+00 0.  1.
         23    2    1    2    0    0  0.52046796580E+03  0.96108404427E+02  0.59489672164E+03  0.80154587798E+03  0.91923643644E+02 0.  0.
        254    2    1    2    0    0 -0.52046796580E+03 -0.96108404427E+02  0.51825550131E+03  0.11686713993E+04  0.90392496710E+03 0.  0.
        -24    2    4    4    0    0 -0.74875915404E+03  0.60867583262E+02  0.33825318663E+03  0.82774537826E+03  0.80012870951E+02 0.  0.
         24    2    4    4    0    0  0.22829118823E+03 -0.15697598769E+03  0.18000231468E+03  0.34092602107E+03  0.84091564497E+02 0.  0.
         13    1    3    3    0    0  0.31659925787E+03  0.47326711248E+02  0.42287269533E+03  0.53037366463E+03  0.00000000000E+00 0.  1.
        -13    1    3    3    0    0  0.20386870793E+03  0.48781693179E+02  0.17202402631E+03  0.27117221335E+03  0.00000000000E+00 0. -1.
          2    1    6    6  502    0  0.44717921446E+02 -0.76679492668E+02  0.63634791992E+02  0.10921915512E+03  0.00000000000E+00 0. -1.
          1    1    5    5  503    0 -0.31404653951E+03 -0.12917370481E+02  0.15098815782E+03  0.34869687587E+03  0.00000000000E+00 0. -1.
         -2    1    5    5    0  503 -0.43471261453E+03  0.73784953743E+02  0.18726502881E+03  0.47904850239E+03  0.00000000000E+00 0.  1.
         -1    1    6    6    0  502  0.18357326679E+03 -0.80296495021E+02  0.11636752268E+03  0.23170686595E+03  0.00000000000E+00 0.  1.
<mgrwt>
<rscale>  0 0.16256224E+04</rscale>
<asrwt>0</asrwt>
<pdfrwt beam="1">  1        2 0.23718227E+00 0.16256224E+04</pdfrwt>
<pdfrwt beam="2">  1       -2 0.65928082E-01 0.16256224E+04</pdfrwt>
<totfact> 0.24366091E+01</totfact>
</mgrwt>
</event>
<event>
12    1  0.1477245E-007  0.1228644E+04  0.7818608E-02  0.9088147E-01
         -3   -1    0    0    0  501 -0.00000000000E+00  0.00000000000E+00  0.36286883333E+03  0.36286883333E+03  0.00000000000E+00 0.  1.
          3   -1    0    0  501    0  0.00000000000E+00 -0.00000000000E+00 -0.10400224767E+04  0.10400224767E+04  0.00000000000E+00 0. -1.
         23    2    1    2    0    0 -0.81950067799E+02 -0.29524107374E+03 -0.89857877241E+02  0.33213996963E+03  0.91429842442E+02 0.  0.
        254    2    1    2    0    0  0.81950067799E+02  0.29524107374E+03 -0.58729576609E+03  0.10707513404E+04  0.84125442690E+03 0.  0.
        -24    2    4    4    0    0  0.22710774709E+03  0.41921567252E+03 -0.38928520097E+02  0.48470595478E+03  0.78132733472E+02 0.  0.
         24    2    4    4    0    0 -0.14515767929E+03 -0.12397459878E+03 -0.54836724599E+03  0.58604538558E+03  0.79385795204E+02 0.  0.
         13    1    3    3    0    0 -0.92177626818E+02 -0.24756273654E+03 -0.49328320012E+02  0.26873277910E+03  0.00000000000E+00 0.  1.
        -13    1    3    3    0    0  0.10227559019E+02 -0.47678337203E+02 -0.40529557229E+02  0.63407190531E+02  0.00000000000E+00 0. -1.
          4    1    6    6  502    0 -0.50425681035E+02 -0.91750505517E+02 -0.32077161960E+03  0.33742456418E+03  0.00000000000E+00 0. -1.
          3    1    5    5  503    0  0.50890493822E+02  0.17175765994E+03 -0.21388216384E+02  0.18041062028E+03  0.00000000000E+00 0. -1.
         -2    1    5    5    0  503  0.17621725327E+03  0.24745801258E+03 -0.17540303713E+02  0.30429533450E+03  0.00000000000E+00 0.  1.
         -3    1    6    6    0  502 -0.94731998259E+02 -0.32224093268E+02 -0.22759562639E+03  0.24862082140E+03  0.00000000000E+00 0.  1.
<mgrwt>
<rscale>  0 0.12286444E+04</rscale>
<asrwt>0</asrwt>
<pdfrwt beam="1">  1        3 0.16000346E+00 0.12286444E+04</pdfrwt>
<pdfrwt beam="2">  1       -3 0.55825975E-01 0.12286444E+04</pdfrwt>
<totfact> 0.22286019E+00</totfact>
</mgrwt>
</event>
<event>
12    1  0.1477245E-007  0.4127791E+04  0.7818608E-02  0.7979252E-01
         -1   -1    0    0    0  501 -0.00000000000E+00  0.00000000000E+00  0.18566389242E+04  0.18566389242E+04  0.00000000000E+00 0.  1.
          1   -1    0    0  501    0  0.00000000000E+00 -0.00000000000E+00 -0.22942876200E+04  0.22942876200E+04  0.00000000000E+00 0. -1.
         23    2    1    2    0    0  0.11852922299E+04 -0.51859249613E+03 -0.16947860969E+04  0.21344778972E+04  0.99197439402E+02 0.  0.
        254    2    1    2    0    0 -0.11852922299E+04  0.51859249613E+03  0.12571374011E+04  0.20164486471E+04  0.90100768799E+03 0.  0.
        -24    2    4    4    0    0 -0.11230872017E+04  0.26063979651E+03  0.12961878066E+04  0.17364999830E+04  0.77919155777E+02 0.  0.
         24    2    4    4    0    0 -0.62205028168E+02  0.25795269962E+03 -0.39050405539E+02  0.27994866405E+03  0.80232534276E+02 0.  0.
         11    1    3    3    0    0  0.68345647668E+01 -0.11351344376E+02 -0.29006851935E+02  0.31889837784E+02  0.00000000000E+00 0.  1.
        -11    1    3    3    0    0  0.11784576651E+04 -0.50724115176E+03 -0.16657792450E+04  0.21025880594E+04  0.00000000000E+00 0. -1.
          4    1    6    6  502    0  0.31742961597E+01 -0.23974219963E+01  0.65558850473E+01  0.76683386135E+01  0.00000000000E+00 0. -1.
          3    1    5    5  503    0 -0.63141448319E+02  0.13357557415E+02  0.10223631795E+03  0.12090298401E+03  0.00000000000E+00 0. -1.
         -4    1    5    5    0  503 -0.10599457534E+04  0.24728223910E+03  0.11939514887E+04  0.16155969990E+04  0.00000000000E+00 0.  1.
         -3    1    6    6    0  502 -0.65379324328E+02  0.26035012162E+03 -0.45606290587E+02  0.27228032543E+03  0.00000000000E+00 0.  1.
<mgrwt>
<rscale>  0 0.41277905E+04</rscale>
<asrwt>0</asrwt>
<pdfrwt beam="1">  1        1 0.35296732E+00 0.41277905E+04</pdfrwt>
<pdfrwt beam="2">  1       -1 0.28563676E+00 0.41277905E+04</pdfrwt>
<totfact> 0.59523394E-02</totfact>
</mgrwt>
</event>
<event>
12    1  0.1477245E-007  0.1834377E+04  0.7818608E-02  0.8688229E-01
          1   -1    0    0  501    0  0.00000000000E+00  0.00000000000E+00  0.12148520959E+04  0.12148520959E+04  0.00000000000E+00 0. -1.
         -1   -1    0    0    0  501 -0.00000000000E+00 -0.00000000000E+00 -0.69245868340E+03  0.69245868340E+03  0.00000000000E+00 0.  1.
         23    2    1    2    0    0 -0.21709576154E+03 -0.58106262704E+03 -0.10637877070E+03  0.63596365721E+03  0.91482152450E+02 0.  0.
        254    2    1    2    0    0  0.21709576154E+03  0.58106262704E+03  0.62877218320E+03  0.12713471221E+04  0.91444228919E+03 0.  0.
        -24    2    4    4    0    0 -0.68372461186E+02  0.53323570825E+03 -0.32963767611E+02  0.54454154810E+03  0.80148447454E+02 0.  0.
         24    2    4    4    0    0  0.28546822273E+03  0.47826918783E+02  0.66173595081E+03  0.72680557398E+03  0.81070052610E+02 0.  0.
         11    1    3    3    0    0 -0.78956173744E+02 -0.32892265702E+03 -0.37600647765E+02  0.34034982061E+03  0.00000000000E+00 0. -1.
        -11    1    3    3    0    0 -0.13813958780E+03 -0.25213997001E+03 -0.68778122935E+02  0.29561383660E+03  0.00000000000E+00 0.  1.
          2    1    6    6  502    0  0.24734894788E+03  0.60913764378E+02  0.61123670352E+03  0.66219505921E+03  0.00000000000E+00 0. -1.
          3    1    5    5  503    0 -0.80865759285E+02  0.37184981485E+03 -0.39185061137E+02  0.38255329674E+03  0.00000000000E+00 0. -1.
         -2    1    5    5    0  503  0.12493298098E+02  0.16138589340E+03  0.62212935254E+01  0.16198825136E+03  0.00000000000E+00 0.  1.
         -3    1    6    6    0  502  0.38119274852E+02 -0.13086845595E+02  0.50499247285E+02  0.64610514773E+02  0.00000000000E+00 0.  1.
<mgrwt>
<rscale>  0 0.18343772E+04</rscale>
<asrwt>0</asrwt>
<pdfrwt beam="1">  1        1 0.18690032E+00 0.18343772E+04</pdfrwt>
<pdfrwt beam="2">  1       -1 0.10653211E+00 0.18343772E+04</pdfrwt>
<totfact> 0.80706565E+00</totfact>
</mgrwt>
</event>
<event>
12    1  0.1879129E-007  0.1228385E+04  0.7818608E-02  0.9088367E-01
         -3   -1    0    0    0  501 -0.00000000000E+00  0.00000000000E+00  0.40512784331E+03  0.40512784331E+03  0.00000000000E+00 0.  1.
          3   -1    0    0  501    0  0.00000000000E+00 -0.00000000000E+00 -0.93114456457E+03  0.93114456457E+03  0.00000000000E+00 0. -1.
         23    2    1    2    0    0 -0.87740495360E+02  0.41914880135E+02 -0.41731888518E+03  0.43854906845E+03  0.93354066910E+02 0.  0.
        254    2    1    2    0    0  0.87740495360E+02 -0.41914880135E+02 -0.10869783609E+03  0.89772333943E+03  0.88579722448E+03 0.  0.
        -24    2    4    4    0    0 -0.26722950304E+03 -0.26685855070E+03  0.13027706810E+03  0.40743461651E+03  0.80035984905E+02 0.  0.
         24    2    4    4    0    0  0.35496999840E+03  0.22494367056E+03 -0.23897490419E+03  0.49028872292E+03  0.81674183811E+02 0.  0.
         11    1    3    3    0    0 -0.10323818475E+03  0.51647638980E+02 -0.33881035314E+03  0.35793582776E+03  0.00000000000E+00 0. -1.
        -11    1    3    3    0    0  0.15497689386E+02 -0.97327588451E+01 -0.78508532037E+02  0.80613240685E+02  0.00000000000E+00 0.  1.
          2    1    6    6  502    0  0.29056032623E+03  0.16862503967E+03 -0.15351432272E+03  0.36935938389E+03  0.00000000000E+00 0. -1.
          1    1    5    5  503    0 -0.25240709889E+03 -0.22084198558E+03  0.98370585582E+02  0.34951008322E+03  0.00000000000E+00 0. -1.
         -2    1    5    5    0  503 -0.14822404155E+02 -0.46016565117E+02  0.31906482519E+02  0.57924533289E+02  0.00000000000E+00 0.  1.
         -1    1    6    6    0  502  0.64409672169E+02  0.56318630891E+02 -0.85460581473E+02  0.12092933904E+03  0.00000000000E+00 0.  1.
<mgrwt>
<rscale>  0 0.12283853E+04</rscale>
<asrwt>0</asrwt>
<pdfrwt beam="1">  1        3 0.14325301E+00 0.12283853E+04</pdfrwt>
<pdfrwt beam="2">  1       -3 0.62327361E-01 0.12283853E+04</pdfrwt>
<totfact> 0.23553553E+00</totfact>
</mgrwt>
</event>
<event>
12    1  0.1477245E-007  0.1634101E+04  0.7818608E-02  0.8799868E-01
          2   -1    0    0  501    0  0.00000000000E+00  0.00000000000E+00  0.86002370708E+03  0.86002370708E+03  0.00000000000E+00 0. -1.
         -2   -1    0    0    0  501 -0.00000000000E+00 -0.00000000000E+00 -0.77622473143E+03  0.77622473143E+03  0.00000000000E+00 0.  1.
         23    2    1    2    0    0 -0.13028982554E+02 -0.46821305601E+03 -0.29497390392E+03  0.56111055695E+03  0.91881624489E+02 0.  0.
        254    2    1    2    0    0  0.13028982554E+02  0.46821305601E+03  0.37877287957E+03  0.10751378816E+04  0.89053879752E+03 0.  0.
        -24    2    4    4    0    0  0.38174163598E+03  0.48416729661E+03  0.29394904800E+03  0.68774861849E+03  0.80296149800E+02 0.  0.
         24    2    4    4    0    0 -0.36871265343E+03 -0.15954240602E+02  0.84823831571E+02  0.38738926308E+03  0.81681088107E+02 0.  0.
         13    1    3    3    0    0 -0.13082267490E+01 -0.40503774804E+03 -0.28689180018E+03  0.49635087771E+03  0.00000000000E+00 0.  1.
        -13    1    3    3    0    0 -0.11720755805E+02 -0.63175307970E+02 -0.80821037398E+01  0.64759679235E+02  0.00000000000E+00 0. -1.
          4    1    6    6  502    0 -0.36004293159E+03 -0.70025044879E+01  0.93685340521E+02  0.37209795845E+03  0.00000000000E+00 0. -1.
          3    1    5    5  503    0  0.37411456602E+03  0.48416572917E+03  0.28235618915E+03  0.67387178258E+03  0.00000000000E+00 0. -1.
         -4    1    5    5    0  503  0.76270699639E+01  0.15674425324E-02  0.11592858849E+02  0.13876835914E+02  0.00000000000E+00 0.  1.
         -3    1    6    6    0  502 -0.86697218370E+01 -0.89517361143E+01 -0.88615089503E+01  0.15291304623E+02  0.00000000000E+00 0.  1.
<mgrwt>
<rscale>  0 0.16341012E+04</rscale>
<asrwt>0</asrwt>
<pdfrwt beam="1">  1        2 0.13231134E+00 0.16341012E+04</pdfrwt>
<pdfrwt beam="2">  1       -2 0.11941919E+00 0.16341012E+04</pdfrwt>
<totfact> 0.16054145E+01</totfact>
</mgrwt>
</event>
<event>
12    1  0.1477245E-007  0.1629182E+04  0.7818608E-02  0.8802818E-01
          2   -1    0    0  501    0  0.00000000000E+00  0.00000000000E+00  0.62827160476E+03  0.62827160476E+03  0.00000000000E+00 0.  1.
         -2   -1    0    0    0  501 -0.00000000000E+00 -0.00000000000E+00 -0.10561654302E+04  0.10561654302E+04  0.00000000000E+00 0. -1.
         23    2    1    2    0    0 -0.46686342138E+03  0.25117467727E+03  0.38067044556E+02  0.53924995205E+03  0.91056236388E+02 0.  0.
        254    2    1    2    0    0  0.46686342138E+03 -0.25117467727E+03 -0.46596087000E+03  0.11451870829E+04  0.90182246022E+03 0.  0.
        -24    2    4    4    0    0  0.58361096801E+03 -0.29596795740E+03 -0.32844216928E+01  0.65926929519E+03  0.80164969723E+02 0.  0.
         24    2    4    4    0    0 -0.11674754663E+03  0.44793280125E+02 -0.46267644831E+03  0.48591778772E+03  0.80063556097E+02 0.  0.
         13    1    3    3    0    0 -0.45680431329E+03  0.23303113481E+03  0.50127081484E+02  0.51525373820E+03  0.00000000000E+00 0.  1.
        -13    1    3    3    0    0 -0.10059108089E+02  0.18143542464E+02 -0.12060036928E+02  0.23996213855E+02  0.00000000000E+00 0. -1.
          2    1    6    6  502    0 -0.37889919273E+02  0.53171378927E+02 -0.26507653977E+03  0.27299892574E+03  0.00000000000E+00 0. -1.
          1    1    5    5  503    0  0.13783740335E+03 -0.97608555100E+02  0.23988628112E+02  0.17059318295E+03  0.00000000000E+00 0. -1.
         -2    1    5    5    0  503  0.44577356465E+03 -0.19835940230E+03 -0.27273049804E+02  0.48867611224E+03  0.00000000000E+00 0.  1.
         -1    1    6    6    0  502 -0.78857627354E+02 -0.83780988026E+01 -0.19759990854E+03  0.21291886198E+03  0.00000000000E+00 0.  1.
<mgrwt>
<rscale>  0 0.16291823E+04</rscale>
<asrwt>0</asrwt>
<pdfrwt beam="1">  1        2 0.96657170E-01 0.16291823E+04</pdfrwt>
<pdfrwt beam="2">  1       -2 0.16248699E+00 0.16291823E+04</pdfrwt>
<totfact> 0.10825212E+01</totfact>
</mgrwt>
</event>
<event>
12    1  0.1477245E-007  0.2125555E+04  0.7818608E-02  0.8550069E-01
         -2   -1    0    0    0  501 -0.00000000000E+00  0.00000000000E+00  0.47286613989E+03  0.47286613989E+03  0.00000000000E+00 0.  1.
          2   -1    0    0  501    0  0.00000000000E+00 -0.00000000000E+00 -0.23886175120E+04  0.23886175120E+04  0.00000000000E+00 0. -1.
         23    2    1    2    0    0 -0.25051235089E+03 -0.58335970316E+03 -0.15910153899E+04  0.17154562841E+04  0.91625927264E+02 0.  0.
        254    2    1    2    0    0  0.25051235089E+03  0.58335970316E+03 -0.32473598226E+03  0.11460273678E+04  0.89714006064E+03 0.  0.
        -24    2    4    4    0    0  0.27640717179E+03  0.64235424395E+03 -0.55311961551E+03  0.89534093264E+03  0.81695637963E+02 0.  0.
         24    2    4    4    0    0 -0.25894820906E+02 -0.58994540786E+02  0.22838363326E+03  0.25068643518E+03  0.80831350687E+02 0.  0.
         11    1    3    3    0    0 -0.13716483484E+03 -0.25385468040E+03 -0.62125473609E+03  0.68499185236E+03  0.00000000000E+00 0.  1.
        -11    1    3    3    0    0 -0.11334751604E+03 -0.32950502276E+03 -0.96976065379E+03  0.10304644317E+04  0.00000000000E+00 0. -1.
          2    1    6    6  502    0 -0.12993645348E+02 -0.23232345200E+02  0.20353445320E+03  0.20526775276E+03  0.00000000000E+00 0. -1.
          3    1    5    5  503    0  0.19104879390E+03  0.49388231712E+03 -0.45362893269E+03  0.69727942275E+03  0.00000000000E+00 0. -1.
         -4    1    5    5    0  503  0.85358377896E+02  0.14847192683E+03 -0.99490682821E+02  0.19806150989E+03  0.00000000000E+00 0.  1.
         -1    1    6    6    0  502 -0.12901175558E+02 -0.35762195585E+02  0.24849180056E+02  0.45418682426E+02  0.00000000000E+00 0.  1.
<mgrwt>
<rscale>  0 0.21255553E+04</rscale>
<asrwt>0</asrwt>
<pdfrwt beam="1">  1        2 0.36747961E+00 0.21255553E+04</pdfrwt>
<pdfrwt beam="2">  1       -2 0.72748638E-01 0.21255553E+04</pdfrwt>
<totfact> 0.63401372E+00</totfact>
</mgrwt>
</event>
<event>
12    1  0.1477245E-007  0.1073353E+04  0.7818608E-02  0.9231561E-01
          1   -1    0    0  501    0  0.00000000000E+00  0.00000000000E+00  0.26471630198E+03  0.26471630198E+03  0.00000000000E+00 0. -1.
         -1   -1    0    0    0  501 -0.00000000000E+00 -0.00000000000E+00 -0.10880381567E+04  0.10880381567E+04  0.00000000000E+00 0.  1.
         23    2    1    2    0    0  0.13288507140E+03  0.11449463560E+02 -0.14796249307E+03  0.21844604457E+03  0.89645092545E+02 0.  0.
        254    2    1    2    0    0 -0.13288507140E+03 -0.11449463560E+02 -0.67535936160E+03  0.11343084141E+04  0.90152968808E+03 0.  0.
        -24    2    4    4    0    0 -0.25684940963E+03  0.29564882373E+03 -0.68591932413E+03  0.79375994204E+03  0.78674520530E+02 0.  0.
         24    2    4    4    0    0  0.12396433823E+03 -0.30709828729E+03  0.10559962530E+02  0.34054847201E+03  0.78646257207E+02 0.  0.
         11    1    3    3    0    0  0.13997570971E+03  0.17572043388E+02 -0.10873634640E+03  0.17811672871E+03  0.00000000000E+00 0. -1.
        -11    1    3    3    0    0 -0.70906383104E+01 -0.61225798280E+01 -0.39226146672E+02  0.40329315865E+02  0.00000000000E+00 0.  1.
          2    1    6    6  502    0  0.14314316431E+02 -0.25774627926E+02 -0.22105305137E+02  0.36849363832E+02  0.00000000000E+00 0. -1.
          1    1    5    5  503    0 -0.44562650141E+02  0.34434951459E+02 -0.15725240860E+03  0.16703267848E+03  0.00000000000E+00 0. -1.
         -2    1    5    5    0  503 -0.21228675949E+03  0.26121387227E+03 -0.52866691553E+03  0.62672726357E+03  0.00000000000E+00 0.  1.
         -1    1    6    6    0  502  0.10965002180E+03 -0.28132365937E+03  0.32665267667E+02  0.30369910818E+03  0.00000000000E+00 0.  1.
<mgrwt>
<rscale>  0 0.10733526E+04</rscale>
<asrwt>0</asrwt>
<pdfrwt beam="1">  1        1 0.40725586E-01 0.10733526E+04</pdfrwt>
<pdfrwt beam="2">  1       -1 0.16739048E+00 0.10733526E+04</pdfrwt>
<totfact> 0.26509815E+01</totfact>
</mgrwt>
</event>
<event>
12    1  0.1477245E-007  0.2119929E+04  0.7818608E-02  0.8552515E-01
          1   -1    0    0  501    0  0.00000000000E+00  0.00000000000E+00  0.41106160776E+04  0.41106160776E+04  0.00000000000E+00 0. -1.
         -1   -1    0    0    0  501 -0.00000000000E+00 -0.00000000000E+00 -0.27332270975E+03  0.27332270975E+03  0.00000000000E+00 0.  1.
         23    2    1    2    0    0  0.38547671407E+03  0.14338119896E+02  0.69961218030E+01  0.39672743624E+03  0.92443681059E+02 0.  0.
        254    2    1    2    0    0 -0.38547671407E+03 -0.14338119896E+02  0.38302972460E+04  0.39872113511E+04  0.10382097508E+04 0.  0.
        -24    2    4    4    0    0  0.32074693099E+03  0.50403890602E+02  0.18987543036E+04  0.19279977959E+04  0.80550913592E+02 0.  0.
         24    2    4    4    0    0 -0.70622364507E+03 -0.64742010498E+02  0.19315429424E+04  0.20592135552E+04  0.80987422620E+02 0.  0.
         13    1    3    3    0    0  0.15442325522E+03  0.50041482154E+02 -0.73191511908E+01  0.16249388193E+03  0.00000000000E+00 0. -1.
        -13    1    3    3    0    0  0.23105345885E+03 -0.35703362258E+02  0.14315272994E+02  0.23423355431E+03  0.00000000000E+00 0.  1.
          2    1    6    6  502    0 -0.61750370713E+03 -0.31586545710E+02  0.17059457424E+04  0.18145411029E+04  0.00000000000E+00 0. -1.
          1    1    5    5  503    0  0.30187708318E+03  0.25503832572E+02  0.17447341236E+04  0.17708408683E+04  0.00000000000E+00 0. -1.
         -2    1    5    5    0  503  0.18869847807E+02  0.24900058030E+02  0.15402018000E+03  0.15715692761E+03  0.00000000000E+00 0.  1.
         -3    1    6    6    0  502 -0.88719937936E+02 -0.33155464789E+02  0.22559720004E+03  0.24467245226E+03  0.00000000000E+00 0.  1.
<mgrwt>
<rscale>  0 0.21199290E+04</rscale>
<asrwt>0</asrwt>
<pdfrwt beam="1">  1        1 0.63240243E+00 0.21199290E+04</pdfrwt>
<pdfrwt beam="2">  1       -1 0.42049651E-01 0.21199290E+04</pdfrwt>
<totfact> 0.39269326E-01</totfact>
</mgrwt>
</event>
<event>
12    1  0.1477245E-007  0.2055136E+04  0.7818608E-02  0.8581268E-01
          2   -1    0    0  501    0  0.00000000000E+00  0.00000000000E+00  0.19597528973E+04  0.19597528973E+04  0.00000000000E+00 0. -1.
         -2   -1    0    0    0  501 -0.00000000000E+00 -0.00000000000E+00 -0.53879020139E+03  0.53879020139E+03  0.00000000000E+00 0.  1.
         23    2    1    2    0    0 -0.21678043803E+03  0.42390317213E+03  0.13987647409E+04  0.14804552634E+04  0.92289375142E+02 0.  0.
        254    2    1    2    0    0  0.21678043803E+03 -0.42390317213E+03  0.22197955039E+02  0.10180878354E+04  0.89962349551E+03 0.  0.
        -24    2    4    4    0    0 -0.20060580424E+03 -0.19666107081E+02 -0.28341575300E+03  0.35687230122E+03  0.80024407957E+02 0.  0.
         24    2    4    4    0    0  0.41738624227E+03 -0.40423706505E+03  0.30561370804E+03  0.66121553415E+03  0.78659799517E+02 0.  0.
         13    1    3    3    0    0 -0.10888042620E+03  0.28573889709E+03  0.79586420725E+03  0.85258518689E+03  0.00000000000E+00 0.  1.
        -13    1    3    3    0    0 -0.10790001182E+03  0.13816427504E+03  0.60290053366E+03  0.62787007648E+03  0.00000000000E+00 0. -1.
          4    1    6    6  502    0  0.47392367008E+02 -0.54923466379E+02  0.11376072965E+02  0.73430502149E+02  0.00000000000E+00 0. -1.
          1    1    5    5  503    0 -0.52850795334E+02 -0.39461000472E+02 -0.10927689103E+03  0.12763939846E+03  0.00000000000E+00 0. -1.
         -2    1    5    5    0  503 -0.14775500891E+03  0.19794893391E+02 -0.17413886197E+03  0.22923290276E+03  0.00000000000E+00 0.  1.
         -3    1    6    6    0  502  0.36999387526E+03 -0.34931359867E+03  0.29423763507E+03  0.58778503200E+03  0.00000000000E+00 0.  1.
<mgrwt>
<rscale>  0 0.20551357E+04</rscale>
<asrwt>0</asrwt>
<pdfrwt beam="1">  1        2 0.30150044E+00 0.20551357E+04</pdfrwt>
<pdfrwt beam="2">  1       -2 0.82890801E-01 0.20551357E+04</pdfrwt>
<totfact> 0.82998591E+00</totfact>
</mgrwt>
</event>
<event>
12    1  0.1477245E-007  0.1902384E+04  0.7818608E-02  0.8653671E-01
          1   -1    0    0  501    0  0.00000000000E+00  0.00000000000E+00  0.10556568490E+04  0.10556568490E+04  0.00000000000E+00 0. -1.
         -1   -1    0    0    0  501 -0.00000000000E+00 -0.00000000000E+00 -0.85706433981E+03  0.85706433981E+03  0.00000000000E+00 0.  1.
         23    2    1    2    0    0 -0.57125437892E+02 -0.43793937890E+03  0.66713582201E+03  0.80532421137E+03  0.91775079210E+02 0.  0.
        254    2    1    2    0    0  0.57125437892E+02  0.43793937890E+03 -0.46854331286E+03  0.11073969774E+04  0.90096671098E+03 0.  0.
        -24    2    4    4    0    0 -0.41521680107E+03  0.22070598148E+03 -0.23422713522E+03  0.53166878913E+03  0.81812152608E+02 0.  0.
         24    2    4    4    0    0  0.47234223896E+03  0.21723339741E+03 -0.23431617764E+03  0.57572818827E+03  0.79128604214E+02 0.  0.
         11    1    3    3    0    0 -0.45295801244E+02 -0.36857149812E+03  0.61232471764E+03  0.71612723637E+03  0.00000000000E+00 0. -1.
        -11    1    3    3    0    0 -0.11829636648E+02 -0.69367880777E+02  0.54811104370E+02  0.89196974999E+02  0.00000000000E+00 0.  1.
          4    1    6    6  502    0  0.42731337171E+03  0.17408089740E+03 -0.22247604694E+03  0.51224649139E+03  0.00000000000E+00 0. -1.
          3    1    5    5  503    0 -0.15701537644E+03  0.45161751636E+02 -0.59493193493E+02  0.17387596821E+03  0.00000000000E+00 0. -1.
         -4    1    5    5    0  503 -0.25820142463E+03  0.17554422984E+03 -0.17473394173E+03  0.35779282092E+03  0.00000000000E+00 0.  1.
         -3    1    6    6    0  502  0.45028867254E+02  0.43152500019E+02 -0.11840130707E+02  0.63481696884E+02  0.00000000000E+00 0.  1.
<mgrwt>
<rscale>  0 0.19023836E+04</rscale>
<asrwt>0</asrwt>
<pdfrwt beam="1">  1        1 0.16240875E+00 0.19023836E+04</pdfrwt>
<pdfrwt beam="2">  1       -1 0.13185605E+00 0.19023836E+04</pdfrwt>
<totfact> 0.62712349E+00</totfact>
</mgrwt>
</event>
<event>
12    1  0.1477245E-007  0.1316480E+04  0.7818608E-02  0.9016598E-01
         -1   -1    0    0    0  501 -0.00000000000E+00  0.00000000000E+00  0.57364254356E+03  0.57364254356E+03  0.00000000000E+00 0.  1.
          1   -1    0    0  501    0  0.00000000000E+00 -0.00000000000E+00 -0.75531333557E+03  0.75531333557E+03  0.00000000000E+00 0. -1.
         23    2    1    2    0    0  0.10132568340E+03  0.26169098912E+03 -0.24195222281E+03  0.38212021435E+03  0.93412591189E+02 0.  0.
        254    2    1    2    0    0 -0.10132568340E+03 -0.26169098912E+03  0.60281430797E+02  0.94683566479E+03  0.90228313589E+03 0.  0.
        -24    2    4    4    0    0  0.24505780707E+02 -0.23303565700E+03 -0.39574516159E+03  0.46626792495E+03  0.76716322856E+02 0.  0.
         24    2    4    4    0    0 -0.12583146410E+03 -0.28655332119E+02  0.45602659239E+03  0.48056773984E+03  0.79563900036E+02 0.  0.
         11    1    3    3    0    0  0.44998756112E+02  0.18667646418E+03 -0.11349316410E+03  0.22305534880E+03  0.00000000000E+00 0.  1.
        -11    1    3    3    0    0  0.56326927283E+02  0.75014524936E+02 -0.12845905871E+03  0.15906486555E+03  0.00000000000E+00 0. -1.
          4    1    6    6  502    0  0.22463820531E+01 -0.11055816536E+02  0.69455986931E+01  0.13248345286E+02  0.00000000000E+00 0. -1.
          3    1    5    5  503    0  0.49503865479E+02 -0.11047447842E+03 -0.20818271187E+03  0.24082210156E+03  0.00000000000E+00 0. -1.
         -4    1    5    5    0  503 -0.24998084772E+02 -0.12256117858E+03 -0.18756244972E+03  0.22544582339E+03  0.00000000000E+00 0.  1.
         -3    1    6    6    0  502 -0.12807784616E+03 -0.17599515583E+02  0.44908099370E+03  0.46731939455E+03  0.00000000000E+00 0.  1.
<mgrwt>
<rscale>  0 0.13164799E+04</rscale>
<asrwt>0</asrwt>
<pdfrwt beam="1">  1        1 0.11620205E+00 0.13164799E+04</pdfrwt>
<pdfrwt beam="2">  1       -1 0.88252699E-01 0.13164799E+04</pdfrwt>
<totfact> 0.29995192E+01</totfact>
</mgrwt>
</event>
<event>
12    1  0.1477245E-007  0.1785142E+04  0.7818608E-02  0.8714241E-01
         -2   -1    0    0    0  501 -0.00000000000E+00  0.00000000000E+00  0.49954416349E+03  0.49954416349E+03  0.00000000000E+00 0.  1.
          2   -1    0    0  501    0  0.00000000000E+00 -0.00000000000E+00 -0.15948192640E+04  0.15948192640E+04  0.00000000000E+00 0. -1.
         23    2    1    2    0    0  0.57378727166E+03 -0.34277099616E+03 -0.33048217492E+03  0.75118162160E+03  0.91277443855E+02 0.  0.
        254    2    1    2    0    0 -0.57378727166E+03  0.34277099616E+03 -0.76479292563E+03  0.13431818059E+04  0.87892283836E+03 0.  0.
        -24    2    4    4    0    0  0.56132372833E+02  0.44573341162E+03 -0.25813105386E+03  0.52427386970E+03  0.80014573462E+02 0.  0.
         24    2    4    4    0    0 -0.62991964449E+03 -0.10296241546E+03 -0.50666187177E+03  0.81890793624E+03  0.80646997574E+02 0.  0.
         11    1    3    3    0    0  0.32613180284E+03 -0.19177822488E+03 -0.13636861179E+03  0.40216568556E+03  0.00000000000E+00 0. -1.
        -11    1    3    3    0    0  0.24765546882E+03 -0.15099277128E+03 -0.19411356313E+03  0.34901593604E+03  0.00000000000E+00 0.  1.
          2    1    6    6  502    0 -0.10325920686E+03 -0.30672484417E+01 -0.11771575634E+03  0.15661695664E+03  0.00000000000E+00 0. -1.
          3    1    5    5  503    0  0.44028126667E+02  0.93006007204E+02 -0.68559907994E+02  0.12364891547E+03  0.00000000000E+00 0. -1.
         -4    1    5    5    0  503  0.12104246166E+02  0.35272740442E+03 -0.18957114587E+03  0.40062495422E+03  0.00000000000E+00 0.  1.
         -1    1    6    6    0  502 -0.52666043763E+03 -0.99895167019E+02 -0.38894611542E+03  0.66229097961E+03  0.00000000000E+00 0.  1.
<mgrwt>
<rscale>  0 0.17851416E+04</rscale>
<asrwt>0</asrwt>
<pdfrwt beam="1">  1        2 0.24535681E+00 0.17851416E+04</pdfrwt>
<pdfrwt beam="2">  1       -2 0.76852949E-01 0.17851416E+04</pdfrwt>
<totfact> 0.16047483E+01</totfact>
</mgrwt>
</event>
<event>
12    1  0.1620910E-007  0.2439790E+04  0.7818608E-02  0.8424755E-01
          2   -1    0    0  501    0  0.00000000000E+00  0.00000000000E+00  0.24722597213E+04  0.24722597213E+04  0.00000000000E+00 0. -1.
         -2   -1    0    0    0  501 -0.00000000000E+00 -0.00000000000E+00 -0.60193644250E+03  0.60193644250E+03  0.00000000000E+00 0.  1.
         23    2    1    2    0    0 -0.68784886427E+03  0.49793515811E+03  0.26607599526E+02  0.85436693335E+03  0.90329456339E+02 0.  0.
        254    2    1    2    0    0  0.68784886427E+03 -0.49793515811E+03  0.18437156793E+04  0.22198292305E+04  0.89848696410E+03 0.  0.
        -24    2    4    4    0    0  0.82199691084E+03 -0.41518983910E+03  0.18208199069E+04  0.20420031740E+04  0.79563216539E+02 0.  0.
         24    2    4    4    0    0 -0.13414804656E+03 -0.82745319014E+02  0.22895772389E+02  0.17782605646E+03  0.79091110414E+02 0.  0.
         13    1    3    3    0    0 -0.35315808163E+02  0.39618352344E+02  0.20624254249E+02  0.56940144116E+02  0.00000000000E+00 0. -1.
        -13    1    3    3    0    0 -0.65253305611E+03  0.45831680577E+03  0.59833452771E+01  0.79742678923E+03  0.00000000000E+00 0.  1.
          2    1    6    6  502    0 -0.56781969260E+01 -0.40013811456E+02 -0.56316679784E+00  0.40418611857E+02  0.00000000000E+00 0. -1.
          3    1    5    5  503    0  0.47345115621E+02 -0.21068390030E+02  0.67675612945E+02  0.85237466053E+02  0.00000000000E+00 0. -1.
         -4    1    5    5    0  503  0.77465179522E+03 -0.39412144906E+03  0.17531442940E+04  0.19567657080E+04  0.00000000000E+00 0.  1.
         -1    1    6    6    0  502 -0.12846984964E+03 -0.42731507558E+02  0.23458939186E+02  0.13740744460E+03  0.00000000000E+00 0.  1.
<mgrwt>
<rscale>  0 0.24397895E+04</rscale>
<asrwt>0</asrwt>
<pdfrwt beam="1">  1        2 0.38034764E+00 0.24397895E+04</pdfrwt>
<pdfrwt beam="2">  1       -2 0.92605608E-01 0.24397895E+04</pdfrwt>
<totfact> 0.32022104E+00</totfact>
</mgrwt>
</event>
<event>
12    1  0.1477245E-007  0.1348467E+04  0.7818608E-02  0.8991989E-01
          2   -1    0    0  501    0  0.00000000000E+00  0.00000000000E+00  0.37540818836E+04  0.37540818836E+04  0.00000000000E+00 0. -1.
         -2   -1    0    0    0  501 -0.00000000000E+00 -0.00000000000E+00 -0.12109240273E+03  0.12109240273E+03  0.00000000000E+00 0.  1.
         23    2    1    2    0    0  0.10396401563E+03  0.19621878317E+03  0.18524418570E+04  0.18675628446E+04  0.83305567457E+02 0.  0.
        254    2    1    2    0    0 -0.10396401563E+03 -0.19621878317E+03  0.17805476239E+04  0.20076114417E+04  0.90046850731E+03 0.  0.
        -24    2    4    4    0    0  0.34880579605E+03 -0.21684783963E+03  0.11743595317E+04  0.12466206845E+04  0.79084463612E+02 0.  0.
         24    2    4    4    0    0 -0.45276981168E+03  0.20629056458E+02  0.60618809215E+03  0.76099075722E+03  0.78847125319E+02 0.  0.
         13    1    3    3    0    0  0.91551295900E+01  0.26820653547E+02  0.55041036486E+03  0.55113948652E+03  0.00000000000E+00 0.  1.
        -13    1    3    3    0    0  0.94808886037E+02  0.16939812962E+03  0.13020314921E+04  0.13164233580E+04  0.00000000000E+00 0. -1.
          2    1    6    6  502    0 -0.14377226977E+03  0.43014266901E+02  0.18818185335E+03  0.24069296342E+03  0.00000000000E+00 0. -1.
          3    1    5    5  503    0  0.44657390215E+02 -0.62960590019E+02  0.23248452992E+03  0.24496402807E+03  0.00000000000E+00 0. -1.
         -4    1    5    5    0  503  0.30414840584E+03 -0.15388724961E+03  0.94187500182E+03  0.10016566565E+04  0.00000000000E+00 0.  1.
         -1    1    6    6    0  502 -0.30899754191E+03 -0.22385210443E+02  0.41800623880E+03  0.52029779380E+03  0.00000000000E+00 0.  1.
<mgrwt>
<rscale>  0 0.13484670E+04</rscale>
<asrwt>0</asrwt>
<pdfrwt beam="1">  1        2 0.57755097E+00 0.13484670E+04</pdfrwt>
<pdfrwt beam="2">  1       -2 0.18629603E-01 0.13484670E+04</pdfrwt>
<totfact> 0.12891680E+01</totfact>
</mgrwt>
</event>
<event>
12    1  0.1477245E-007  0.3894363E+04  0.7818608E-02  0.8026203E-01
         -2   -1    0    0    0  501 -0.00000000000E+00  0.00000000000E+00  0.15706582203E+04  0.15706582203E+04  0.00000000000E+00 0.  1.
          2   -1    0    0  501    0  0.00000000000E+00 -0.00000000000E+00 -0.24139661267E+04  0.24139661267E+04  0.00000000000E+00 0. -1.
         23    2    1    2    0    0  0.76142882822E+03 -0.16544230235E+04 -0.69788064928E+03  0.19522032737E+04  0.84680695762E+02 0.  0.
        254    2    1    2    0    0 -0.76142882822E+03  0.16544230235E+04 -0.14542725709E+03  0.20324210733E+04  0.89033529127E+03 0.  0.
        -24    2    4    4    0    0 -0.79667562914E+02  0.81935565110E+03  0.27628000488E+03  0.87213338239E+03  0.81212018878E+02 0.  0.
         24    2    4    4    0    0 -0.68176126531E+03  0.83506737240E+03 -0.42170726197E+03  0.11602876909E+04  0.79338335730E+02 0.  0.
         13    1    3    3    0    0  0.28093236068E+02 -0.41275729504E+02 -0.31494985195E+02  0.59032616843E+02  0.00000000000E+00 0.  1.
        -13    1    3    3    0    0  0.73333559215E+03 -0.16131472940E+04 -0.66638566409E+03  0.18931706569E+04  0.00000000000E+00 0. -1.
          4    1    6    6  502    0 -0.61904156656E+03  0.77720876262E+03 -0.36859441233E+03  0.10597772231E+04  0.00000000000E+00 0. -1.
          1    1    5    5  503    0 -0.63368589164E+02  0.64241067387E+03  0.18059455943E+03  0.67031443882E+03  0.00000000000E+00 0. -1.
         -2    1    5    5    0  503 -0.16298973750E+02  0.17694497723E+03  0.95685445452E+02  0.20181894357E+03  0.00000000000E+00 0.  1.
         -3    1    6    6    0  502 -0.62719698747E+02  0.57858609781E+02 -0.53112849645E+02  0.10051046778E+03  0.00000000000E+00 0.  1.
<mgrwt>
<rscale>  0 0.38943630E+04</rscale>
<asrwt>0</asrwt>
<pdfrwt beam="1">  1        2 0.37137940E+00 0.38943630E+04</pdfrwt>
<pdfrwt beam="2">  1       -2 0.24163973E+00 0.38943630E+04</pdfrwt>
<totfact> 0.22471383E-01</totfact>
</mgrwt>
</event>
<event>
12    1  0.1477245E-007  0.1280486E+04  0.7818608E-02  0.9045185E-01
         -1   -1    0    0    0  501 -0.00000000000E+00  0.00000000000E+00  0.58732767586E+03  0.58732767586E+03  0.00000000000E+00 0.  1.
          1   -1    0    0  501    0  0.00000000000E+00 -0.00000000000E+00 -0.69792555157E+03  0.69792555157E+03  0.00000000000E+00 0. -1.
         23    2    1    2    0    0 -0.21192841871E+03 -0.21360852000E+03 -0.10171205433E+03  0.33042977819E+03  0.91083707877E+02 0.  0.
        254    2    1    2    0    0  0.21192841871E+03  0.21360852000E+03 -0.88858213904E+01  0.95482344925E+03  0.90612725758E+03 0.  0.
        -24    2    4    4    0    0 -0.26829541773E+02  0.89043229754E+02  0.42247491795E+03  0.43998224771E+03  0.80316878216E+02 0.  0.
         24    2    4    4    0    0  0.23875796049E+03  0.12456529025E+03 -0.43136073934E+03  0.51484120154E+03  0.80420769264E+02 0.  0.
         13    1    3    3    0    0 -0.93591475746E+02 -0.66986307762E+02  0.24822429353E+01  0.11512033396E+03  0.00000000000E+00 0.  1.
        -13    1    3    3    0    0 -0.11833694297E+03 -0.14662221224E+03 -0.10419429726E+03  0.21530944423E+03  0.00000000000E+00 0. -1.
          4    1    6    6  502    0  0.16749068739E+03  0.85785949984E+02 -0.36245615438E+03  0.40839542532E+03  0.00000000000E+00 0. -1.
          3    1    5    5  503    0  0.36368082743E+01  0.25159100535E+02  0.22985557156E+02  0.34271599786E+02  0.00000000000E+00 0. -1.
         -4    1    5    5    0  503 -0.30466350047E+02  0.63884129219E+02  0.39948936079E+03  0.40571064792E+03  0.00000000000E+00 0.  1.
         -3    1    6    6    0  502  0.71267273094E+02  0.38779340266E+02 -0.68904584958E+02  0.10644577621E+03  0.00000000000E+00 0.  1.
<mgrwt>
<rscale>  0 0.12804858E+04</rscale>
<asrwt>0</asrwt>
<pdfrwt beam="1">  1        1 0.10737316E+00 0.12804858E+04</pdfrwt>
<pdfrwt beam="2">  1       -1 0.90358105E-01 0.12804858E+04</pdfrwt>
<totfact> 0.32259809E+01</totfact>
</mgrwt>
</event>
<event>
12    1  0.1630713E-007  0.2327378E+04  0.7818608E-02  0.8467204E-01
          2   -1    0    0  501    0  0.00000000000E+00  0.00000000000E+00  0.26740130711E+04  0.26740130711E+04  0.00000000000E+00 0.  1.
         -2   -1    0    0    0  501 -0.00000000000E+00 -0.00000000000E+00 -0.50641931025E+03  0.50641931025E+03  0.00000000000E+00 0. -1.
         23    2    1    2    0    0  0.35686915648E+03  0.39822662581E+03  0.20475013868E+04  0.21180856947E+04  0.89916854794E+02 0.  0.
        254    2    1    2    0    0 -0.35686915648E+03 -0.39822662581E+03  0.12009237406E+03  0.10623466867E+04  0.91006497790E+03 0.  0.
        -24    2    4    4    0    0 -0.97243162583E+02  0.27877678283E+03 -0.58075206936E+02  0.31141512351E+03  0.80211733419E+02 0.  0.
         24    2    4    4    0    0 -0.25962599390E+03 -0.67700340864E+03  0.17816758100E+03  0.75093156315E+03  0.80095278268E+02 0.  0.
         13    1    3    3    0    0  0.26895120211E+03  0.32494520902E+03  0.14684670417E+04  0.15278480260E+04  0.00000000000E+00 0.  1.
        -13    1    3    3    0    0  0.87917954370E+02  0.73281416791E+02  0.57903434507E+03  0.59023766867E+03  0.00000000000E+00 0. -1.
          2    1    6    6  502    0 -0.23684867357E+03 -0.55382513023E+03  0.12682721335E+03  0.61555236259E+03  0.00000000000E+00 0. -1.
          3    1    5    5  503    0 -0.43456887582E+02  0.22649139450E+03 -0.49899947614E+02  0.23595944065E+03  0.00000000000E+00 0. -1.
         -4    1    5    5    0  503 -0.53786275001E+02  0.52285388334E+02 -0.81752593219E+01  0.75455682865E+02  0.00000000000E+00 0.  1.
         -1    1    6    6    0  502 -0.22777320321E+02 -0.12317827841E+03  0.51340367653E+02  0.13537920056E+03  0.00000000000E+00 0.  1.
<mgrwt>
<rscale>  0 0.23273778E+04</rscale>
<asrwt>0</asrwt>
<pdfrwt beam="1">  1        2 0.41138662E+00 0.23273778E+04</pdfrwt>
<pdfrwt beam="2">  1       -2 0.77910665E-01 0.23273778E+04</pdfrwt>
<totfact> 0.36518371E+00</totfact>
</mgrwt>
</event>
<event>
12    1  0.1477245E-007  0.1254542E+04  0.7818608E-02  0.9066412E-01
          2   -1    0    0  501    0  0.00000000000E+00  0.00000000000E+00  0.28470365440E+03  0.28470365440E+03  0.00000000000E+00 0. -1.
         -2   -1    0    0    0  501 -0.00000000000E+00 -0.00000000000E+00 -0.13820293220E+04  0.13820293220E+04  0.00000000000E+00 0.  1.
         23    2    1    2    0    0 -0.19328305220E+03  0.11688749760E+03 -0.22469537276E+02  0.24508821636E+03  0.92424717080E+02 0.  0.
        254    2    1    2    0    0  0.19328305220E+03 -0.11688749760E+03 -0.10748561303E+04  0.14216447600E+04  0.90262788428E+03 0.  0.
        -24    2    4    4    0    0 -0.33102453546E+03 -0.10438154282E+03 -0.23209203011E+03  0.42590005581E+03  0.83972599933E+02 0.  0.
         24    2    4    4    0    0  0.52430758766E+03 -0.12505954785E+02 -0.84276410017E+03  0.99574470420E+03  0.78748600156E+02 0.  0.
         13    1    3    3    0    0 -0.14787602215E+03  0.48829690132E+02 -0.41344744087E+02  0.16112431359E+03  0.00000000000E+00 0. -1.
        -13    1    3    3    0    0 -0.45407030047E+02  0.68057807472E+02  0.18875206811E+02  0.83963902766E+02  0.00000000000E+00 0.  1.
          4    1    6    6  502    0  0.47538341405E+03 -0.31849616397E+02 -0.77809343353E+03  0.91237776153E+03  0.00000000000E+00 0. -1.
          3    1    5    5  503    0 -0.26905885999E+03 -0.11771019300E+03 -0.19335897828E+03  0.35161918913E+03  0.00000000000E+00 0. -1.
         -4    1    5    5    0  503 -0.61965675462E+02  0.13328650182E+02 -0.38733051830E+02  0.74280866684E+02  0.00000000000E+00 0.  1.
         -3    1    6    6    0  502  0.48924173606E+02  0.19343661612E+02 -0.64670666640E+02  0.83366942677E+02  0.00000000000E+00 0.  1.
<mgrwt>
<rscale>  0 0.12545418E+04</rscale>
<asrwt>0</asrwt>
<pdfrwt beam="1">  1        2 0.43800563E-01 0.12545418E+04</pdfrwt>
<pdfrwt beam="2">  1       -2 0.21261989E+00 0.12545418E+04</pdfrwt>
<totfact> 0.12602522E+01</totfact>
</mgrwt>
</event>
<event>
12    1  0.1477245E-007  0.1681462E+04  0.7818608E-02  0.8772008E-01
         -2   -1    0    0    0  501 -0.00000000000E+00  0.00000000000E+00  0.26635821598E+03  0.26635821598E+03  0.00000000000E+00 0.  1.
          2   -1    0    0  501    0  0.00000000000E+00 -0.00000000000E+00 -0.26536782322E+04  0.26536782322E+04  0.00000000000E+00 0. -1.
         23    2    1    2    0    0 -0.24540093959E+03 -0.14965130157E+03 -0.17770105575E+04  0.18023010596E+04  0.88912624327E+02 0.  0.
        254    2    1    2    0    0  0.24540093959E+03  0.14965130157E+03 -0.61030945872E+03  0.11177353886E+04  0.89120010674E+03 0.  0.
        -24    2    4    4    0    0 -0.28551660593E+03  0.14229916752E+03 -0.45131180477E+03  0.55797807716E+03  0.76735937710E+02 0.  0.
         24    2    4    4    0    0  0.53091754552E+03  0.73521340493E+01 -0.15899765395E+03  0.55975731141E+03  0.78233622540E+02 0.  0.
         11    1    3    3    0    0 -0.87077308109E+02 -0.10278610747E+03 -0.87362337229E+03  0.88394866259E+03  0.00000000000E+00 0. -1.
        -11    1    3    3    0    0 -0.15832363149E+03 -0.46865194094E+02 -0.90338718522E+03  0.91835239703E+03  0.00000000000E+00 0.  1.
          2    1    6    6  502    0  0.24866895491E+03  0.30654314978E+02 -0.45482895919E+02  0.25464608771E+03  0.00000000000E+00 0. -1.
          1    1    5    5  503    0 -0.13252126509E+03  0.89671902408E+02 -0.27889697706E+03  0.32153764880E+03  0.00000000000E+00 0. -1.
         -2    1    5    5    0  503 -0.15299534084E+03  0.52627265111E+02 -0.17241482770E+03  0.23644042836E+03  0.00000000000E+00 0.  1.
         -1    1    6    6    0  502  0.28224859062E+03 -0.23302180928E+02 -0.11351475803E+03  0.30511122371E+03  0.00000000000E+00 0.  1.
<mgrwt>
<rscale>  0 0.16814625E+04</rscale>
<asrwt>0</asrwt>
<pdfrwt beam="1">  1        2 0.40825819E+00 0.16814625E+04</pdfrwt>
<pdfrwt beam="2">  1       -2 0.40978187E-01 0.16814625E+04</pdfrwt>
<totfact> 0.15244902E+01</totfact>
</mgrwt>
</event>
<event>
12    1  0.1477245E-007  0.1745215E+04  0.7818608E-02  0.8735989E-01
         -1   -1    0    0    0  501 -0.00000000000E+00  0.00000000000E+00  0.60567546080E+03  0.60567546080E+03  0.00000000000E+00 0.  1.
          1   -1    0    0  501    0  0.00000000000E+00 -0.00000000000E+00 -0.12571808690E+04  0.12571808690E+04  0.00000000000E+00 0. -1.
         23    2    1    2    0    0  0.47162023927E+03  0.40908848725E+03 -0.35739655574E+03  0.72577478465E+03  0.96112951737E+02 0.  0.
        254    2    1    2    0    0 -0.47162023927E+03 -0.40908848725E+03 -0.29410885245E+03  0.11370815451E+04  0.90370093654E+03 0.  0.
        -24    2    4    4    0    0 -0.22221958189E+03 -0.29511344697E+03 -0.60595109084E+03  0.71419622635E+03  0.80162560357E+02 0.  0.
         24    2    4    4    0    0 -0.24940065738E+03 -0.11397504029E+03  0.31184223839E+03  0.42288531879E+03  0.79971329219E+02 0.  0.
         13    1    3    3    0    0  0.43579480573E+03  0.40246716874E+03 -0.32194745705E+03  0.67494229362E+03  0.00000000000E+00 0. -1.
        -13    1    3    3    0    0  0.35825433538E+02  0.66213185180E+01 -0.35449098684E+02  0.50832491033E+02  0.00000000000E+00 0.  1.
          4    1    6    6  502    0 -0.19498700350E+03 -0.11824584074E+03  0.22527454163E+03  0.32054739040E+03  0.00000000000E+00 0. -1.
          1    1    5    5  503    0 -0.21418204689E+03 -0.28719442306E+03 -0.60467406828E+03  0.70284088860E+03  0.00000000000E+00 0. -1.
         -2    1    5    5    0  503 -0.80375350073E+01 -0.79190239079E+01 -0.12770225593E+01  0.11355337743E+02  0.00000000000E+00 0.  1.
         -3    1    6    6    0  502 -0.54413653876E+02  0.42708004556E+01  0.86567696761E+02  0.10233792839E+03  0.00000000000E+00 0.  1.
<mgrwt>
<rscale>  0 0.17452147E+04</rscale>
<asrwt>0</asrwt>
<pdfrwt beam="1">  1        1 0.19341244E+00 0.17452147E+04</pdfrwt>
<pdfrwt beam="2">  1       -1 0.93180840E-01 0.17452147E+04</pdfrwt>
<totfact> 0.10293994E+01</totfact>
</mgrwt>
</event>
<event>
12    1  0.1477245E-007  0.1595829E+04  0.7818608E-02  0.8823115E-01
         -1   -1    0    0    0  501 -0.00000000000E+00  0.00000000000E+00  0.31338549555E+03  0.31338549555E+03  0.00000000000E+00 0.  1.
          1   -1    0    0  501    0  0.00000000000E+00 -0.00000000000E+00 -0.20315793522E+04  0.20315793522E+04  0.00000000000E+00 0. -1.
         23    2    1    2    0    0 -0.80954020887E+02 -0.40318232635E+03 -0.70849592172E+02  0.42726814865E+03  0.91808846840E+02 0.  0.
        254    2    1    2    0    0  0.80954020887E+02  0.40318232635E+03 -0.16473442645E+04  0.19176966991E+04  0.89146394334E+03 0.  0.
        -24    2    4    4    0    0  0.47010272606E+03  0.20392908050E+03 -0.10703645625E+04  0.11894042824E+04  0.80116211350E+02 0.  0.
         24    2    4    4    0    0 -0.38914870517E+03  0.19925324585E+03 -0.57697970195E+03  0.72829241672E+03  0.79785318648E+02 0.  0.
         11    1    3    3    0    0 -0.12612476696E+02 -0.52159808613E+02 -0.42644874981E+02  0.68544186954E+02  0.00000000000E+00 0. -1.
        -11    1    3    3    0    0 -0.68341544191E+02 -0.35102251774E+03 -0.28204717191E+02  0.35872396169E+03  0.00000000000E+00 0.  1.
          2    1    6    6  502    0 -0.54781761155E+02  0.10983835740E+01 -0.87912202951E+02  0.10358959035E+03  0.00000000000E+00 0. -1.
          1    1    5    5  503    0  0.12397501841E+03  0.22341214757E+02 -0.30551648774E+03  0.33046824257E+03  0.00000000000E+00 0. -1.
         -2    1    5    5    0  503  0.34612770765E+03  0.18158786574E+03 -0.76484807479E+03  0.85893603981E+03  0.00000000000E+00 0.  1.
         -3    1    6    6    0  502 -0.33436694401E+03  0.19815486228E+03 -0.48906749900E+03  0.62470282637E+03  0.00000000000E+00 0.  1.
<mgrwt>
<rscale>  0 0.15958289E+04</rscale>
<asrwt>0</asrwt>
<pdfrwt beam="1">  1        1 0.31255068E+00 0.15958289E+04</pdfrwt>
<pdfrwt beam="2">  1       -1 0.48213152E-01 0.15958289E+04</pdfrwt>
<totfact> 0.11716496E+01</totfact>
</mgrwt>
</event>
<event>
12    1  0.1477245E-007  0.2242106E+04  0.7818608E-02  0.8501104E-01
         -2   -1    0    0    0  501 -0.00000000000E+00  0.00000000000E+00  0.92269376924E+03  0.92269376924E+03  0.00000000000E+00 0.  1.
          2   -1    0    0  501    0  0.00000000000E+00 -0.00000000000E+00 -0.13620554815E+04  0.13620554815E+04  0.00000000000E+00 0. -1.
         23    2    1    2    0    0 -0.57658034352E+03  0.24034034697E+03 -0.88992027965E+03  0.10906549907E+04  0.85801105340E+02 0.  0.
        254    2    1    2    0    0  0.57658034352E+03 -0.24034034697E+03  0.45055856738E+03  0.11940942600E+04  0.91249641332E+03 0.  0.
        -24    2    4    4    0    0  0.41924289973E+03 -0.37273277508E+03 -0.12293869273E+03  0.57969424189E+03  0.78975700842E+02 0.  0.
         24    2    4    4    0    0  0.15733744379E+03  0.13239242811E+03  0.57349726011E+03  0.61440001816E+03  0.79406855638E+02 0.  0.
         13    1    3    3    0    0 -0.32122770978E+03  0.15238000104E+03 -0.43745845516E+03  0.56371695578E+03  0.00000000000E+00 0. -1.
        -13    1    3    3    0    0 -0.25535263374E+03  0.87960345930E+02 -0.45246182449E+03  0.52693803491E+03  0.00000000000E+00 0.  1.
          4    1    6    6  502    0  0.12203559094E+03  0.62038353945E+02  0.42237397263E+03  0.44400587335E+03  0.00000000000E+00 0. -1.
          3    1    5    5  503    0  0.19369960056E+03 -0.21007799737E+03 -0.90472817369E+02  0.29972926270E+03  0.00000000000E+00 0. -1.
         -4    1    5    5    0  503  0.22554329918E+03 -0.16265477771E+03 -0.32465875361E+02  0.27996497920E+03  0.00000000000E+00 0.  1.
         -3    1    6    6    0  502  0.35301852851E+02  0.70354074161E+02  0.15112328748E+03  0.17039414480E+03  0.00000000000E+00 0.  1.
<mgrwt>
<rscale>  0 0.22421062E+04</rscale>
<asrwt>0</asrwt>
<pdfrwt beam="1">  1        2 0.20954700E+00 0.22421062E+04</pdfrwt>
<pdfrwt beam="2">  1       -2 0.14195289E+00 0.22421062E+04</pdfrwt>
<totfact> 0.48023431E+00</totfact>
</mgrwt>
</event>
<event>
12    1  0.1477245E-007  0.3038709E+04  0.7818608E-02  0.8232763E-01
         -2   -1    0    0    0  501 -0.00000000000E+00  0.00000000000E+00  0.20213114313E+04  0.20213114313E+04  0.00000000000E+00 0.  1.
          2   -1    0    0  501    0  0.00000000000E+00 -0.00000000000E+00 -0.11420497598E+04  0.11420497598E+04  0.00000000000E+00 0. -1.
         23    2    1    2    0    0 -0.21094580335E+03  0.13306018711E+04  0.72216921053E+03  0.15313530308E+04  0.92272774995E+02 0.  0.
        254    2    1    2    0    0  0.21094580335E+03 -0.13306018711E+04  0.15709246096E+03  0.16320081602E+04  0.90761948109E+03 0.  0.
        -24    2    4    4    0    0  0.43806033934E+03 -0.12793486919E+04  0.29386467128E+02  0.13550507222E+04  0.81663694668E+02 0.  0.
         24    2    4    4    0    0 -0.22711453599E+03 -0.51253179217E+02  0.12770599383E+03  0.27695743800E+03  0.78668295814E+02 0.  0.
         13    1    3    3    0    0 -0.18187201400E+03  0.11856740156E+04  0.67377530747E+03  0.13758173810E+04  0.00000000000E+00 0.  1.
        -13    1    3    3    0    0 -0.29073789350E+02  0.14492785548E+03  0.48393903063E+02  0.15553564985E+03  0.00000000000E+00 0. -1.
          2    1    6    6  502    0 -0.32628263679E+02 -0.24805431712E+02 -0.30741874392E+01  0.41101869320E+02  0.00000000000E+00 0. -1.
          1    1    5    5  503    0  0.64540552700E+02 -0.11604107114E+03  0.88316797952E+01  0.13307521070E+03  0.00000000000E+00 0. -1.
         -2    1    5    5    0  503  0.37351978664E+03 -0.11633076208E+04  0.20554787333E+02  0.12219755115E+04  0.00000000000E+00 0.  1.
         -1    1    6    6    0  502 -0.19448627232E+03 -0.26447747504E+02  0.13078018127E+03  0.23585556868E+03  0.00000000000E+00 0.  1.
<mgrwt>
<rscale>  0 0.30387091E+04</rscale>
<asrwt>0</asrwt>
<pdfrwt beam="1">  1        2 0.17569996E+00 0.30387091E+04</pdfrwt>
<pdfrwt beam="2">  1       -2 0.31097099E+00 0.30387091E+04</pdfrwt>
<totfact> 0.47675940E-01</totfact>
</mgrwt>
</event>
<event>
12    1  0.1477245E-007  0.1114146E+04  0.7818608E-02  0.9191512E-01
         -2   -1    0    0    0  501 -0.00000000000E+00  0.00000000000E+00  0.85461497008E+02  0.85461497008E+02  0.00000000000E+00 0.  1.
          2   -1    0    0  501    0  0.00000000000E+00 -0.00000000000E+00 -0.36312327074E+04  0.36312327074E+04  0.00000000000E+00 0. -1.
         23    2    1    2    0    0  0.14902154245E+03  0.53766791915E+02 -0.67723837564E+03  0.70200936930E+03  0.95221054018E+02 0.  0.
        254    2    1    2    0    0 -0.14902154245E+03 -0.53766791915E+02 -0.28685328348E+04  0.30146848351E+04  0.91364421025E+03 0.  0.
        -24    2    4    4    0    0 -0.14863779061E+02  0.28423561656E+03 -0.30684243262E+03  0.42607528255E+03  0.79856435514E+02 0.  0.
         24    2    4    4    0    0 -0.13415776339E+03 -0.33800240847E+03 -0.25616904021E+04  0.25886095526E+04  0.79986033746E+02 0.  0.
         11    1    3    3    0    0  0.11763214310E+03  0.81329060175E+02 -0.53126911788E+03  0.55018052740E+03  0.00000000000E+00 0. -1.
        -11    1    3    3    0    0  0.31389399344E+02 -0.27562268260E+02 -0.14596925775E+03  0.15182884190E+03  0.00000000000E+00 0.  1.
          2    1    6    6  502    0 -0.31673820434E+02 -0.12243156224E+03 -0.66085152967E+03  0.67284282162E+03  0.00000000000E+00 0. -1.
          1    1    5    5  503    0 -0.44671553534E+02  0.22144776882E+03 -0.22786001521E+03  0.32086577964E+03  0.00000000000E+00 0. -1.
         -2    1    5    5    0  503  0.29807774473E+02  0.62787847736E+02 -0.78982417408E+02  0.10520950291E+03  0.00000000000E+00 0.  1.
         -1    1    6    6    0  502 -0.10248394295E+03 -0.21557084623E+03 -0.19008388725E+04  0.19157667309E+04  0.00000000000E+00 0.  1.
<mgrwt>
<rscale>  0 0.11141465E+04</rscale>
<asrwt>0</asrwt>
<pdfrwt beam="1">  1        2 0.55865100E+00 0.11141465E+04</pdfrwt>
<pdfrwt beam="2">  1       -2 0.13147927E-01 0.11141465E+04</pdfrwt>
<totfact> 0.29508158E+01</totfact>
</mgrwt>
</event>
<event>
12    1  0.1477245E-007  0.1263191E+04  0.7818608E-02  0.9059275E-01
          1   -1    0    0  501    0  0.00000000000E+00  0.00000000000E+00  0.29847289761E+03  0.29847289761E+03  0.00000000000E+00 0. -1.
         -1   -1    0    0    0  501 -0.00000000000E+00 -0.00000000000E+00 -0.13365131652E+04  0.13365131652E+04  0.00000000000E+00 0.  1.
         23    2    1    2    0    0  0.39532446927E+02  0.27182495804E+02  0.11225270648E+03  0.15248796144E+03  0.91379460685E+02 0.  0.
        254    2    1    2    0    0 -0.39532446927E+02 -0.27182495804E+02 -0.11502929741E+04  0.14824981014E+04  0.93398340024E+03 0.  0.
        -24    2    4    4    0    0 -0.31472075104E+02 -0.95478783116E+02 -0.12951527706E+04  0.13016784098E+04  0.82700023231E+02 0.  0.
         24    2    4    4    0    0 -0.80603718231E+01  0.68296287312E+02  0.14485979656E+03  0.18081969153E+03  0.83558648444E+02 0.  0.
         13    1    3    3    0    0  0.60114129005E+02  0.17958548406E+02  0.34644909611E+02  0.71669294184E+02  0.00000000000E+00 0.  1.
        -13    1    3    3    0    0 -0.20581682078E+02  0.92239473978E+01  0.77607796870E+02  0.80818667260E+02  0.00000000000E+00 0. -1.
          2    1    6    6  502    0  0.13988494539E+02  0.10529189814E+02  0.10677264625E+03  0.10819861277E+03  0.00000000000E+00 0. -1.
          3    1    5    5  503    0 -0.37574493467E+02 -0.11467886725E+02 -0.62827849959E+03  0.62950554249E+03  0.00000000000E+00 0. -1.
         -4    1    5    5    0  503  0.61024183625E+01 -0.84010896391E+02 -0.66687427103E+03  0.67217286733E+03  0.00000000000E+00 0.  1.
         -1    1    6    6    0  502 -0.22048866362E+02  0.57767097499E+02  0.38087150309E+02  0.72621078758E+02  0.00000000000E+00 0.  1.
<mgrwt>
<rscale>  0 0.12631911E+04</rscale>
<asrwt>0</asrwt>
<pdfrwt beam="1">  1        1 0.45918908E-01 0.12631911E+04</pdfrwt>
<pdfrwt beam="2">  1       -1 0.20561741E+00 0.12631911E+04</pdfrwt>
<totfact> 0.11977108E+01</totfact>
</mgrwt>
</event>
<event>
12    1  0.1477245E-007  0.1515559E+04  0.7818608E-02  0.8874172E-01
          1   -1    0    0  501    0  0.00000000000E+00  0.00000000000E+00  0.19060177412E+04  0.19060177412E+04  0.00000000000E+00 0. -1.
         -1   -1    0    0    0  501 -0.00000000000E+00 -0.00000000000E+00 -0.30127184115E+03  0.30127184115E+03  0.00000000000E+00 0.  1.
         23    2    1    2    0    0 -0.36991549572E+02 -0.40364134814E+03  0.16076309616E+03  0.44614641537E+03  0.94377636088E+02 0.  0.
        254    2    1    2    0    0  0.36991549572E+02  0.40364134814E+03  0.14439828039E+04  0.17611431670E+04  0.92317073393E+03 0.  0.
        -24    2    4    4    0    0  0.82432255782E+02  0.67556854244E+03  0.78410692403E+03  0.10415460868E+04  0.82502426506E+02 0.  0.
         24    2    4    4    0    0 -0.45440706211E+02 -0.27192719430E+03  0.65987587984E+03  0.71959708012E+03  0.79840617077E+02 0.  0.
         11    1    3    3    0    0 -0.21024589549E+02 -0.12787173727E+02  0.50910968180E+01  0.25128956294E+02  0.00000000000E+00 0. -1.
        -11    1    3    3    0    0 -0.15966960023E+02 -0.39085417441E+03  0.15567199934E+03  0.42101745908E+03  0.00000000000E+00 0.  1.
          4    1    6    6  502    0 -0.37379853758E+02 -0.40695536687E+02  0.14269561528E+03  0.15302097501E+03  0.00000000000E+00 0. -1.
          3    1    5    5  503    0  0.25082710797E+02  0.19320181241E+03  0.17017777960E+03  0.25868235226E+03  0.00000000000E+00 0. -1.
         -4    1    5    5    0  503  0.57349544986E+02  0.48236673003E+03  0.61392914443E+03  0.78286373458E+03  0.00000000000E+00 0.  1.
         -3    1    6    6    0  502 -0.80608524531E+01 -0.23123165762E+03  0.51718026456E+03  0.56657610510E+03  0.00000000000E+00 0.  1.
<mgrwt>
<rscale>  0 0.15155586E+04</rscale>
<asrwt>0</asrwt>
<pdfrwt beam="1">  1        1 0.29323349E+00 0.15155586E+04</pdfrwt>
<pdfrwt beam="2">  1       -1 0.46349515E-01 0.15155586E+04</pdfrwt>
<totfact> 0.15456401E+01</totfact>
</mgrwt>
</event>
<event>
12    1  0.1477245E-007  0.1821802E+04  0.7818608E-02  0.8694791E-01
         -2   -1    0    0    0  501 -0.00000000000E+00  0.00000000000E+00  0.74395779940E+03  0.74395779940E+03  0.00000000000E+00 0. -1.
          2   -1    0    0  501    0  0.00000000000E+00 -0.00000000000E+00 -0.11153055901E+04  0.11153055901E+04  0.00000000000E+00 0.  1.
         23    2    1    2    0    0 -0.37728585106E+03  0.54014706052E+02  0.42910716354E+03  0.58111324504E+03  0.91090306209E+02 0.  0.
        254    2    1    2    0    0  0.37728585106E+03 -0.54014706052E+02 -0.80045495422E+03  0.12781501444E+04  0.92069400785E+03 0.  0.
        -24    2    4    4    0    0  0.57596961214E+03 -0.25662904057E+03 -0.31260487470E+03  0.70803767847E+03  0.77434410171E+02 0.  0.
         24    2    4    4    0    0 -0.19868376108E+03  0.20261433451E+03 -0.48785007953E+03  0.57011246596E+03  0.80639433790E+02 0.  0.
         13    1    3    3    0    0 -0.30696367400E+02 -0.20912705166E+02  0.36450812003E+02  0.52041040579E+02  0.00000000000E+00 0.  1.
        -13    1    3    3    0    0 -0.34658948366E+03  0.74927411218E+02  0.39265635154E+03  0.52907220447E+03  0.00000000000E+00 0. -1.
          4    1    6    6  502    0 -0.24939316753E+02 -0.21215778541E+01 -0.59573575411E+02  0.64617965768E+02  0.00000000000E+00 0. -1.
          3    1    5    5  503    0  0.49251336267E+03 -0.18776580843E+03 -0.25890803599E+03  0.58724678145E+03  0.00000000000E+00 0. -1.
         -4    1    5    5    0  503  0.83456249474E+02 -0.68863232136E+02 -0.53696838708E+02  0.12079089702E+03  0.00000000000E+00 0.  1.
         -3    1    6    6    0  502 -0.17374444433E+03  0.20473591237E+03 -0.42827650411E+03  0.50549450019E+03  0.00000000000E+00 0.  1.
<mgrwt>
<rscale>  0 0.18218016E+04</rscale>
<asrwt>0</asrwt>
<pdfrwt beam="1">  1        2 0.17158548E+00 0.18218016E+04</pdfrwt>
<pdfrwt beam="2">  1       -2 0.11445505E+00 0.18218016E+04</pdfrwt>
<totfact> 0.11986517E+01</totfact>
</mgrwt>
</event>
<event>
12    1  0.1477245E-007  0.2169830E+04  0.7818608E-02  0.8531092E-01
          3   -1    0    0  501    0  0.00000000000E+00  0.00000000000E+00  0.52940282105E+03  0.52940282105E+03  0.00000000000E+00 0. -1.
         -3   -1    0    0    0  501 -0.00000000000E+00 -0.00000000000E+00 -0.22233359170E+04  0.22233359170E+04  0.00000000000E+00 0.  1.
         23    2    1    2    0    0  0.31317686882E+03 -0.47920263221E+01 -0.17693366750E+04  0.17991607399E+04  0.91238062554E+02 0.  0.
        254    2    1    2    0    0 -0.31317686882E+03  0.47920263221E+01  0.75403579018E+02  0.95357799811E+03  0.89750909971E+03 0.  0.
        -24    2    4    4    0    0 -0.36872042065E+02 -0.35406784639E+03 -0.20156083163E+03  0.41685664471E+03  0.80119323892E+02 0.  0.
         24    2    4    4    0    0 -0.27630482675E+03  0.35885987271E+03  0.27696441065E+03  0.53672135340E+03  0.78966834163E+02 0.  0.
         13    1    3    3    0    0  0.10466381547E+03 -0.12774515628E+02 -0.38465518389E+03  0.39884497366E+03  0.00000000000E+00 0. -1.
        -13    1    3    3    0    0  0.20851305335E+03  0.79824893058E+01 -0.13846814911E+04  0.14003157663E+04  0.00000000000E+00 0.  1.
          2    1    6    6  502    0 -0.16944411602E+03  0.20251658292E+03  0.20439719427E+03  0.33391988236E+03  0.00000000000E+00 0. -1.
          3    1    5    5  503    0 -0.26435761902E+02 -0.10285550437E+03 -0.23514593987E+02  0.10877058617E+03  0.00000000000E+00 0. -1.
         -4    1    5    5    0  503 -0.10436280163E+02 -0.25121234202E+03 -0.17804623765E+03  0.30808605854E+03  0.00000000000E+00 0.  1.
         -1    1    6    6    0  502 -0.10686071073E+03  0.15634328979E+03  0.72567216378E+02  0.20280147103E+03  0.00000000000E+00 0.  1.
<mgrwt>
<rscale>  0 0.21698298E+04</rscale>
<asrwt>0</asrwt>
<pdfrwt beam="1">  1        3 0.81446588E-01 0.21698298E+04</pdfrwt>
<pdfrwt beam="2">  1       -3 0.34205168E+00 0.21698298E+04</pdfrwt>
<totfact> 0.74167596E-02</totfact>
</mgrwt>
</event>
<event>
12    1  0.1477245E-007  0.1247011E+04  0.7818608E-02  0.9072674E-01
         -2   -1    0    0    0  501 -0.00000000000E+00  0.00000000000E+00  0.11950074502E+03  0.11950074502E+03  0.00000000000E+00 0. -1.
          2   -1    0    0  501    0  0.00000000000E+00 -0.00000000000E+00 -0.32531950449E+04  0.32531950449E+04  0.00000000000E+00 0.  1.
         23    2    1    2    0    0  0.20157768687E+03 -0.12677560146E+03 -0.11973148651E+04  0.12242239121E+04  0.91954793057E+02 0.  0.
        254    2    1    2    0    0 -0.20157768687E+03  0.12677560146E+03 -0.19363794348E+04  0.21484718778E+04  0.89981135640E+03 0.  0.
        -24    2    4    4    0    0 -0.32733933770E+02  0.23823504509E+03 -0.61341247585E+02  0.26071555329E+03  0.79889948943E+02 0.  0.
         24    2    4    4    0    0 -0.16884375310E+03 -0.11145944363E+03 -0.18750381872E+04  0.18877563245E+04  0.83212478665E+02 0.  0.
         13    1    3    3    0    0  0.33280947127E+02 -0.69434652932E+02 -0.39686288932E+03  0.40426346036E+03  0.00000000000E+00 0. -1.
        -13    1    3    3    0    0  0.16829673974E+03 -0.57340948528E+02 -0.80045197576E+03  0.81996045178E+03  0.00000000000E+00 0.  1.
          4    1    6    6  502    0 -0.29178193547E+02  0.79452529684E+01 -0.15432957912E+03  0.15726446838E+03  0.00000000000E+00 0. -1.
          1    1    5    5  503    0 -0.27159866587E+02  0.16907151355E+02 -0.71396258913E+01  0.32779328514E+02  0.00000000000E+00 0. -1.
         -2    1    5    5    0  503 -0.55740671832E+01  0.22132789373E+03 -0.54201621694E+02  0.22793622477E+03  0.00000000000E+00 0.  1.
         -3    1    6    6    0  502 -0.13966555955E+03 -0.11940469660E+03 -0.17207086081E+04  0.17304918561E+04  0.00000000000E+00 0.  1.
<mgrwt>
<rscale>  0 0.12470112E+04</rscale>
<asrwt>0</asrwt>
<pdfrwt beam="1">  1        2 0.50049153E+00 0.12470112E+04</pdfrwt>
<pdfrwt beam="2">  1       -2 0.18384731E-01 0.12470112E+04</pdfrwt>
<totfact> 0.29673710E+01</totfact>
</mgrwt>
</event>
<event>
12    1  0.1477245E-007  0.1439630E+04  0.7818608E-02  0.8925621E-01
         -1   -1    0    0    0  501 -0.00000000000E+00  0.00000000000E+00  0.54597384662E+03  0.54597384662E+03  0.00000000000E+00 0.  1.
          1   -1    0    0  501    0  0.00000000000E+00 -0.00000000000E+00 -0.94900880343E+03  0.94900880343E+03  0.00000000000E+00 0. -1.
         23    2    1    2    0    0  0.44499801837E+02 -0.48613953014E+02  0.33046179706E+03  0.34814172571E+03  0.87487788129E+02 0.  0.
        254    2    1    2    0    0 -0.44499801837E+02  0.48613953014E+02 -0.73349675388E+03  0.11468409243E+04  0.87913768489E+03 0.  0.
        -24    2    4    4    0    0  0.19370954754E+02  0.25416101426E+03 -0.84989480424E+03  0.89088671622E+03  0.79905618058E+02 0.  0.
         24    2    4    4    0    0 -0.63870756591E+02 -0.20554706125E+03  0.11639805037E+03  0.25595420811E+03  0.75066521079E+02 0.  0.
         11    1    3    3    0    0 -0.14901212644E+02  0.15464418773E+02  0.81939793911E+02  0.84707285474E+02  0.00000000000E+00 0. -1.
        -11    1    3    3    0    0  0.59401014481E+02 -0.64078371787E+02  0.24852200315E+03  0.26343444024E+03  0.00000000000E+00 0.  1.
          4    1    6    6  502    0 -0.79716942733E+01 -0.11539287391E+03  0.30937493324E+02  0.11973383713E+03  0.00000000000E+00 0. -1.
          3    1    5    5  503    0  0.34479471313E+02  0.15518650410E+03 -0.40996699688E+03  0.43970970370E+03  0.00000000000E+00 0. -1.
         -4    1    5    5    0  503 -0.15108516559E+02  0.98974510160E+02 -0.43992780736E+03  0.45117701252E+03  0.00000000000E+00 0.  1.
         -3    1    6    6    0  502 -0.55899062318E+02 -0.90154187331E+02  0.85460557045E+02  0.13622037099E+03  0.00000000000E+00 0.  1.
<mgrwt>
<rscale>  0 0.14396305E+04</rscale>
<asrwt>0</asrwt>
<pdfrwt beam="1">  1        1 0.14600135E+00 0.14396305E+04</pdfrwt>
<pdfrwt beam="2">  1       -1 0.83995977E-01 0.14396305E+04</pdfrwt>
<totfact> 0.22681148E+01</totfact>
</mgrwt>
</event>
<event>
12    1  0.1477245E-007  0.1844342E+04  0.7818608E-02  0.8683068E-01
          2   -1    0    0  501    0  0.00000000000E+00  0.00000000000E+00  0.18563713738E+04  0.18563713738E+04  0.00000000000E+00 0. -1.
         -2   -1    0    0    0  501 -0.00000000000E+00 -0.00000000000E+00 -0.45809759845E+03  0.45809759845E+03  0.00000000000E+00 0.  1.
         23    2    1    2    0    0  0.63020536214E+03 -0.28650066706E+03  0.67128416736E+03  0.96860349133E+03  0.91262584696E+02 0.  0.
        254    2    1    2    0    0 -0.63020536214E+03  0.28650066706E+03  0.72698960798E+03  0.13458654809E+04  0.89643659669E+03 0.  0.
        -24    2    4    4    0    0 -0.40401942404E+03 -0.21902390310E+03  0.62112297548E+03  0.77684273916E+03  0.80546418874E+02 0.  0.
         24    2    4    4    0    0 -0.22618593810E+03  0.50552457016E+03  0.10586663250E+03  0.56902274174E+03  0.76576544119E+02 0.  0.
         11    1    3    3    0    0  0.54833755519E+03 -0.23348267020E+03  0.61309622541E+03  0.85502936401E+03  0.00000000000E+00 0. -1.
        -11    1    3    3    0    0  0.81867806955E+02 -0.53017996865E+02  0.58187941948E+02  0.11357412731E+03  0.00000000000E+00 0.  1.
          2    1    6    6  502    0 -0.22781557926E+03  0.45975447560E+03  0.93130790391E+02  0.52148581966E+03  0.00000000000E+00 0. -1.
          3    1    5    5  503    0 -0.22530861318E+03 -0.79659231612E+02  0.29374061760E+03  0.37867283344E+03  0.00000000000E+00 0. -1.
         -4    1    5    5    0  503 -0.17871081086E+03 -0.13936467149E+03  0.32738235788E+03  0.39816990572E+03  0.00000000000E+00 0.  1.
         -1    1    6    6    0  502  0.16296411624E+01  0.45770094561E+02  0.12735842111E+02  0.47536922079E+02  0.00000000000E+00 0.  1.
<mgrwt>
<rscale>  0 0.18443419E+04</rscale>
<asrwt>0</asrwt>
<pdfrwt beam="1">  1        2 0.28559559E+00 0.18443419E+04</pdfrwt>
<pdfrwt beam="2">  1       -2 0.70476555E-01 0.18443419E+04</pdfrwt>
<totfact> 0.13832160E+01</totfact>
</mgrwt>
</event>
<event>
12    1  0.1477245E-007  0.1758246E+04  0.7818608E-02  0.8728824E-01
          1   -1    0    0  501    0  0.00000000000E+00  0.00000000000E+00  0.16478115414E+04  0.16478115414E+04  0.00000000000E+00 0. -1.
         -1   -1    0    0    0  501 -0.00000000000E+00 -0.00000000000E+00 -0.46902036870E+03  0.46902036870E+03  0.00000000000E+00 0.  1.
         23    2    1    2    0    0  0.33009274734E+03 -0.42426217710E+03  0.86323662040E+03  0.10211400172E+04  0.92681471235E+02 0.  0.
        254    2    1    2    0    0 -0.33009274734E+03  0.42426217710E+03  0.31555455230E+03  0.10956918929E+04  0.90111399500E+03 0.  0.
        -24    2    4    4    0    0  0.76160221307E+02  0.19176545192E+03 -0.26460553277E+03  0.34586105423E+03  0.83841594699E+02 0.  0.
         24    2    4    4    0    0 -0.40625296865E+03  0.23249672518E+03  0.58016008507E+03  0.74983083870E+03  0.81020741797E+02 0.  0.
         11    1    3    3    0    0  0.32184898903E+03 -0.38475035248E+03  0.76341671786E+03  0.91346849458E+03  0.00000000000E+00 0. -1.
        -11    1    3    3    0    0  0.82437583124E+01 -0.39511824614E+02  0.99819902533E+02  0.10767152259E+03  0.00000000000E+00 0.  1.
          2    1    6    6  502    0 -0.27632779225E+03  0.18752508523E+03  0.45107947299E+03  0.56124450760E+03  0.00000000000E+00 0. -1.
          1    1    5    5  503    0 -0.17464507714E+02  0.36950420730E+02 -0.61699278124E+02  0.74007726237E+02  0.00000000000E+00 0. -1.
         -2    1    5    5    0  503  0.93624729021E+02  0.15481503119E+03 -0.20290625465E+03  0.27185332799E+03  0.00000000000E+00 0.  1.
         -1    1    6    6    0  502 -0.12992517640E+03  0.44971639947E+02  0.12908061208E+03  0.18858633110E+03  0.00000000000E+00 0.  1.
<mgrwt>
<rscale>  0 0.17582459E+04</rscale>
<asrwt>0</asrwt>
<pdfrwt beam="1">  1        1 0.25350946E+00 0.17582459E+04</pdfrwt>
<pdfrwt beam="2">  1       -1 0.72156981E-01 0.17582459E+04</pdfrwt>
<totfact> 0.94944827E+00</totfact>
</mgrwt>
</event>
<event>
12    1  0.1477245E-007  0.1108815E+04  0.7818608E-02  0.9196643E-01
         -2   -1    0    0    0  501 -0.00000000000E+00  0.00000000000E+00  0.25736921145E+03  0.25736921145E+03  0.00000000000E+00 0.  1.
          2   -1    0    0  501    0  0.00000000000E+00 -0.00000000000E+00 -0.11942673198E+04  0.11942673198E+04  0.00000000000E+00 0. -1.
         23    2    1    2    0    0  0.16518687877E+01  0.15949045511E+03 -0.11525061066E+03  0.21720959168E+03  0.91963957720E+02 0.  0.
        254    2    1    2    0    0 -0.16518687877E+01 -0.15949045511E+03 -0.82164749773E+03  0.12344269396E+04  0.90733969645E+03 0.  0.
        -24    2    4    4    0    0  0.39386276467E+03 -0.11227345609E+03 -0.69076658434E+03  0.80712301624E+03  0.80968407275E+02 0.  0.
         24    2    4    4    0    0 -0.39551463346E+03 -0.47216999021E+02 -0.13088091340E+03  0.42730392337E+03  0.82447311397E+02 0.  0.
         11    1    3    3    0    0 -0.27503620092E+02  0.12841305526E+02 -0.38849521396E+02  0.49301455947E+02  0.00000000000E+00 0. -1.
        -11    1    3    3    0    0  0.29155488880E+02  0.14664914958E+03 -0.76401089266E+02  0.16790813573E+03  0.00000000000E+00 0.  1.
          4    1    6    6  502    0 -0.11742726757E+02 -0.86198782787E+01 -0.22243200103E+02  0.26588604402E+02  0.00000000000E+00 0. -1.
          1    1    5    5  503    0  0.97253084058E+02 -0.15132567278E+02 -0.23450984584E+03  0.25432661038E+03  0.00000000000E+00 0. -1.
         -2    1    5    5    0  503  0.29660968061E+03 -0.97140888808E+02 -0.45625673850E+03  0.55279640586E+03  0.00000000000E+00 0.  1.
         -3    1    6    6    0  502 -0.38377190670E+03 -0.38597120742E+02 -0.10863771329E+03  0.40071531896E+03  0.00000000000E+00 0.  1.
<mgrwt>
<rscale>  0 0.11088149E+04</rscale>
<asrwt>0</asrwt>
<pdfrwt beam="1">  1        2 0.18373343E+00 0.11088149E+04</pdfrwt>
<pdfrwt beam="2">  1       -2 0.39595263E-01 0.11088149E+04</pdfrwt>
<totfact> 0.11420944E+02</totfact>
</mgrwt>
</event>
<event>
12    1  0.1477245E-007  0.1753638E+04  0.7818608E-02  0.8731350E-01
         -3   -1    0    0    0  501 -0.00000000000E+00  0.00000000000E+00  0.83137208001E+03  0.83137208001E+03  0.00000000000E+00 0.  1.
          3   -1    0    0  501    0  0.00000000000E+00 -0.00000000000E+00 -0.92475027666E+03  0.92475027666E+03  0.00000000000E+00 0. -1.
         23    2    1    2    0    0  0.20328376107E+03  0.51664981358E+03 -0.33745138343E+03  0.65578208221E+03  0.89024635831E+02 0.  0.
        254    2    1    2    0    0 -0.20328376107E+03 -0.51664981358E+03  0.24407318678E+03  0.11003402745E+04  0.91810984186E+03 0.  0.
        -24    2    4    4    0    0 -0.34262847884E+03 -0.15681303876E+02 -0.20616226117E+03  0.40799230755E+03  0.79464880867E+02 0.  0.
         24    2    4    4    0    0  0.13934471777E+03 -0.50096850970E+03  0.45023544795E+03  0.69234796691E+03  0.79040183538E+02 0.  0.
         11    1    3    3    0    0 -0.24204501852E+01  0.62640267134E+02 -0.24869079612E+02  0.67439845539E+02  0.00000000000E+00 0. -1.
        -11    1    3    3    0    0  0.20570421125E+03  0.45400954644E+03 -0.31258230382E+03  0.58834223667E+03  0.00000000000E+00 0.  1.
          4    1    6    6  502    0  0.84616371480E+01 -0.53270924764E+01 -0.10744315111E+00  0.99994380596E+01  0.00000000000E+00 0. -1.
          3    1    5    5  503    0 -0.19834322081E+02  0.26173209134E+00  0.67758846899E+01  0.20961427657E+02  0.00000000000E+00 0. -1.
         -4    1    5    5    0  503 -0.32279415676E+03 -0.15943035967E+02 -0.21293814586E+03  0.38703087990E+03  0.00000000000E+00 0.  1.
         -3    1    6    6    0  502  0.13088308062E+03 -0.49564141722E+03  0.45034289110E+03  0.68234852885E+03  0.00000000000E+00 0.  1.
<mgrwt>
<rscale>  0 0.17536380E+04</rscale>
<asrwt>0</asrwt>
<pdfrwt beam="1">  1        3 0.14226927E+00 0.17536380E+04</pdfrwt>
<pdfrwt beam="2">  1       -3 0.12790340E+00 0.17536380E+04</pdfrwt>
<totfact> 0.44406155E-01</totfact>
</mgrwt>
</event>
<event>
12    1  0.1477245E-007  0.1993733E+04  0.7818608E-02  0.8609556E-01
         -2   -1    0    0    0  501 -0.00000000000E+00  0.00000000000E+00  0.17834280458E+04  0.17834280458E+04  0.00000000000E+00 0.  1.
          2   -1    0    0  501    0  0.00000000000E+00 -0.00000000000E+00 -0.55720926308E+03  0.55720926308E+03  0.00000000000E+00 0. -1.
         23    2    1    2    0    0  0.44136245468E+03 -0.30953359345E+03 -0.18566559834E+03  0.57744878837E+03  0.91452320390E+02 0.  0.
        254    2    1    2    0    0 -0.44136245468E+03  0.30953359345E+03  0.14118843810E+04  0.17631885205E+04  0.90818742092E+03 0.  0.
        -24    2    4    4    0    0 -0.55741574679E+03  0.52367932509E+03  0.12225792147E+04  0.14444372868E+04  0.82138839857E+02 0.  0.
         24    2    4    4    0    0  0.11605329211E+03 -0.21414573163E+03  0.18930516634E+03  0.31875123369E+03  0.80244264517E+02 0.  0.
         13    1    3    3    0    0  0.34895537005E+03 -0.25962572319E+03 -0.18440011226E+03  0.47241800117E+03  0.00000000000E+00 0. -1.
        -13    1    3    3    0    0  0.92407084635E+02 -0.49907870263E+02 -0.12654860758E+01  0.10503078720E+03  0.00000000000E+00 0.  1.
          2    1    6    6  502    0  0.94685856602E+02 -0.17860382079E+03  0.18978508947E+03  0.27727804895E+03  0.00000000000E+00 0. -1.
          3    1    5    5  503    0 -0.51256412768E+03  0.50677310623E+03  0.11582226576E+04  0.13641923218E+04  0.00000000000E+00 0. -1.
         -4    1    5    5    0  503 -0.44851619110E+02  0.16906218852E+02  0.64356557072E+02  0.80244965018E+02  0.00000000000E+00 0.  1.
         -1    1    6    6    0  502  0.21367435507E+02 -0.35541910841E+02 -0.47992313045E+00  0.41473184741E+02  0.00000000000E+00 0.  1.
<mgrwt>
<rscale>  0 0.19937328E+04</rscale>
<asrwt>0</asrwt>
<pdfrwt beam="1">  1        2 0.85724503E-01 0.19937328E+04</pdfrwt>
<pdfrwt beam="2">  1       -2 0.27437354E+00 0.19937328E+04</pdfrwt>
<totfact> 0.22972183E+00</totfact>
</mgrwt>
</event>
<event>
12    1  0.1477245E-007  0.2596120E+04  0.7818608E-02  0.8369520E-01
          2   -1    0    0  501    0  0.00000000000E+00  0.00000000000E+00  0.20716722740E+04  0.20716722740E+04  0.00000000000E+00 0. -1.
         -2   -1    0    0    0  501 -0.00000000000E+00 -0.00000000000E+00 -0.81333339131E+03  0.81333339131E+03  0.00000000000E+00 0.  1.
         23    2    1    2    0    0 -0.31723414279E+03 -0.67536351147E+03 -0.40127283851E+03  0.85202045008E+03  0.90363612392E+02 0.  0.
        254    2    1    2    0    0  0.31723414279E+03  0.67536351147E+03  0.16596117212E+04  0.20329852152E+04  0.90662254892E+03 0.  0.
        -24    2    4    4    0    0 -0.28419074275E+03  0.18888834868E+03  0.27513252546E+03  0.44533912232E+03  0.78650116154E+02 0.  0.
         24    2    4    4    0    0  0.60142488554E+03  0.48647516279E+03  0.13844791957E+04  0.15876460929E+04  0.73942517795E+02 0.  0.
         13    1    3    3    0    0 -0.85425445934E+01 -0.80079162863E+02 -0.53008267780E+02  0.96413297039E+02  0.00000000000E+00 0. -1.
        -13    1    3    3    0    0 -0.30869159820E+03 -0.59528434861E+03 -0.34826457073E+03  0.75560715304E+03  0.00000000000E+00 0.  1.
          2    1    6    6  502    0  0.18845109929E+03  0.14594200033E+03  0.35987604522E+03  0.43165223527E+03  0.00000000000E+00 0. -1.
          1    1    5    5  503    0 -0.22144422982E+03  0.10697218132E+03  0.20935316774E+03  0.32296957030E+03  0.00000000000E+00 0. -1.
         -2    1    5    5    0  503 -0.62746512928E+02  0.81916167359E+02  0.65779357725E+02  0.12236955202E+03  0.00000000000E+00 0.  1.
         -1    1    6    6    0  502  0.41297378625E+03  0.34053316246E+03  0.10246031505E+04  0.11559938576E+04  0.00000000000E+00 0.  1.
<mgrwt>
<rscale>  0 0.25961204E+04</rscale>
<asrwt>0</asrwt>
<pdfrwt beam="1">  1        2 0.31871881E+00 0.25961204E+04</pdfrwt>
<pdfrwt beam="2">  1       -2 0.12512821E+00 0.25961204E+04</pdfrwt>
<totfact> 0.25787771E+00</totfact>
</mgrwt>
</event>
<event>
12    1  0.1477245E-007  0.2604715E+04  0.7818608E-02  0.8366601E-01
         -1   -1    0    0    0  501 -0.00000000000E+00  0.00000000000E+00  0.10400333436E+04  0.10400333436E+04  0.00000000000E+00 0.  1.
          1   -1    0    0  501    0  0.00000000000E+00 -0.00000000000E+00 -0.16308473057E+04  0.16308473057E+04  0.00000000000E+00 0. -1.
         23    2    1    2    0    0 -0.18010707353E+03  0.10316738556E+04 -0.73433392748E+03  0.12823481174E+04  0.91547118332E+02 0.  0.
        254    2    1    2    0    0  0.18010707353E+03 -0.10316738556E+04  0.14351996543E+03  0.13885325319E+04  0.90035276944E+03 0.  0.
        -24    2    4    4    0    0 -0.65444984335E+02 -0.78258700943E+03 -0.27618129091E+03  0.83633824162E+03  0.80374595820E+02 0.  0.
         24    2    4    4    0    0  0.24555205787E+03 -0.24908684616E+03  0.41970125634E+03  0.55219429028E+03  0.80183038047E+02 0.  0.
         13    1    3    3    0    0 -0.69531941023E+02  0.48742238675E+03 -0.39773712525E+03  0.63293767050E+03  0.00000000000E+00 0.  1.
        -13    1    3    3    0    0 -0.11057513251E+03  0.54425146883E+03 -0.33659680223E+03  0.64941044689E+03  0.00000000000E+00 0. -1.
          4    1    6    6  502    0  0.14598021165E+03 -0.19316001695E+03  0.31466771838E+03  0.39703499510E+03  0.00000000000E+00 0. -1.
          3    1    5    5  503    0 -0.43575223728E+02 -0.70768292101E+03 -0.26757902001E+03  0.75783405094E+03  0.00000000000E+00 0. -1.
         -4    1    5    5    0  503 -0.21869760608E+02 -0.74904088417E+02 -0.86022709070E+01  0.78504190686E+02  0.00000000000E+00 0.  1.
         -3    1    6    6    0  502  0.99571846221E+02 -0.55926829212E+02  0.10503353796E+03  0.15515929518E+03  0.00000000000E+00 0.  1.
<mgrwt>
<rscale>  0 0.26047154E+04</rscale>
<asrwt>0</asrwt>
<pdfrwt beam="1">  1        1 0.25089958E+00 0.26047154E+04</pdfrwt>
<pdfrwt beam="2">  1       -1 0.16000513E+00 0.26047154E+04</pdfrwt>
<totfact> 0.13672558E+00</totfact>
</mgrwt>
</event>
<event>
12    1  0.1477245E-007  0.2236404E+04  0.7818608E-02  0.8503427E-01
         -2   -1    0    0    0  501 -0.00000000000E+00  0.00000000000E+00  0.29611488810E+03  0.29611488810E+03  0.00000000000E+00 0.  1.
          2   -1    0    0  501    0  0.00000000000E+00 -0.00000000000E+00 -0.42226017609E+04  0.42226017609E+04  0.00000000000E+00 0. -1.
         23    2    1    2    0    0 -0.41733260079E+03 -0.39510755965E+03 -0.31406488076E+04  0.31941144821E+04  0.91738262239E+02 0.  0.
        254    2    1    2    0    0  0.41733260079E+03  0.39510755965E+03 -0.78583806513E+03  0.13246021668E+04  0.89819427318E+03 0.  0.
        -24    2    4    4    0    0  0.43856956187E+03 -0.18099454333E+03 -0.30504354691E+03  0.56976689616E+03  0.80501336246E+02 0.  0.
         24    2    4    4    0    0 -0.21236961076E+02  0.57610210298E+03 -0.48079451821E+03  0.75483527066E+03  0.79172441594E+02 0.  0.
         11    1    3    3    0    0 -0.17618913416E+03 -0.16026187602E+03 -0.10612661414E+04  0.10876636901E+04  0.00000000000E+00 0. -1.
        -11    1    3    3    0    0 -0.24114346663E+03 -0.23484568364E+03 -0.20793826662E+04  0.21064507920E+04  0.00000000000E+00 0.  1.
          4    1    6    6  502    0 -0.44499433031E+02  0.21217920320E+03 -0.19360599515E+03  0.29066044651E+03  0.00000000000E+00 0. -1.
          1    1    5    5  503    0  0.42939976787E+03 -0.18816659469E+03 -0.29215726933E+03  0.55240084904E+03  0.00000000000E+00 0. -1.
         -2    1    5    5    0  503  0.91697940013E+01  0.71720513543E+01 -0.12886277587E+02  0.17366047124E+02  0.00000000000E+00 0.  1.
         -3    1    6    6    0  502  0.23262471955E+02  0.36392289979E+03 -0.28718852306E+03  0.46417482415E+03  0.00000000000E+00 0.  1.
<mgrwt>
<rscale>  0 0.22364036E+04</rscale>
<asrwt>0</asrwt>
<pdfrwt beam="1">  1        2 0.64963101E+00 0.22364036E+04</pdfrwt>
<pdfrwt beam="2">  1       -2 0.45556139E-01 0.22364036E+04</pdfrwt>
<totfact> 0.93313125E-01</totfact>
</mgrwt>
</event>
<event>
12    1  0.1477245E-007  0.2587355E+04  0.7818608E-02  0.8372509E-01
          2   -1    0    0  501    0  0.00000000000E+00  0.00000000000E+00  0.15808805834E+04  0.15808805834E+04  0.00000000000E+00 0. -1.
         -2   -1    0    0    0  501 -0.00000000000E+00 -0.00000000000E+00 -0.10586517932E+04  0.10586517932E+04  0.00000000000E+00 0.  1.
         23    2    1    2    0    0 -0.11023611921E+04 -0.56902489496E+02  0.47567077737E+03  0.12052733038E+04  0.89347396513E+02 0.  0.
        254    2    1    2    0    0  0.11023611921E+04  0.56902489496E+02  0.46558012839E+02  0.14342590727E+04  0.91460010268E+03 0.  0.
        -24    2    4    4    0    0  0.67815023955E+03  0.43689973269E+03 -0.15405143284E+03  0.82522985631E+03  0.80643337879E+02 0.  0.
         24    2    4    4    0    0  0.42421095258E+03 -0.37999724320E+03  0.20060944568E+03  0.60902921639E+03  0.79495909277E+02 0.  0.
         11    1    3    3    0    0 -0.83896728486E+03 -0.79039600851E+01  0.34457865164E+03  0.90700773140E+03  0.00000000000E+00 0. -1.
        -11    1    3    3    0    0 -0.26339390727E+03 -0.48998529410E+02  0.13109212573E+03  0.29826557243E+03  0.00000000000E+00 0.  1.
          4    1    6    6  502    0  0.17744270660E+03 -0.10874444241E+03  0.64509948998E+02  0.21788254037E+03  0.00000000000E+00 0. -1.
          3    1    5    5  503    0  0.47920145147E+02  0.28305463595E+02 -0.32254981455E+02  0.64326692818E+02  0.00000000000E+00 0. -1.
         -4    1    5    5    0  503  0.63023009441E+03  0.40859426910E+03 -0.12179645138E+03  0.76090316349E+03  0.00000000000E+00 0.  1.
         -3    1    6    6    0  502  0.24676824598E+03 -0.27125280079E+03  0.13609949668E+03  0.39114667601E+03  0.00000000000E+00 0.  1.
<mgrwt>
<rscale>  0 0.25873555E+04</rscale>
<asrwt>0</asrwt>
<pdfrwt beam="1">  1        2 0.24321240E+00 0.25873555E+04</pdfrwt>
<pdfrwt beam="2">  1       -2 0.16286951E+00 0.25873555E+04</pdfrwt>
<totfact> 0.24289633E+00</totfact>
</mgrwt>
</event>
<event>
12    1  0.1477245E-007  0.2541412E+04  0.7818608E-02  0.8388379E-01
          1   -1    0    0  501    0  0.00000000000E+00  0.00000000000E+00  0.19527483755E+04  0.19527483755E+04  0.00000000000E+00 0. -1.
         -1   -1    0    0    0  501 -0.00000000000E+00 -0.00000000000E+00 -0.82688259342E+03  0.82688259342E+03  0.00000000000E+00 0.  1.
         23    2    1    2    0    0  0.84476840415E+03  0.40024214146E+03  0.11427656743E+04  0.14795051289E+04  0.95888537363E+02 0.  0.
        254    2    1    2    0    0 -0.84476840415E+03 -0.40024214146E+03 -0.16899892226E+02  0.13001258400E+04  0.90344571782E+03 0.  0.
        -24    2    4    4    0    0 -0.90494603250E+02 -0.36238285197E+03 -0.30395622123E+03  0.48823012459E+03  0.80428014470E+02 0.  0.
         24    2    4    4    0    0 -0.75427380090E+03 -0.37859289491E+02  0.28705632901E+03  0.81189571542E+03  0.80068871387E+02 0.  0.
         13    1    3    3    0    0  0.60010604061E+03  0.23994783116E+03  0.81625523127E+03  0.10411411164E+04  0.00000000000E+00 0. -1.
        -13    1    3    3    0    0  0.24466236354E+03  0.16029431031E+03  0.32651044301E+03  0.43836401249E+03  0.00000000000E+00 0.  1.
          4    1    6    6  502    0 -0.44625779279E+03 -0.18055784613E+02  0.12762926327E+03  0.46450108485E+03  0.00000000000E+00 0. -1.
          3    1    5    5  503    0 -0.29404367182E+02 -0.22105198483E+03 -0.13995461438E+03  0.26327911215E+03  0.00000000000E+00 0. -1.
         -2    1    5    5    0  503 -0.61090236067E+02 -0.14133086715E+03 -0.16400160685E+03  0.22495101245E+03  0.00000000000E+00 0.  1.
         -3    1    6    6    0  502 -0.30801600811E+03 -0.19803504878E+02  0.15942706574E+03  0.34739463057E+03  0.00000000000E+00 0.  1.
<mgrwt>
<rscale>  0 0.25414119E+04</rscale>
<asrwt>0</asrwt>
<pdfrwt beam="1">  1        1 0.30042283E+00 0.25414119E+04</pdfrwt>
<pdfrwt beam="2">  1       -1 0.12721271E+00 0.25414119E+04</pdfrwt>
<totfact> 0.15209794E+00</totfact>
</mgrwt>
</event>
<event>
12    1  0.1477245E-007  0.1416972E+04  0.7818608E-02  0.8941624E-01
         -4   -1    0    0    0  501 -0.00000000000E+00  0.00000000000E+00  0.50372097863E+03  0.50372097863E+03  0.00000000000E+00 0.  1.
          4   -1    0    0  501    0  0.00000000000E+00 -0.00000000000E+00 -0.99648968765E+03  0.99648968765E+03  0.00000000000E+00 0. -1.
         23    2    1    2    0    0 -0.22902598894E+03  0.13896178290E+03 -0.48153776940E+03  0.55870358642E+03  0.92237700557E+02 0.  0.
        254    2    1    2    0    0  0.22902598894E+03 -0.13896178290E+03 -0.11230939624E+02  0.94150707986E+03  0.90252211424E+03 0.  0.
        -24    2    4    4    0    0  0.41710338740E+03  0.23462113537E+03 -0.12241598024E+03  0.50115146824E+03  0.84526971811E+02 0.  0.
         24    2    4    4    0    0 -0.18807739846E+03 -0.37358291827E+03  0.11118504061E+03  0.44035561161E+03  0.81324330856E+02 0.  0.
         13    1    3    3    0    0 -0.20834270626E+03  0.13646050990E+03 -0.47588395113E+03  0.53711608518E+03  0.00000000000E+00 0. -1.
        -13    1    3    3    0    0 -0.20683282672E+02  0.25012730035E+01 -0.56538182680E+01  0.21587501239E+02  0.00000000000E+00 0.  1.
          4    1    6    6  502    0 -0.62680302409E+02 -0.20221292519E+03  0.76997991583E+02  0.22527223116E+03  0.00000000000E+00 0. -1.
          1    1    5    5  503    0  0.16932422172E+03  0.12644191956E+03 -0.20899427552E+02  0.21235592093E+03  0.00000000000E+00 0. -1.
         -2    1    5    5    0  503  0.24777916568E+03  0.10817921581E+03 -0.10151655269E+03  0.28879554731E+03  0.00000000000E+00 0.  1.
         -3    1    6    6    0  502 -0.12539709605E+03 -0.17136999308E+03  0.34187049032E+02  0.21508338046E+03  0.00000000000E+00 0.  1.
<mgrwt>
<rscale>  0 0.14169725E+04</rscale>
<asrwt>0</asrwt>
<pdfrwt beam="1">  1        4 0.15330610E+00 0.14169725E+04</pdfrwt>
<pdfrwt beam="2">  1       -4 0.77495536E-01 0.14169725E+04</pdfrwt>
<totfact> 0.81402683E-01</totfact>
</mgrwt>
</event>
<event>
12    1  0.1477245E-007  0.1815962E+04  0.7818608E-02  0.8697857E-01
          2   -1    0    0  501    0  0.00000000000E+00  0.00000000000E+00  0.12640285931E+04  0.12640285931E+04  0.00000000000E+00 0. -1.
         -2   -1    0    0    0  501 -0.00000000000E+00 -0.00000000000E+00 -0.65222342307E+03  0.65222342307E+03  0.00000000000E+00 0.  1.
         23    2    1    2    0    0  0.15980236196E+03  0.41869923865E+03  0.79437811105E+03  0.91619961405E+03  0.86829154902E+02 0.  0.
        254    2    1    2    0    0 -0.15980236196E+03 -0.41869923865E+03 -0.18257294104E+03  0.10000524021E+04  0.87517202926E+03 0.  0.
        -24    2    4    4    0    0 -0.26995974469E+03 -0.14035184399E+03 -0.47757476948E+03  0.57184952003E+03  0.79732736426E+02 0.  0.
         24    2    4    4    0    0  0.11015738273E+03 -0.27834739466E+03  0.29500182843E+03  0.42820288206E+03  0.81973827183E+02 0.  0.
         11    1    3    3    0    0  0.97362385732E+02  0.20124942522E+03  0.31674993392E+03  0.38769999477E+03  0.00000000000E+00 0.  1.
        -11    1    3    3    0    0  0.62439976228E+02  0.21744981343E+03  0.47762817713E+03  0.52849961928E+03  0.00000000000E+00 0. -1.
          2    1    6    6  502    0  0.66747121246E+02 -0.24889531359E+03  0.25108109172E+03  0.35978572782E+03  0.00000000000E+00 0. -1.
          3    1    5    5  503    0 -0.13949931370E+03 -0.93415537637E+02 -0.32423168003E+03  0.36512012206E+03  0.00000000000E+00 0. -1.
         -4    1    5    5    0  503 -0.13046043099E+03 -0.46936306357E+02 -0.15334308945E+03  0.20672939798E+03  0.00000000000E+00 0.  1.
         -1    1    6    6    0  502  0.43410261484E+02 -0.29452081068E+02  0.43920736716E+02  0.68417154245E+02  0.00000000000E+00 0.  1.
<mgrwt>
<rscale>  0 0.18159615E+04</rscale>
<asrwt>0</asrwt>
<pdfrwt beam="1">  1        2 0.19446594E+00 0.18159615E+04</pdfrwt>
<pdfrwt beam="2">  1       -2 0.10034207E+00 0.18159615E+04</pdfrwt>
<totfact> 0.13408603E+01</totfact>
</mgrwt>
</event>
<event>
12    1  0.1477245E-007  0.2359168E+04  0.7818608E-02  0.8454951E-01
          1   -1    0    0  501    0  0.00000000000E+00  0.00000000000E+00  0.77295141422E+03  0.77295141422E+03  0.00000000000E+00 0. -1.
         -1   -1    0    0    0  501 -0.00000000000E+00 -0.00000000000E+00 -0.18001372632E+04  0.18001372632E+04  0.00000000000E+00 0.  1.
         23    2    1    2    0    0 -0.24634105565E+02  0.77442781190E+03  0.26269164561E+03  0.82251924249E+03  0.84768676956E+02 0.  0.
        254    2    1    2    0    0  0.24634105565E+02 -0.77442781190E+03 -0.12898774946E+04  0.17505694350E+04  0.89463071741E+03 0.  0.
        -24    2    4    4    0    0  0.26330324287E+02 -0.22931169574E+03 -0.11587699133E+04  0.11842358560E+04  0.79935667105E+02 0.  0.
         24    2    4    4    0    0 -0.16962187219E+01 -0.54511611615E+03 -0.13110758127E+03  0.56633357893E+03  0.79937897868E+02 0.  0.
         13    1    3    3    0    0 -0.17720591836E+02  0.41765011166E+03  0.97252505646E+02  0.42918956767E+03  0.00000000000E+00 0. -1.
        -13    1    3    3    0    0 -0.69135137294E+01  0.35677770024E+03  0.16543913996E+03  0.39332967481E+03  0.00000000000E+00 0.  1.
          4    1    6    6  502    0 -0.39847963236E+02 -0.29082467934E+03 -0.61049302589E+02  0.29982306721E+03  0.00000000000E+00 0. -1.
          3    1    5    5  503    0  0.96891822135E+01 -0.16225990993E+02 -0.30354395692E+02  0.35756850721E+02  0.00000000000E+00 0. -1.
         -4    1    5    5    0  503  0.16641142073E+02 -0.21308570475E+03 -0.11284155176E+04  0.11484790053E+04  0.00000000000E+00 0.  1.
         -3    1    6    6    0  502  0.38151744514E+02 -0.25429143681E+03 -0.70058278684E+02  0.26651051172E+03  0.00000000000E+00 0.  1.
<mgrwt>
<rscale>  0 0.23591682E+04</rscale>
<asrwt>0</asrwt>
<pdfrwt beam="1">  1        1 0.11891560E+00 0.23591682E+04</pdfrwt>
<pdfrwt beam="2">  1       -1 0.27694420E+00 0.23591682E+04</pdfrwt>
<totfact> 0.97852303E-01</totfact>
</mgrwt>
</event>
<event>
12    1  0.1555383E-007  0.2687581E+04  0.7818608E-02  0.8339046E-01
         -2   -1    0    0    0  501 -0.00000000000E+00  0.00000000000E+00  0.10164115081E+04  0.10164115081E+04  0.00000000000E+00 0.  1.
          2   -1    0    0  501    0  0.00000000000E+00 -0.00000000000E+00 -0.17766157518E+04  0.17766157518E+04  0.00000000000E+00 0. -1.
         23    2    1    2    0    0 -0.10453841814E+04  0.94021249724E+02  0.25005473542E+03  0.10831468488E+04  0.94929674800E+02 0.  0.
        254    2    1    2    0    0  0.10453841814E+04 -0.94021249724E+02 -0.10102589791E+04  0.17098804112E+04  0.89520932386E+03 0.  0.
        -24    2    4    4    0    0  0.37588297598E+03  0.22688642796E+03  0.93061116308E+01  0.44620664845E+03  0.79046230693E+02 0.  0.
         24    2    4    4    0    0  0.66950120542E+03 -0.32090767769E+03 -0.10195650907E+04  0.12636737627E+04  0.78388791784E+02 0.  0.
         11    1    3    3    0    0 -0.31205907312E+03  0.71664231941E+01  0.11375025307E+03  0.33222182772E+03  0.00000000000E+00 0. -1.
        -11    1    3    3    0    0 -0.73332510827E+03  0.86854826530E+02  0.13630448236E+03  0.75092502104E+03  0.00000000000E+00 0.  1.
          4    1    6    6  502    0  0.53655708051E+03 -0.26862923705E+03 -0.77100671418E+03  0.97698849581E+03  0.00000000000E+00 0. -1.
          1    1    5    5  503    0  0.32191572978E+03  0.20727949571E+03  0.32558606822E+02  0.38425849282E+03  0.00000000000E+00 0. -1.
         -2    1    5    5    0  503  0.53967246193E+02  0.19606932254E+02 -0.23252495192E+02  0.61948155636E+02  0.00000000000E+00 0.  1.
         -3    1    6    6    0  502  0.13294412491E+03 -0.52278440639E+02 -0.24855837656E+03  0.28668526690E+03  0.00000000000E+00 0.  1.
<mgrwt>
<rscale>  0 0.26875808E+04</rscale>
<asrwt>0</asrwt>
<pdfrwt beam="1">  1        2 0.27332550E+00 0.26875808E+04</pdfrwt>
<pdfrwt beam="2">  1       -2 0.15637100E+00 0.26875808E+04</pdfrwt>
<totfact> 0.20933908E+00</totfact>
</mgrwt>
</event>
<event>
12    1  0.1477245E-007  0.2003572E+04  0.7818608E-02  0.8604953E-01
          2   -1    0    0  501    0  0.00000000000E+00  0.00000000000E+00  0.14684239430E+04  0.14684239430E+04  0.00000000000E+00 0. -1.
         -2   -1    0    0    0  501 -0.00000000000E+00 -0.00000000000E+00 -0.68343677287E+03  0.68343677287E+03  0.00000000000E+00 0.  1.
         23    2    1    2    0    0  0.17165806709E+03  0.99522789053E+02  0.10432504022E+04  0.10659502966E+04  0.92235327495E+02 0.  0.
        254    2    1    2    0    0 -0.17165806709E+03 -0.99522789053E+02 -0.25826323203E+03  0.10859104193E+04  0.10359200086E+04 0.  0.
        -24    2    4    4    0    0 -0.52324225938E+03 -0.18394521716E+03 -0.40019681687E+03  0.68867289370E+03  0.80588816596E+02 0.  0.
         24    2    4    4    0    0  0.35158419229E+03  0.84422428111E+02  0.14193358484E+03  0.39723752560E+03  0.83149976538E+02 0.  0.
         13    1    3    3    0    0  0.17376662727E+03  0.10908521484E+03  0.10240094371E+04  0.10443609300E+04  0.00000000000E+00 0. -1.
        -13    1    3    3    0    0 -0.21085601768E+01 -0.95624257893E+01  0.19240965112E+02  0.21589366629E+02  0.00000000000E+00 0.  1.
          2    1    6    6  502    0  0.19502091191E+03  0.67937279886E+02  0.11843078682E+03  0.23806402783E+03  0.00000000000E+00 0. -1.
          3    1    5    5  503    0 -0.44138176473E+03 -0.18493768511E+03 -0.34428214424E+03  0.58953371783E+03  0.00000000000E+00 0. -1.
         -4    1    5    5    0  503 -0.81860494649E+02  0.99246794806E+00 -0.55914672628E+02  0.99139175869E+02  0.00000000000E+00 0.  1.
         -1    1    6    6    0  502  0.15656328038E+03  0.16485148225E+02  0.23502798019E+02  0.15917349776E+03  0.00000000000E+00 0.  1.
<mgrwt>
<rscale>  0 0.20035717E+04</rscale>
<asrwt>0</asrwt>
<pdfrwt beam="1">  1        2 0.22591138E+00 0.20035717E+04</pdfrwt>
<pdfrwt beam="2">  1       -2 0.10514412E+00 0.20035717E+04</pdfrwt>
<totfact> 0.90024006E+00</totfact>
</mgrwt>
</event>
<event>
12    1  0.1477245E-007  0.1738284E+04  0.7818608E-02  0.8739826E-01
          3   -1    0    0  501    0  0.00000000000E+00  0.00000000000E+00  0.42050056130E+03  0.42050056130E+03  0.00000000000E+00 0. -1.
         -3   -1    0    0    0  501 -0.00000000000E+00 -0.00000000000E+00 -0.17964484142E+04  0.17964484142E+04  0.00000000000E+00 0.  1.
         23    2    1    2    0    0  0.16995664516E+03  0.29249327833E+03 -0.11776283631E+04  0.12290052457E+04  0.95957038571E+02 0.  0.
        254    2    1    2    0    0 -0.16995664516E+03 -0.29249327833E+03 -0.19831948986E+03  0.98794372988E+03  0.90678807571E+03 0.  0.
        -24    2    4    4    0    0 -0.79396398579E+02  0.16900308973E+03 -0.41631412542E+03  0.46336689784E+03  0.80781176905E+02 0.  0.
         24    2    4    4    0    0 -0.90560246578E+02 -0.46149636807E+03  0.21799463556E+03  0.52457683204E+03  0.80493077877E+02 0.  0.
         11    1    3    3    0    0  0.35858883745E+02  0.46659294910E+02 -0.35937775663E+03  0.36416386601E+03  0.00000000000E+00 0. -1.
        -11    1    3    3    0    0  0.13409776141E+03  0.24583398342E+03 -0.81825060645E+03  0.86484137966E+03  0.00000000000E+00 0.  1.
          2    1    6    6  502    0 -0.50353140696E+02 -0.40312232489E+03  0.18584406473E+03  0.44674496527E+03  0.00000000000E+00 0. -1.
          1    1    5    5  503    0 -0.93354334023E+02  0.16365233524E+03 -0.38187467371E+03  0.42582318505E+03  0.00000000000E+00 0. -1.
         -2    1    5    5    0  503  0.13957935444E+02  0.53507544964E+01 -0.34439451711E+02  0.37543712785E+02  0.00000000000E+00 0.  1.
         -1    1    6    6    0  502 -0.40207105882E+02 -0.58374043175E+02  0.32150570827E+02  0.77831866768E+02  0.00000000000E+00 0.  1.
<mgrwt>
<rscale>  0 0.17382837E+04</rscale>
<asrwt>0</asrwt>
<pdfrwt beam="1">  1        3 0.64692395E-01 0.17382837E+04</pdfrwt>
<pdfrwt beam="2">  1       -3 0.27637667E+00 0.17382837E+04</pdfrwt>
<totfact> 0.29701123E-01</totfact>
</mgrwt>
</event>
<event>
12    1  0.1477245E-007  0.1185613E+04  0.7818608E-02  0.9125544E-01
         -2   -1    0    0    0  501 -0.00000000000E+00  0.00000000000E+00  0.26119635252E+03  0.26119635252E+03  0.00000000000E+00 0. -1.
          2   -1    0    0  501    0  0.00000000000E+00 -0.00000000000E+00 -0.13454222345E+04  0.13454222345E+04  0.00000000000E+00 0.  1.
         23    2    1    2    0    0  0.42207382994E+02 -0.40424988103E+02  0.12194061511E+03  0.16281423689E+03  0.90682519135E+02 0.  0.
        254    2    1    2    0    0 -0.42207382994E+02  0.40424988103E+02 -0.12061664971E+04  0.14438043502E+04  0.79140238812E+03 0.  0.
        -24    2    4    4    0    0 -0.10035161353E+02  0.13434246255E+03  0.62729098892E+02  0.16845058206E+03  0.79322487627E+02 0.  0.
         24    2    4    4    0    0 -0.32172221642E+02 -0.93917474444E+02 -0.12688955960E+04  0.12753537681E+04  0.81090420883E+02 0.  0.
         11    1    3    3    0    0 -0.27915949753E+02 -0.13419995976E+02  0.49801655144E+02  0.58648115039E+02  0.00000000000E+00 0.  1.
        -11    1    3    3    0    0  0.70123332747E+02 -0.27004992127E+02  0.72138959969E+02  0.10416612185E+03  0.00000000000E+00 0. -1.
          2    1    6    6  502    0 -0.26461382651E+02 -0.52031551149E+02 -0.30524801959E+03  0.31077940818E+03  0.00000000000E+00 0. -1.
          1    1    5    5  503    0  0.10686967784E+02 -0.51812063900E+01  0.15858969443E+02  0.19813204987E+02  0.00000000000E+00 0. -1.
         -2    1    5    5    0  503 -0.20722129137E+02  0.13952366894E+03  0.46870129449E+02  0.14863737708E+03  0.00000000000E+00 0.  1.
         -1    1    6    6    0  502 -0.57108389904E+01 -0.41885923295E+02 -0.96364757643E+03  0.96457435992E+03  0.00000000000E+00 0.  1.
<mgrwt>
<rscale>  0 0.11856127E+04</rscale>
<asrwt>0</asrwt>
<pdfrwt beam="1">  1        2 0.20698804E+00 0.11856127E+04</pdfrwt>
<pdfrwt beam="2">  1       -2 0.40184054E-01 0.11856127E+04</pdfrwt>
<totfact> 0.89997146E+01</totfact>
</mgrwt>
</event>
<event>
12    1  0.1477245E-007  0.2123428E+04  0.7818608E-02  0.8550993E-01
         -2   -1    0    0    0  501 -0.00000000000E+00  0.00000000000E+00  0.67145917507E+03  0.67145917507E+03  0.00000000000E+00 0. -1.
          2   -1    0    0  501    0  0.00000000000E+00 -0.00000000000E+00 -0.16787860074E+04  0.16787860074E+04  0.00000000000E+00 0.  1.
         23    2    1    2    0    0 -0.67523006783E+03 -0.16094658528E+03 -0.97300602091E+03  0.11988215540E+04  0.92698186151E+02 0.  0.
        254    2    1    2    0    0  0.67523006783E+03  0.16094658528E+03 -0.34320811372E+02  0.11514236285E+04  0.91801906640E+03 0.  0.
        -24    2    4    4    0    0  0.79238135242E+02  0.26237681964E+03  0.33417161233E+03  0.43944999062E+03  0.79532070333E+02 0.  0.
         24    2    4    4    0    0  0.59599193259E+03 -0.10143023435E+03 -0.36849242370E+03  0.71197363783E+03  0.75002123271E+02 0.  0.
         11    1    3    3    0    0 -0.16619647521E+03 -0.16341242239E+02 -0.18070995987E+03  0.24605770496E+03  0.00000000000E+00 0.  1.
        -11    1    3    3    0    0 -0.50903359262E+03 -0.14460534304E+03 -0.79229606104E+03  0.95276384901E+03  0.00000000000E+00 0. -1.
          4    1    6    6  502    0  0.35105367065E+03 -0.33592821098E+02 -0.24494275203E+03  0.42937641887E+03  0.00000000000E+00 0. -1.
          1    1    5    5  503    0  0.32307835459E+02  0.18038255657E+03  0.26572147738E+03  0.32278408648E+03  0.00000000000E+00 0. -1.
         -2    1    5    5    0  503  0.46930299783E+02  0.81994263069E+02  0.68450134952E+02  0.11666590414E+03  0.00000000000E+00 0.  1.
         -3    1    6    6    0  502  0.24493826194E+03 -0.67837413256E+02 -0.12354967167E+03  0.28259721897E+03  0.00000000000E+00 0.  1.
<mgrwt>
<rscale>  0 0.21234277E+04</rscale>
<asrwt>0</asrwt>
<pdfrwt beam="1">  1        2 0.25827477E+00 0.21234277E+04</pdfrwt>
<pdfrwt beam="2">  1       -2 0.10330141E+00 0.21234277E+04</pdfrwt>
<totfact> 0.70858345E+00</totfact>
</mgrwt>
</event>
<event>
12    1  0.1477245E-007  0.1326923E+04  0.7818608E-02  0.9008483E-01
         -1   -1    0    0    0  501 -0.00000000000E+00  0.00000000000E+00  0.15334224813E+04  0.15334224813E+04  0.00000000000E+00 0.  1.
          1   -1    0    0  501    0  0.00000000000E+00 -0.00000000000E+00 -0.28705813906E+03  0.28705813906E+03  0.00000000000E+00 0. -1.
         23    2    1    2    0    0 -0.34722249869E+03 -0.39974253776E+02  0.42247588866E+03  0.55548687605E+03  0.88985326907E+02 0.  0.
        254    2    1    2    0    0  0.34722249869E+03  0.39974253776E+02  0.82388845362E+03  0.12649937443E+04  0.89401095331E+03 0.  0.
        -24    2    4    4    0    0  0.55772920949E+03 -0.17994698552E+03  0.72641574358E+03  0.93677785915E+03  0.80188129832E+02 0.  0.
         24    2    4    4    0    0 -0.21050671080E+03  0.21992123929E+03  0.97472710047E+02  0.32821588519E+03  0.74473561101E+02 0.  0.
         11    1    3    3    0    0 -0.16548644015E+03 -0.48738307096E+02  0.15453091179E+03  0.23160523990E+03  0.00000000000E+00 0. -1.
        -11    1    3    3    0    0 -0.18173605855E+03  0.87640533201E+01  0.26794497687E+03  0.32388163615E+03  0.00000000000E+00 0.  1.
          4    1    6    6  502    0 -0.67463220715E+02  0.27395537821E+02  0.32396514454E+02  0.79695268307E+02  0.00000000000E+00 0. -1.
          1    1    5    5  503    0  0.93946197996E+02 -0.12313638730E+01  0.10153483000E+03  0.13833555609E+03  0.00000000000E+00 0. -1.
         -2    1    5    5    0  503  0.46378301150E+03 -0.17871562164E+03  0.62488091358E+03  0.79844230307E+03  0.00000000000E+00 0.  1.
         -3    1    6    6    0  502 -0.14304349008E+03  0.19252570147E+03  0.65076195593E+02  0.24852061688E+03  0.00000000000E+00 0.  1.
<mgrwt>
<rscale>  0 0.13269234E+04</rscale>
<asrwt>0</asrwt>
<pdfrwt beam="1">  1        1 0.44162791E-01 0.13269234E+04</pdfrwt>
<pdfrwt beam="2">  1       -1 0.23591115E+00 0.13269234E+04</pdfrwt>
<totfact> 0.78620554E+00</totfact>
</mgrwt>
</event>
<event>
12    1  0.1477245E-007  0.2032733E+04  0.7818608E-02  0.8591468E-01
         -2   -1    0    0    0  501 -0.00000000000E+00  0.00000000000E+00  0.25136444415E+03  0.25136444415E+03  0.00000000000E+00 0. -1.
          2   -1    0    0  501    0  0.00000000000E+00 -0.00000000000E+00 -0.41095763009E+04  0.41095763009E+04  0.00000000000E+00 0.  1.
         23    2    1    2    0    0 -0.22939397610E+03  0.76180114356E+03 -0.19671103582E+04  0.21240671409E+04  0.95788720958E+02 0.  0.
        254    2    1    2    0    0  0.22939397610E+03 -0.76180114356E+03 -0.18911014986E+04  0.22368736042E+04  0.89127777074E+03 0.  0.
        -24    2    4    4    0    0  0.92826209150E+02  0.37540043340E+02  0.44916205157E+02  0.13640661105E+03  0.81014431387E+02 0.  0.
         24    2    4    4    0    0  0.13656776695E+03 -0.79934118690E+03 -0.19360177037E+04  0.21004669931E+04  0.78739774401E+02 0.  0.
         11    1    3    3    0    0 -0.12915580655E+02  0.44813845366E+01 -0.35089787023E+02  0.37658839392E+02  0.00000000000E+00 0. -1.
        -11    1    3    3    0    0 -0.21647839544E+03  0.75731975903E+03 -0.19320205711E+04  0.20864083015E+04  0.00000000000E+00 0.  1.
          4    1    6    6  502    0  0.46329914402E+02 -0.49373930457E+03 -0.12002970330E+04  0.12987062521E+04  0.00000000000E+00 0. -1.
          3    1    5    5  503    0  0.21148861084E+02 -0.23026093291E+02 -0.23165035270E+01  0.31350302805E+02  0.00000000000E+00 0. -1.
         -4    1    5    5    0  503  0.71677348066E+02  0.60566136631E+02  0.47232708684E+02  0.10505630824E+03  0.00000000000E+00 0.  1.
         -3    1    6    6    0  502  0.90237852546E+02 -0.30560188234E+03 -0.73572067077E+03  0.80176074107E+03  0.00000000000E+00 0.  1.
<mgrwt>
<rscale>  0 0.20327335E+04</rscale>
<asrwt>0</asrwt>
<pdfrwt beam="1">  1        2 0.63224246E+00 0.20327335E+04</pdfrwt>
<pdfrwt beam="2">  1       -2 0.38671456E-01 0.20327335E+04</pdfrwt>
<totfact> 0.16445839E+00</totfact>
</mgrwt>
</event>
<event>
12    1  0.1477245E-007  0.1572488E+04  0.7818608E-02  0.8837630E-01
         -1   -1    0    0    0  501 -0.00000000000E+00  0.00000000000E+00  0.22777191483E+03  0.22777191483E+03  0.00000000000E+00 0.  1.
          1   -1    0    0  501    0  0.00000000000E+00 -0.00000000000E+00 -0.27140296480E+04  0.27140296480E+04  0.00000000000E+00 0. -1.
         23    2    1    2    0    0 -0.43814912051E+02  0.12229752171E+03  0.11334263878E+03  0.18830023503E+03  0.75723143180E+02 0.  0.
        254    2    1    2    0    0  0.43814912051E+02 -0.12229752171E+03 -0.25996003720E+04  0.27535013278E+04  0.89831566727E+03 0.  0.
        -24    2    4    4    0    0  0.18301935476E+03 -0.44157897382E+03 -0.96492616521E+03  0.10798094472E+04  0.80111569749E+02 0.  0.
         24    2    4    4    0    0 -0.13920444271E+03  0.31928145211E+03 -0.16346742067E+04  0.16736918806E+04  0.88126196523E+02 0.  0.
         13    1    3    3    0    0 -0.15677397982E+02  0.10978093963E+02 -0.84460868685E+01  0.20919745169E+02  0.00000000000E+00 0. -1.
        -13    1    3    3    0    0 -0.28137514069E+02  0.11131942774E+03  0.12178872565E+03  0.16738048986E+03  0.00000000000E+00 0.  1.
          2    1    6    6  502    0 -0.14754634352E+02  0.12520661357E+03 -0.67870790625E+03  0.69031791033E+03  0.00000000000E+00 0. -1.
          3    1    5    5  503    0  0.56591430685E+01 -0.79323953099E+02 -0.19593536048E+03  0.21145917081E+03  0.00000000000E+00 0. -1.
         -4    1    5    5    0  503  0.17736021169E+03 -0.36225502072E+03 -0.76899080473E+03  0.86835027638E+03  0.00000000000E+00 0.  1.
         -1    1    6    6    0  502 -0.12444980836E+03  0.19407483854E+03 -0.95596630049E+03  0.98337397029E+03  0.00000000000E+00 0.  1.
<mgrwt>
<rscale>  0 0.15724881E+04</rscale>
<asrwt>0</asrwt>
<pdfrwt beam="1">  1        1 0.41754302E+00 0.15724881E+04</pdfrwt>
<pdfrwt beam="2">  1       -1 0.35041833E-01 0.15724881E+04</pdfrwt>
<totfact> 0.71666903E+00</totfact>
</mgrwt>
</event>
<event>
12    1  0.1477245E-007  0.2028929E+04  0.7818608E-02  0.8593213E-01
         -2   -1    0    0    0  501 -0.00000000000E+00  0.00000000000E+00  0.69082877228E+03  0.69082877228E+03  0.00000000000E+00 0.  1.
          2   -1    0    0  501    0  0.00000000000E+00 -0.00000000000E+00 -0.14897158510E+04  0.14897158510E+04  0.00000000000E+00 0. -1.
         23    2    1    2    0    0 -0.42982900718E+03  0.65373428276E+03 -0.97141961326E+02  0.79310541401E+03  0.86360576769E+02 0.  0.
        254    2    1    2    0    0  0.42982900718E+03 -0.65373428276E+03 -0.70174511740E+03  0.13874392093E+04  0.90577031403E+03 0.  0.
        -24    2    4    4    0    0  0.21810051983E+03 -0.22624156721E+03  0.18776286268E+03  0.37499492674E+03  0.81321700659E+02 0.  0.
         24    2    4    4    0    0  0.21172848736E+03 -0.42749271555E+03 -0.88950798008E+03  0.10124442825E+04  0.78993698508E+02 0.  0.
         13    1    3    3    0    0 -0.32214998864E+01  0.37328420487E+02 -0.61812759853E+01  0.37973638361E+02  0.00000000000E+00 0. -1.
        -13    1    3    3    0    0 -0.42660750730E+03  0.61640586227E+03 -0.90960685341E+02  0.75513177565E+03  0.00000000000E+00 0.  1.
          4    1    6    6  502    0  0.10319455206E+03 -0.19672983669E+03 -0.49672584645E+03  0.54413997349E+03  0.00000000000E+00 0. -1.
          1    1    5    5  503    0  0.22197527644E+03 -0.21274571342E+03  0.16688519090E+03  0.34983485943E+03  0.00000000000E+00 0. -1.
         -2    1    5    5    0  503 -0.38747566126E+01 -0.13495853787E+02  0.20877671779E+02  0.25160067312E+02  0.00000000000E+00 0.  1.
         -3    1    6    6    0  502  0.10853393529E+03 -0.23076287886E+03 -0.39278213363E+03  0.46830430904E+03  0.00000000000E+00 0.  1.
<mgrwt>
<rscale>  0 0.20289293E+04</rscale>
<asrwt>0</asrwt>
<pdfrwt beam="1">  1        2 0.22918706E+00 0.20289293E+04</pdfrwt>
<pdfrwt beam="2">  1       -2 0.10628135E+00 0.20289293E+04</pdfrwt>
<totfact> 0.85145045E+00</totfact>
</mgrwt>
</event>
<event>
12    1  0.1477245E-007  0.2326313E+04  0.7818608E-02  0.8467618E-01
          1   -1    0    0  501    0  0.00000000000E+00  0.00000000000E+00  0.19752810085E+04  0.19752810085E+04  0.00000000000E+00 0. -1.
         -1   -1    0    0    0  501 -0.00000000000E+00 -0.00000000000E+00 -0.68493184234E+03  0.68493184234E+03  0.00000000000E+00 0.  1.
         23    2    1    2    0    0 -0.58540465288E+03  0.77489482876E+03  0.33872551841E+03  0.10325959592E+04  0.91426664315E+02 0.  0.
        254    2    1    2    0    0  0.58540465288E+03 -0.77489482876E+03  0.95162364775E+03  0.16276168916E+04  0.89464438499E+03 0.  0.
        -24    2    4    4    0    0  0.51761600087E+03 -0.25398037516E+03  0.92778174218E+03  0.10953531064E+04  0.81161020932E+02 0.  0.
         24    2    4    4    0    0  0.67788652004E+02 -0.52091445360E+03  0.23841905564E+02  0.53226378516E+03  0.82396184526E+02 0.  0.
         13    1    3    3    0    0 -0.36519663202E+03  0.46491301680E+03  0.16009155273E+03  0.61248836600E+03  0.00000000000E+00 0. -1.
        -13    1    3    3    0    0 -0.22020802085E+03  0.30998181197E+03  0.17863396568E+03  0.42010759323E+03  0.00000000000E+00 0.  1.
          4    1    6    6  502    0  0.24750996463E+02 -0.39809096035E+03 -0.53027091458E+01  0.39889490253E+03  0.00000000000E+00 0. -1.
          1    1    5    5  503    0  0.40302787329E+03 -0.18049840465E+03  0.64734098266E+03  0.78362075557E+03  0.00000000000E+00 0. -1.
         -2    1    5    5    0  503  0.11458812759E+03 -0.73481970514E+02  0.28044075952E+03  0.31173235086E+03  0.00000000000E+00 0.  1.
         -3    1    6    6    0  502  0.43037655541E+02 -0.12282349325E+03  0.29144614710E+02  0.13336888263E+03  0.00000000000E+00 0.  1.
<mgrwt>
<rscale>  0 0.23263128E+04</rscale>
<asrwt>0</asrwt>
<pdfrwt beam="1">  1        1 0.30388938E+00 0.23263128E+04</pdfrwt>
<pdfrwt beam="2">  1       -1 0.10537413E+00 0.23263128E+04</pdfrwt>
<totfact> 0.23580441E+00</totfact>
</mgrwt>
</event>
<event>
12    1  0.1477245E-007  0.2055123E+04  0.7818608E-02  0.8581274E-01
         -1   -1    0    0    0  501 -0.00000000000E+00  0.00000000000E+00  0.46505987095E+03  0.46505987095E+03  0.00000000000E+00 0.  1.
          1   -1    0    0  501    0  0.00000000000E+00 -0.00000000000E+00 -0.22704224052E+04  0.22704224052E+04  0.00000000000E+00 0. -1.
         23    2    1    2    0    0 -0.22693695030E+03 -0.64926221092E+03 -0.13452903329E+04  0.15137635704E+04  0.92910007162E+02 0.  0.
        254    2    1    2    0    0  0.22693695030E+03  0.64926221092E+03 -0.46007220133E+03  0.12217187057E+04  0.89882610524E+03 0.  0.
        -24    2    4    4    0    0  0.22384422037E+03 -0.17848542593E+03 -0.80261509153E+02  0.30785149020E+03  0.79795663442E+02 0.  0.
         24    2    4    4    0    0  0.30927299238E+01  0.82774763684E+03 -0.37981069217E+03  0.91386721549E+03  0.75640005111E+02 0.  0.
         13    1    3    3    0    0 -0.71665803077E+02 -0.28643749260E+03 -0.49551098511E+03  0.57681328076E+03  0.00000000000E+00 0.  1.
        -13    1    3    3    0    0 -0.15527114722E+03 -0.36282471832E+03 -0.84977934778E+03  0.93695028966E+03  0.00000000000E+00 0. -1.
          2    1    6    6  502    0 -0.35943537403E+02  0.45335026433E+03 -0.20889619679E+03  0.50045581332E+03  0.00000000000E+00 0. -1.
          1    1    5    5  503    0  0.20981605220E+03 -0.14633990916E+03 -0.48154626964E+02  0.26030177270E+03  0.00000000000E+00 0. -1.
         -2    1    5    5    0  503  0.14028168177E+02 -0.32145516762E+02 -0.32106882189E+02  0.47549717498E+02  0.00000000000E+00 0.  1.
         -1    1    6    6    0  502  0.39036267326E+02  0.37439737251E+03 -0.17091449539E+03  0.41341140217E+03  0.00000000000E+00 0.  1.
<mgrwt>
<rscale>  0 0.20551227E+04</rscale>
<asrwt>0</asrwt>
<pdfrwt beam="1">  1        1 0.34929576E+00 0.20551227E+04</pdfrwt>
<pdfrwt beam="2">  1       -1 0.71547672E-01 0.20551227E+04</pdfrwt>
<totfact> 0.35509175E+00</totfact>
</mgrwt>
</event>
<event>
12    1  0.1477245E-007  0.2340410E+04  0.7818608E-02  0.8462156E-01
         -2   -1    0    0    0  501 -0.00000000000E+00  0.00000000000E+00  0.33670553852E+03  0.33670553852E+03  0.00000000000E+00 0.  1.
          2   -1    0    0  501    0  0.00000000000E+00 -0.00000000000E+00 -0.40669933071E+04  0.40669933071E+04  0.00000000000E+00 0. -1.
         23    2    1    2    0    0 -0.65945989736E+03  0.69563788205E+02 -0.29841569754E+04  0.30580458027E+04  0.82004883689E+02 0.  0.
        254    2    1    2    0    0  0.65945989736E+03 -0.69563788205E+02 -0.74613079327E+03  0.13456530430E+04  0.90241036925E+03 0.  0.
        -24    2    4    4    0    0  0.33440797254E+03  0.37591769053E+03 -0.56244115065E+03  0.75883211279E+03  0.79644995500E+02 0.  0.
         24    2    4    4    0    0  0.32505192481E+03 -0.44548147874E+03 -0.18368964262E+03  0.58682093017E+03  0.80649969375E+02 0.  0.
         11    1    3    3    0    0 -0.34543768171E+03  0.57388470184E+02 -0.14105176533E+04  0.14533343314E+04  0.00000000000E+00 0. -1.
        -11    1    3    3    0    0 -0.31402221565E+03  0.12175318021E+02 -0.15736393220E+04  0.16047114713E+04  0.00000000000E+00 0.  1.
          4    1    6    6  502    0  0.22830470699E+03 -0.24692739897E+03 -0.10394079361E+03  0.35199413088E+03  0.00000000000E+00 0. -1.
          3    1    5    5  503    0  0.23427553677E+03  0.21559440577E+03 -0.38478970534E+03  0.49942876596E+03  0.00000000000E+00 0. -1.
         -4    1    5    5    0  503  0.10013243577E+03  0.16032328476E+03 -0.17765144531E+03  0.25940334683E+03  0.00000000000E+00 0.  1.
         -3    1    6    6    0  502  0.96747217823E+02 -0.19855407977E+03 -0.79748849013E+02  0.23482679929E+03  0.00000000000E+00 0.  1.
<mgrwt>
<rscale>  0 0.23404095E+04</rscale>
<asrwt>0</asrwt>
<pdfrwt beam="1">  1        2 0.62569125E+00 0.23404095E+04</pdfrwt>
<pdfrwt beam="2">  1       -2 0.51800854E-01 0.23404095E+04</pdfrwt>
<totfact> 0.96438657E-01</totfact>
</mgrwt>
</event>
<event>
12    1  0.1477245E-007  0.1367605E+04  0.7818608E-02  0.8977607E-01
         -2   -1    0    0    0  501 -0.00000000000E+00  0.00000000000E+00  0.29170815526E+03  0.29170815526E+03  0.00000000000E+00 0.  1.
          2   -1    0    0  501    0  0.00000000000E+00 -0.00000000000E+00 -0.16029239599E+04  0.16029239599E+04  0.00000000000E+00 0. -1.
         23    2    1    2    0    0  0.26430189638E+03 -0.28416040961E+03 -0.39660006391E+03  0.56233417329E+03  0.91244073411E+02 0.  0.
        254    2    1    2    0    0 -0.26430189638E+03  0.28416040961E+03 -0.91461574071E+03  0.13322979418E+04  0.88763349524E+03 0.  0.
        -24    2    4    4    0    0 -0.49897402242E+03  0.25988177614E+03 -0.24731925567E+03  0.61989294460E+03  0.81159324251E+02 0.  0.
         24    2    4    4    0    0  0.23467212604E+03  0.24278633469E+02 -0.66729648505E+03  0.71240499725E+03  0.81091444498E+02 0.  0.
         13    1    3    3    0    0  0.16069199780E+02  0.52936763986E+01 -0.11989982093E+02  0.20736486249E+02  0.00000000000E+00 0. -1.
        -13    1    3    3    0    0  0.24823269660E+03 -0.28945408601E+03 -0.38461008182E+03  0.54159768704E+03  0.00000000000E+00 0.  1.
          4    1    6    6  502    0  0.21940274796E+03 -0.11792179526E+01 -0.57423252725E+03  0.61472103569E+03  0.00000000000E+00 0. -1.
          3    1    5    5  503    0 -0.41022088044E+03  0.17776192454E+03 -0.18477421567E+03  0.48375818685E+03  0.00000000000E+00 0. -1.
         -4    1    5    5    0  503 -0.88753141978E+02  0.82119851601E+02 -0.62545039998E+02  0.13613475774E+03  0.00000000000E+00 0.  1.
         -3    1    6    6    0  502  0.15269378085E+02  0.25457851421E+02 -0.93063957798E+02  0.97683961565E+02  0.00000000000E+00 0.  1.
<mgrwt>
<rscale>  0 0.13676052E+04</rscale>
<asrwt>0</asrwt>
<pdfrwt beam="1">  1        2 0.24660368E+00 0.13676052E+04</pdfrwt>
<pdfrwt beam="2">  1       -2 0.44878178E-01 0.13676052E+04</pdfrwt>
<totfact> 0.51022630E+01</totfact>
</mgrwt>
</event>
<event>
12    1  0.1477245E-007  0.1109402E+04  0.7818608E-02  0.9196076E-01
          1   -1    0    0  501    0  0.00000000000E+00  0.00000000000E+00  0.14693062197E+04  0.14693062197E+04  0.00000000000E+00 0.  1.
         -1   -1    0    0    0  501 -0.00000000000E+00 -0.00000000000E+00 -0.20941389078E+03  0.20941389078E+03  0.00000000000E+00 0. -1.
         23    2    1    2    0    0 -0.12360838679E+03  0.86053140873E+02  0.83966449534E+02  0.19655509521E+03  0.94336442933E+02 0.  0.
        254    2    1    2    0    0  0.12360838679E+03 -0.86053140873E+02  0.11759258794E+04  0.14821650153E+04  0.88956578303E+03 0.  0.
        -24    2    4    4    0    0  0.42542767772E+03 -0.23279543166E+03  0.94993383429E+03  0.10697788185E+04  0.82885518212E+02 0.  0.
         24    2    4    4    0    0 -0.30181929092E+03  0.14674229079E+03  0.22599204513E+03  0.41238619675E+03  0.79760808201E+02 0.  0.
         11    1    3    3    0    0 -0.56561062218E+02  0.87452413344E+02  0.24655142022E+02  0.10702782062E+03  0.00000000000E+00 0. -1.
        -11    1    3    3    0    0 -0.67047324574E+02 -0.13992724714E+01  0.59311307512E+02  0.89527274585E+02  0.00000000000E+00 0.  1.
          2    1    6    6  502    0 -0.75723132468E+02  0.46636551218E+02  0.10344569387E+03  0.13641837223E+03  0.00000000000E+00 0. -1.
          1    1    5    5  503    0  0.44968517235E+02 -0.22034071943E+02  0.52778525113E+02  0.72754660207E+02  0.00000000000E+00 0. -1.
         -2    1    5    5    0  503  0.38045916048E+03 -0.21076135972E+03  0.89715530917E+03  0.99702415834E+03  0.00000000000E+00 0.  1.
         -1    1    6    6    0  502 -0.22609615846E+03  0.10010573957E+03  0.12254635126E+03  0.27596782452E+03  0.00000000000E+00 0.  1.
<mgrwt>
<rscale>  0 0.11094019E+04</rscale>
<asrwt>0</asrwt>
<pdfrwt beam="1">  1        1 0.22604710E+00 0.11094019E+04</pdfrwt>
<pdfrwt beam="2">  1       -1 0.32217523E-01 0.11094019E+04</pdfrwt>
<totfact> 0.61538044E+01</totfact>
</mgrwt>
</event>
<event>
12    1  0.1477245E-007  0.2596056E+04  0.7818608E-02  0.8369542E-01
         -1   -1    0    0    0  501 -0.00000000000E+00  0.00000000000E+00  0.66613813343E+03  0.66613813343E+03  0.00000000000E+00 0.  1.
          1   -1    0    0  501    0  0.00000000000E+00 -0.00000000000E+00 -0.25293193978E+04  0.25293193978E+04  0.00000000000E+00 0. -1.
         23    2    1    2    0    0  0.92598674957E+03 -0.39357464934E+03 -0.15651209120E+03  0.10223906770E+04  0.91837882869E+02 0.  0.
        254    2    1    2    0    0 -0.92598674957E+03  0.39357464934E+03 -0.17066691732E+04  0.21730668542E+04  0.89283112699E+03 0.  0.
        -24    2    4    4    0    0  0.26893160152E+02 -0.47153966878E+02 -0.73222543424E+03  0.73863453443E+03  0.80499380384E+02 0.  0.
         24    2    4    4    0    0 -0.95287990972E+03  0.44072861622E+03 -0.97444373891E+03  0.14344323198E+04  0.76378296960E+02 0.  0.
         13    1    3    3    0    0  0.15746089532E+03 -0.31582396138E+02 -0.16911364914E+02  0.16148490816E+03  0.00000000000E+00 0. -1.
        -13    1    3    3    0    0  0.76852585425E+03 -0.36199225321E+03 -0.13960072629E+03  0.86090576884E+03  0.00000000000E+00 0.  1.
          2    1    6    6  502    0 -0.55059679147E+03  0.24395304708E+03 -0.50876277894E+03  0.78835872621E+03  0.00000000000E+00 0. -1.
          3    1    5    5  503    0  0.78726426743E+01  0.41279896235E+00 -0.52876764629E+03  0.52882641072E+03  0.00000000000E+00 0. -1.
         -4    1    5    5    0  503  0.19020517478E+02 -0.47566765841E+02 -0.20345778795E+03  0.20980812371E+03  0.00000000000E+00 0.  1.
         -1    1    6    6    0  502 -0.40228311825E+03  0.19677556915E+03 -0.46568095997E+03  0.64607359358E+03  0.00000000000E+00 0.  1.
<mgrwt>
<rscale>  0 0.25960555E+04</rscale>
<asrwt>0</asrwt>
<pdfrwt beam="1">  1        1 0.38912606E+00 0.25960555E+04</pdfrwt>
<pdfrwt beam="2">  1       -1 0.10248279E+00 0.25960555E+04</pdfrwt>
<totfact> 0.10254225E+00</totfact>
</mgrwt>
</event>
<event>
12    1  0.1477245E-007  0.1249756E+04  0.7818608E-02  0.9070386E-01
          2   -1    0    0  501    0  0.00000000000E+00  0.00000000000E+00  0.18919667154E+04  0.18919667154E+04  0.00000000000E+00 0. -1.
         -2   -1    0    0    0  501 -0.00000000000E+00 -0.00000000000E+00 -0.20638451145E+03  0.20638451145E+03  0.00000000000E+00 0.  1.
         23    2    1    2    0    0  0.12904037951E+03 -0.15479608007E+03  0.65889384056E+03  0.69496374753E+03  0.90665711825E+02 0.  0.
        254    2    1    2    0    0 -0.12904037951E+03  0.15479608007E+03  0.10266883634E+04  0.14033874794E+04  0.93530432250E+03 0.  0.
        -24    2    4    4    0    0 -0.18960750906E+03  0.60988523724E+02 -0.12315322835E+03  0.24519487907E+03  0.72685648881E+02 0.  0.
         24    2    4    4    0    0  0.60567129551E+02  0.93807556346E+02  0.11498415918E+04  0.11581926003E+04  0.82499565945E+02 0.  0.
         11    1    3    3    0    0  0.87571216059E+02 -0.14162278615E+03  0.41393038749E+03  0.44616599728E+03  0.00000000000E+00 0. -1.
        -11    1    3    3    0    0  0.41469163447E+02 -0.13173293923E+02  0.24496345307E+03  0.24879775025E+03  0.00000000000E+00 0.  1.
          4    1    6    6  502    0  0.37318394521E+02  0.10577743510E+03  0.96895092322E+03  0.97542166264E+03  0.00000000000E+00 0. -1.
          3    1    5    5  503    0 -0.12383099146E+02 -0.13518208872E+02 -0.19573118155E+02  0.26817719326E+02  0.00000000000E+00 0. -1.
         -4    1    5    5    0  503 -0.17722440991E+03  0.74506732596E+02 -0.10358011019E+03  0.21837715974E+03  0.00000000000E+00 0.  1.
         -3    1    6    6    0  502  0.23248735030E+02 -0.11969878752E+02  0.18089066856E+03  0.18277093765E+03  0.00000000000E+00 0.  1.
<mgrwt>
<rscale>  0 0.12497562E+04</rscale>
<asrwt>0</asrwt>
<pdfrwt beam="1">  1        2 0.29107179E+00 0.12497562E+04</pdfrwt>
<pdfrwt beam="2">  1       -2 0.31751464E-01 0.12497562E+04</pdfrwt>
<totfact> 0.69594282E+01</totfact>
</mgrwt>
</event>
<event>
12    1  0.1477245E-007  0.2305341E+04  0.7818608E-02  0.8475818E-01
         -2   -1    0    0    0  501 -0.00000000000E+00  0.00000000000E+00  0.83484254525E+03  0.83484254525E+03  0.00000000000E+00 0.  1.
          2   -1    0    0  501    0  0.00000000000E+00 -0.00000000000E+00 -0.15914964789E+04  0.15914964789E+04  0.00000000000E+00 0. -1.
         23    2    1    2    0    0  0.72800128676E+03 -0.56675244045E+03 -0.65020900257E+03  0.11323160514E+04  0.90408467668E+02 0.  0.
        254    2    1    2    0    0 -0.72800128676E+03  0.56675244045E+03 -0.10644493105E+03  0.12940229727E+04  0.90109418387E+03 0.  0.
        -24    2    4    4    0    0 -0.49125889862E+03  0.79608829305E+03 -0.15606847509E+03  0.95176490911E+03  0.80044971663E+02 0.  0.
         24    2    4    4    0    0 -0.23674238814E+03 -0.22933585260E+03  0.49623544042E+02  0.34225806357E+03  0.77692949007E+02 0.  0.
         13    1    3    3    0    0  0.20489273223E+03 -0.11735726315E+03 -0.19203176418E+03  0.30435170015E+03  0.00000000000E+00 0.  1.
        -13    1    3    3    0    0  0.52310855454E+03 -0.44939517730E+03 -0.45817723839E+03  0.82796435128E+03  0.00000000000E+00 0. -1.
          4    1    6    6  502    0 -0.15597925708E+03 -0.17458647446E+03  0.30357023188E+01  0.23413496363E+03  0.00000000000E+00 0. -1.
          3    1    5    5  503    0 -0.44919022778E+03  0.67601011005E+03 -0.13611658539E+03  0.82297585289E+03  0.00000000000E+00 0. -1.
         -4    1    5    5    0  503 -0.42068670843E+02  0.12007818301E+03 -0.19951889696E+02  0.12878905622E+03  0.00000000000E+00 0.  1.
         -3    1    6    6    0  502 -0.80763131056E+02 -0.54749378143E+02  0.46587841723E+02  0.10812309994E+03  0.00000000000E+00 0.  1.
<mgrwt>
<rscale>  0 0.23053407E+04</rscale>
<asrwt>0</asrwt>
<pdfrwt beam="1">  1        2 0.24484561E+00 0.23053407E+04</pdfrwt>
<pdfrwt beam="2">  1       -2 0.12843732E+00 0.23053407E+04</pdfrwt>
<totfact> 0.45761403E+00</totfact>
</mgrwt>
</event>
<event>
12    1  0.1477245E-007  0.1740248E+04  0.7818608E-02  0.8738737E-01
         -2   -1    0    0    0  501 -0.00000000000E+00  0.00000000000E+00  0.29581216346E+03  0.29581216346E+03  0.00000000000E+00 0.  1.
          2   -1    0    0  501    0  0.00000000000E+00 -0.00000000000E+00 -0.25594469791E+04  0.25594469791E+04  0.00000000000E+00 0. -1.
         23    2    1    2    0    0  0.16917327109E+03 -0.39558098763E+01  0.16667217679E+03  0.25308990056E+03  0.87405029401E+02 0.  0.
        254    2    1    2    0    0 -0.16917327109E+03  0.39558098763E+01 -0.24303069924E+04  0.26021692420E+04  0.91447112717E+03 0.  0.
        -24    2    4    4    0    0 -0.12840919321E+02  0.18912420950E+03 -0.23109057235E+04  0.23200730379E+04  0.80751363761E+02 0.  0.
         24    2    4    4    0    0 -0.15633235177E+03 -0.18516839962E+03 -0.11940126897E+03  0.28209620407E+03  0.81206310663E+02 0.  0.
         13    1    3    3    0    0  0.82845101100E+02 -0.10004309477E+02  0.25060038237E+02  0.87128654878E+02  0.00000000000E+00 0. -1.
        -13    1    3    3    0    0  0.86328169992E+02  0.60484996005E+01  0.14161213856E+03  0.16596124568E+03  0.00000000000E+00 0.  1.
          2    1    6    6  502    0 -0.43359838803E+01 -0.23108225096E+02 -0.39524398661E+02  0.45988791165E+02  0.00000000000E+00 0. -1.
          1    1    5    5  503    0  0.11102983557E+02  0.97829848696E+01 -0.56074289008E+02  0.57994042148E+02  0.00000000000E+00 0. -1.
         -2    1    5    5    0  503 -0.23943902878E+02  0.17934122463E+03 -0.22548314344E+04  0.22620789958E+04  0.00000000000E+00 0.  1.
         -1    1    6    6    0  502 -0.15199636789E+03 -0.16206017452E+03 -0.79876870309E+02  0.23610741291E+03  0.00000000000E+00 0.  1.
<mgrwt>
<rscale>  0 0.17402477E+04</rscale>
<asrwt>0</asrwt>
<pdfrwt beam="1">  1        2 0.39376107E+00 0.17402477E+04</pdfrwt>
<pdfrwt beam="2">  1       -2 0.45509564E-01 0.17402477E+04</pdfrwt>
<totfact> 0.13984371E+01</totfact>
</mgrwt>
</event>
<event>
12    1  0.1477245E-007  0.2280659E+04  0.7818608E-02  0.8485586E-01
         -2   -1    0    0    0  501 -0.00000000000E+00  0.00000000000E+00  0.84185241484E+03  0.84185241484E+03  0.00000000000E+00 0.  1.
          2   -1    0    0  501    0  0.00000000000E+00 -0.00000000000E+00 -0.15446310850E+04  0.15446310850E+04  0.00000000000E+00 0. -1.
         23    2    1    2    0    0  0.29421200344E+02 -0.22447411002E+03 -0.12728000649E+04  0.12959923578E+04  0.91224739517E+02 0.  0.
        254    2    1    2    0    0 -0.29421200344E+02  0.22447411002E+03  0.57002139473E+03  0.10904911421E+04  0.90166086052E+03 0.  0.
        -24    2    4    4    0    0 -0.45018156969E+03  0.88604311202E+02  0.38532780393E+03  0.60439106628E+03  0.79352850374E+02 0.  0.
         24    2    4    4    0    0  0.42076036934E+03  0.13586979882E+03  0.18469359079E+03  0.48610007580E+03  0.81741486202E+02 0.  0.
         13    1    3    3    0    0  0.18889286449E+02 -0.12007143943E+03 -0.43554494753E+03  0.45218730304E+03  0.00000000000E+00 0.  1.
        -13    1    3    3    0    0  0.10531913895E+02 -0.10440267059E+03 -0.83725511737E+03  0.84380505473E+03  0.00000000000E+00 0. -1.
          2    1    6    6  502    0  0.56485347620E+02 -0.47902264532E+01  0.41210375222E+02  0.70084490376E+02  0.00000000000E+00 0. -1.
          1    1    5    5  503    0 -0.22499185802E+03  0.72710786990E+02  0.16045180688E+03  0.28574985048E+03  0.00000000000E+00 0. -1.
         -2    1    5    5    0  503 -0.22518971167E+03  0.15893524212E+02  0.22487599705E+03  0.31864121580E+03  0.00000000000E+00 0.  1.
         -1    1    6    6    0  502  0.36427502172E+03  0.14066002528E+03  0.14348321557E+03  0.41601558542E+03  0.00000000000E+00 0.  1.
<mgrwt>
<rscale>  0 0.22806590E+04</rscale>
<asrwt>0</asrwt>
<pdfrwt beam="1">  1        2 0.23763555E+00 0.22806590E+04</pdfrwt>
<pdfrwt beam="2">  1       -2 0.12951576E+00 0.22806590E+04</pdfrwt>
<totfact> 0.47698295E+00</totfact>
</mgrwt>
</event>
<event>
12    1  0.1477245E-007  0.1388674E+04  0.7818608E-02  0.8962058E-01
         -2   -1    0    0    0  501 -0.00000000000E+00  0.00000000000E+00  0.14134379141E+03  0.14134379141E+03  0.00000000000E+00 0.  1.
          2   -1    0    0  501    0  0.00000000000E+00 -0.00000000000E+00 -0.34108575370E+04  0.34108575370E+04  0.00000000000E+00 0. -1.
         23    2    1    2    0    0  0.20576543819E+02  0.34818483415E+03 -0.14448827075E+04  0.14891904054E+04  0.91356182203E+02 0.  0.
        254    2    1    2    0    0 -0.20576543819E+02 -0.34818483415E+03 -0.18246310381E+04  0.20630109231E+04  0.89726226415E+03 0.  0.
        -24    2    4    4    0    0  0.26585650570E+03 -0.13958092324E+03 -0.14324747022E+03  0.34281275473E+03  0.82693599057E+02 0.  0.
         24    2    4    4    0    0 -0.28643304952E+03 -0.20860391091E+03 -0.16813835679E+04  0.17201981684E+04  0.80445960504E+02 0.  0.
         13    1    3    3    0    0  0.24272616616E+02  0.34484119085E+03 -0.14430511471E+04  0.14838804601E+04  0.00000000000E+00 0. -1.
        -13    1    3    3    0    0 -0.36960727965E+01  0.33436432988E+01 -0.18315604128E+01  0.53099452137E+01  0.00000000000E+00 0.  1.
          2    1    6    6  502    0 -0.95664234751E+02 -0.85179739865E+02 -0.44316297695E+03  0.46130321702E+03  0.00000000000E+00 0. -1.
          3    1    5    5  503    0  0.97738856298E+01  0.46523515541E+01  0.68362629897E+01  0.12802644530E+02  0.00000000000E+00 0. -1.
         -4    1    5    5    0  503  0.25608262007E+03 -0.14423327479E+03 -0.15008373321E+03  0.33001011020E+03  0.00000000000E+00 0.  1.
         -1    1    6    6    0  502 -0.19076881477E+03 -0.12342417105E+03 -0.12382205909E+04  0.12588949513E+04  0.00000000000E+00 0.  1.
<mgrwt>
<rscale>  0 0.13886735E+04</rscale>
<asrwt>0</asrwt>
<pdfrwt beam="1">  1        2 0.52474736E+00 0.13886735E+04</pdfrwt>
<pdfrwt beam="2">  1       -2 0.21745197E-01 0.13886735E+04</pdfrwt>
<totfact> 0.17099784E+01</totfact>
</mgrwt>
</event>
<event>
12    1  0.1477245E-007  0.2128608E+04  0.7818608E-02  0.8548745E-01
          1   -1    0    0  501    0  0.00000000000E+00  0.00000000000E+00  0.13229796687E+04  0.13229796687E+04  0.00000000000E+00 0. -1.
         -1   -1    0    0    0  501 -0.00000000000E+00 -0.00000000000E+00 -0.85620593109E+03  0.85620593109E+03  0.00000000000E+00 0.  1.
         23    2    1    2    0    0 -0.13929270524E+03  0.52697781521E+03 -0.50475183878E+03  0.74822605673E+03  0.89217362421E+02 0.  0.
        254    2    1    2    0    0  0.13929270524E+03 -0.52697781521E+03  0.97152557635E+03  0.14309595430E+04  0.89815098552E+03 0.  0.
        -24    2    4    4    0    0  0.41422281216E+03 -0.22550150127E+03  0.13713340090E+03  0.49861302061E+03  0.85894758224E+02 0.  0.
         24    2    4    4    0    0 -0.27493010692E+03 -0.30147631394E+03  0.83439217546E+03  0.93234652241E+03  0.81149268854E+02 0.  0.
         11    1    3    3    0    0 -0.10474714339E+03  0.47065596337E+03 -0.47096761082E+03  0.67401742585E+03  0.00000000000E+00 0.  1.
        -11    1    3    3    0    0 -0.34545561849E+02  0.56321851845E+02 -0.33784227958E+02  0.74208630882E+02  0.00000000000E+00 0. -1.
          4    1    6    6  502    0 -0.26858616083E+03 -0.27699627855E+03  0.81005956828E+03  0.89725245515E+03  0.00000000000E+00 0. -1.
          1    1    5    5  503    0  0.40002090474E+03 -0.22387442079E+03  0.11558459751E+03  0.47275393144E+03  0.00000000000E+00 0. -1.
         -2    1    5    5    0  503  0.14201907420E+02 -0.16270804828E+01  0.21548803384E+02  0.25859089167E+02  0.00000000000E+00 0.  1.
         -3    1    6    6    0  502 -0.63439460827E+01 -0.24480035390E+02  0.24332607179E+02  0.35094067258E+02  0.00000000000E+00 0.  1.
<mgrwt>
<rscale>  0 0.21286080E+04</rscale>
<asrwt>0</asrwt>
<pdfrwt beam="1">  1        1 0.20353533E+00 0.21286080E+04</pdfrwt>
<pdfrwt beam="2">  1       -1 0.13172399E+00 0.21286080E+04</pdfrwt>
<totfact> 0.39195517E+00</totfact>
</mgrwt>
</event>
<event>
12    1  0.1477245E-007  0.1606106E+04  0.7818608E-02  0.8816806E-01
          2   -1    0    0  501    0  0.00000000000E+00  0.00000000000E+00  0.62915927418E+03  0.62915927418E+03  0.00000000000E+00 0. -1.
         -2   -1    0    0    0  501 -0.00000000000E+00 -0.00000000000E+00 -0.10250095179E+04  0.10250095179E+04  0.00000000000E+00 0.  1.
         23    2    1    2    0    0  0.14396305415E+03 -0.51198298727E+03 -0.26774037736E+03  0.60246673569E+03  0.91811315907E+02 0.  0.
        254    2    1    2    0    0 -0.14396305415E+03  0.51198298727E+03 -0.12810986633E+03  0.10517020563E+04  0.89822777582E+03 0.  0.
        -24    2    4    4    0    0  0.12715986976E+03  0.65921934241E+03  0.64354973460E+02  0.67866553484E+03  0.75535234745E+02 0.  0.
         24    2    4    4    0    0 -0.27112292391E+03 -0.14723635514E+03 -0.19246483979E+03  0.37303652150E+03  0.83230689504E+02 0.  0.
         13    1    3    3    0    0  0.38125102550E+02 -0.41610618731E+02 -0.40512699485E+02  0.69471187230E+02  0.00000000000E+00 0. -1.
        -13    1    3    3    0    0  0.10583795160E+03 -0.47037236854E+03 -0.22722767787E+03  0.53299554846E+03  0.00000000000E+00 0.  1.
          4    1    6    6  502    0 -0.26201944847E+03 -0.15577322072E+03 -0.17474227134E+03  0.35136071076E+03  0.00000000000E+00 0. -1.
          1    1    5    5  503    0  0.11929819617E+03  0.60490624640E+03  0.79683978058E+02  0.62168574289E+03  0.00000000000E+00 0. -1.
         -2    1    5    5    0  503  0.78616735865E+01  0.54313096010E+02 -0.15329004598E+02  0.56979791960E+02  0.00000000000E+00 0.  1.
         -3    1    6    6    0  502 -0.91034754352E+01  0.85368655779E+01 -0.17722568454E+02  0.21675810746E+02  0.00000000000E+00 0.  1.
<mgrwt>
<rscale>  0 0.16061062E+04</rscale>
<asrwt>0</asrwt>
<pdfrwt beam="1">  1        2 0.96793736E-01 0.16061062E+04</pdfrwt>
<pdfrwt beam="2">  1       -2 0.15769377E+00 0.16061062E+04</pdfrwt>
<totfact> 0.11746827E+01</totfact>
</mgrwt>
</event>
<event>
12    1  0.1477245E-007  0.1863477E+04  0.7818608E-02  0.8673253E-01
         -2   -1    0    0    0  501 -0.00000000000E+00  0.00000000000E+00  0.21671841011E+04  0.21671841011E+04  0.00000000000E+00 0.  1.
          2   -1    0    0  501    0  0.00000000000E+00 -0.00000000000E+00 -0.40058284055E+03  0.40058284055E+03  0.00000000000E+00 0. -1.
         23    2    1    2    0    0 -0.15575298917E+03 -0.43026053407E+02 -0.27508686530E+03  0.33173837333E+03  0.90924858903E+02 0.  0.
        254    2    1    2    0    0  0.15575298917E+03  0.43026053407E+02  0.20416881258E+04  0.22360285683E+04  0.89734225365E+03 0.  0.
        -24    2    4    4    0    0  0.22584761541E+03 -0.39277944292E+03  0.11037487596E+04  0.11960593912E+04  0.83749070187E+02 0.  0.
         24    2    4    4    0    0 -0.70094626235E+02  0.43580549633E+03  0.93793936627E+03  0.10399691771E+04  0.83462251125E+02 0.  0.
         11    1    3    3    0    0  0.43545185459E+01  0.12325728198E+02 -0.39208813690E+02  0.41330575587E+02  0.00000000000E+00 0.  1.
        -11    1    3    3    0    0 -0.16010750772E+03 -0.55351781605E+02 -0.23587805161E+03  0.29040779774E+03  0.00000000000E+00 0. -1.
          2    1    6    6  502    0 -0.51809348042E+02  0.10742837901E+03  0.21889373524E+03  0.24927802248E+03  0.00000000000E+00 0. -1.
          1    1    5    5  503    0  0.34317893878E+02 -0.71629787416E+02  0.28692514852E+03  0.29771561118E+03  0.00000000000E+00 0. -1.
         -2    1    5    5    0  503  0.19152972153E+03 -0.32114965551E+03  0.81682361105E+03  0.89834377998E+03  0.00000000000E+00 0.  1.
         -3    1    6    6    0  502 -0.18285278193E+02  0.32837711732E+03  0.71904563103E+03  0.79069115467E+03  0.00000000000E+00 0.  1.
<mgrwt>
<rscale>  0 0.18634771E+04</rscale>
<asrwt>0</asrwt>
<pdfrwt beam="1">  1        2 0.61628131E-01 0.18634771E+04</pdfrwt>
<pdfrwt beam="2">  1       -2 0.33341293E+00 0.18634771E+04</pdfrwt>
<totfact> 0.14780024E+00</totfact>
</mgrwt>
</event>
<event>
12    1  0.1477245E-007  0.1689036E+04  0.7818608E-02  0.8767642E-01
         -2   -1    0    0    0  501 -0.00000000000E+00  0.00000000000E+00  0.19764348448E+03  0.19764348448E+03  0.00000000000E+00 0.  1.
          2   -1    0    0  501    0  0.00000000000E+00 -0.00000000000E+00 -0.36085736309E+04  0.36085736309E+04  0.00000000000E+00 0. -1.
         23    2    1    2    0    0 -0.52754457064E+03 -0.26977404082E+03 -0.14343043883E+04  0.15545294308E+04  0.90837028376E+02 0.  0.
        254    2    1    2    0    0  0.52754457064E+03  0.26977404082E+03 -0.19766257581E+04  0.22516876846E+04  0.90109196772E+03 0.  0.
        -24    2    4    4    0    0  0.19899984018E+03  0.50814323224E+03 -0.15986641850E+04  0.16911877697E+04  0.81107428900E+02 0.  0.
         24    2    4    4    0    0  0.32854473046E+03 -0.23836919143E+03 -0.37796157313E+03  0.56049991496E+03  0.80893093461E+02 0.  0.
         13    1    3    3    0    0 -0.28283285645E+03 -0.17604502028E+03 -0.89334815977E+03  0.95344491630E+03  0.00000000000E+00 0. -1.
        -13    1    3    3    0    0 -0.24471171419E+03 -0.93729020538E+02 -0.54095622857E+03  0.60108451450E+03  0.00000000000E+00 0.  1.
          4    1    6    6  502    0  0.27212406854E+03 -0.22195594206E+03 -0.34860732778E+03  0.49481614553E+03  0.00000000000E+00 0. -1.
          1    1    5    5  503    0  0.15339778418E+03  0.28915606562E+03 -0.99123835272E+03  0.10438848511E+04  0.00000000000E+00 0. -1.
         -2    1    5    5    0  503  0.45602056000E+02  0.21898716663E+03 -0.60742583227E+03  0.64730291855E+03  0.00000000000E+00 0.  1.
         -3    1    6    6    0  502  0.56420661922E+02 -0.16413249373E+02 -0.29354245350E+02  0.65683769432E+02  0.00000000000E+00 0.  1.
<mgrwt>
<rscale>  0 0.16890365E+04</rscale>
<asrwt>0</asrwt>
<pdfrwt beam="1">  1        2 0.55516515E+00 0.16890365E+04</pdfrwt>
<pdfrwt beam="2">  1       -2 0.30406691E-01 0.16890365E+04</pdfrwt>
<totfact> 0.65573305E+00</totfact>
</mgrwt>
</event>
<event>
12    1  0.1477245E-007  0.3011170E+04  0.7818608E-02  0.8240548E-01
          2   -1    0    0  501    0  0.00000000000E+00  0.00000000000E+00  0.20266784840E+04  0.20266784840E+04  0.00000000000E+00 0. -1.
         -2   -1    0    0    0  501 -0.00000000000E+00 -0.00000000000E+00 -0.11184737603E+04  0.11184737603E+04  0.00000000000E+00 0.  1.
         23    2    1    2    0    0  0.54917144149E+02 -0.13479719864E+04  0.65702225258E+03  0.15031623684E+04  0.88173106404E+02 0.  0.
        254    2    1    2    0    0 -0.54917144149E+02  0.13479719864E+04  0.25118247113E+03  0.16419898758E+04  0.90166166029E+03 0.  0.
        -24    2    4    4    0    0 -0.52392621264E+02 -0.11358596829E+03  0.78867707303E+02  0.16816037812E+03  0.80068961266E+02 0.  0.
         24    2    4    4    0    0 -0.25245228851E+01  0.14615579547E+04  0.17231476382E+03  0.14738294977E+04  0.79517182402E+02 0.  0.
         11    1    3    3    0    0  0.18220377107E+02 -0.77363796954E+03  0.42279483813E+03  0.88181810211E+03  0.00000000000E+00 0. -1.
        -11    1    3    3    0    0  0.36696767042E+02 -0.57433401685E+03  0.23422741445E+03  0.62134426633E+03  0.00000000000E+00 0.  1.
          2    1    6    6  502    0 -0.39739482379E+02  0.59053598989E+03  0.64791947082E+02  0.59540740524E+03  0.00000000000E+00 0. -1.
          1    1    5    5  503    0 -0.73737468796E+01 -0.25909515319E+02 -0.16025326271E+02  0.31344636051E+02  0.00000000000E+00 0. -1.
         -2    1    5    5    0  503 -0.45018874385E+02 -0.87676452974E+02  0.94893033574E+02  0.13681574207E+03  0.00000000000E+00 0.  1.
         -1    1    6    6    0  502  0.37214959494E+02  0.87102196480E+03  0.10752281674E+03  0.87842209244E+03  0.00000000000E+00 0.  1.
<mgrwt>
<rscale>  0 0.30111703E+04</rscale>
<asrwt>0</asrwt>
<pdfrwt beam="1">  1        2 0.31179669E+00 0.30111703E+04</pdfrwt>
<pdfrwt beam="2">  1       -2 0.17207289E+00 0.30111703E+04</pdfrwt>
<totfact> 0.11377829E+00</totfact>
</mgrwt>
</event>
<event>
12    1  0.1477245E-007  0.1151696E+04  0.7818608E-02  0.9156220E-01
         -2   -1    0    0    0  501 -0.00000000000E+00  0.00000000000E+00  0.18692654317E+03  0.18692654317E+03  0.00000000000E+00 0.  1.
          2   -1    0    0  501    0  0.00000000000E+00 -0.00000000000E+00 -0.17739647326E+04  0.17739647326E+04  0.00000000000E+00 0. -1.
         23    2    1    2    0    0 -0.48177452269E+02  0.59176766939E+02  0.20635224337E+02  0.11934296285E+03  0.89409024403E+02 0.  0.
        254    2    1    2    0    0  0.48177452269E+02 -0.59176766939E+02 -0.16076734137E+04  0.18415483129E+04  0.89490973110E+03 0.  0.
        -24    2    4    4    0    0 -0.20997443090E+03 -0.11847161154E+02 -0.15093882095E+02  0.22542811932E+03  0.79752083638E+02 0.  0.
         24    2    4    4    0    0  0.25815188317E+03 -0.47329605785E+02 -0.15925795316E+04  0.16161201936E+04  0.81562424532E+02 0.  0.
         13    1    3    3    0    0 -0.55569788967E+02  0.74507705867E+02  0.32642571442E+02  0.98513639410E+02  0.00000000000E+00 0.  1.
        -13    1    3    3    0    0  0.73923366981E+01 -0.15330938928E+02 -0.12007347105E+02  0.20829323435E+02  0.00000000000E+00 0. -1.
          4    1    6    6  502    0  0.37340046450E+02 -0.38155132987E+02 -0.34797329448E+03  0.35204475129E+03  0.00000000000E+00 0. -1.
          1    1    5    5  503    0 -0.10194562942E+03 -0.20993162109E+02 -0.44342780195E+02  0.11313667120E+03  0.00000000000E+00 0. -1.
         -2    1    5    5    0  503 -0.10802880147E+03  0.91460009545E+01  0.29248898100E+02  0.11229144812E+03  0.00000000000E+00 0.  1.
         -3    1    6    6    0  502  0.22081183672E+03 -0.91744727984E+01 -0.12446062372E+04  0.12640754423E+04  0.00000000000E+00 0.  1.
<mgrwt>
<rscale>  0 0.11516963E+04</rscale>
<asrwt>0</asrwt>
<pdfrwt beam="1">  1        2 0.27291766E+00 0.11516963E+04</pdfrwt>
<pdfrwt beam="2">  1       -2 0.28757929E-01 0.11516963E+04</pdfrwt>
<totfact> 0.97981423E+01</totfact>
</mgrwt>
</event>
<event>
12    1  0.1477245E-007  0.2334848E+04  0.7818608E-02  0.8464307E-01
         -2   -1    0    0    0  501 -0.00000000000E+00  0.00000000000E+00  0.36705575044E+03  0.36705575044E+03  0.00000000000E+00 0.  1.
          2   -1    0    0  501    0  0.00000000000E+00 -0.00000000000E+00 -0.37130005995E+04  0.37130005995E+04  0.00000000000E+00 0. -1.
         23    2    1    2    0    0  0.58257607474E+02 -0.22574717285E+03 -0.31004181872E+04  0.31106204256E+04  0.94925032669E+02 0.  0.
        254    2    1    2    0    0 -0.58257607474E+02  0.22574717285E+03 -0.24552666193E+03  0.96943592440E+03  0.90838699623E+03 0.  0.
        -24    2    4    4    0    0 -0.12842438387E+03 -0.33033823142E+03 -0.34479368077E+02  0.36510595926E+03  0.80606235204E+02 0.  0.
         24    2    4    4    0    0  0.70166776395E+02  0.55608540427E+03 -0.21104729385E+03  0.60432996514E+03  0.80742759214E+02 0.  0.
         13    1    3    3    0    0  0.63419782731E+02 -0.72328147351E+02 -0.13918899118E+04  0.13952100043E+04  0.00000000000E+00 0. -1.
        -13    1    3    3    0    0 -0.51621752570E+01 -0.15341902550E+03 -0.17085282754E+04  0.17154104212E+04  0.00000000000E+00 0.  1.
          4    1    6    6  502    0  0.32100333522E+02  0.14792465561E+03 -0.22187600251E+02  0.15298504749E+03  0.00000000000E+00 0. -1.
          1    1    5    5  503    0  0.89690961620E+01 -0.93593646864E+01  0.46503837623E+01  0.13772017370E+02  0.00000000000E+00 0. -1.
         -2    1    5    5    0  503 -0.13739348003E+03 -0.32097886673E+03 -0.39129751839E+02  0.35133394189E+03  0.00000000000E+00 0.  1.
         -1    1    6    6    0  502  0.38066442872E+02  0.40816074866E+03 -0.18885969360E+03  0.45134491765E+03  0.00000000000E+00 0.  1.
<mgrwt>
<rscale>  0 0.23348475E+04</rscale>
<asrwt>0</asrwt>
<pdfrwt beam="1">  1        2 0.57123085E+00 0.23348475E+04</pdfrwt>
<pdfrwt beam="2">  1       -2 0.56470117E-01 0.23348475E+04</pdfrwt>
<totfact> 0.15240161E+00</totfact>
</mgrwt>
</event>
<event>
12    1  0.1791409E-007  0.2579580E+04  0.7818608E-02  0.8375171E-01
          1   -1    0    0  501    0  0.00000000000E+00  0.00000000000E+00  0.15338916814E+04  0.15338916814E+04  0.00000000000E+00 0. -1.
         -1   -1    0    0    0  501 -0.00000000000E+00 -0.00000000000E+00 -0.10845345441E+04  0.10845345441E+04  0.00000000000E+00 0.  1.
         23    2    1    2    0    0  0.25353390027E+03 -0.56381483046E+02 -0.91476582370E+03  0.95542565095E+03  0.92646381799E+02 0.  0.
        254    2    1    2    0    0 -0.25353390027E+03  0.56381483046E+02  0.13641229610E+04  0.16630005746E+04  0.91503068146E+03 0.  0.
        -24    2    4    4    0    0 -0.27110032263E+03 -0.18806624770E+03  0.74090011144E+02  0.34742943391E+03  0.79709367970E+02 0.  0.
         24    2    4    4    0    0  0.17566422362E+02  0.24444773074E+03  0.12900329499E+04  0.13155711407E+04  0.80493118281E+02 0.  0.
         11    1    3    3    0    0  0.37877224166E+02 -0.87929214641E+01 -0.52526663426E+02  0.65353270378E+02  0.00000000000E+00 0. -1.
        -11    1    3    3    0    0  0.21565667610E+03 -0.47588561582E+02 -0.86223916028E+03  0.89007238057E+03  0.00000000000E+00 0.  1.
          4    1    6    6  502    0  0.24600332847E+02  0.44098988739E+02  0.15642871289E+03  0.16437712553E+03  0.00000000000E+00 0. -1.
          1    1    5    5  503    0 -0.13139234419E+03 -0.54254712971E+02  0.57239461443E+02  0.15324450378E+03  0.00000000000E+00 0. -1.
         -2    1    5    5    0  503 -0.13970797844E+03 -0.13381153472E+03  0.16850549701E+02  0.19418493013E+03  0.00000000000E+00 0.  1.
         -3    1    6    6    0  502 -0.70339104843E+01  0.20034874200E+03  0.11336042370E+04  0.11511940151E+04  0.00000000000E+00 0.  1.
<mgrwt>
<rscale>  0 0.25795802E+04</rscale>
<asrwt>0</asrwt>
<pdfrwt beam="1">  1        1 0.23598333E+00 0.25795802E+04</pdfrwt>
<pdfrwt beam="2">  1       -1 0.16685147E+00 0.25795802E+04</pdfrwt>
<totfact> 0.14196261E+00</totfact>
</mgrwt>
</event>
<event>
12    1  0.1477245E-007  0.1179449E+04  0.7818608E-02  0.9131038E-01
          1   -1    0    0  501    0  0.00000000000E+00  0.00000000000E+00  0.22707529217E+04  0.22707529217E+04  0.00000000000E+00 0. -1.
         -1   -1    0    0    0  501 -0.00000000000E+00 -0.00000000000E+00 -0.15315391578E+03  0.15315391578E+03  0.00000000000E+00 0.  1.
         23    2    1    2    0    0  0.80139622926E+02  0.20308616508E+03  0.62931125688E+03  0.67191789943E+03  0.88174009397E+02 0.  0.
        254    2    1    2    0    0 -0.80139622926E+02 -0.20308616508E+03  0.14882877491E+04  0.17519889381E+04  0.89821960872E+03 0.  0.
        -24    2    4    4    0    0 -0.22824623405E+03  0.18452203750E+03  0.13414718477E+03  0.33351720531E+03  0.84223116617E+02 0.  0.
         24    2    4    4    0    0  0.14810661112E+03 -0.38760820258E+03  0.13541405643E+04  0.14184717328E+04  0.78674657895E+02 0.  0.
         11    1    3    3    0    0 -0.95638874618E+01  0.90888195471E+02  0.22538881154E+03  0.24321235245E+03  0.00000000000E+00 0.  1.
        -11    1    3    3    0    0  0.89703510388E+02  0.11219796961E+03  0.40392244534E+03  0.42870554698E+03  0.00000000000E+00 0. -1.
          2    1    6    6  502    0  0.15433513055E+03 -0.33780171050E+03  0.12185235095E+04  0.12738637570E+04  0.00000000000E+00 0. -1.
          3    1    5    5  503    0 -0.16648139100E+03  0.87693288983E+02  0.10302917701E+03  0.21452547121E+03  0.00000000000E+00 0. -1.
         -4    1    5    5    0  503 -0.61764843048E+02  0.96828748519E+02  0.31118007758E+02  0.11899173410E+03  0.00000000000E+00 0.  1.
         -1    1    6    6    0  502 -0.62285194262E+01 -0.49806492080E+02  0.13561705481E+03  0.14460797579E+03  0.00000000000E+00 0.  1.
<mgrwt>
<rscale>  0 0.11794485E+04</rscale>
<asrwt>0</asrwt>
<pdfrwt beam="1">  1        1 0.34934658E+00 0.11794485E+04</pdfrwt>
<pdfrwt beam="2">  1       -1 0.23562142E-01 0.11794485E+04</pdfrwt>
<totfact> 0.30077396E+01</totfact>
</mgrwt>
</event>
<event>
12    1  0.1477245E-007  0.1768935E+04  0.7818608E-02  0.8722996E-01
         -1   -1    0    0    0  501 -0.00000000000E+00  0.00000000000E+00  0.38565469770E+03  0.38565469770E+03  0.00000000000E+00 0.  1.
          1   -1    0    0  501    0  0.00000000000E+00 -0.00000000000E+00 -0.20284538469E+04  0.20284538469E+04  0.00000000000E+00 0. -1.
         23    2    1    2    0    0 -0.28868430138E+03  0.28300793054E+03 -0.13084226199E+04  0.13715998496E+04  0.76709063456E+02 0.  0.
        254    2    1    2    0    0  0.28868430138E+03 -0.28300793054E+03 -0.33437652928E+03  0.10425086950E+04  0.90087990391E+03 0.  0.
        -24    2    4    4    0    0  0.81101032690E+02 -0.59438516818E+03 -0.19137138594E+03  0.63439998462E+03  0.77260775851E+02 0.  0.
         24    2    4    4    0    0  0.20758326869E+03  0.31137723763E+03 -0.14300514334E+03  0.40810871041E+03  0.77818063014E+02 0.  0.
         11    1    3    3    0    0 -0.24455531271E+03  0.23887969013E+03 -0.99691563137E+03  0.10539030237E+04  0.00000000000E+00 0. -1.
        -11    1    3    3    0    0 -0.44128988677E+02  0.44128240409E+02 -0.31150698856E+03  0.31769682586E+03  0.00000000000E+00 0.  1.
          2    1    6    6  502    0  0.37406044469E+02  0.10555712322E+03 -0.18719345661E+02  0.11354264541E+03  0.00000000000E+00 0. -1.
          3    1    5    5  503    0  0.93784134802E+02 -0.49808117997E+03 -0.17297485846E+03  0.53553769936E+03  0.00000000000E+00 0. -1.
         -4    1    5    5    0  503 -0.12683102112E+02 -0.96303988207E+02 -0.18396527471E+02  0.98862285260E+02  0.00000000000E+00 0.  1.
         -1    1    6    6    0  502  0.17017722422E+03  0.20582011441E+03 -0.12428579768E+03  0.29456606500E+03  0.00000000000E+00 0.  1.
<mgrwt>
<rscale>  0 0.17689350E+04</rscale>
<asrwt>0</asrwt>
<pdfrwt beam="1">  1        1 0.31206982E+00 0.17689350E+04</pdfrwt>
<pdfrwt beam="2">  1       -1 0.59331492E-01 0.17689350E+04</pdfrwt>
<totfact> 0.77672679E+00</totfact>
</mgrwt>
</event>
<event>
12    1  0.1477245E-007  0.1908607E+04  0.7818608E-02  0.8650584E-01
         -1   -1    0    0    0  501 -0.00000000000E+00  0.00000000000E+00  0.25060483990E+03  0.25060483990E+03  0.00000000000E+00 0.  1.
          1   -1    0    0  501    0  0.00000000000E+00 -0.00000000000E+00 -0.36339869624E+04  0.36339869624E+04  0.00000000000E+00 0. -1.
         23    2    1    2    0    0 -0.55146877710E+03 -0.37758111824E+03 -0.19748710889E+04  0.20870353063E+04  0.94420542709E+02 0.  0.
        254    2    1    2    0    0  0.55146877710E+03  0.37758111824E+03 -0.14085110336E+04  0.17975564960E+04  0.89477411211E+03 0.  0.
        -24    2    4    4    0    0 -0.25494555953E+02  0.50311722158E+03 -0.77927354708E+03  0.93134179862E+03  0.79708052567E+02 0.  0.
         24    2    4    4    0    0  0.57696333305E+03 -0.12553610333E+03 -0.62923748650E+03  0.86621469740E+03  0.75776557400E+02 0.  0.
         11    1    3    3    0    0 -0.63607066662E+02 -0.35120441650E+02 -0.31839915182E+03  0.32658432944E+03  0.00000000000E+00 0.  1.
        -11    1    3    3    0    0 -0.48786171043E+03 -0.34246067659E+03 -0.16564719371E+04  0.17604509768E+04  0.00000000000E+00 0. -1.
          2    1    6    6  502    0  0.53075369347E+03 -0.11984976189E+03 -0.54593541988E+03  0.77078462052E+03  0.00000000000E+00 0. -1.
          1    1    5    5  503    0 -0.15117176214E+02  0.25946797413E+03 -0.47438960973E+03  0.54092297089E+03  0.00000000000E+00 0. -1.
         -2    1    5    5    0  503 -0.10377379739E+02  0.24364924745E+03 -0.30488393735E+03  0.39041882773E+03  0.00000000000E+00 0.  1.
         -1    1    6    6    0  502  0.46209639578E+02 -0.56863414423E+01 -0.83302066628E+02  0.95430076880E+02  0.00000000000E+00 0.  1.
<mgrwt>
<rscale>  0 0.19086065E+04</rscale>
<asrwt>0</asrwt>
<pdfrwt beam="1">  1        1 0.55907494E+00 0.19086065E+04</pdfrwt>
<pdfrwt beam="2">  1       -1 0.38554589E-01 0.19086065E+04</pdfrwt>
<totfact> 0.11970211E+00</totfact>
</mgrwt>
</event>
<event>
12    1  0.1477245E-007  0.2358481E+04  0.7818608E-02  0.8455213E-01
         -2   -1    0    0    0  501 -0.00000000000E+00  0.00000000000E+00  0.31200411803E+03  0.31200411803E+03  0.00000000000E+00 0.  1.
          2   -1    0    0  501    0  0.00000000000E+00 -0.00000000000E+00 -0.44570194464E+04  0.44570194464E+04  0.00000000000E+00 0. -1.
         23    2    1    2    0    0 -0.40929916861E+03  0.82329431939E+03 -0.96837669632E+03  0.13382587242E+04  0.88564333149E+02 0.  0.
        254    2    1    2    0    0  0.40929916861E+03 -0.82329431939E+03 -0.31766386321E+04  0.34307648402E+04  0.91311283235E+03 0.  0.
        -24    2    4    4    0    0  0.45983996913E+03 -0.90920887061E+03 -0.31313640554E+04  0.32939356349E+04  0.80358892641E+02 0.  0.
         24    2    4    4    0    0 -0.50540800520E+02  0.85914551213E+02 -0.45274576641E+02  0.13682920536E+03  0.82077777269E+02 0.  0.
         11    1    3    3    0    0 -0.36236867900E+02  0.45384521184E+02 -0.37845179629E+02  0.69318994363E+02  0.00000000000E+00 0. -1.
        -11    1    3    3    0    0 -0.37306230071E+03  0.77790979821E+03 -0.93053151669E+03  0.12689397298E+04  0.00000000000E+00 0.  1.
          4    1    6    6  502    0 -0.44606030668E+02  0.73487276130E+02  0.36104721125E+01  0.86041346072E+02  0.00000000000E+00 0. -1.
          1    1    5    5  503    0  0.22433232023E+03 -0.42986848269E+03 -0.16183621734E+04  0.16894401518E+04  0.00000000000E+00 0. -1.
         -2    1    5    5    0  503  0.23550764891E+03 -0.47934038792E+03 -0.15130018820E+04  0.16044954831E+04  0.00000000000E+00 0.  1.
         -3    1    6    6    0  502 -0.59347698520E+01  0.12427275083E+02 -0.48885048754E+02  0.50787859286E+02  0.00000000000E+00 0.  1.
<mgrwt>
<rscale>  0 0.23584812E+04</rscale>
<asrwt>0</asrwt>
<pdfrwt beam="1">  1        2 0.68569531E+00 0.23584812E+04</pdfrwt>
<pdfrwt beam="2">  1       -2 0.48000633E-01 0.23584812E+04</pdfrwt>
<totfact> 0.50676375E-01</totfact>
</mgrwt>
</event>
<event>
12    1  0.1477245E-007  0.1953134E+04  0.7818608E-02  0.8628851E-01
         -2   -1    0    0    0  501 -0.00000000000E+00  0.00000000000E+00  0.10700520151E+04  0.10700520151E+04  0.00000000000E+00 0.  1.
          2   -1    0    0  501    0  0.00000000000E+00 -0.00000000000E+00 -0.89124966104E+03  0.89124966104E+03  0.00000000000E+00 0. -1.
         23    2    1    2    0    0  0.71365159505E+03 -0.27888432140E+03  0.16589843365E+03  0.79166361188E+03  0.11015407502E+03 0.  0.
        254    2    1    2    0    0 -0.71365159505E+03  0.27888432140E+03  0.12903920386E+02  0.11696380642E+04  0.88363546008E+03 0.  0.
        -24    2    4    4    0    0  0.54882278783E+02  0.37301229433E+03 -0.50427001098E+02  0.38871581716E+03  0.80042912412E+02 0.  0.
         24    2    4    4    0    0 -0.76853387384E+03 -0.94127972929E+02  0.63330921484E+02  0.78092224707E+03  0.79525843825E+02 0.  0.
         11    1    3    3    0    0  0.70872114717E+03 -0.28065586984E+03  0.17413163305E+03  0.78190485825E+03  0.00000000000E+00 0. -1.
        -11    1    3    3    0    0  0.49304478798E+01  0.17715484418E+01 -0.82331993931E+01  0.97587536307E+01  0.00000000000E+00 0.  1.
          4    1    6    6  502    0 -0.70355824155E+03 -0.64453614060E+02  0.64854983144E+02  0.70947490192E+03  0.00000000000E+00 0. -1.
          3    1    5    5  503    0  0.73689064449E+02  0.29094202398E+03 -0.27118316075E+02  0.30135152663E+03  0.00000000000E+00 0. -1.
         -4    1    5    5    0  503 -0.18806785666E+02  0.82070270347E+02 -0.23308685023E+02  0.87364290528E+02  0.00000000000E+00 0.  1.
         -3    1    6    6    0  502 -0.64975632290E+02 -0.29674358869E+02 -0.15240616596E+01  0.71447345155E+02  0.00000000000E+00 0.  1.
<mgrwt>
<rscale>  0 0.19531344E+04</rscale>
<asrwt>0</asrwt>
<pdfrwt beam="1">  1        2 0.13711533E+00 0.19531344E+04</pdfrwt>
<pdfrwt beam="2">  1       -2 0.16462339E+00 0.19531344E+04</pdfrwt>
<totfact> 0.64564966E+00</totfact>
</mgrwt>
</event>
<event>
12    1  0.1477245E-007  0.2402842E+04  0.7818608E-02  0.8438440E-01
          1   -1    0    0  501    0  0.00000000000E+00  0.00000000000E+00  0.40229547748E+04  0.40229547748E+04  0.00000000000E+00 0. -1.
         -1   -1    0    0    0  501 -0.00000000000E+00 -0.00000000000E+00 -0.35879398014E+03  0.35879398014E+03  0.00000000000E+00 0.  1.
         23    2    1    2    0    0  0.34473087822E+03  0.89246727379E+03  0.19479540841E+04  0.21721511459E+04  0.91532909947E+02 0.  0.
        254    2    1    2    0    0 -0.34473087822E+03 -0.89246727379E+03  0.17162067105E+04  0.22095976090E+04  0.10107516546E+04 0.  0.
        -24    2    4    4    0    0  0.33000260066E+03 -0.18328559677E+03  0.31263848822E+03  0.49673732881E+03  0.80683474752E+02 0.  0.
         24    2    4    4    0    0 -0.67473347888E+03 -0.70918167702E+03  0.14035682223E+04  0.17128602802E+04  0.75383461704E+02 0.  0.
         13    1    3    3    0    0  0.17136999093E+03  0.49323777788E+03  0.96694993610E+03  0.10989282771E+04  0.00000000000E+00 0.  1.
        -13    1    3    3    0    0  0.17336088729E+03  0.39922949590E+03  0.98100414800E+03  0.10732228688E+04  0.00000000000E+00 0. -1.
          4    1    6    6  502    0 -0.22927544948E+03 -0.24965564666E+03  0.54893376613E+03  0.64515382137E+03  0.00000000000E+00 0. -1.
          1    1    5    5  503    0  0.12959793869E+02  0.64581466836E+01  0.23351324005E+02  0.27476321597E+02  0.00000000000E+00 0. -1.
         -2    1    5    5    0  503  0.31704280679E+03 -0.18974374345E+03  0.28928716422E+03  0.46926100722E+03  0.00000000000E+00 0.  1.
         -3    1    6    6    0  502 -0.44545802940E+03 -0.45952603037E+03  0.85463445617E+03  0.10677064588E+04  0.00000000000E+00 0.  1.
<mgrwt>
<rscale>  0 0.24028416E+04</rscale>
<asrwt>0</asrwt>
<pdfrwt beam="1">  1        1 0.61891609E+00 0.24028416E+04</pdfrwt>
<pdfrwt beam="2">  1       -1 0.55199077E-01 0.24028416E+04</pdfrwt>
<totfact> 0.27317079E-01</totfact>
</mgrwt>
</event>
<event>
12    1  0.1477245E-007  0.2034063E+04  0.7818608E-02  0.8590858E-01
          1   -1    0    0  501    0  0.00000000000E+00  0.00000000000E+00  0.20868624850E+04  0.20868624850E+04  0.00000000000E+00 0. -1.
         -1   -1    0    0    0  501 -0.00000000000E+00 -0.00000000000E+00 -0.49565007817E+03  0.49565007817E+03  0.00000000000E+00 0.  1.
         23    2    1    2    0    0  0.71984152016E+03 -0.15073097564E+03  0.19281401129E+03  0.76559790906E+03  0.89840270750E+02 0.  0.
        254    2    1    2    0    0 -0.71984152016E+03  0.15073097564E+03  0.13983983955E+04  0.18169146541E+04  0.89708926339E+03 0.  0.
        -24    2    4    4    0    0 -0.25909455326E+03  0.47178792393E+03  0.94641638776E+03  0.10916187447E+04  0.78826848964E+02 0.  0.
         24    2    4    4    0    0 -0.46074696689E+03 -0.32105694829E+03  0.45198200778E+03  0.72529590938E+03  0.80006807580E+02 0.  0.
         13    1    3    3    0    0  0.61165386899E+03 -0.14130837033E+03  0.19379271602E+03  0.65699629204E+03  0.00000000000E+00 0. -1.
        -13    1    3    3    0    0  0.10818765117E+03 -0.94226053151E+01 -0.97870473033E+00  0.10860161702E+03  0.00000000000E+00 0.  1.
          2    1    6    6  502    0 -0.35298865097E+03 -0.20304450071E+03  0.33352865462E+03  0.52637384095E+03  0.00000000000E+00 0. -1.
          3    1    5    5  503    0 -0.21947243402E+03  0.44443277645E+03  0.87023184024E+03  0.10014949315E+04  0.00000000000E+00 0. -1.
         -4    1    5    5    0  503 -0.39622119248E+02  0.27355147482E+02  0.76184547514E+02  0.90123813209E+02  0.00000000000E+00 0.  1.
         -1    1    6    6    0  502 -0.10775831592E+03 -0.11801244758E+03  0.11845335317E+03  0.19892206843E+03  0.00000000000E+00 0.  1.
<mgrwt>
<rscale>  0 0.20340635E+04</rscale>
<asrwt>0</asrwt>
<pdfrwt beam="1">  1        1 0.32105576E+00 0.20340635E+04</pdfrwt>
<pdfrwt beam="2">  1       -1 0.76253859E-01 0.20340635E+04</pdfrwt>
<totfact> 0.41545232E+00</totfact>
</mgrwt>
</event>
<event>
12    1  0.1477245E-007  0.2092911E+04  0.7818608E-02  0.8564373E-01
          2   -1    0    0  501    0  0.00000000000E+00  0.00000000000E+00  0.48643347948E+04  0.48643347948E+04  0.00000000000E+00 0. -1.
         -2   -1    0    0    0  501 -0.00000000000E+00 -0.00000000000E+00 -0.22512209765E+03  0.22512209765E+03  0.00000000000E+00 0.  1.
         23    2    1    2    0    0  0.49961021772E+02 -0.15429099954E+03  0.39214296056E+04  0.39258425387E+04  0.91256076239E+02 0.  0.
        254    2    1    2    0    0 -0.49961021772E+02  0.15429099954E+03  0.71778309158E+03  0.11636143537E+04  0.90137893326E+03 0.  0.
        -24    2    4    4    0    0 -0.80152387757E+02 -0.21048535474E+01 -0.19952916898E+03  0.22893452687E+03  0.78551210372E+02 0.  0.
         24    2    4    4    0    0  0.30191365985E+02  0.15639585308E+03  0.91731226056E+03  0.93467982682E+03  0.82422168391E+02 0.  0.
         13    1    3    3    0    0  0.15932248461E+02  0.96373290668E+01  0.41968482815E+03  0.42009769058E+03  0.00000000000E+00 0.  1.
        -13    1    3    3    0    0  0.34028773311E+02 -0.16392832860E+03  0.35017447774E+04  0.35057448482E+04  0.00000000000E+00 0. -1.
          4    1    6    6  502    0  0.41231644630E+02  0.11759254632E+03  0.49496220617E+03  0.51040732852E+03  0.00000000000E+00 0. -1.
          3    1    5    5  503    0 -0.14758710177E+02 -0.35562898769E+02 -0.61015950239E+02  0.72149050434E+02  0.00000000000E+00 0. -1.
         -4    1    5    5    0  503 -0.65393677579E+02  0.33458045222E+02 -0.13851321874E+03  0.15678547644E+03  0.00000000000E+00 0.  1.
         -3    1    6    6    0  502 -0.11040278645E+02  0.38803306762E+02  0.42235005439E+03  0.42427249830E+03  0.00000000000E+00 0.  1.
<mgrwt>
<rscale>  0 0.20929111E+04</rscale>
<asrwt>0</asrwt>
<pdfrwt beam="1">  1        2 0.74835912E+00 0.20929111E+04</pdfrwt>
<pdfrwt beam="2">  1       -2 0.34634172E-01 0.20929111E+04</pdfrwt>
<totfact> 0.36889651E-01</totfact>
</mgrwt>
</event>
<event>
12    1  0.1477245E-007  0.2211410E+04  0.7818608E-02  0.8513694E-01
          1   -1    0    0  501    0  0.00000000000E+00  0.00000000000E+00  0.31721973104E+03  0.31721973104E+03  0.00000000000E+00 0. -1.
         -1   -1    0    0    0  501 -0.00000000000E+00 -0.00000000000E+00 -0.38540574476E+04  0.38540574476E+04  0.00000000000E+00 0.  1.
         23    2    1    2    0    0 -0.73768170184E+03  0.43320733778E+03 -0.21061143322E+04  0.22750396727E+04  0.90802209346E+02 0.  0.
        254    2    1    2    0    0  0.73768170184E+03 -0.43320733778E+03 -0.14307233843E+04  0.18962375059E+04  0.90382763056E+03 0.  0.
        -24    2    4    4    0    0  0.83608838277E+03 -0.39609897189E+03 -0.14866227436E+04  0.17528732290E+04  0.81112241017E+02 0.  0.
         24    2    4    4    0    0 -0.98406680938E+02 -0.37108365885E+02  0.55899359297E+02  0.14336427697E+03  0.79797693384E+02 0.  0.
         13    1    3    3    0    0 -0.12330222481E+03  0.39205959334E+02 -0.27894662666E+03  0.30749270953E+03  0.00000000000E+00 0. -1.
        -13    1    3    3    0    0 -0.61437947702E+03  0.39400137844E+03 -0.18271677056E+04  0.19675469632E+04  0.00000000000E+00 0.  1.
          4    1    6    6  502    0 -0.56168690180E+02 -0.34256618549E+02  0.72491146257E+02  0.97894861747E+02  0.00000000000E+00 0. -1.
          1    1    5    5  503    0  0.82897859406E+03 -0.39488878239E+03 -0.14555845095E+04  0.17210081128E+04  0.00000000000E+00 0. -1.
         -2    1    5    5    0  503  0.71097887102E+01 -0.12101895057E+01 -0.31038234108E+02  0.31865116204E+02  0.00000000000E+00 0.  1.
         -3    1    6    6    0  502 -0.42237990759E+02 -0.28517473351E+01 -0.16591786959E+02  0.45469415223E+02  0.00000000000E+00 0.  1.
<mgrwt>
<rscale>  0 0.22114096E+04</rscale>
<asrwt>0</asrwt>
<pdfrwt beam="1">  1        1 0.48803034E-01 0.22114096E+04</pdfrwt>
<pdfrwt beam="2">  1       -1 0.59293193E+00 0.22114096E+04</pdfrwt>
<totfact> 0.34271938E-02</totfact>
</mgrwt>
</event>
<event>
12    1  0.1477245E-007  0.1426060E+04  0.7818608E-02  0.8935168E-01
         -4   -1    0    0    0  501 -0.00000000000E+00  0.00000000000E+00  0.10824504910E+04  0.10824504910E+04  0.00000000000E+00 0.  1.
          4   -1    0    0  501    0  0.00000000000E+00 -0.00000000000E+00 -0.46968564294E+03  0.46968564294E+03  0.00000000000E+00 0. -1.
         23    2    1    2    0    0  0.21215631937E+03  0.34812038905E+03  0.61462107456E+02  0.42205792970E+03  0.90317197958E+02 0.  0.
        254    2    1    2    0    0 -0.21215631937E+03 -0.34812038905E+03  0.55130274061E+03  0.11300782042E+04  0.89830057707E+03 0.  0.
        -24    2    4    4    0    0 -0.25256704965E+02 -0.38340547043E+03 -0.13381558422E+03  0.41459829910E+03  0.79671093504E+02 0.  0.
         24    2    4    4    0    0 -0.18689961441E+03  0.35285081377E+02  0.68511832483E+03  0.71547990513E+03  0.79673538864E+02 0.  0.
         11    1    3    3    0    0  0.10005001996E+03  0.15395976883E+03 -0.17296786092E+02  0.18442558315E+03  0.00000000000E+00 0. -1.
        -11    1    3    3    0    0  0.11210629941E+03  0.19416062022E+03  0.78758893548E+02  0.23763234655E+03  0.00000000000E+00 0.  1.
          2    1    6    6  502    0 -0.16042420992E+03 -0.18231590588E+01  0.54608586089E+03  0.56916519438E+03  0.00000000000E+00 0. -1.
          3    1    5    5  503    0 -0.30785382556E+02 -0.36983940928E+03 -0.14253663013E+03  0.39754951813E+03  0.00000000000E+00 0. -1.
         -4    1    5    5    0  503  0.55286775913E+01 -0.13566061145E+02  0.87210459093E+01  0.17048780973E+02  0.00000000000E+00 0.  1.
         -1    1    6    6    0  502 -0.26475404489E+02  0.37108240436E+02  0.13903246394E+03  0.14631471075E+03  0.00000000000E+00 0.  1.
<mgrwt>
<rscale>  0 0.14260595E+04</rscale>
<asrwt>0</asrwt>
<pdfrwt beam="1">  1        4 0.72259330E-01 0.14260595E+04</pdfrwt>
<pdfrwt beam="2">  1       -4 0.16653084E+00 0.14260595E+04</pdfrwt>
<totfact> 0.75890493E-01</totfact>
</mgrwt>
</event>
<event>
12    1  0.1477245E-007  0.1968285E+04  0.7818608E-02  0.8621594E-01
          2   -1    0    0  501    0  0.00000000000E+00  0.00000000000E+00  0.25486721504E+04  0.25486721504E+04  0.00000000000E+00 0. -1.
         -2   -1    0    0    0  501 -0.00000000000E+00 -0.00000000000E+00 -0.38001597767E+03  0.38001597767E+03  0.00000000000E+00 0.  1.
         23    2    1    2    0    0  0.14669404829E+03  0.33280094763E+03 -0.15706565890E+03  0.40777394558E+03  0.96614465496E+02 0.  0.
        254    2    1    2    0    0 -0.14669404829E+03 -0.33280094763E+03  0.23257218316E+04  0.25209141825E+04  0.90208129500E+03 0.  0.
        -24    2    4    4    0    0  0.46727613966E+02 -0.61178434487E+03  0.13626892188E+04  0.14965899151E+04  0.79974449131E+02 0.  0.
         24    2    4    4    0    0 -0.19342166225E+03  0.27898339724E+03  0.96303261285E+03  0.10243242674E+04  0.81022934713E+02 0.  0.
         13    1    3    3    0    0  0.25631799952E+02  0.49888548285E+01 -0.17753031469E+02  0.31576066374E+02  0.00000000000E+00 0. -1.
        -13    1    3    3    0    0  0.12106224833E+03  0.32781209280E+03 -0.13931262743E+03  0.37619787921E+03  0.00000000000E+00 0.  1.
          4    1    6    6  502    0 -0.18553449885E+03  0.28294798252E+03  0.91650723029E+03  0.97696883996E+03  0.00000000000E+00 0. -1.
          3    1    5    5  503    0  0.36303870854E+02 -0.45070625483E+03  0.91357411833E+03  0.10193486984E+04  0.00000000000E+00 0. -1.
         -4    1    5    5    0  503  0.10423743112E+02 -0.16107809003E+03  0.44911510043E+03  0.47724121673E+03  0.00000000000E+00 0.  1.
         -1    1    6    6    0  502 -0.78871634071E+01 -0.39645852849E+01  0.46525382560E+02  0.47355427413E+02  0.00000000000E+00 0.  1.
<mgrwt>
<rscale>  0 0.19682847E+04</rscale>
<asrwt>0</asrwt>
<pdfrwt beam="1">  1        2 0.39210340E+00 0.19682847E+04</pdfrwt>
<pdfrwt beam="2">  1       -2 0.58463998E-01 0.19682847E+04</pdfrwt>
<totfact> 0.83168716E+00</totfact>
</mgrwt>
</event>
<event>
12    1  0.1477245E-007  0.1553012E+04  0.7818608E-02  0.8849946E-01
          2   -1    0    0  501    0  0.00000000000E+00  0.00000000000E+00  0.14549869205E+04  0.14549869205E+04  0.00000000000E+00 0. -1.
         -2   -1    0    0    0  501 -0.00000000000E+00 -0.00000000000E+00 -0.41441032621E+03  0.41441032621E+03  0.00000000000E+00 0.  1.
         23    2    1    2    0    0 -0.35210993436E+03  0.19809931411E+03  0.72401997808E+03  0.83300081282E+03  0.80378363873E+02 0.  0.
        254    2    1    2    0    0  0.35210993436E+03 -0.19809931411E+03  0.31655661622E+03  0.10363964339E+04  0.90038032676E+03 0.  0.
        -24    2    4    4    0    0  0.12232263013E+03 -0.47568355465E+03  0.42368803453E+03  0.65300452925E+03  0.75270808474E+02 0.  0.
         24    2    4    4    0    0  0.22978730423E+03  0.27758424054E+03 -0.10713141831E+03  0.38339190466E+03  0.75213004079E+02 0.  0.
         11    1    3    3    0    0 -0.31162731011E+03  0.20011969855E+03  0.63335716434E+03  0.73368983349E+03  0.00000000000E+00 0. -1.
        -11    1    3    3    0    0 -0.40482624253E+02 -0.20203844451E+01  0.90662813738E+02  0.99310979326E+02  0.00000000000E+00 0.  1.
          2    1    6    6  502    0  0.15797141289E+03  0.18654430290E+03 -0.35278335618E+02  0.24697834965E+03  0.00000000000E+00 0. -1.
          1    1    5    5  503    0  0.10907526737E+03 -0.42839196975E+03  0.34720371212E+03  0.56210987485E+03  0.00000000000E+00 0. -1.
         -2    1    5    5    0  503  0.13247362758E+02 -0.47291584894E+02  0.76484322417E+02  0.90894654395E+02  0.00000000000E+00 0.  1.
         -1    1    6    6    0  502  0.71815891347E+02  0.91039937644E+02 -0.71853082695E+02  0.13641355500E+03  0.00000000000E+00 0.  1.
<mgrwt>
<rscale>  0 0.15530120E+04</rscale>
<asrwt>0</asrwt>
<pdfrwt beam="1">  1        2 0.22384414E+00 0.15530120E+04</pdfrwt>
<pdfrwt beam="2">  1       -2 0.63755435E-01 0.15530120E+04</pdfrwt>
<totfact> 0.29479600E+01</totfact>
</mgrwt>
</event>
<event>
12    1  0.1477245E-007  0.1743742E+04  0.7818608E-02  0.8736802E-01
          1   -1    0    0  501    0  0.00000000000E+00  0.00000000000E+00  0.52970095514E+03  0.52970095514E+03  0.00000000000E+00 0. -1.
         -1   -1    0    0    0  501 -0.00000000000E+00 -0.00000000000E+00 -0.14350724176E+04  0.14350724176E+04  0.00000000000E+00 0.  1.
         23    2    1    2    0    0  0.28908387110E+02 -0.62586451617E+03 -0.45602327702E+03  0.78063353484E+03  0.94283609839E+02 0.  0.
        254    2    1    2    0    0 -0.28908387110E+02  0.62586451617E+03 -0.44934818544E+03  0.11841398379E+04  0.89873871426E+03 0.  0.
        -24    2    4    4    0    0  0.17349065555E+03  0.39021599363E+03 -0.66765363145E+03  0.79614727078E+03  0.75641099467E+02 0.  0.
         24    2    4    4    0    0 -0.20239904266E+03  0.23564852254E+03  0.21830544601E+03  0.38799256713E+03  0.79908483572E+02 0.  0.
         13    1    3    3    0    0 -0.12204142707E+02 -0.57650680247E+02 -0.74474602457E+02  0.94968460255E+02  0.00000000000E+00 0.  1.
        -13    1    3    3    0    0  0.41112529818E+02 -0.56821383592E+03 -0.38154867457E+03  0.68566507459E+03  0.00000000000E+00 0. -1.
          4    1    6    6  502    0 -0.15076527583E+03  0.12709584730E+03  0.16224168123E+03  0.25535443197E+03  0.00000000000E+00 0. -1.
          3    1    5    5  503    0  0.17217006614E+03  0.38772100771E+03 -0.63682887651E+03  0.76519352418E+03  0.00000000000E+00 0. -1.
         -4    1    5    5    0  503  0.13205894120E+01  0.24949859210E+01 -0.30824754940E+02  0.30953746595E+02  0.00000000000E+00 0.  1.
         -3    1    6    6    0  502 -0.51633766826E+02  0.10855267524E+03  0.56063764784E+02  0.13263813516E+03  0.00000000000E+00 0.  1.
<mgrwt>
<rscale>  0 0.17437422E+04</rscale>
<asrwt>0</asrwt>
<pdfrwt beam="1">  1        1 0.81492456E-01 0.17437422E+04</pdfrwt>
<pdfrwt beam="2">  1       -1 0.22078037E+00 0.17437422E+04</pdfrwt>
<totfact> 0.42159592E+00</totfact>
</mgrwt>
</event>
<event>
12    1  0.1477245E-007  0.1867584E+04  0.7818608E-02  0.8671162E-01
         -2   -1    0    0    0  501 -0.00000000000E+00  0.00000000000E+00  0.94965027375E+03  0.94965027375E+03  0.00000000000E+00 0.  1.
          2   -1    0    0  501    0  0.00000000000E+00 -0.00000000000E+00 -0.91819851131E+03  0.91819851131E+03  0.00000000000E+00 0. -1.
         23    2    1    2    0    0 -0.54801175905E+03  0.44343797697E+03  0.10552769938E+03  0.71869689936E+03  0.91842312325E+02 0.  0.
        254    2    1    2    0    0  0.54801175905E+03 -0.44343797697E+03 -0.74075936939E+02  0.11491518857E+04  0.90449360665E+03 0.  0.
        -24    2    4    4    0    0  0.55067917206E+03 -0.18264091527E+03 -0.41123847921E+03  0.71543911744E+03  0.78299358296E+02 0.  0.
         24    2    4    4    0    0 -0.26674130054E+01 -0.26079706170E+03  0.33716254227E+03  0.43371276825E+03  0.80037259747E+02 0.  0.
         11    1    3    3    0    0 -0.18477938003E+03  0.14303086452E+03  0.78721745393E+02  0.24657323595E+03  0.00000000000E+00 0.  1.
        -11    1    3    3    0    0 -0.36323237903E+03  0.30040711245E+03  0.26805953988E+02  0.47212366341E+03  0.00000000000E+00 0. -1.
          2    1    6    6  502    0  0.23054951048E+02 -0.47599707092E+02  0.36601112394E+02  0.64318771066E+02  0.00000000000E+00 0. -1.
          3    1    5    5  503    0  0.13691201031E+02  0.75322034858E+01 -0.85281887011E+01  0.17802052622E+02  0.00000000000E+00 0. -1.
         -4    1    5    5    0  503  0.53698797103E+03 -0.19017311876E+03 -0.40271029051E+03  0.69763706482E+03  0.00000000000E+00 0.  1.
         -1    1    6    6    0  502 -0.25722364053E+02 -0.21319735461E+03  0.30056142988E+03  0.36939399719E+03  0.00000000000E+00 0.  1.
<mgrwt>
<rscale>  0 0.18675840E+04</rscale>
<asrwt>0</asrwt>
<pdfrwt beam="1">  1        2 0.14126131E+00 0.18675840E+04</pdfrwt>
<pdfrwt beam="2">  1       -2 0.14610004E+00 0.18675840E+04</pdfrwt>
<totfact> 0.85962800E+00</totfact>
</mgrwt>
</event>
<event>
12    1  0.1477245E-007  0.1477485E+04  0.7818608E-02  0.8899565E-01
          2   -1    0    0  501    0  0.00000000000E+00  0.00000000000E+00  0.11709209939E+04  0.11709209939E+04  0.00000000000E+00 0.  1.
         -2   -1    0    0    0  501 -0.00000000000E+00 -0.00000000000E+00 -0.46607794154E+03  0.46607794154E+03  0.00000000000E+00 0. -1.
         23    2    1    2    0    0  0.27296722810E+03 -0.38121465475E+03  0.24979345983E+03  0.53897122024E+03  0.90870694192E+02 0.  0.
        254    2    1    2    0    0 -0.27296722810E+03  0.38121465475E+03  0.45504959256E+03  0.10980277152E+04  0.88247323533E+03 0.  0.
        -24    2    4    4    0    0  0.23320602532E+03 -0.89527091349E+02  0.27443468395E+03  0.37911900705E+03  0.77567231594E+02 0.  0.
         24    2    4    4    0    0 -0.50617325342E+03  0.47074174610E+03  0.18061490861E+03  0.71890870817E+03  0.79992696319E+02 0.  0.
         11    1    3    3    0    0 -0.65404015909E+01 -0.12481240374E+02  0.24194293698E+01  0.14297267316E+02  0.00000000000E+00 0.  1.
        -11    1    3    3    0    0  0.27950762969E+03 -0.36873341438E+03  0.24737403046E+03  0.52467395293E+03  0.00000000000E+00 0. -1.
          4    1    6    6  502    0 -0.15041115657E+03  0.18398750061E+03  0.41334554960E+02  0.24121248275E+03  0.00000000000E+00 0. -1.
          1    1    5    5  503    0  0.68969873990E+02  0.37888502830E+01  0.47375110515E+02  0.83759178607E+02  0.00000000000E+00 0. -1.
         -2    1    5    5    0  503  0.16423615133E+03 -0.93315941632E+02  0.22705957343E+03  0.29535982844E+03  0.00000000000E+00 0.  1.
         -3    1    6    6    0  502 -0.35576209686E+03  0.28675424550E+03  0.13928035365E+03  0.47769622542E+03  0.00000000000E+00 0.  1.
<mgrwt>
<rscale>  0 0.14774850E+04</rscale>
<asrwt>0</asrwt>
<pdfrwt beam="1">  1        2 0.18014169E+00 0.14774850E+04</pdfrwt>
<pdfrwt beam="2">  1       -2 0.71704299E-01 0.14774850E+04</pdfrwt>
<totfact> 0.33657182E+01</totfact>
</mgrwt>
</event>
<event>
12    1  0.1477245E-007  0.1076871E+04  0.7818608E-02  0.9228033E-01
         -2   -1    0    0    0  501 -0.00000000000E+00  0.00000000000E+00  0.65346748313E+03  0.65346748313E+03  0.00000000000E+00 0.  1.
          2   -1    0    0  501    0  0.00000000000E+00 -0.00000000000E+00 -0.44365269020E+03  0.44365269020E+03  0.00000000000E+00 0. -1.
         23    2    1    2    0    0 -0.78453656546E+02  0.85916110460E+02  0.12914112083E+03  0.19891382239E+03  0.96709489650E+02 0.  0.
        254    2    1    2    0    0  0.78453656546E+02 -0.85916110460E+02  0.80673672100E+02  0.89820635094E+03  0.88697793278E+03 0.  0.
        -24    2    4    4    0    0 -0.39050684215E+03 -0.34592159466E+02  0.11910545161E+03  0.41741411433E+03  0.79725924080E+02 0.  0.
         24    2    4    4    0    0  0.46896049870E+03 -0.51323950994E+02 -0.38431779509E+02  0.48079223662E+03  0.84416087494E+02 0.  0.
         13    1    3    3    0    0 -0.46795682387E+02  0.20636236156E+02  0.11379151495E+03  0.12475655898E+03  0.00000000000E+00 0.  1.
        -13    1    3    3    0    0 -0.31657974159E+02  0.65279874303E+02  0.15349605878E+02  0.74157263417E+02  0.00000000000E+00 0. -1.
          4    1    6    6  502    0  0.38378036365E+03 -0.64797703183E+02 -0.78504354574E+01  0.38929132947E+03  0.00000000000E+00 0. -1.
          1    1    5    5  503    0 -0.13952271950E+03  0.21252236123E+02  0.23402906990E+02  0.14305922847E+03  0.00000000000E+00 0. -1.
         -2    1    5    5    0  503 -0.25098412266E+03 -0.55844395589E+02  0.95702544619E+02  0.27435488585E+03  0.00000000000E+00 0.  1.
         -3    1    6    6    0  502  0.85180135046E+02  0.13473752189E+02 -0.30581344051E+02  0.91500907146E+02  0.00000000000E+00 0.  1.
<mgrwt>
<rscale>  0 0.10768707E+04</rscale>
<asrwt>0</asrwt>
<pdfrwt beam="1">  1        2 0.68254259E-01 0.10768707E+04</pdfrwt>
<pdfrwt beam="2">  1       -2 0.10053346E+00 0.10768707E+04</pdfrwt>
<totfact> 0.57334447E+01</totfact>
</mgrwt>
</event>
<event>
12    1  0.1477245E-007  0.2206149E+04  0.7818608E-02  0.8515873E-01
         -2   -1    0    0    0  501 -0.00000000000E+00  0.00000000000E+00  0.66876297718E+03  0.66876297718E+03  0.00000000000E+00 0. -1.
          2   -1    0    0  501    0  0.00000000000E+00 -0.00000000000E+00 -0.18194383904E+04  0.18194383904E+04  0.00000000000E+00 0.  1.
         23    2    1    2    0    0 -0.24341817775E+03 -0.87506643584E+03 -0.32750089712E+03  0.96980155115E+03  0.90909485817E+02 0.  0.
        254    2    1    2    0    0  0.24341817775E+03  0.87506643584E+03 -0.82317451607E+03  0.15183998164E+04  0.89606252132E+03 0.  0.
        -24    2    4    4    0    0  0.29797802711E+03  0.62242542065E+02  0.52998040188E+02  0.31934249097E+03  0.80658512242E+02 0.  0.
         24    2    4    4    0    0 -0.54559849356E+02  0.81282389378E+03 -0.87617255626E+03  0.11990573254E+04  0.80004136439E+02 0.  0.
         13    1    3    3    0    0 -0.80444829314E+02 -0.21628016209E+03 -0.47123452306E+02  0.23551878658E+03  0.00000000000E+00 0. -1.
        -13    1    3    3    0    0 -0.16297334844E+03 -0.65878627375E+03 -0.28037744482E+03  0.73428276457E+03  0.00000000000E+00 0.  1.
          2    1    6    6  502    0 -0.72695719898E+02  0.57770380562E+03 -0.64224865730E+03  0.86689658698E+03  0.00000000000E+00 0. -1.
          3    1    5    5  503    0  0.29466865956E+03  0.71116909066E+02  0.58005322875E+02  0.30862898626E+03  0.00000000000E+00 0. -1.
         -2    1    5    5    0  503  0.33093675476E+01 -0.88743670016E+01 -0.50072826871E+01  0.10713504709E+02  0.00000000000E+00 0.  1.
         -1    1    6    6    0  502  0.18135870543E+02  0.23512008816E+03 -0.23392389896E+03  0.33216073843E+03  0.00000000000E+00 0.  1.
<mgrwt>
<rscale>  0 0.22061487E+04</rscale>
<asrwt>0</asrwt>
<pdfrwt beam="1">  1        2 0.27991359E+00 0.22061487E+04</pdfrwt>
<pdfrwt beam="2">  1       -2 0.10288661E+00 0.22061487E+04</pdfrwt>
<totfact> 0.59349683E+00</totfact>
</mgrwt>
</event>
<event>
12    1  0.1477245E-007  0.1436264E+04  0.7818608E-02  0.8927979E-01
         -2   -1    0    0    0  501 -0.00000000000E+00  0.00000000000E+00  0.52796147659E+03  0.52796147659E+03  0.00000000000E+00 0.  1.
          2   -1    0    0  501    0  0.00000000000E+00 -0.00000000000E+00 -0.97680156978E+03  0.97680156978E+03  0.00000000000E+00 0. -1.
         23    2    1    2    0    0  0.12849258806E+03 -0.38293706802E+03 -0.39960009489E+02  0.41601362223E+03  0.91210680690E+02 0.  0.
        254    2    1    2    0    0 -0.12849258806E+03  0.38293706802E+03 -0.40888008370E+03  0.10887494241E+04  0.92468440156E+03 0.  0.
        -24    2    4    4    0    0 -0.47399649507E+02  0.22038690525E+03  0.28203710302E+03  0.36991638948E+03  0.80474175653E+02 0.  0.
         24    2    4    4    0    0 -0.81092938552E+02  0.16255016276E+03 -0.69091718672E+03  0.71883303467E+03  0.79722974904E+02 0.  0.
         11    1    3    3    0    0  0.10554778547E+03 -0.33329614869E+03 -0.23057888497E+01  0.34961689664E+03  0.00000000000E+00 0. -1.
        -11    1    3    3    0    0  0.22944802589E+02 -0.49640919324E+02 -0.37654220639E+02  0.66396725591E+02  0.00000000000E+00 0.  1.
          2    1    6    6  502    0 -0.68267274194E+02  0.12529650364E+03 -0.63233658888E+03  0.64823544811E+03  0.00000000000E+00 0. -1.
          3    1    5    5  503    0 -0.57601358636E+02  0.22165465448E+03  0.27157608879E+03  0.35524959447E+03  0.00000000000E+00 0. -1.
         -4    1    5    5    0  503  0.10201709129E+02 -0.12677492225E+01  0.10461014221E+02  0.14666795007E+02  0.00000000000E+00 0.  1.
         -1    1    6    6    0  502 -0.12825664359E+02  0.37253659127E+02 -0.58580597839E+02  0.70597586558E+02  0.00000000000E+00 0.  1.
<mgrwt>
<rscale>  0 0.14362640E+04</rscale>
<asrwt>0</asrwt>
<pdfrwt beam="1">  1        2 0.15027716E+00 0.14362640E+04</pdfrwt>
<pdfrwt beam="2">  1       -2 0.81224843E-01 0.14362640E+04</pdfrwt>
<totfact> 0.33819048E+01</totfact>
</mgrwt>
</event>
<event>
12    1  0.1477245E-007  0.2489918E+04  0.7818608E-02  0.8406586E-01
         -2   -1    0    0    0  501 -0.00000000000E+00  0.00000000000E+00  0.66471489184E+03  0.66471489184E+03  0.00000000000E+00 0.  1.
          2   -1    0    0  501    0  0.00000000000E+00 -0.00000000000E+00 -0.23317117126E+04  0.23317117126E+04  0.00000000000E+00 0. -1.
         23    2    1    2    0    0  0.81562112250E+03 -0.61660020473E+03 -0.11535942038E+04  0.15442125862E+04  0.91538496650E+02 0.  0.
        254    2    1    2    0    0 -0.81562112250E+03  0.61660020473E+03 -0.51340261696E+03  0.14522140183E+04  0.89437669903E+03 0.  0.
        -24    2    4    4    0    0 -0.59962801138E+03  0.82242628312E+03 -0.51525337220E+03  0.11433777923E+04  0.76733272484E+02 0.  0.
         24    2    4    4    0    0 -0.21599311112E+03 -0.20582607839E+03  0.18507552430E+01  0.30883622597E+03  0.79743279221E+02 0.  0.
         13    1    3    3    0    0  0.52253845451E+03 -0.43070204336E+03 -0.81100839868E+03  0.10565440404E+04  0.00000000000E+00 0.  1.
        -13    1    3    3    0    0  0.29308266799E+03 -0.18589816137E+03 -0.34258580516E+03  0.48766854581E+03  0.00000000000E+00 0. -1.
          2    1    6    6  502    0 -0.21565804482E+03 -0.18688872463E+03  0.15024754301E+02  0.28576481751E+03  0.00000000000E+00 0. -1.
          3    1    5    5  503    0 -0.28246768958E+03  0.43470616914E+03 -0.29158136746E+03  0.59479168033E+03  0.00000000000E+00 0. -1.
         -4    1    5    5    0  503 -0.31716032181E+03  0.38772011399E+03 -0.22367200473E+03  0.54858611195E+03  0.00000000000E+00 0.  1.
         -1    1    6    6    0  502 -0.33506630056E+00 -0.18937353765E+02 -0.13173999058E+02  0.23071408458E+02  0.00000000000E+00 0.  1.
<mgrwt>
<rscale>  0 0.24899185E+04</rscale>
<asrwt>0</asrwt>
<pdfrwt beam="1">  1        2 0.35872488E+00 0.24899185E+04</pdfrwt>
<pdfrwt beam="2">  1       -2 0.10226383E+00 0.24899185E+04</pdfrwt>
<totfact> 0.30396478E+00</totfact>
</mgrwt>
</event>
<event>
12    1  0.1477245E-007  0.1609821E+04  0.7818608E-02  0.8814537E-01
          2   -1    0    0  501    0  0.00000000000E+00  0.00000000000E+00  0.37943271853E+03  0.37943271853E+03  0.00000000000E+00 0. -1.
         -2   -1    0    0    0  501 -0.00000000000E+00 -0.00000000000E+00 -0.17074982446E+04  0.17074982446E+04  0.00000000000E+00 0.  1.
         23    2    1    2    0    0  0.36498964782E+02  0.17610696653E+03 -0.11206749461E+04  0.11388027024E+04  0.92808523054E+02 0.  0.
        254    2    1    2    0    0 -0.36498964782E+02 -0.17610696653E+03 -0.20739057997E+03  0.94812826080E+03  0.90751887483E+03 0.  0.
        -24    2    4    4    0    0 -0.38124684328E+03 -0.27225309255E+03  0.81317067328E+02  0.48145521177E+03  0.75602603045E+02 0.  0.
         24    2    4    4    0    0  0.34474787850E+03  0.96146126018E+02 -0.28870764730E+03  0.46667304903E+03  0.79601832869E+02 0.  0.
         11    1    3    3    0    0  0.43506487170E+02  0.14914270092E+03 -0.69208086797E+03  0.70930408675E+03  0.00000000000E+00 0.  1.
        -11    1    3    3    0    0 -0.70075223881E+01  0.26964265612E+02 -0.42859407815E+03  0.42949861561E+03  0.00000000000E+00 0. -1.
          2    1    6    6  502    0  0.31551804043E+03  0.79443870837E+02 -0.28548061654E+03  0.43285349123E+03  0.00000000000E+00 0. -1.
          3    1    5    5  503    0 -0.13202739834E+03 -0.61513046305E+02  0.48109105449E+02  0.15339352922E+03  0.00000000000E+00 0. -1.
         -4    1    5    5    0  503 -0.24921944494E+03 -0.21074004625E+03  0.33207961879E+02  0.32806168255E+03  0.00000000000E+00 0.  1.
         -1    1    6    6    0  502  0.29229838071E+02  0.16702255181E+02 -0.32270307602E+01  0.33819557793E+02  0.00000000000E+00 0.  1.
<mgrwt>
<rscale>  0 0.16098207E+04</rscale>
<asrwt>0</asrwt>
<pdfrwt beam="1">  1        2 0.58374265E-01 0.16098207E+04</pdfrwt>
<pdfrwt beam="2">  1       -2 0.26269203E+00 0.16098207E+04</pdfrwt>
<totfact> 0.43476438E+00</totfact>
</mgrwt>
</event>
<event>
12    1  0.1477245E-007  0.1766942E+04  0.7818608E-02  0.8724080E-01
         -2   -1    0    0    0  501 -0.00000000000E+00  0.00000000000E+00  0.34849706381E+03  0.34849706381E+03  0.00000000000E+00 0.  1.
          2   -1    0    0  501    0  0.00000000000E+00 -0.00000000000E+00 -0.22396772458E+04  0.22396772458E+04  0.00000000000E+00 0. -1.
         23    2    1    2    0    0 -0.37591416819E+03  0.26415589588E+03 -0.29109956464E+02  0.47005559181E+03  0.94947725934E+02 0.  0.
        254    2    1    2    0    0  0.37591416819E+03 -0.26415589588E+03 -0.18620702256E+04  0.21181187178E+04  0.89890576743E+03 0.  0.
        -24    2    4    4    0    0  0.10522368659E+02 -0.17870682236E+03  0.20531505027E+02  0.19683364640E+03  0.79215484961E+02 0.  0.
         24    2    4    4    0    0  0.36539179953E+03 -0.85449073514E+02 -0.18826017306E+04  0.19212850714E+04  0.79588556541E+02 0.  0.
         13    1    3    3    0    0 -0.76673376226E+02  0.65620444189E+02 -0.45207935145E+02  0.11058303088E+03  0.00000000000E+00 0. -1.
        -13    1    3    3    0    0 -0.29924079196E+03  0.19853545169E+03  0.16097978681E+02  0.35947256094E+03  0.00000000000E+00 0.  1.
          4    1    6    6  502    0  0.27326619452E+03 -0.28921762647E+02 -0.12966410889E+04  0.13254391706E+04  0.00000000000E+00 0. -1.
          1    1    5    5  503    0  0.18486776294E+02 -0.98452997486E+02  0.48730760890E+02  0.11139766904E+03  0.00000000000E+00 0. -1.
         -2    1    5    5    0  503 -0.79644076354E+01 -0.80253824876E+02 -0.28199255863E+02  0.85435977360E+02  0.00000000000E+00 0.  1.
         -3    1    6    6    0  502  0.92125605011E+02 -0.56527310867E+02 -0.58596064166E+03  0.59584590084E+03  0.00000000000E+00 0.  1.
<mgrwt>
<rscale>  0 0.17669419E+04</rscale>
<asrwt>0</asrwt>
<pdfrwt beam="1">  1        2 0.34456573E+00 0.17669419E+04</pdfrwt>
<pdfrwt beam="2">  1       -2 0.53614934E-01 0.17669419E+04</pdfrwt>
<totfact> 0.15225102E+01</totfact>
</mgrwt>
</event>
<event>
12    1  0.1477245E-007  0.1892156E+04  0.7818608E-02  0.8658770E-01
         -2   -1    0    0    0  501 -0.00000000000E+00  0.00000000000E+00  0.53957487780E+03  0.53957487780E+03  0.00000000000E+00 0. -1.
          2   -1    0    0  501    0  0.00000000000E+00 -0.00000000000E+00 -0.16588318764E+04  0.16588318764E+04  0.00000000000E+00 0.  1.
         23    2    1    2    0    0  0.18201708012E+03  0.14420320155E+03 -0.12375613750E+04  0.12622932043E+04  0.88888671936E+02 0.  0.
        254    2    1    2    0    0 -0.18201708012E+03 -0.14420320155E+03  0.11830437641E+03  0.93611354986E+03  0.89910392723E+03 0.  0.
        -24    2    4    4    0    0 -0.40569136494E+03  0.14915715739E+03 -0.15957678464E+03  0.46753167520E+03  0.79295497565E+02 0.  0.
         24    2    4    4    0    0  0.22367428482E+03 -0.29336035894E+03  0.27788116105E+03  0.46858187466E+03  0.79123622916E+02 0.  0.
         13    1    3    3    0    0  0.12606728491E+03  0.53902538180E+02 -0.56522522036E+03  0.58161670684E+03  0.00000000000E+00 0. -1.
        -13    1    3    3    0    0  0.55949795211E+02  0.90300663369E+02 -0.67233615462E+03  0.68067649747E+03  0.00000000000E+00 0.  1.
          4    1    6    6  502    0  0.22370603165E+03 -0.28087224170E+03  0.28071165698E+03  0.45577696203E+03  0.00000000000E+00 0. -1.
          3    1    5    5  503    0 -0.33348840792E+03  0.14906342095E+03 -0.14921980272E+03  0.39458962380E+03  0.00000000000E+00 0. -1.
         -4    1    5    5    0  503 -0.72202957018E+02  0.93736437720E-01 -0.10356981916E+02  0.72942051404E+02  0.00000000000E+00 0.  1.
         -3    1    6    6    0  502 -0.31746826851E-01 -0.12488117241E+02 -0.28304959348E+01  0.12804912625E+02  0.00000000000E+00 0.  1.
<mgrwt>
<rscale>  0 0.18921564E+04</rscale>
<asrwt>0</asrwt>
<pdfrwt beam="1">  1        2 0.25520490E+00 0.18921564E+04</pdfrwt>
<pdfrwt beam="2">  1       -2 0.83011522E-01 0.18921564E+04</pdfrwt>
<totfact> 0.12319472E+01</totfact>
</mgrwt>
</event>
<event>
12    1  0.1477245E-007  0.2421390E+04  0.7818608E-02  0.8431539E-01
          2   -1    0    0  501    0  0.00000000000E+00  0.00000000000E+00  0.21321602210E+04  0.21321602210E+04  0.00000000000E+00 0. -1.
         -2   -1    0    0    0  501 -0.00000000000E+00 -0.00000000000E+00 -0.68746330280E+03  0.68746330280E+03  0.00000000000E+00 0.  1.
         23    2    1    2    0    0  0.63970358687E+03  0.41837178489E+03  0.14315814947E+04  0.16254170995E+04  0.91101822708E+02 0.  0.
        254    2    1    2    0    0 -0.63970358687E+03 -0.41837178489E+03  0.13115423486E+02  0.11942064242E+04  0.91744282651E+03 0.  0.
        -24    2    4    4    0    0  0.20950611789E+03 -0.13026728954E+03  0.12632523216E+03  0.28721926018E+03  0.75329004915E+02 0.  0.
         24    2    4    4    0    0 -0.84920970476E+03 -0.28810449535E+03 -0.11320980867E+03  0.90698716406E+03  0.75152725046E+02 0.  0.
         11    1    3    3    0    0  0.18153662322E+01 -0.61681766583E+00  0.25464108134E+02  0.25536186514E+02  0.00000000000E+00 0.  1.
        -11    1    3    3    0    0  0.63788822064E+03  0.41898860255E+03  0.14061173865E+04  0.15998809130E+04  0.00000000000E+00 0. -1.
          2    1    6    6  502    0 -0.45966717095E+03 -0.18927881409E+03 -0.42436598307E+02  0.49892007616E+03  0.00000000000E+00 0. -1.
          3    1    5    5  503    0  0.42726687148E+02 -0.67206659886E+02  0.38129584492E+02  0.88295923696E+02  0.00000000000E+00 0. -1.
         -4    1    5    5    0  503  0.16677943074E+03 -0.63060629651E+02  0.88195647663E+02  0.19892333648E+03  0.00000000000E+00 0.  1.
         -1    1    6    6    0  502 -0.38954253381E+03 -0.98825681258E+02 -0.70773210362E+02  0.40806708790E+03  0.00000000000E+00 0.  1.
<mgrwt>
<rscale>  0 0.24213896E+04</rscale>
<asrwt>0</asrwt>
<pdfrwt beam="1">  1        2 0.32802465E+00 0.24213896E+04</pdfrwt>
<pdfrwt beam="2">  1       -2 0.10576359E+00 0.24213896E+04</pdfrwt>
<totfact> 0.36551656E+00</totfact>
</mgrwt>
</event>
<event>
12    1  0.1477245E-007  0.1581374E+04  0.7818608E-02  0.8832073E-01
          2   -1    0    0  501    0  0.00000000000E+00  0.00000000000E+00  0.23608959797E+04  0.23608959797E+04  0.00000000000E+00 0. -1.
         -2   -1    0    0    0  501 -0.00000000000E+00 -0.00000000000E+00 -0.26480874705E+03  0.26480874705E+03  0.00000000000E+00 0.  1.
         23    2    1    2    0    0 -0.16004875630E+03  0.23146954856E+03 -0.34821422157E+02  0.29760298810E+03  0.90339641255E+02 0.  0.
        254    2    1    2    0    0  0.16004875630E+03 -0.23146954856E+03  0.21309086548E+04  0.23281017386E+04  0.89447876110E+03 0.  0.
        -24    2    4    4    0    0 -0.30301892996E+03 -0.32836526694E+03  0.92724179135E+03  0.10324588439E+04  0.80930243230E+02 0.  0.
         24    2    4    4    0    0  0.46306768626E+03  0.96895718382E+02  0.12036668634E+04  0.12956428947E+04  0.77821142616E+02 0.  0.
         13    1    3    3    0    0 -0.62232580747E+02  0.49198014996E+02  0.23393546313E+02  0.82707900439E+02  0.00000000000E+00 0. -1.
        -13    1    3    3    0    0 -0.97816175556E+02  0.18227153356E+03 -0.58214968469E+02  0.21489508766E+03  0.00000000000E+00 0.  1.
          2    1    6    6  502    0  0.35590998658E+03  0.98085314077E+02  0.99030270025E+03  0.10568784630E+04  0.00000000000E+00 0. -1.
          3    1    5    5  503    0 -0.22057012936E+03 -0.20084793805E+03  0.67595152591E+03  0.73885150170E+03  0.00000000000E+00 0. -1.
         -4    1    5    5    0  503 -0.82448800602E+02 -0.12751732888E+03  0.25129026544E+03  0.29360734219E+03  0.00000000000E+00 0.  1.
         -1    1    6    6    0  502  0.10715769968E+03 -0.11895956959E+01  0.21336416318E+03  0.23876443175E+03  0.00000000000E+00 0.  1.
<mgrwt>
<rscale>  0 0.15813740E+04</rscale>
<asrwt>0</asrwt>
<pdfrwt beam="1">  1        2 0.36321475E+00 0.15813740E+04</pdfrwt>
<pdfrwt beam="2">  1       -2 0.40739809E-01 0.15813740E+04</pdfrwt>
<totfact> 0.22966681E+01</totfact>
</mgrwt>
</event>
<event>
12    1  0.1477245E-007  0.2822228E+04  0.7818608E-02  0.8296401E-01
         -2   -1    0    0    0  501 -0.00000000000E+00  0.00000000000E+00  0.11237276367E+04  0.11237276367E+04  0.00000000000E+00 0.  1.
          2   -1    0    0  501    0  0.00000000000E+00 -0.00000000000E+00 -0.17719972503E+04  0.17719972503E+04  0.00000000000E+00 0. -1.
         23    2    1    2    0    0  0.80974753825E+03  0.16528462980E+03 -0.12777207587E+04  0.15244755585E+04  0.91898350178E+02 0.  0.
        254    2    1    2    0    0 -0.80974753825E+03 -0.16528462980E+03  0.62945114501E+03  0.13712493285E+04  0.89504519012E+03 0.  0.
        -24    2    4    4    0    0 -0.31424097413E+03 -0.44052171122E+03  0.57933272176E+03  0.79675374527E+03  0.79895933680E+02 0.  0.
         24    2    4    4    0    0 -0.49550656412E+03  0.27523708142E+03  0.50118423249E+02  0.57449558321E+03  0.79063978536E+02 0.  0.
         13    1    3    3    0    0  0.65155022082E+03  0.16350941064E+03 -0.10695676313E+04  0.12630233313E+04  0.00000000000E+00 0. -1.
        -13    1    3    3    0    0  0.15819731743E+03  0.17752191648E+01 -0.20815312740E+03  0.26145222717E+03  0.00000000000E+00 0.  1.
          2    1    6    6  502    0 -0.38939851574E+03  0.22415852121E+03  0.78493438224E+01  0.44937719000E+03  0.00000000000E+00 0. -1.
          3    1    5    5  503    0 -0.23640720587E+03 -0.34793010853E+03  0.49342171260E+03  0.64838932277E+03  0.00000000000E+00 0. -1.
         -4    1    5    5    0  503 -0.77833768255E+02 -0.92591602693E+02  0.85911009160E+02  0.14836442250E+03  0.00000000000E+00 0.  1.
         -1    1    6    6    0  502 -0.10610804838E+03  0.51078560216E+02  0.42269079427E+02  0.12511839321E+03  0.00000000000E+00 0.  1.
<mgrwt>
<rscale>  0 0.28222277E+04</rscale>
<asrwt>0</asrwt>
<pdfrwt beam="1">  1        2 0.27261496E+00 0.28222277E+04</pdfrwt>
<pdfrwt beam="2">  1       -2 0.17288118E+00 0.28222277E+04</pdfrwt>
<totfact> 0.15798324E+00</totfact>
</mgrwt>
</event>
<event>
12    1  0.1477245E-007  0.1492176E+04  0.7818608E-02  0.8889673E-01
          1   -1    0    0  501    0  0.00000000000E+00  0.00000000000E+00  0.15403060215E+04  0.15403060215E+04  0.00000000000E+00 0. -1.
         -1   -1    0    0    0  501 -0.00000000000E+00 -0.00000000000E+00 -0.36138747024E+03  0.36138747024E+03  0.00000000000E+00 0.  1.
         23    2    1    2    0    0 -0.10145768503E+03 -0.48689926772E+03  0.67132906924E+03  0.84047119682E+03  0.91348534309E+02 0.  0.
        254    2    1    2    0    0  0.10145768503E+03  0.48689926772E+03  0.50758948206E+03  0.10612222950E+04  0.78815044140E+03 0.  0.
        -24    2    4    4    0    0 -0.51362267405E+02 -0.53389856805E+02 -0.15447594075E+03  0.18934220903E+03  0.80616974196E+02 0.  0.
         24    2    4    4    0    0  0.15281995243E+03  0.54028912453E+03  0.66206542281E+03  0.87188008593E+03  0.81104773127E+02 0.  0.
         11    1    3    3    0    0 -0.80866239888E+02 -0.32068919310E+03  0.37432214388E+03  0.49949772244E+03  0.00000000000E+00 0.  1.
        -11    1    3    3    0    0 -0.20591445139E+02 -0.16621007462E+03  0.29700692537E+03  0.34097347439E+03  0.00000000000E+00 0. -1.
          4    1    6    6  502    0  0.23553210462E+02  0.22939266489E+03  0.27224812998E+03  0.35678395803E+03  0.00000000000E+00 0. -1.
          1    1    5    5  503    0 -0.17788768023E+02  0.17369486746E+02 -0.69331260312E+02  0.73654348100E+02  0.00000000000E+00 0. -1.
         -2    1    5    5    0  503 -0.33573499382E+02 -0.70759343551E+02 -0.85144680436E+02  0.11568786093E+03  0.00000000000E+00 0.  1.
         -3    1    6    6    0  502  0.12926674197E+03  0.31089645963E+03  0.38981729283E+03  0.51509612790E+03  0.00000000000E+00 0.  1.
<mgrwt>
<rscale>  0 0.14921760E+04</rscale>
<asrwt>0</asrwt>
<pdfrwt beam="1">  1        1 0.23697015E+00 0.14921760E+04</pdfrwt>
<pdfrwt beam="2">  1       -1 0.55598073E-01 0.14921760E+04</pdfrwt>
<totfact> 0.19425105E+01</totfact>
</mgrwt>
</event>
<event>
12    1  0.1477245E-007  0.1574290E+04  0.7818608E-02  0.8836500E-01
         -1   -1    0    0    0  501 -0.00000000000E+00  0.00000000000E+00  0.17491676338E+04  0.17491676338E+04  0.00000000000E+00 0.  1.
          1   -1    0    0  501    0  0.00000000000E+00 -0.00000000000E+00 -0.35422399379E+03  0.35422399379E+03  0.00000000000E+00 0. -1.
         23    2    1    2    0    0 -0.35825494538E+03  0.15633302431E+02 -0.41318327069E+02  0.37233352479E+03  0.91290982564E+02 0.  0.
        254    2    1    2    0    0  0.35825494538E+03 -0.15633302431E+02  0.14362619671E+04  0.17310581028E+04  0.89728630391E+03 0.  0.
        -24    2    4    4    0    0  0.10314406327E+03 -0.33281058306E+03  0.16403145798E+03  0.39290173425E+03  0.77870864809E+02 0.  0.
         24    2    4    4    0    0  0.25511088211E+03  0.31717728063E+03  0.12722305091E+04  0.13381563686E+04  0.80056285759E+02 0.  0.
         13    1    3    3    0    0 -0.35724885674E+03  0.24915483658E+02 -0.32664493211E+02  0.35960324816E+03  0.00000000000E+00 0. -1.
        -13    1    3    3    0    0 -0.10060886367E+01 -0.92821812267E+01 -0.86538338584E+01  0.12730276632E+02  0.00000000000E+00 0.  1.
          4    1    6    6  502    0  0.13355207630E+03  0.20429167268E+03  0.85504867073E+03  0.88920159352E+03  0.00000000000E+00 0. -1.
          1    1    5    5  503    0  0.11539148357E+03 -0.29516146827E+03  0.15228258321E+03  0.35160414101E+03  0.00000000000E+00 0. -1.
         -2    1    5    5    0  503 -0.12247420301E+02 -0.37649114795E+02  0.11748874772E+02  0.41297593238E+02  0.00000000000E+00 0.  1.
         -3    1    6    6    0  502  0.12155880581E+03  0.11288560796E+03  0.41718183838E+03  0.44895477504E+03  0.00000000000E+00 0.  1.
<mgrwt>
<rscale>  0 0.15742899E+04</rscale>
<asrwt>0</asrwt>
<pdfrwt beam="1">  1        1 0.54496000E-01 0.15742899E+04</pdfrwt>
<pdfrwt beam="2">  1       -1 0.26910271E+00 0.15742899E+04</pdfrwt>
<totfact> 0.35530759E+00</totfact>
</mgrwt>
</event>
<event>
12    1  0.1477245E-007  0.1955858E+04  0.7818608E-02  0.8627541E-01
          1   -1    0    0  501    0  0.00000000000E+00  0.00000000000E+00  0.85198725591E+03  0.85198725591E+03  0.00000000000E+00 0. -1.
         -1   -1    0    0    0  501 -0.00000000000E+00 -0.00000000000E+00 -0.11224878166E+04  0.11224878166E+04  0.00000000000E+00 0.  1.
         23    2    1    2    0    0  0.82022850261E+02 -0.47473011235E+03  0.50949430120E+03  0.70676993579E+03  0.88559989004E+02 0.  0.
        254    2    1    2    0    0 -0.82022850261E+02  0.47473011235E+03 -0.77999486191E+03  0.12677051367E+04  0.87555005657E+03 0.  0.
        -24    2    4    4    0    0  0.17671596833E+03  0.64876289681E+03 -0.55504861085E+03  0.87571760398E+03  0.81734520060E+02 0.  0.
         24    2    4    4    0    0 -0.25873881860E+03 -0.17403278446E+03 -0.22494625107E+03  0.39198753276E+03  0.76290390294E+02 0.  0.
         13    1    3    3    0    0  0.46510146889E+02 -0.42336891831E+03  0.46159022059E+03  0.62806844094E+03  0.00000000000E+00 0. -1.
        -13    1    3    3    0    0  0.35512703372E+02 -0.51361194043E+02  0.47904080601E+02  0.78701494856E+02  0.00000000000E+00 0.  1.
          4    1    6    6  502    0 -0.21373839207E+03 -0.13653826794E+03 -0.14269992413E+03  0.29101557897E+03  0.00000000000E+00 0. -1.
          3    1    5    5  503    0  0.76603946293E+02  0.39708622453E+03 -0.29842200012E+03  0.50259459254E+03  0.00000000000E+00 0. -1.
         -4    1    5    5    0  503  0.10011202204E+03  0.25167667229E+03 -0.25662661073E+03  0.37312301144E+03  0.00000000000E+00 0.  1.
         -3    1    6    6    0  502 -0.45000426524E+02 -0.37494516522E+02 -0.82246326935E+02  0.10097195378E+03  0.00000000000E+00 0.  1.
<mgrwt>
<rscale>  0 0.19558582E+04</rscale>
<asrwt>0</asrwt>
<pdfrwt beam="1">  1        1 0.13107496E+00 0.19558582E+04</pdfrwt>
<pdfrwt beam="2">  1       -1 0.17269043E+00 0.19558582E+04</pdfrwt>
<totfact> 0.43681246E+00</totfact>
</mgrwt>
</event>
<event>
12    1  0.3201145E-007  0.2096248E+04  0.7818608E-02  0.8562898E-01
          1   -1    0    0  501    0  0.00000000000E+00  0.00000000000E+00  0.25810788683E+04  0.25810788683E+04  0.00000000000E+00 0. -1.
         -1   -1    0    0    0  501 -0.00000000000E+00 -0.00000000000E+00 -0.42562196807E+03  0.42562196807E+03  0.00000000000E+00 0.  1.
         23    2    1    2    0    0  0.25047706308E+03  0.49874555581E+03  0.17868452978E+04  0.18742447749E+04  0.92149170483E+02 0.  0.
        254    2    1    2    0    0 -0.25047706308E+03 -0.49874555581E+03  0.36861160250E+03  0.11324560615E+04  0.91383605156E+03 0.  0.
        -24    2    4    4    0    0  0.10966778863E+02 -0.65976425804E+03  0.45261680387E+03  0.80452891501E+03  0.83640047340E+02 0.  0.
         24    2    4    4    0    0 -0.26144384194E+03  0.16101870223E+03 -0.84005201368E+02  0.32792714648E+03  0.78736488262E+02 0.  0.
         11    1    3    3    0    0  0.25165385563E+03  0.47427497536E+03  0.16479887811E+04  0.17332436176E+04  0.00000000000E+00 0. -1.
        -11    1    3    3    0    0 -0.11767925464E+01  0.24470580452E+02  0.13885651664E+03  0.14100115731E+03  0.00000000000E+00 0.  1.
          2    1    6    6  502    0 -0.25393233711E+03  0.15837007286E+03 -0.95325685959E+02  0.31408549507E+03  0.00000000000E+00 0. -1.
          1    1    5    5  503    0  0.12247849460E+02 -0.66199514643E+03  0.45248298502E+03  0.80195288854E+03  0.00000000000E+00 0. -1.
         -2    1    5    5    0  503 -0.12810705967E+01  0.22308883875E+01  0.13381884537E+00  0.25760264662E+01  0.00000000000E+00 0.  1.
         -1    1    6    6    0  502 -0.75115048288E+01  0.26486293681E+01  0.11320484592E+02  0.13841651409E+02  0.00000000000E+00 0.  1.
<mgrwt>
<rscale>  0 0.20962480E+04</rscale>
<asrwt>0</asrwt>
<pdfrwt beam="1">  1        1 0.39708905E+00 0.20962480E+04</pdfrwt>
<pdfrwt beam="2">  1       -1 0.65480305E-01 0.20962480E+04</pdfrwt>
<totfact> 0.25882913E+00</totfact>
</mgrwt>
</event>
<event>
12    1  0.1477245E-007  0.1525054E+04  0.7818608E-02  0.8867961E-01
          2   -1    0    0  501    0  0.00000000000E+00  0.00000000000E+00  0.16346784868E+04  0.16346784868E+04  0.00000000000E+00 0. -1.
         -2   -1    0    0    0  501 -0.00000000000E+00 -0.00000000000E+00 -0.35569543640E+03  0.35569543640E+03  0.00000000000E+00 0.  1.
         23    2    1    2    0    0  0.17747061791E+03 -0.30042995050E+03  0.86203912481E+03  0.93459866401E+03  0.92785961724E+02 0.  0.
        254    2    1    2    0    0 -0.17747061791E+03  0.30042995050E+03  0.41694392563E+03  0.10557752592E+04  0.90502220167E+03 0.  0.
        -24    2    4    4    0    0 -0.15973865243E+03  0.74941477502E+02  0.67566248346E+03  0.70292631965E+03  0.80330300430E+02 0.  0.
         24    2    4    4    0    0 -0.17731965476E+02  0.22548847299E+03 -0.25871855783E+03  0.35284893959E+03  0.80047535549E+02 0.  0.
         11    1    3    3    0    0  0.50830083169E+02 -0.92002622785E+02  0.16030773832E+03  0.19169442068E+03  0.00000000000E+00 0.  1.
        -11    1    3    3    0    0  0.12664053474E+03 -0.20842732771E+03  0.70173138649E+03  0.74290424333E+03  0.00000000000E+00 0. -1.
          4    1    6    6  502    0 -0.47700259153E+02  0.17129901514E+03 -0.18563176968E+03  0.25705606631E+03  0.00000000000E+00 0. -1.
          3    1    5    5  503    0 -0.60182703272E+02  0.18200178713E+02  0.39170697017E+03  0.39672100367E+03  0.00000000000E+00 0. -1.
         -4    1    5    5    0  503 -0.99555949160E+02  0.56741298789E+02  0.28395551329E+03  0.30620531597E+03  0.00000000000E+00 0.  1.
         -3    1    6    6    0  502  0.29968293677E+02  0.54189457851E+02 -0.73086788151E+02  0.95792873275E+02  0.00000000000E+00 0.  1.
<mgrwt>
<rscale>  0 0.15250543E+04</rscale>
<asrwt>0</asrwt>
<pdfrwt beam="1">  1        2 0.25148899E+00 0.15250543E+04</pdfrwt>
<pdfrwt beam="2">  1       -2 0.54722376E-01 0.15250543E+04</pdfrwt>
<totfact> 0.32309168E+01</totfact>
</mgrwt>
</event>
<event>
12    1  0.1477245E-007  0.1434174E+04  0.7818608E-02  0.8929447E-01
         -4   -1    0    0    0  501 -0.00000000000E+00  0.00000000000E+00  0.65945555176E+03  0.65945555176E+03  0.00000000000E+00 0.  1.
          4   -1    0    0  501    0  0.00000000000E+00 -0.00000000000E+00 -0.77975468818E+03  0.77975468818E+03  0.00000000000E+00 0. -1.
         23    2    1    2    0    0 -0.30346925577E+02  0.40816272625E+03 -0.16153053177E+03  0.44986651272E+03  0.93648382684E+02 0.  0.
        254    2    1    2    0    0  0.30346925577E+02 -0.40816272625E+03  0.41231395354E+02  0.98934372722E+03  0.89976843446E+03 0.  0.
        -24    2    4    4    0    0 -0.20893733937E+03 -0.45213799908E+03  0.33050438806E+03  0.60330438777E+03  0.81605464186E+02 0.  0.
         24    2    4    4    0    0  0.23928426495E+03  0.43975272828E+02 -0.28927299270E+03  0.38603933945E+03  0.78464789725E+02 0.  0.
         13    1    3    3    0    0  0.34538130728E+01  0.15020420387E+02 -0.30351447306E+02  0.34040449570E+02  0.00000000000E+00 0.  1.
        -13    1    3    3    0    0 -0.33800738650E+02  0.39314230586E+03 -0.13117908447E+03  0.41582606315E+03  0.00000000000E+00 0. -1.
          2    1    6    6  502    0  0.17855095754E+03  0.66944503790E+02 -0.21418060373E+03  0.28676705188E+03  0.00000000000E+00 0. -1.
          3    1    5    5  503    0 -0.16722311280E+03 -0.40963979121E+03  0.26959462771E+03  0.51812121293E+03  0.00000000000E+00 0. -1.
         -4    1    5    5    0  503 -0.41714226570E+02 -0.42498207867E+02  0.60909760351E+02  0.85183174842E+02  0.00000000000E+00 0.  1.
         -1    1    6    6    0  502  0.60733307401E+02 -0.22969230962E+02 -0.75092388969E+02  0.99272287573E+02  0.00000000000E+00 0.  1.
<mgrwt>
<rscale>  0 0.14341737E+04</rscale>
<asrwt>0</asrwt>
<pdfrwt beam="1">  1        4 0.11996226E+00 0.14341737E+04</pdfrwt>
<pdfrwt beam="2">  1       -4 0.10145470E+00 0.14341737E+04</pdfrwt>
<totfact> 0.82006248E-01</totfact>
</mgrwt>
</event>
<event>
12    1  0.1477245E-007  0.1138951E+04  0.7818608E-02  0.9168038E-01
          1   -1    0    0  501    0  0.00000000000E+00  0.00000000000E+00  0.15020580624E+03  0.15020580624E+03  0.00000000000E+00 0. -1.
         -1   -1    0    0    0  501 -0.00000000000E+00 -0.00000000000E+00 -0.21590532716E+04  0.21590532716E+04  0.00000000000E+00 0.  1.
         23    2    1    2    0    0  0.10803383303E+03 -0.65464440215E+02 -0.69758574047E+03  0.71464876080E+03  0.90222413966E+02 0.  0.
        254    2    1    2    0    0 -0.10803383303E+03  0.65464440215E+02 -0.13112617249E+04  0.15946103171E+04  0.89856432720E+03 0.  0.
        -24    2    4    4    0    0  0.26271885226E+02  0.46787452892E+03 -0.69784751076E+03  0.84443262025E+03  0.80489223482E+02 0.  0.
         24    2    4    4    0    0 -0.13430571826E+03 -0.40241008871E+03 -0.61341421416E+03  0.75017769684E+03  0.80732107945E+02 0.  0.
         11    1    3    3    0    0  0.50979730613E-01  0.18384323127E+02 -0.73573228129E+02  0.75835386418E+02  0.00000000000E+00 0. -1.
        -11    1    3    3    0    0  0.10798285330E+03 -0.83848763342E+02 -0.62401251235E+03  0.63881337438E+03  0.00000000000E+00 0.  1.
          4    1    6    6  502    0 -0.61004195088E+02 -0.29462964594E+03 -0.44612129078E+03  0.53810068405E+03  0.00000000000E+00 0. -1.
          3    1    5    5  503    0 -0.12268807662E+02  0.31091107083E+03 -0.41541999467E+03  0.51902792755E+03  0.00000000000E+00 0. -1.
         -4    1    5    5    0  503  0.38540692888E+02  0.15696345810E+03 -0.28242751609E+03  0.32540469270E+03  0.00000000000E+00 0.  1.
         -3    1    6    6    0  502 -0.73301523172E+02 -0.10778044277E+03 -0.16729292338E+03  0.21207701280E+03  0.00000000000E+00 0.  1.
<mgrwt>
<rscale>  0 0.11389510E+04</rscale>
<asrwt>0</asrwt>
<pdfrwt beam="1">  1        1 0.23108584E-01 0.11389510E+04</pdfrwt>
<pdfrwt beam="2">  1       -1 0.33216206E+00 0.11389510E+04</pdfrwt>
<totfact> 0.44387734E+00</totfact>
</mgrwt>
</event>
<event>
12    1  0.1477245E-007  0.2400385E+04  0.7818608E-02  0.8439360E-01
          2   -1    0    0  501    0  0.00000000000E+00  0.00000000000E+00  0.23797498285E+04  0.23797498285E+04  0.00000000000E+00 0. -1.
         -2   -1    0    0    0  501 -0.00000000000E+00 -0.00000000000E+00 -0.60529961761E+03  0.60529961761E+03  0.00000000000E+00 0.  1.
         23    2    1    2    0    0  0.37501345197E+03  0.45714425404E+03 -0.28294698022E+03  0.66308520947E+03  0.10003520999E+03 0.  0.
        254    2    1    2    0    0 -0.37501345197E+03 -0.45714425404E+03  0.20573971911E+04  0.23219642367E+04  0.89945469932E+03 0.  0.
        -24    2    4    4    0    0  0.25683972958E+03  0.76420249358E+01  0.35822100115E+03  0.44866409523E+03  0.83379478600E+02 0.  0.
         24    2    4    4    0    0 -0.63185318155E+03 -0.46478627898E+03  0.16991761900E+04  0.18733001414E+04  0.82395188827E+02 0.  0.
         11    1    3    3    0    0  0.15793379837E+03  0.25221444540E+03 -0.10510825093E+03  0.31559935924E+03  0.00000000000E+00 0. -1.
        -11    1    3    3    0    0  0.21707965360E+03  0.20492980864E+03 -0.17783872929E+03  0.34748585023E+03  0.00000000000E+00 0.  1.
          4    1    6    6  502    0 -0.52298519715E+03 -0.37314526076E+03  0.13133270133E+04  0.14620460820E+04  0.00000000000E+00 0. -1.
          1    1    5    5  503    0  0.19578632044E+03  0.15479356422E+02  0.20674276022E+03  0.28515690883E+03  0.00000000000E+00 0. -1.
         -2    1    5    5    0  503  0.61053409135E+02 -0.78373314860E+01  0.15147824093E+03  0.16350718640E+03  0.00000000000E+00 0.  1.
         -3    1    6    6    0  502 -0.10886798440E+03 -0.91641018217E+02  0.38584917664E+03  0.41125405939E+03  0.00000000000E+00 0.  1.
<mgrwt>
<rscale>  0 0.24003847E+04</rscale>
<asrwt>0</asrwt>
<pdfrwt beam="1">  1        2 0.36611535E+00 0.24003847E+04</pdfrwt>
<pdfrwt beam="2">  1       -2 0.93123019E-01 0.24003847E+04</pdfrwt>
<totfact> 0.35845187E+00</totfact>
</mgrwt>
</event>
<event>
12    1  0.1477245E-007  0.1590427E+04  0.7818608E-02  0.8826451E-01
         -2   -1    0    0    0  501 -0.00000000000E+00  0.00000000000E+00  0.21767314694E+03  0.21767314694E+03  0.00000000000E+00 0.  1.
          2   -1    0    0  501    0  0.00000000000E+00 -0.00000000000E+00 -0.29051108544E+04  0.29051108544E+04  0.00000000000E+00 0. -1.
         23    2    1    2    0    0  0.23484770742E+03  0.47092153174E+03 -0.71848022353E+03  0.89528619355E+03  0.91667889776E+02 0.  0.
        254    2    1    2    0    0 -0.23484770742E+03 -0.47092153174E+03 -0.19689574839E+04  0.22274978078E+04  0.89890621062E+03 0.  0.
        -24    2    4    4    0    0 -0.54218863958E+03 -0.32834190691E+03 -0.90434610543E+03  0.11073578904E+04  0.81379913578E+02 0.  0.
         24    2    4    4    0    0  0.30734093216E+03 -0.14257962483E+03 -0.10646113785E+04  0.11201399174E+04  0.80800057454E+02 0.  0.
         11    1    3    3    0    0  0.23750529236E+03  0.47104492978E+03 -0.69951590772E+03  0.87613617373E+03  0.00000000000E+00 0.  1.
        -11    1    3    3    0    0 -0.26575849418E+01 -0.12339803433E+00 -0.18964315816E+02  0.19150019821E+02  0.00000000000E+00 0. -1.
          2    1    6    6  502    0  0.18009705373E+03 -0.12014959076E+03 -0.59856337275E+03  0.63651314528E+03  0.00000000000E+00 0. -1.
          1    1    5    5  503    0 -0.44668983970E+03 -0.23514902901E+03 -0.73745467356E+03  0.89368130465E+03  0.00000000000E+00 0. -1.
         -2    1    5    5    0  503 -0.95498799884E+02 -0.93192877905E+02 -0.16689143188E+03  0.21367658577E+03  0.00000000000E+00 0.  1.
         -1    1    6    6    0  502  0.12724387844E+03 -0.22430034066E+02 -0.46604800574E+03  0.48362677209E+03  0.00000000000E+00 0.  1.
<mgrwt>
<rscale>  0 0.15904271E+04</rscale>
<asrwt>0</asrwt>
<pdfrwt beam="1">  1        2 0.44694009E+00 0.15904271E+04</pdfrwt>
<pdfrwt beam="2">  1       -2 0.33488179E-01 0.15904271E+04</pdfrwt>
<totfact> 0.16035542E+01</totfact>
</mgrwt>
</event>
<event>
12    1  0.1479577E-007  0.3987425E+04  0.7818608E-02  0.8007088E-01
          2   -1    0    0  501    0  0.00000000000E+00  0.00000000000E+00  0.19150429724E+04  0.19150429724E+04  0.00000000000E+00 0. -1.
         -2   -1    0    0    0  501 -0.00000000000E+00 -0.00000000000E+00 -0.20756132831E+04  0.20756132831E+04  0.00000000000E+00 0.  1.
         23    2    1    2    0    0 -0.13423475439E+04 -0.88638043193E+03 -0.10770892349E+04  0.19380526449E+04  0.91431042759E+02 0.  0.
        254    2    1    2    0    0  0.13423475439E+04  0.88638043193E+03  0.91651892430E+03  0.20526036106E+04  0.88634499194E+03 0.  0.
        -24    2    4    4    0    0  0.10471801450E+04  0.37689545160E+03  0.22022215649E+03  0.11372121791E+04  0.78213199821E+02 0.  0.
         24    2    4    4    0    0  0.29516739895E+03  0.50948498033E+03  0.69629676781E+03  0.91539143147E+03  0.80084613744E+02 0.  0.
         11    1    3    3    0    0 -0.64416514139E+02 -0.35816193228E+02 -0.72917641087E+02  0.10367868331E+03  0.00000000000E+00 0. -1.
        -11    1    3    3    0    0 -0.12779310298E+04 -0.85056423870E+03 -0.10041715939E+04  0.18343739616E+04  0.00000000000E+00 0.  1.
          4    1    6    6  502    0  0.46264414292E+02  0.51906183503E+02  0.51757156448E+02  0.86680165892E+02  0.00000000000E+00 0. -1.
          1    1    5    5  503    0  0.30080095549E+02  0.74695150795E+01  0.19565777882E+02  0.36652768898E+02  0.00000000000E+00 0. -1.
         -2    1    5    5    0  503  0.10171000494E+04  0.36942593652E+03  0.20065637861E+03  0.11005594102E+04  0.00000000000E+00 0.  1.
         -3    1    6    6    0  502  0.24890298466E+03  0.45757879683E+03  0.64453961136E+03  0.82871126558E+03  0.00000000000E+00 0.  1.
<mgrwt>
<rscale>  0 0.39874245E+04</rscale>
<asrwt>0</asrwt>
<pdfrwt beam="1">  1        2 0.29462199E+00 0.39874245E+04</pdfrwt>
<pdfrwt beam="2">  1       -2 0.31932512E+00 0.39874245E+04</pdfrwt>
<totfact> 0.14219348E-01</totfact>
</mgrwt>
</event>
<event>
12    1  0.1477245E-007  0.1847124E+04  0.7818608E-02  0.8681633E-01
         -2   -1    0    0    0  501 -0.00000000000E+00  0.00000000000E+00  0.33188008700E+03  0.33188008700E+03  0.00000000000E+00 0.  1.
          2   -1    0    0  501    0  0.00000000000E+00 -0.00000000000E+00 -0.25701058224E+04  0.25701058224E+04  0.00000000000E+00 0. -1.
         23    2    1    2    0    0  0.21150872493E+03  0.20639139442E+03 -0.18764834796E+04  0.19018806542E+04  0.92878551042E+02 0.  0.
        254    2    1    2    0    0 -0.21150872493E+03 -0.20639139442E+03 -0.36174225584E+03  0.10001052552E+04  0.88431878498E+03 0.  0.
        -24    2    4    4    0    0 -0.16704572264E+02  0.33177411372E+03 -0.57308714428E+02  0.34645991268E+03  0.79981729636E+02 0.  0.
         24    2    4    4    0    0 -0.19480415267E+03 -0.53816550814E+03 -0.30443354141E+03  0.65364534256E+03  0.83676045973E+02 0.  0.
         11    1    3    3    0    0  0.99024414308E+02  0.35783890989E+02 -0.66447419084E+03  0.67276464813E+03  0.00000000000E+00 0.  1.
        -11    1    3    3    0    0  0.11248431062E+03  0.17060750343E+03 -0.12120092887E+04  0.12291160060E+04  0.00000000000E+00 0. -1.
          4    1    6    6  502    0 -0.93132727754E+02 -0.30399826278E+03 -0.12512710773E+03  0.34168032112E+03  0.00000000000E+00 0. -1.
          1    1    5    5  503    0  0.25669357846E+02  0.18729187926E+03 -0.50809926575E+02  0.19575191597E+03  0.00000000000E+00 0. -1.
         -2    1    5    5    0  503 -0.42373930110E+02  0.14448223445E+03 -0.64987878529E+01  0.15070799670E+03  0.00000000000E+00 0.  1.
         -3    1    6    6    0  502 -0.10167142491E+03 -0.23416724535E+03 -0.17930643368E+03  0.31196502143E+03  0.00000000000E+00 0.  1.
<mgrwt>
<rscale>  0 0.18471242E+04</rscale>
<asrwt>0</asrwt>
<pdfrwt beam="1">  1        2 0.39540089E+00 0.18471242E+04</pdfrwt>
<pdfrwt beam="2">  1       -2 0.51058475E-01 0.18471242E+04</pdfrwt>
<totfact> 0.10817624E+01</totfact>
</mgrwt>
</event>
<event>
12    1  0.1477245E-007  0.1213040E+04  0.7818608E-02  0.9101519E-01
         -2   -1    0    0    0  501 -0.00000000000E+00  0.00000000000E+00  0.11393482762E+03  0.11393482762E+03  0.00000000000E+00 0.  1.
          2   -1    0    0  501    0  0.00000000000E+00 -0.00000000000E+00 -0.32287445472E+04  0.32287445472E+04  0.00000000000E+00 0. -1.
         23    2    1    2    0    0  0.40084750606E+02  0.18618507769E+03 -0.23152469598E+03  0.31335225973E+03  0.91182692679E+02 0.  0.
        254    2    1    2    0    0 -0.40084750606E+02 -0.18618507769E+03 -0.28832850236E+04  0.30293271151E+04  0.90951557022E+03 0.  0.
        -24    2    4    4    0    0 -0.31333012216E+03  0.23712204902E+03 -0.15672000340E+04  0.16178130658E+04  0.82465373033E+02 0.  0.
         24    2    4    4    0    0  0.27324537155E+03 -0.42330712671E+03 -0.13160849896E+04  0.14115140493E+04  0.80251198472E+02 0.  0.
         13    1    3    3    0    0 -0.12857506365E+02  0.13103367129E+02 -0.64511871438E+02  0.67073059096E+02  0.00000000000E+00 0. -1.
        -13    1    3    3    0    0  0.52942256971E+02  0.17308171056E+03 -0.16701282454E+03  0.24627920063E+03  0.00000000000E+00 0.  1.
          2    1    6    6  502    0  0.74849548146E+02 -0.88922662335E+02 -0.22549208099E+03  0.25368557965E+03  0.00000000000E+00 0. -1.
          3    1    5    5  503    0 -0.10963625502E+03  0.11476017896E+03 -0.50474960621E+03  0.52911451696E+03  0.00000000000E+00 0. -1.
         -4    1    5    5    0  503 -0.20369386714E+03  0.12236187006E+03 -0.10624504277E+04  0.10886985488E+04  0.00000000000E+00 0.  1.
         -1    1    6    6    0  502  0.19839582340E+03 -0.33438446437E+03 -0.10905929087E+04  0.11578284697E+04  0.00000000000E+00 0.  1.
<mgrwt>
<rscale>  0 0.12130399E+04</rscale>
<asrwt>0</asrwt>
<pdfrwt beam="1">  1        2 0.49672998E+00 0.12130399E+04</pdfrwt>
<pdfrwt beam="2">  1       -2 0.17528433E-01 0.12130399E+04</pdfrwt>
<totfact> 0.33554501E+01</totfact>
</mgrwt>
</event>
<event>
12    1  0.1477245E-007  0.1239017E+04  0.7818608E-02  0.9079374E-01
         -1   -1    0    0    0  501 -0.00000000000E+00  0.00000000000E+00  0.17444405347E+04  0.17444405347E+04  0.00000000000E+00 0.  1.
          1   -1    0    0  501    0  0.00000000000E+00 -0.00000000000E+00 -0.22000809294E+03  0.22000809294E+03  0.00000000000E+00 0. -1.
         23    2    1    2    0    0  0.24605767686E+03  0.51232705884E+02  0.56856377252E+03  0.62820222917E+03  0.90576524698E+02 0.  0.
        254    2    1    2    0    0 -0.24605767686E+03 -0.51232705884E+02  0.95586866928E+03  0.13362463985E+04  0.89927768465E+03 0.  0.
        -24    2    4    4    0    0 -0.48539724704E+03  0.24079350550E+03  0.56828656907E+03  0.78933588389E+03  0.80681554819E+02 0.  0.
         24    2    4    4    0    0  0.23933957018E+03 -0.29202621139E+03  0.38758210020E+03  0.54691051461E+03  0.79551798214E+02 0.  0.
         11    1    3    3    0    0  0.13896108806E+03  0.33619170218E+02  0.42382724910E+03  0.44729181714E+03  0.00000000000E+00 0.  1.
        -11    1    3    3    0    0  0.10709658880E+03  0.17613535665E+02  0.14473652342E+03  0.18091041203E+03  0.00000000000E+00 0. -1.
          4    1    6    6  502    0  0.13793196552E+02 -0.34969953562E+02  0.73645756447E+02  0.82685230639E+02  0.00000000000E+00 0. -1.
          3    1    5    5  503    0 -0.12835959754E+03  0.57751201156E+02  0.99924570797E+02  0.17261606925E+03  0.00000000000E+00 0. -1.
         -4    1    5    5    0  503 -0.35703764950E+03  0.18304230435E+03  0.46836199828E+03  0.61671981464E+03  0.00000000000E+00 0.  1.
         -3    1    6    6    0  502  0.22554637363E+03 -0.25705625782E+03  0.31393634375E+03  0.46422528397E+03  0.00000000000E+00 0.  1.
<mgrwt>
<rscale>  0 0.12390174E+04</rscale>
<asrwt>0</asrwt>
<pdfrwt beam="1">  1        1 0.33847400E-01 0.12390174E+04</pdfrwt>
<pdfrwt beam="2">  1       -1 0.26837546E+00 0.12390174E+04</pdfrwt>
<totfact> 0.68859799E+00</totfact>
</mgrwt>
</event>
<event>
12    1  0.1477245E-007  0.1999920E+04  0.7818608E-02  0.8606658E-01
         -2   -1    0    0    0  501 -0.00000000000E+00  0.00000000000E+00  0.16246575165E+04  0.16246575165E+04  0.00000000000E+00 0.  1.
          2   -1    0    0  501    0  0.00000000000E+00 -0.00000000000E+00 -0.61546511394E+03  0.61546511394E+03  0.00000000000E+00 0. -1.
         23    2    1    2    0    0  0.52540064961E+03  0.47009447284E+03 -0.10078697590E+02  0.71083769046E+03  0.90299424306E+02 0.  0.
        254    2    1    2    0    0 -0.52540064961E+03 -0.47009447284E+03  0.10192711001E+04  0.15292849400E+04  0.89597109106E+03 0.  0.
        -24    2    4    4    0    0 -0.65076026088E+03 -0.33749609634E+03  0.32335626373E+03  0.80552661816E+03  0.83194513624E+02 0.  0.
         24    2    4    4    0    0  0.12535961127E+03 -0.13259837650E+03  0.69591483642E+03  0.72375832180E+03  0.78938502908E+02 0.  0.
         11    1    3    3    0    0 -0.17125412466E+01  0.12580212897E+02  0.13693791058E+01  0.12769876788E+02  0.00000000000E+00 0.  1.
        -11    1    3    3    0    0  0.52711319086E+03  0.45751425994E+03 -0.11448076696E+02  0.69806781368E+03  0.00000000000E+00 0. -1.
          2    1    6    6  502    0  0.42429181253E+02 -0.71085025546E+01  0.23546003510E+03  0.23935787926E+03  0.00000000000E+00 0. -1.
          3    1    5    5  503    0 -0.26582371329E+03 -0.16691880844E+03  0.10327619488E+03  0.33043926460E+03  0.00000000000E+00 0. -1.
         -4    1    5    5    0  503 -0.38493654759E+03 -0.17057728790E+03  0.22008006885E+03  0.47508735357E+03  0.00000000000E+00 0.  1.
         -1    1    6    6    0  502  0.82930430013E+02 -0.12548987394E+03  0.46045480131E+03  0.48440044254E+03  0.00000000000E+00 0.  1.
<mgrwt>
<rscale>  0 0.19999200E+04</rscale>
<asrwt>0</asrwt>
<pdfrwt beam="1">  1        2 0.94686941E-01 0.19999200E+04</pdfrwt>
<pdfrwt beam="2">  1       -2 0.24994731E+00 0.19999200E+04</pdfrwt>
<totfact> 0.28724290E+00</totfact>
</mgrwt>
</event>
<event>
12    1  0.1477245E-007  0.1671065E+04  0.7818608E-02  0.8778041E-01
          2   -1    0    0  501    0  0.00000000000E+00  0.00000000000E+00  0.10410365682E+04  0.10410365682E+04  0.00000000000E+00 0. -1.
         -2   -1    0    0    0  501 -0.00000000000E+00 -0.00000000000E+00 -0.67059533902E+03  0.67059533902E+03  0.00000000000E+00 0.  1.
         23    2    1    2    0    0  0.41875782325E+02  0.13928559612E+03  0.70550516412E+03  0.72613139887E+03  0.91516191917E+02 0.  0.
        254    2    1    2    0    0 -0.41875782325E+02 -0.13928559612E+03 -0.33506393494E+03  0.98550050835E+03  0.91530833769E+03 0.  0.
        -24    2    4    4    0    0 -0.21736705801E+03 -0.36296494620E+03 -0.48946874168E+03  0.65232508827E+03  0.83404925697E+02 0.  0.
         24    2    4    4    0    0  0.17549127568E+03  0.22367935008E+03  0.15440480674E+03  0.33317542008E+03  0.79595079681E+02 0.  0.
         11    1    3    3    0    0  0.44251214258E+02  0.11589176206E+03  0.68085736151E+03  0.69206633872E+03  0.00000000000E+00 0. -1.
        -11    1    3    3    0    0 -0.23754319322E+01  0.23393834055E+02  0.24647802619E+02  0.34065060144E+02  0.00000000000E+00 0.  1.
          2    1    6    6  502    0  0.84685236274E+02  0.11478244382E+03  0.12207468309E+03  0.18774670943E+03  0.00000000000E+00 0. -1.
          1    1    5    5  503    0 -0.71258647916E+02 -0.20014684243E+03 -0.24075870318E+03  0.32109392176E+03  0.00000000000E+00 0. -1.
         -2    1    5    5    0  503 -0.14610841009E+03 -0.16281810377E+03 -0.24871003850E+03  0.33123116651E+03  0.00000000000E+00 0.  1.
         -1    1    6    6    0  502  0.90806039409E+02  0.10889690626E+03  0.32330123658E+02  0.14542871065E+03  0.00000000000E+00 0.  1.
<mgrwt>
<rscale>  0 0.16710647E+04</rscale>
<asrwt>0</asrwt>
<pdfrwt beam="1">  1        2 0.16015947E+00 0.16710647E+04</pdfrwt>
<pdfrwt beam="2">  1       -2 0.10316851E+00 0.16710647E+04</pdfrwt>
<totfact> 0.17345236E+01</totfact>
</mgrwt>
</event>
<event>
12    1  0.1477245E-007  0.1372954E+04  0.7818608E-02  0.8973632E-01
          2   -1    0    0  501    0  0.00000000000E+00  0.00000000000E+00  0.78758279457E+03  0.78758279457E+03  0.00000000000E+00 0. -1.
         -2   -1    0    0    0  501 -0.00000000000E+00 -0.00000000000E+00 -0.59835064956E+03  0.59835064956E+03  0.00000000000E+00 0.  1.
         23    2    1    2    0    0 -0.36695616889E+03 -0.94637851732E+01 -0.58460837661E+02  0.38256351665E+03  0.90502937037E+02 0.  0.
        254    2    1    2    0    0  0.36695616889E+03  0.94637851732E+01  0.24769298267E+03  0.10033699275E+04  0.90036270725E+03 0.  0.
        -24    2    4    4    0    0  0.43772120346E+03 -0.18421393044E+03 -0.18627533861E+03  0.51638922663E+03  0.80154272972E+02 0.  0.
         24    2    4    4    0    0 -0.70765034571E+02  0.19367771561E+03  0.43396832127E+03  0.48698070086E+03  0.79391129825E+02 0.  0.
         13    1    3    3    0    0 -0.85127690303E+02 -0.29893540114E+01  0.24631035692E+02  0.88669881093E+02  0.00000000000E+00 0. -1.
        -13    1    3    3    0    0 -0.28182847859E+03 -0.64744311619E+01 -0.83091873353E+02  0.29389363555E+03  0.00000000000E+00 0.  1.
          4    1    6    6  502    0 -0.79583845160E+02  0.11266848059E+03  0.29967027539E+03  0.32989399643E+03  0.00000000000E+00 0. -1.
          1    1    5    5  503    0  0.45648921223E+02 -0.57387103073E+01  0.24631735611E+01  0.46074114520E+02  0.00000000000E+00 0. -1.
         -2    1    5    5    0  503  0.39207228224E+03 -0.17847522013E+03 -0.18873851217E+03  0.47031511211E+03  0.00000000000E+00 0.  1.
         -1    1    6    6    0  502  0.88188105885E+01  0.81009235023E+02  0.13429804589E+03  0.15708670443E+03  0.00000000000E+00 0.  1.
<mgrwt>
<rscale>  0 0.13729540E+04</rscale>
<asrwt>0</asrwt>
<pdfrwt beam="1">  1        2 0.12116658E+00 0.13729540E+04</pdfrwt>
<pdfrwt beam="2">  1       -2 0.92053946E-01 0.13729540E+04</pdfrwt>
<totfact> 0.34411436E+01</totfact>
</mgrwt>
</event>
<event>
12    1  0.1477245E-007  0.1573938E+04  0.7818608E-02  0.8836721E-01
         -2   -1    0    0    0  501 -0.00000000000E+00  0.00000000000E+00  0.72845261605E+03  0.72845261605E+03  0.00000000000E+00 0.  1.
          2   -1    0    0  501    0  0.00000000000E+00 -0.00000000000E+00 -0.85018590859E+03  0.85018590859E+03  0.00000000000E+00 0. -1.
         23    2    1    2    0    0  0.16910667255E+02  0.52407363135E+03 -0.11527023022E+03  0.54458896102E+03  0.91382540740E+02 0.  0.
        254    2    1    2    0    0 -0.16910667255E+02 -0.52407363135E+03 -0.64630623089E+01  0.10340495636E+04  0.89122252390E+03 0.  0.
        -24    2    4    4    0    0  0.22064427635E+03  0.17430051163E+03  0.11650329556E+02  0.29177690346E+03  0.77028995652E+02 0.  0.
         24    2    4    4    0    0 -0.23755494361E+03 -0.69837414297E+03 -0.18113391865E+02  0.74227266016E+03  0.80509702835E+02 0.  0.
         13    1    3    3    0    0  0.82590457695E+01  0.84421393699E+02 -0.54123226053E+02  0.10062060996E+03  0.00000000000E+00 0. -1.
        -13    1    3    3    0    0  0.86516214859E+01  0.43965223765E+03 -0.61147004172E+02  0.44396835106E+03  0.00000000000E+00 0.  1.
          2    1    6    6  502    0 -0.53343050252E+02 -0.27407049913E+03 -0.16554314823E+02  0.27970370902E+03  0.00000000000E+00 0. -1.
          1    1    5    5  503    0  0.17493323290E+03  0.92917212734E+02  0.11875742775E+02  0.19843456770E+03  0.00000000000E+00 0. -1.
         -2    1    5    5    0  503  0.45711043458E+02  0.81383298891E+02 -0.22541321860E+00  0.93342335752E+02  0.00000000000E+00 0.  1.
         -1    1    6    6    0  502 -0.18421189336E+03 -0.42430364385E+03 -0.15590770417E+01  0.46256895114E+03  0.00000000000E+00 0.  1.
<mgrwt>
<rscale>  0 0.15739379E+04</rscale>
<asrwt>0</asrwt>
<pdfrwt beam="1">  1        2 0.13079783E+00 0.15739379E+04</pdfrwt>
<pdfrwt beam="2">  1       -2 0.11206963E+00 0.15739379E+04</pdfrwt>
<totfact> 0.19145387E+01</totfact>
</mgrwt>
</event>
<event>
12    1  0.1477245E-007  0.2176844E+04  0.7818608E-02  0.8528128E-01
         -2   -1    0    0    0  501 -0.00000000000E+00  0.00000000000E+00  0.30277905901E+03  0.30277905901E+03  0.00000000000E+00 0.  1.
          2   -1    0    0  501    0  0.00000000000E+00 -0.00000000000E+00 -0.39126316936E+04  0.39126316936E+04  0.00000000000E+00 0. -1.
         23    2    1    2    0    0  0.35599769396E+03  0.34618812234E+03 -0.29530542057E+04  0.29959103332E+04  0.91482285520E+02 0.  0.
        254    2    1    2    0    0 -0.35599769396E+03 -0.34618812234E+03 -0.65679842892E+03  0.12195004194E+04  0.89956462949E+03 0.  0.
        -24    2    4    4    0    0 -0.40601404139E+03  0.13827198181E+02  0.53932018314E+02  0.41729064307E+03  0.78639843421E+02 0.  0.
         24    2    4    4    0    0  0.50016347438E+02 -0.36001532052E+03 -0.71073044723E+03  0.80220977637E+03  0.79310091799E+02 0.  0.
         11    1    3    3    0    0  0.11157040773E+03  0.13381487201E+03 -0.80940182164E+03  0.82794062874E+03  0.00000000000E+00 0. -1.
        -11    1    3    3    0    0  0.24442728622E+03  0.21237325033E+03 -0.21436523841E+04  0.21679697044E+04  0.00000000000E+00 0.  1.
          4    1    6    6  502    0  0.55214791938E+02 -0.36214141598E+03 -0.70191102009E+03  0.79175384972E+03  0.00000000000E+00 0. -1.
          3    1    5    5  503    0 -0.14513420239E+03  0.42758920273E+02  0.21096444459E+02  0.15276557837E+03  0.00000000000E+00 0. -1.
         -4    1    5    5    0  503 -0.26087983901E+03 -0.28931722092E+02  0.32835573855E+02  0.26452506470E+03  0.00000000000E+00 0.  1.
         -3    1    6    6    0  502 -0.51984445003E+01  0.21260954563E+01 -0.88194271402E+01  0.10455926654E+02  0.00000000000E+00 0.  1.
<mgrwt>
<rscale>  0 0.21768445E+04</rscale>
<asrwt>0</asrwt>
<pdfrwt beam="1">  1        2 0.60194333E+00 0.21768445E+04</pdfrwt>
<pdfrwt beam="2">  1       -2 0.46581394E-01 0.21768445E+04</pdfrwt>
<totfact> 0.16185277E+00</totfact>
</mgrwt>
</event>
<event>
12    1  0.1477245E-007  0.2317445E+04  0.7818608E-02  0.8471074E-01
          1   -1    0    0  501    0  0.00000000000E+00  0.00000000000E+00  0.11911324729E+04  0.11911324729E+04  0.00000000000E+00 0. -1.
         -1   -1    0    0    0  501 -0.00000000000E+00 -0.00000000000E+00 -0.11271944461E+04  0.11271944461E+04  0.00000000000E+00 0.  1.
         23    2    1    2    0    0 -0.30901600074E+03 -0.35885448921E+03  0.89313507718E+03  0.10150709054E+04  0.91712833497E+02 0.  0.
        254    2    1    2    0    0  0.30901600074E+03  0.35885448921E+03 -0.82919705034E+03  0.13032560136E+04  0.88692787508E+03 0.  0.
        -24    2    4    4    0    0 -0.25494975228E+03  0.11982379878E+03 -0.32389180531E+02  0.29506182980E+03  0.81580055434E+02 0.  0.
         24    2    4    4    0    0  0.56396575303E+03  0.23903069043E+03 -0.79680786981E+03  0.10081941838E+04  0.79747660393E+02 0.  0.
         13    1    3    3    0    0 -0.30844204715E+02 -0.79342193306E+02  0.20465378561E+03  0.22165225144E+03  0.00000000000E+00 0.  1.
        -13    1    3    3    0    0 -0.27817179603E+03 -0.27951229591E+03  0.68848129157E+03  0.79341865400E+03  0.00000000000E+00 0. -1.
          2    1    6    6  502    0  0.45604579703E+02  0.27371878967E+01 -0.38529825203E+02  0.59764682863E+02  0.00000000000E+00 0. -1.
          1    1    5    5  503    0 -0.82110031074E+01  0.14792136651E+02 -0.20575931961E+02  0.26638259230E+02  0.00000000000E+00 0. -1.
         -2    1    5    5    0  503 -0.24673874918E+03  0.10503166213E+03 -0.11813248570E+02  0.26842357057E+03  0.00000000000E+00 0.  1.
         -1    1    6    6    0  502  0.51836117332E+03  0.23629350254E+03 -0.75827804461E+03  0.94842950096E+03  0.00000000000E+00 0.  1.
<mgrwt>
<rscale>  0 0.23174451E+04</rscale>
<asrwt>0</asrwt>
<pdfrwt beam="1">  1        1 0.18325115E+00 0.23174451E+04</pdfrwt>
<pdfrwt beam="2">  1       -1 0.17341453E+00 0.23174451E+04</pdfrwt>
<totfact> 0.22741790E+00</totfact>
</mgrwt>
</event>
<event>
12    1  0.1477245E-007  0.2012867E+04  0.7818608E-02  0.8600629E-01
          2   -1    0    0  501    0  0.00000000000E+00  0.00000000000E+00  0.38324649644E+04  0.38324649644E+04  0.00000000000E+00 0. -1.
         -2   -1    0    0    0  501 -0.00000000000E+00 -0.00000000000E+00 -0.26429681305E+03  0.26429681305E+03  0.00000000000E+00 0.  1.
         23    2    1    2    0    0  0.43670088528E+02  0.17299564608E+03 -0.15964203259E+03  0.25610624271E+03  0.90940963225E+02 0.  0.
        254    2    1    2    0    0 -0.43670088528E+02 -0.17299564608E+03  0.37278101840E+04  0.38406555348E+04  0.90676987090E+03 0.  0.
        -24    2    4    4    0    0 -0.37252501670E+03  0.67737950490E+02  0.27683216370E+04  0.27952034639E+04  0.78704515271E+02 0.  0.
         24    2    4    4    0    0  0.32885492817E+03 -0.24073359657E+03  0.95948854697E+03  0.10454520709E+04  0.79079279133E+02 0.  0.
         11    1    3    3    0    0 -0.20235602298E+01 -0.10719452585E+02 -0.99014173156E+01  0.14732261353E+02  0.00000000000E+00 0. -1.
        -11    1    3    3    0    0  0.45693648758E+02  0.18371509867E+03 -0.14974061527E+03  0.24137398136E+03  0.00000000000E+00 0.  1.
          4    1    6    6  502    0  0.14372989451E+03 -0.10781600587E+03  0.52378667622E+03  0.55374638227E+03  0.00000000000E+00 0. -1.
          3    1    5    5  503    0 -0.32324832581E+02  0.29932307580E+02  0.27844504708E+03  0.28190864137E+03  0.00000000000E+00 0. -1.
         -4    1    5    5    0  503 -0.34020018412E+03  0.37805642910E+02  0.24898765899E+04  0.25132948225E+04  0.00000000000E+00 0.  1.
         -3    1    6    6    0  502  0.18512503367E+03 -0.13291759071E+03  0.43570187075E+03  0.49170568858E+03  0.00000000000E+00 0.  1.
<mgrwt>
<rscale>  0 0.20128669E+04</rscale>
<asrwt>0</asrwt>
<pdfrwt beam="1">  1        2 0.58960995E+00 0.20128669E+04</pdfrwt>
<pdfrwt beam="2">  1       -2 0.40661051E-01 0.20128669E+04</pdfrwt>
<totfact> 0.24864258E+00</totfact>
</mgrwt>
</event>
<event>
12    1  0.1477245E-007  0.2035307E+04  0.7818608E-02  0.8590289E-01
          2   -1    0    0  501    0  0.00000000000E+00  0.00000000000E+00  0.71391703531E+03  0.71391703531E+03  0.00000000000E+00 0. -1.
         -2   -1    0    0    0  501 -0.00000000000E+00 -0.00000000000E+00 -0.14506151558E+04  0.14506151558E+04  0.00000000000E+00 0.  1.
         23    2    1    2    0    0 -0.65864272553E+03 -0.29636862247E+03  0.98617565099E+02  0.73463265765E+03  0.91187264758E+02 0.  0.
        254    2    1    2    0    0  0.65864272553E+03  0.29636862247E+03 -0.83531568562E+03  0.14298995335E+04  0.90841388198E+03 0.  0.
        -24    2    4    4    0    0  0.69490108590E+03  0.16099932829E+03 -0.15946986871E+03  0.73503121034E+03  0.77665553830E+02 0.  0.
         24    2    4    4    0    0 -0.36258360372E+02  0.13536929419E+03 -0.67584581691E+03  0.69486832316E+03  0.80217852020E+02 0.  0.
         11    1    3    3    0    0 -0.29901969566E+03 -0.11581994897E+03  0.14650202611E+01  0.32066990077E+03  0.00000000000E+00 0.  1.
        -11    1    3    3    0    0 -0.35962302987E+03 -0.18054867350E+03  0.97152544838E+02  0.41396275688E+03  0.00000000000E+00 0. -1.
          2    1    6    6  502    0  0.28845075726E+00 -0.10585927201E+02 -0.58563271922E+02  0.59513039552E+02  0.00000000000E+00 0. -1.
          1    1    5    5  503    0  0.54483370530E+02  0.26989095158E+02 -0.31003351741E+02  0.68249957809E+02  0.00000000000E+00 0. -1.
         -2    1    5    5    0  503  0.64041771537E+03  0.13401023313E+03 -0.12846651697E+03  0.66678125253E+03  0.00000000000E+00 0.  1.
         -1    1    6    6    0  502 -0.36546811129E+02  0.14595522139E+03 -0.61728254499E+03  0.63535528360E+03  0.00000000000E+00 0.  1.
<mgrwt>
<rscale>  0 0.20353072E+04</rscale>
<asrwt>0</asrwt>
<pdfrwt beam="1">  1        2 0.10983339E+00 0.20353072E+04</pdfrwt>
<pdfrwt beam="2">  1       -2 0.22317156E+00 0.20353072E+04</pdfrwt>
<totfact> 0.34918832E+00</totfact>
</mgrwt>
</event>
<event>
12    1  0.1477245E-007  0.1086185E+04  0.7818608E-02  0.9218763E-01
         -1   -1    0    0    0  501 -0.00000000000E+00  0.00000000000E+00  0.13303130008E+03  0.13303130008E+03  0.00000000000E+00 0.  1.
          1   -1    0    0  501    0  0.00000000000E+00 -0.00000000000E+00 -0.22171423146E+04  0.22171423146E+04  0.00000000000E+00 0. -1.
         23    2    1    2    0    0  0.38922120441E+02  0.83539867343E+02 -0.57282804954E+03  0.58740044281E+03  0.91724941975E+02 0.  0.
        254    2    1    2    0    0 -0.38922120441E+02 -0.83539867343E+02 -0.15112829649E+04  0.17627731718E+04  0.90271768250E+03 0.  0.
        -24    2    4    4    0    0 -0.71191992829E+02  0.24058159760E+03 -0.56137918304E+02  0.26945833419E+03  0.80675417854E+02 0.  0.
         24    2    4    4    0    0  0.32269872387E+02 -0.32412146494E+03 -0.14551450466E+04  0.14933148376E+04  0.80287164988E+02 0.  0.
         13    1    3    3    0    0  0.18527305273E+02  0.79437175523E+02 -0.23170267734E+03  0.24564131693E+03  0.00000000000E+00 0. -1.
        -13    1    3    3    0    0  0.20394815168E+02  0.41026918198E+01 -0.34112537220E+03  0.34175912589E+03  0.00000000000E+00 0.  1.
          4    1    6    6  502    0 -0.89868411310E-01 -0.21755892345E+03 -0.81414861933E+03  0.84271576917E+03  0.00000000000E+00 0. -1.
          1    1    5    5  503    0 -0.18321779417E+02  0.32742984814E+02  0.19206045325E+02  0.42150478438E+02  0.00000000000E+00 0. -1.
         -2    1    5    5    0  503 -0.52870213411E+02  0.20783861279E+03 -0.75343963629E+02  0.22730785575E+03  0.00000000000E+00 0.  1.
         -3    1    6    6    0  502  0.32359740799E+02 -0.10656254149E+03 -0.64099642730E+03  0.65059906846E+03  0.00000000000E+00 0.  1.
<mgrwt>
<rscale>  0 0.10861847E+04</rscale>
<asrwt>0</asrwt>
<pdfrwt beam="1">  1        1 0.34109878E+00 0.10861847E+04</pdfrwt>
<pdfrwt beam="2">  1       -1 0.20466356E-01 0.10861847E+04</pdfrwt>
<totfact> 0.41849764E+01</totfact>
</mgrwt>
</event>
<event>
12    1  0.1477245E-007  0.1455055E+04  0.7818608E-02  0.8914903E-01
         -1   -1    0    0    0  501 -0.00000000000E+00  0.00000000000E+00  0.78032663006E+03  0.78032663006E+03  0.00000000000E+00 0.  1.
          1   -1    0    0  501    0  0.00000000000E+00 -0.00000000000E+00 -0.67830130184E+03  0.67830130184E+03  0.00000000000E+00 0. -1.
         23    2    1    2    0    0  0.34459606672E+03  0.88108999271E+02  0.29243152940E+03  0.46959737879E+03  0.92172956033E+02 0.  0.
        254    2    1    2    0    0 -0.34459606672E+03 -0.88108999271E+02 -0.19040620118E+03  0.98903055311E+03  0.90300457838E+03 0.  0.
        -24    2    4    4    0    0  0.28030186903E+03 -0.96604180519E+02  0.55269636880E+02  0.31269159658E+03  0.82582058190E+02 0.  0.
         24    2    4    4    0    0 -0.62489793575E+03  0.84951812489E+01 -0.24567583806E+03  0.67633895653E+03  0.80673220523E+02 0.  0.
         11    1    3    3    0    0  0.74982476429E+02  0.29615119934E+02  0.11896490175E+03  0.14370829812E+03  0.00000000000E+00 0. -1.
        -11    1    3    3    0    0  0.26961359030E+03  0.58493879337E+02  0.17346662765E+03  0.32588908067E+03  0.00000000000E+00 0.  1.
          4    1    6    6  502    0 -0.13648154466E+03 -0.28197251570E+02 -0.70337206707E+02  0.15610771819E+03  0.00000000000E+00 0. -1.
          3    1    5    5  503    0  0.69441339278E+01 -0.12748146562E+02  0.19826231515E+02  0.24572661494E+02  0.00000000000E+00 0. -1.
         -4    1    5    5    0  503  0.27335773510E+03 -0.83856033958E+02  0.35443405364E+02  0.28811893508E+03  0.00000000000E+00 0.  1.
         -1    1    6    6    0  502 -0.48841639109E+03  0.36692432819E+02 -0.17533863135E+03  0.52023123835E+03  0.00000000000E+00 0.  1.
<mgrwt>
<rscale>  0 0.14550554E+04</rscale>
<asrwt>0</asrwt>
<pdfrwt beam="1">  1        1 0.10435405E+00 0.14550554E+04</pdfrwt>
<pdfrwt beam="2">  1       -1 0.12005025E+00 0.14550554E+04</pdfrwt>
<totfact> 0.17162740E+01</totfact>
</mgrwt>
</event>
<event>
12    1  0.1477245E-007  0.1078544E+04  0.7818608E-02  0.9226361E-01
         -2   -1    0    0    0  501 -0.00000000000E+00  0.00000000000E+00  0.11042640458E+03  0.11042640458E+03  0.00000000000E+00 0. -1.
          2   -1    0    0  501    0  0.00000000000E+00 -0.00000000000E+00 -0.26335566776E+04  0.26335566776E+04  0.00000000000E+00 0.  1.
         23    2    1    2    0    0 -0.23170630494E+02  0.14517762202E+03 -0.40167029194E+03  0.43743190934E+03  0.91620040553E+02 0.  0.
        254    2    1    2    0    0  0.23170630494E+02 -0.14517762202E+03 -0.21214599811E+04  0.23065511728E+04  0.89329303228E+03 0.  0.
        -24    2    4    4    0    0  0.33261486179E+03 -0.32055779445E+03 -0.16212137815E+04  0.16876565881E+04  0.80378406770E+02 0.  0.
         24    2    4    4    0    0 -0.30944423129E+03  0.17538017243E+03 -0.50024619956E+03  0.61889458468E+03  0.79185286584E+02 0.  0.
         13    1    3    3    0    0  0.10031009131E+02  0.24156719493E+02 -0.13408454630E+02  0.29393109676E+02  0.00000000000E+00 0. -1.
        -13    1    3    3    0    0 -0.33201639625E+02  0.12102090252E+03 -0.38826183731E+03  0.40803879967E+03  0.00000000000E+00 0.  1.
          4    1    6    6  502    0 -0.29810029851E+03  0.16529471408E+03 -0.43899266357E+03  0.55578834923E+03  0.00000000000E+00 0. -1.
          3    1    5    5  503    0  0.31072922511E+03 -0.30807902113E+03 -0.15788973540E+04  0.16384084317E+04  0.00000000000E+00 0. -1.
         -2    1    5    5    0  503  0.21885636674E+02 -0.12478773313E+02 -0.42316427564E+02  0.49248156491E+02  0.00000000000E+00 0.  1.
         -3    1    6    6    0  502 -0.11343932780E+02  0.10085458346E+02 -0.61253535986E+02  0.63106235443E+02  0.00000000000E+00 0.  1.
<mgrwt>
<rscale>  0 0.10785438E+04</rscale>
<asrwt>0</asrwt>
<pdfrwt beam="1">  1        2 0.40516252E+00 0.10785438E+04</pdfrwt>
<pdfrwt beam="2">  1       -2 0.16988679E-01 0.10785438E+04</pdfrwt>
<totfact> 0.83051541E+01</totfact>
</mgrwt>
</event>
<event>
12    1  0.1477245E-007  0.1390985E+04  0.7818608E-02  0.8960370E-01
         -3   -1    0    0    0  501 -0.00000000000E+00  0.00000000000E+00  0.13877819710E+03  0.13877819710E+03  0.00000000000E+00 0.  1.
          3   -1    0    0  501    0  0.00000000000E+00 -0.00000000000E+00 -0.34854877382E+04  0.34854877382E+04  0.00000000000E+00 0. -1.
         23    2    1    2    0    0  0.24242993348E+03 -0.95506314833E+02 -0.17879527620E+04  0.18091555497E+04  0.91514998810E+02 0.  0.
        254    2    1    2    0    0 -0.24242993348E+03  0.95506314833E+02 -0.15587567792E+04  0.18151103857E+04  0.89275376606E+03 0.  0.
        -24    2    4    4    0    0  0.17106246695E+03  0.30234486855E+03 -0.11079778576E+04  0.11642296647E+04  0.84504390631E+02 0.  0.
         24    2    4    4    0    0 -0.41349240042E+03 -0.20683855372E+03 -0.45077892157E+03  0.65088072102E+03  0.81767501786E+02 0.  0.
         13    1    3    3    0    0  0.18137692916E+03 -0.33889042460E+02 -0.13636711198E+04  0.13760977365E+04  0.00000000000E+00 0. -1.
        -13    1    3    3    0    0  0.61053004319E+02 -0.61617272374E+02 -0.42428164220E+03  0.43305781311E+03  0.00000000000E+00 0.  1.
          4    1    6    6  502    0 -0.19281975823E+03 -0.57351103495E+02 -0.22238287055E+03  0.29987122128E+03  0.00000000000E+00 0. -1.
          3    1    5    5  503    0  0.10662302964E+03  0.22059278085E+03 -0.88255506696E+03  0.91593290782E+03  0.00000000000E+00 0. -1.
         -4    1    5    5    0  503  0.64439437302E+02  0.81752087703E+02 -0.22542279065E+03  0.24829675687E+03  0.00000000000E+00 0.  1.
         -3    1    6    6    0  502 -0.22067264219E+03 -0.14948745022E+03 -0.22839605102E+03  0.35100949974E+03  0.00000000000E+00 0.  1.
<mgrwt>
<rscale>  0 0.13909848E+04</rscale>
<asrwt>0</asrwt>
<pdfrwt beam="1">  1        3 0.53622884E+00 0.13909848E+04</pdfrwt>
<pdfrwt beam="2">  1       -3 0.21350493E-01 0.13909848E+04</pdfrwt>
<totfact> 0.12140841E-01</totfact>
</mgrwt>
</event>
<event>
12    1  0.1477245E-007  0.1246708E+04  0.7818608E-02  0.9072928E-01
         -2   -1    0    0    0  501 -0.00000000000E+00  0.00000000000E+00  0.29297211211E+03  0.29297211211E+03  0.00000000000E+00 0.  1.
          2   -1    0    0  501    0  0.00000000000E+00 -0.00000000000E+00 -0.13263039502E+04  0.13263039502E+04  0.00000000000E+00 0. -1.
         23    2    1    2    0    0  0.13564622781E+03  0.30779720851E+02 -0.58014753194E+03  0.60330811203E+03  0.89789915350E+02 0.  0.
        254    2    1    2    0    0 -0.13564622781E+03 -0.30779720851E+02 -0.45318430616E+03  0.10159679503E+04  0.89859199324E+03 0.  0.
        -24    2    4    4    0    0 -0.17144465118E+03 -0.31057953709E+03 -0.58913468980E+03  0.69268419012E+03  0.82938454490E+02 0.  0.
         24    2    4    4    0    0  0.35798423374E+02  0.27979981624E+03  0.13595038364E+03  0.32328376017E+03  0.80376728544E+02 0.  0.
         13    1    3    3    0    0  0.33563431920E+02  0.49687592218E+02 -0.17154317036E+03  0.18172072000E+03  0.00000000000E+00 0.  1.
        -13    1    3    3    0    0  0.10208279589E+03 -0.18907871367E+02 -0.40860436158E+03  0.42158739203E+03  0.00000000000E+00 0. -1.
          4    1    6    6  502    0  0.23164523943E+02  0.13264405181E+03  0.10879523601E+03  0.17311107137E+03  0.00000000000E+00 0. -1.
          3    1    5    5  503    0 -0.17062983207E+03 -0.28997396155E+03 -0.51057032618E+03  0.61145849895E+03  0.00000000000E+00 0. -1.
         -4    1    5    5    0  503 -0.81481911880E+00 -0.20605575535E+02 -0.78564363626E+02  0.81225691165E+02  0.00000000000E+00 0.  1.
         -3    1    6    6    0  502  0.12633899431E+02  0.14715576443E+03  0.27155147631E+02  0.15017268880E+03  0.00000000000E+00 0.  1.
<mgrwt>
<rscale>  0 0.12467078E+04</rscale>
<asrwt>0</asrwt>
<pdfrwt beam="1">  1        2 0.20404676E+00 0.12467078E+04</pdfrwt>
<pdfrwt beam="2">  1       -2 0.45072634E-01 0.12467078E+04</pdfrwt>
<totfact> 0.73250617E+01</totfact>
</mgrwt>
</event>
<event>
12    1  0.1780548E-007  0.2213945E+04  0.7818608E-02  0.8512646E-01
          2   -1    0    0  501    0  0.00000000000E+00  0.00000000000E+00  0.14367321947E+04  0.14367321947E+04  0.00000000000E+00 0. -1.
         -2   -1    0    0    0  501 -0.00000000000E+00 -0.00000000000E+00 -0.85289925966E+03  0.85289925966E+03  0.00000000000E+00 0.  1.
         23    2    1    2    0    0  0.32476110927E+03 -0.17055456257E+03 -0.63333874683E+03  0.73777057715E+03  0.92891438652E+02 0.  0.
        254    2    1    2    0    0 -0.32476110927E+03  0.17055456257E+03  0.12171716818E+04  0.15518608772E+04  0.89005990931E+03 0.  0.
        -24    2    4    4    0    0 -0.35638416800E+03 -0.25163251348E+03  0.94081218734E+03  0.10400794528E+04  0.79429838799E+02 0.  0.
         24    2    4    4    0    0  0.31623058727E+02  0.42218707604E+03  0.27635949449E+03  0.51178142436E+03  0.79395913638E+02 0.  0.
         13    1    3    3    0    0  0.12363458577E+02 -0.36002131219E+02 -0.56903299948E+02  0.68461625055E+02  0.00000000000E+00 0. -1.
        -13    1    3    3    0    0  0.31239765069E+03 -0.13455243135E+03 -0.57643544688E+03  0.66930895210E+03  0.00000000000E+00 0.  1.
          2    1    6    6  502    0  0.50890318975E+02  0.37880109975E+03  0.23392409716E+03  0.44810777830E+03  0.00000000000E+00 0. -1.
          1    1    5    5  503    0 -0.33909524728E+03 -0.22061288189E+03  0.89444058945E+03  0.98167183847E+03  0.00000000000E+00 0. -1.
         -2    1    5    5    0  503 -0.17288920721E+02 -0.31019631588E+02  0.46371597885E+02  0.58407614350E+02  0.00000000000E+00 0.  1.
         -1    1    6    6    0  502 -0.19267260248E+02  0.43385976292E+02  0.42435397328E+02  0.63673646060E+02  0.00000000000E+00 0.  1.
<mgrwt>
<rscale>  0 0.22139447E+04</rscale>
<asrwt>0</asrwt>
<pdfrwt beam="1">  1        2 0.22103572E+00 0.22139447E+04</pdfrwt>
<pdfrwt beam="2">  1       -2 0.13121527E+00 0.22139447E+04</pdfrwt>
<totfact> 0.53405069E+00</totfact>
</mgrwt>
</event>
<event>
12    1  0.1477245E-007  0.2202814E+04  0.7818608E-02  0.8517258E-01
         -1   -1    0    0    0  501 -0.00000000000E+00  0.00000000000E+00  0.14442476204E+04  0.14442476204E+04  0.00000000000E+00 0.  1.
          1   -1    0    0  501    0  0.00000000000E+00 -0.00000000000E+00 -0.83995116580E+03  0.83995116580E+03  0.00000000000E+00 0. -1.
         23    2    1    2    0    0 -0.33215274033E+03  0.39860506147E+03 -0.53234903760E+03  0.74917338711E+03  0.93025954380E+02 0.  0.
        254    2    1    2    0    0  0.33215274033E+03 -0.39860506147E+03  0.11366454922E+04  0.15350253991E+04  0.89169981663E+03 0.  0.
        -24    2    4    4    0    0 -0.10331706608E+03 -0.41425653919E+03  0.96859876742E+03  0.10615994175E+04  0.80788951528E+02 0.  0.
         24    2    4    4    0    0  0.43546980641E+03  0.15651477720E+02  0.16804672478E+03  0.47342598154E+03  0.77547000186E+02 0.  0.
         11    1    3    3    0    0 -0.16642190757E+03  0.25006497672E+03 -0.25852442945E+03  0.39631253389E+03  0.00000000000E+00 0. -1.
        -11    1    3    3    0    0 -0.16573083277E+03  0.14854008475E+03 -0.27382460815E+03  0.35286085322E+03  0.00000000000E+00 0.  1.
          2    1    6    6  502    0  0.26184327395E+03 -0.85436184741E+00  0.61238289362E+02  0.26891031615E+03  0.00000000000E+00 0. -1.
          1    1    5    5  503    0 -0.75690438631E+00 -0.13725548239E+02  0.82526770413E+01  0.16033410650E+02  0.00000000000E+00 0. -1.
         -2    1    5    5    0  503 -0.10256016169E+03 -0.40053099095E+03  0.96034609038E+03  0.10455660069E+04  0.00000000000E+00 0.  1.
         -1    1    6    6    0  502  0.17362653246E+03  0.16505839567E+02  0.10680843542E+03  0.20451566539E+03  0.00000000000E+00 0.  1.
<mgrwt>
<rscale>  0 0.22028141E+04</rscale>
<asrwt>0</asrwt>
<pdfrwt beam="1">  1        1 0.12922326E+00 0.22028141E+04</pdfrwt>
<pdfrwt beam="2">  1       -1 0.22219194E+00 0.22028141E+04</pdfrwt>
<totfact> 0.19805468E+00</totfact>
</mgrwt>
</event>
<event>
12    1  0.1477245E-007  0.1333700E+04  0.7818608E-02  0.9003260E-01
          2   -1    0    0  501    0  0.00000000000E+00  0.00000000000E+00  0.23970041997E+04  0.23970041997E+04  0.00000000000E+00 0. -1.
         -2   -1    0    0    0  501 -0.00000000000E+00 -0.00000000000E+00 -0.18551856517E+03  0.18551856517E+03  0.00000000000E+00 0.  1.
         23    2    1    2    0    0 -0.12750003552E+03  0.31656039934E+03  0.60452745446E+03  0.70003779815E+03  0.90181650834E+02 0.  0.
        254    2    1    2    0    0  0.12750003552E+03 -0.31656039934E+03  0.16069581801E+04  0.18824849668E+04  0.91922157935E+03 0.  0.
        -24    2    4    4    0    0  0.38980420287E+03 -0.49490273252E+03  0.12233107127E+04  0.13783134591E+04  0.79892807777E+02 0.  0.
         24    2    4    4    0    0 -0.26230416734E+03  0.17834233317E+03  0.38364746746E+03  0.50417150761E+03  0.79962902617E+02 0.  0.
         13    1    3    3    0    0 -0.33662876133E+02  0.36194699914E+02  0.43363040952E+02  0.65754078596E+02  0.00000000000E+00 0. -1.
        -13    1    3    3    0    0 -0.93837159389E+02  0.28036569943E+03  0.56116441351E+03  0.63428371955E+03  0.00000000000E+00 0.  1.
          4    1    6    6  502    0 -0.17413644334E+03  0.14762248558E+03  0.31140130502E+03  0.38611743281E+03  0.00000000000E+00 0. -1.
          3    1    5    5  503    0  0.33696820026E+03 -0.45990622630E+03  0.11272344752E+04  0.12632176641E+04  0.00000000000E+00 0. -1.
         -4    1    5    5    0  503  0.52836002608E+02 -0.34996506215E+02  0.96076237485E+02  0.11509579501E+03  0.00000000000E+00 0.  1.
         -3    1    6    6    0  502 -0.88167724001E+02  0.30719847595E+02  0.72246162440E+02  0.11805407481E+03  0.00000000000E+00 0.  1.
<mgrwt>
<rscale>  0 0.13336998E+04</rscale>
<asrwt>0</asrwt>
<pdfrwt beam="1">  1        2 0.36876985E+00 0.13336998E+04</pdfrwt>
<pdfrwt beam="2">  1       -2 0.28541319E-01 0.13336998E+04</pdfrwt>
<totfact> 0.44063797E+01</totfact>
</mgrwt>
</event>
<event>
12    1  0.1477245E-007  0.1047063E+04  0.7818608E-02  0.9258381E-01
          1   -1    0    0  501    0  0.00000000000E+00  0.00000000000E+00  0.27428193196E+04  0.27428193196E+04  0.00000000000E+00 0. -1.
         -1   -1    0    0    0  501 -0.00000000000E+00 -0.00000000000E+00 -0.99928343979E+02  0.99928343979E+02  0.00000000000E+00 0.  1.
         23    2    1    2    0    0  0.13529276121E+02  0.50193021001E+01  0.55060052061E+03  0.56486672258E+03  0.12532057405E+03 0.  0.
        254    2    1    2    0    0 -0.13529276121E+02 -0.50193021001E+01  0.20922904550E+04  0.22778809410E+04  0.90047431863E+03 0.  0.
        -24    2    4    4    0    0 -0.17154354686E+02  0.41666228160E+03  0.14066865524E+04  0.14694943743E+04  0.82127527427E+02 0.  0.
         24    2    4    4    0    0  0.36250785652E+01 -0.42168158370E+03  0.68560390268E+03  0.80838656670E+03  0.74884114710E+02 0.  0.
         13    1    3    3    0    0  0.18184514098E+02  0.21233362442E+02  0.20917726839E+02  0.34915376694E+02  0.00000000000E+00 0.  1.
        -13    1    3    3    0    0 -0.46552379776E+01 -0.16214060342E+02  0.52968279377E+03  0.52995134589E+03  0.00000000000E+00 0. -1.
          4    1    6    6  502    0  0.14803482205E+02 -0.40410475158E+03  0.62601149757E+03  0.74525847089E+03  0.00000000000E+00 0. -1.
          1    1    5    5  503    0  0.16691753492E+02  0.34773236225E+03  0.11399001874E+04  0.11918761881E+04  0.00000000000E+00 0. -1.
         -2    1    5    5    0  503 -0.33846108178E+02  0.68929919349E+02  0.26678636493E+03  0.27761818624E+03  0.00000000000E+00 0.  1.
         -3    1    6    6    0  502 -0.11178403640E+02 -0.17576832115E+02  0.59592405105E+02  0.63128095816E+02  0.00000000000E+00 0.  1.
<mgrwt>
<rscale>  0 0.10470633E+04</rscale>
<asrwt>0</asrwt>
<pdfrwt beam="1">  1        1 0.42197215E+00 0.10470633E+04</pdfrwt>
<pdfrwt beam="2">  1       -1 0.15373593E-01 0.10470633E+04</pdfrwt>
<totfact> 0.29358734E+01</totfact>
</mgrwt>
</event>
<event>
12    1  0.1477245E-007  0.4130481E+04  0.7818608E-02  0.7978730E-01
         -2   -1    0    0    0  501 -0.00000000000E+00  0.00000000000E+00  0.17237404621E+04  0.17237404621E+04  0.00000000000E+00 0.  1.
          2   -1    0    0  501    0  0.00000000000E+00 -0.00000000000E+00 -0.24743971188E+04  0.24743971188E+04  0.00000000000E+00 0. -1.
         23    2    1    2    0    0 -0.11213190226E+04  0.16162054651E+04 -0.37365753697E+03  0.20046568889E+04  0.97738585987E+02 0.  0.
        254    2    1    2    0    0  0.11213190226E+04 -0.16162054651E+04 -0.37699911967E+03  0.21934806920E+04  0.89428896552E+03 0.  0.
        -24    2    4    4    0    0  0.88143734282E+03 -0.89221560824E+03  0.14611104982E+03  0.12651898936E+04  0.79853285435E+02 0.  0.
         24    2    4    4    0    0  0.23988167983E+03 -0.72398985688E+03 -0.52311016950E+03  0.92829079834E+03  0.79843745381E+02 0.  0.
         11    1    3    3    0    0 -0.60388799380E+03  0.90320257732E+03 -0.25196776726E+03  0.11153220882E+04  0.00000000000E+00 0. -1.
        -11    1    3    3    0    0 -0.51743102885E+03  0.71300288780E+03 -0.12168976972E+03  0.88933480067E+03  0.00000000000E+00 0.  1.
          4    1    6    6  502    0  0.11952315159E+03 -0.24771018865E+03 -0.20507876680E+03  0.34307932308E+03  0.00000000000E+00 0. -1.
          3    1    5    5  503    0  0.45136354883E+02 -0.70099555442E+02  0.19746725091E+02  0.85680635835E+02  0.00000000000E+00 0. -1.
         -4    1    5    5    0  503  0.83630098794E+03 -0.82211605280E+03  0.12636432473E+03  0.11795092578E+04  0.00000000000E+00 0.  1.
         -3    1    6    6    0  502  0.12035852823E+03 -0.47627966822E+03 -0.31803140269E+03  0.58521147526E+03  0.00000000000E+00 0.  1.
<mgrwt>
<rscale>  0 0.41304811E+04</rscale>
<asrwt>0</asrwt>
<pdfrwt beam="1">  1        2 0.38067648E+00 0.41304811E+04</pdfrwt>
<pdfrwt beam="2">  1       -2 0.26519084E+00 0.41304811E+04</pdfrwt>
<totfact> 0.14582834E-01</totfact>
</mgrwt>
</event>
<event>
12    1  0.1477245E-007  0.1305928E+04  0.7818608E-02  0.9024877E-01
          1   -1    0    0  501    0  0.00000000000E+00  0.00000000000E+00  0.12510012042E+04  0.12510012042E+04  0.00000000000E+00 0. -1.
         -1   -1    0    0    0  501 -0.00000000000E+00 -0.00000000000E+00 -0.34081678750E+03  0.34081678750E+03  0.00000000000E+00 0.  1.
         23    2    1    2    0    0  0.18394269228E+02  0.14253076878E+03  0.64387577818E+03  0.66608505299E+03  0.91868987661E+02 0.  0.
        254    2    1    2    0    0 -0.18394269228E+02 -0.14253076878E+03  0.26630863851E+03  0.92573293871E+03  0.87487588472E+03 0.  0.
        -24    2    4    4    0    0 -0.33865268544E+03  0.11772917640E+03 -0.85615567398E+02  0.37765751621E+03  0.82154572858E+02 0.  0.
         24    2    4    4    0    0  0.32025841621E+03 -0.26025994518E+03  0.35192420591E+03  0.54807542249E+03  0.78964104602E+02 0.  0.
         13    1    3    3    0    0  0.30309457051E+02  0.35569092615E+02  0.85552933090E+02  0.97483987898E+02  0.00000000000E+00 0.  1.
        -13    1    3    3    0    0 -0.11915187823E+02  0.10696167617E+03  0.55832284509E+03  0.56860106509E+03  0.00000000000E+00 0. -1.
          2    1    6    6  502    0  0.20974373208E+03 -0.21330764462E+03  0.26731067880E+03  0.40118273069E+03  0.00000000000E+00 0. -1.
          1    1    5    5  503    0 -0.30892022805E+03  0.11102366582E+03 -0.52131536475E+02  0.33237878808E+03  0.00000000000E+00 0. -1.
         -2    1    5    5    0  503 -0.29732457388E+02  0.67055105802E+01 -0.33484030924E+02  0.45278728134E+02  0.00000000000E+00 0.  1.
         -1    1    6    6    0  502  0.11051468413E+03 -0.46952300563E+02  0.84613527108E+02  0.14689269180E+03  0.00000000000E+00 0.  1.
<mgrwt>
<rscale>  0 0.13059283E+04</rscale>
<asrwt>0</asrwt>
<pdfrwt beam="1">  1        1 0.19246172E+00 0.13059283E+04</pdfrwt>
<pdfrwt beam="2">  1       -1 0.52433353E-01 0.13059283E+04</pdfrwt>
<totfact> 0.35301538E+01</totfact>
</mgrwt>
</event>
<event>
12    1  0.1477245E-007  0.1052775E+04  0.7818608E-02  0.9252483E-01
          2   -1    0    0  501    0  0.00000000000E+00  0.00000000000E+00  0.10934721195E+04  0.10934721195E+04  0.00000000000E+00 0. -1.
         -2   -1    0    0    0  501 -0.00000000000E+00 -0.00000000000E+00 -0.25339830944E+03  0.25339830944E+03  0.00000000000E+00 0.  1.
         23    2    1    2    0    0 -0.61203515054E+02 -0.14466169916E+02  0.22590827573E+03  0.25124749681E+03  0.90197645657E+02 0.  0.
        254    2    1    2    0    0  0.61203515054E+02  0.14466169916E+02  0.61416553435E+03  0.10956229322E+04  0.90511610613E+03 0.  0.
        -24    2    4    4    0    0  0.32428025194E+03  0.18978809972E+03  0.66322713409E+03  0.76609011192E+03  0.76463217292E+02 0.  0.
         24    2    4    4    0    0 -0.26307673689E+03 -0.17532192980E+03 -0.49061599733E+02  0.32953282024E+03  0.78979050947E+02 0.  0.
         13    1    3    3    0    0 -0.71284911098E+01 -0.13141373006E+02  0.17907731468E+03  0.17970029410E+03  0.00000000000E+00 0. -1.
        -13    1    3    3    0    0 -0.54075023944E+02 -0.13247969105E+01  0.46830961055E+02  0.71547202704E+02  0.00000000000E+00 0.  1.
          2    1    6    6  502    0 -0.25036514349E+03 -0.18323546499E+03 -0.42378754689E+02  0.31313559292E+03  0.00000000000E+00 0. -1.
          1    1    5    5  503    0  0.19385467816E+03  0.14691237764E+03  0.46781313814E+03  0.52726844697E+03  0.00000000000E+00 0. -1.
         -2    1    5    5    0  503  0.13042557378E+03  0.42875722074E+02  0.19541399594E+03  0.23882166495E+03  0.00000000000E+00 0.  1.
         -1    1    6    6    0  502 -0.12711593398E+02  0.79135351916E+01 -0.66828450439E+01  0.16397227321E+02  0.00000000000E+00 0.  1.
<mgrwt>
<rscale>  0 0.10527754E+04</rscale>
<asrwt>0</asrwt>
<pdfrwt beam="1">  1        2 0.16822648E+00 0.10527754E+04</pdfrwt>
<pdfrwt beam="2">  1       -2 0.38984356E-01 0.10527754E+04</pdfrwt>
<totfact> 0.13603108E+02</totfact>
</mgrwt>
</event>
<event>
12    1  0.1477245E-007  0.1191728E+04  0.7818608E-02  0.9120128E-01
          2   -1    0    0  501    0  0.00000000000E+00  0.00000000000E+00  0.36155093458E+03  0.36155093458E+03  0.00000000000E+00 0. -1.
         -2   -1    0    0    0  501 -0.00000000000E+00 -0.00000000000E+00 -0.98202932193E+03  0.98202932193E+03  0.00000000000E+00 0.  1.
         23    2    1    2    0    0  0.20283477534E+02 -0.91344014642E+02 -0.37960292584E+03  0.40084570965E+03  0.88451982269E+02 0.  0.
        254    2    1    2    0    0 -0.20283477534E+02  0.91344014642E+02 -0.24087546151E+03  0.94273454685E+03  0.90662687441E+03 0.  0.
        -24    2    4    4    0    0  0.25262090907E+03  0.56090711516E+02  0.25337806520E+03  0.37073437523E+03  0.79246712490E+02 0.  0.
         24    2    4    4    0    0 -0.27290438660E+03  0.35253303125E+02 -0.49425352671E+03  0.57200017162E+03  0.84723361963E+02 0.  0.
         11    1    3    3    0    0  0.38603107783E+02 -0.61994801313E+01 -0.15742377592E+03  0.16220628443E+03  0.00000000000E+00 0. -1.
        -11    1    3    3    0    0 -0.18319630249E+02 -0.85144534510E+02 -0.22217914992E+03  0.23863942522E+03  0.00000000000E+00 0.  1.
          2    1    6    6  502    0 -0.99818829389E+02  0.54066324089E+02 -0.20780647848E+03  0.23679209995E+03  0.00000000000E+00 0. -1.
          1    1    5    5  503    0  0.77050516913E+02 -0.18940732137E+02  0.65815972884E+02  0.10308867919E+03  0.00000000000E+00 0. -1.
         -2    1    5    5    0  503  0.17557039215E+03  0.75031443653E+02  0.18756209232E+03  0.26764569604E+03  0.00000000000E+00 0.  1.
         -1    1    6    6    0  502 -0.17308555721E+03 -0.18813020963E+02 -0.28644704823E+03  0.33520807167E+03  0.00000000000E+00 0.  1.
<mgrwt>
<rscale>  0 0.11917275E+04</rscale>
<asrwt>0</asrwt>
<pdfrwt beam="1">  1        2 0.55623221E-01 0.11917275E+04</pdfrwt>
<pdfrwt beam="2">  1       -2 0.15108143E+00 0.11917275E+04</pdfrwt>
<totfact> 0.25830537E+01</totfact>
</mgrwt>
</event>
<event>
12    1  0.1477245E-007  0.1767421E+04  0.7818608E-02  0.8723819E-01
          1   -1    0    0  501    0  0.00000000000E+00  0.00000000000E+00  0.22039527100E+04  0.22039527100E+04  0.00000000000E+00 0. -1.
         -1   -1    0    0    0  501 -0.00000000000E+00 -0.00000000000E+00 -0.35433820348E+03  0.35433820348E+03  0.00000000000E+00 0.  1.
         23    2    1    2    0    0 -0.15983924688E+03 -0.71041440369E+02  0.16057941596E+04  0.16178046714E+04  0.90119922791E+02 0.  0.
        254    2    1    2    0    0  0.15983924688E+03  0.71041440369E+02  0.24382034686E+03  0.94048624209E+03  0.89133076853E+03 0.  0.
        -24    2    4    4    0    0  0.30906115659E+03 -0.20814126351E+03  0.42156762444E+03  0.56840119744E+03  0.80740790109E+02 0.  0.
         24    2    4    4    0    0 -0.14922190972E+03  0.27918270388E+03 -0.17774727759E+03  0.37208504465E+03  0.81504756181E+02 0.  0.
         13    1    3    3    0    0 -0.59710816054E+02 -0.26687402449E+02  0.10039492373E+04  0.10060773679E+04  0.00000000000E+00 0.  1.
        -13    1    3    3    0    0 -0.10012843082E+03 -0.44354037921E+02  0.60184492230E+03  0.61172730349E+03  0.00000000000E+00 0. -1.
          4    1    6    6  502    0  0.24427947647E+01 -0.43640291842E+01 -0.49529515643E+01  0.70387304381E+01  0.00000000000E+00 0. -1.
          1    1    5    5  503    0  0.14710941309E+03 -0.63177761629E+02  0.13984482875E+03  0.21257748026E+03  0.00000000000E+00 0. -1.
         -2    1    5    5    0  503  0.16195174351E+03 -0.14496350188E+03  0.28172279569E+03  0.35582371719E+03  0.00000000000E+00 0.  1.
         -3    1    6    6    0  502 -0.15166470448E+03  0.28354673306E+03 -0.17279432602E+03  0.36504631421E+03  0.00000000000E+00 0.  1.
<mgrwt>
<rscale>  0 0.17674214E+04</rscale>
<asrwt>0</asrwt>
<pdfrwt beam="1">  1        1 0.33906964E+00 0.17674214E+04</pdfrwt>
<pdfrwt beam="2">  1       -1 0.54513571E-01 0.17674214E+04</pdfrwt>
<totfact> 0.69670669E+00</totfact>
</mgrwt>
</event>
<event>
12    1  0.1477245E-007  0.2649363E+04  0.7818608E-02  0.8351625E-01
          2   -1    0    0  501    0  0.00000000000E+00  0.00000000000E+00  0.14518431692E+04  0.14518431692E+04  0.00000000000E+00 0.  1.
         -2   -1    0    0    0  501 -0.00000000000E+00 -0.00000000000E+00 -0.12086571994E+04  0.12086571994E+04  0.00000000000E+00 0. -1.
         23    2    1    2    0    0  0.31227075522E+03  0.10123014722E+04 -0.38847846234E+03  0.11319479437E+04  0.90129553998E+02 0.  0.
        254    2    1    2    0    0 -0.31227075522E+03 -0.10123014722E+04  0.63166443210E+03  0.15285524248E+04  0.90288718320E+03 0.  0.
        -24    2    4    4    0    0 -0.42022166270E+03 -0.45509538909E+03  0.71521242094E+03  0.94957299983E+03  0.80386665335E+02 0.  0.
         24    2    4    4    0    0  0.10795090748E+03 -0.55720608307E+03 -0.83547988843E+02  0.57897942500E+03  0.78133800006E+02 0.  0.
         11    1    3    3    0    0  0.10611751324E+03  0.40649737646E+03 -0.11155474694E+03  0.43467862295E+03  0.00000000000E+00 0. -1.
        -11    1    3    3    0    0  0.20615324198E+03  0.60580409570E+03 -0.27692371540E+03  0.69726932078E+03  0.00000000000E+00 0.  1.
          2    1    6    6  502    0 -0.10177708014E+02 -0.19242712741E+02 -0.72246657307E+01  0.22936074837E+02  0.00000000000E+00 0. -1.
          1    1    5    5  503    0 -0.78540756249E+02 -0.64000389491E+02  0.80026080040E+02  0.12910799252E+03  0.00000000000E+00 0. -1.
         -2    1    5    5    0  503 -0.34168090645E+03 -0.39109499960E+03  0.63518634090E+03  0.82046500731E+03  0.00000000000E+00 0.  1.
         -1    1    6    6    0  502  0.11812861549E+03 -0.53796337033E+03 -0.76323323113E+02  0.55604335016E+03  0.00000000000E+00 0.  1.
<mgrwt>
<rscale>  0 0.26493627E+04</rscale>
<asrwt>0</asrwt>
<pdfrwt beam="1">  1        2 0.22336049E+00 0.26493627E+04</pdfrwt>
<pdfrwt beam="2">  1       -2 0.18594726E+00 0.26493627E+04</pdfrwt>
<totfact> 0.19661237E+00</totfact>
</mgrwt>
</event>
<event>
12    1  0.1477245E-007  0.1547233E+04  0.7818608E-02  0.8853637E-01
         -2   -1    0    0    0  501 -0.00000000000E+00  0.00000000000E+00  0.26825499759E+03  0.26825499759E+03  0.00000000000E+00 0.  1.
          2   -1    0    0  501    0  0.00000000000E+00 -0.00000000000E+00 -0.22310206047E+04  0.22310206047E+04  0.00000000000E+00 0. -1.
         23    2    1    2    0    0 -0.41756909917E+03 -0.26097475783E+03 -0.43408152767E+03  0.66223814353E+03  0.87526049111E+02 0.  0.
        254    2    1    2    0    0  0.41756909917E+03  0.26097475783E+03 -0.15286840794E+04  0.18370374587E+04  0.89182948668E+03 0.  0.
        -24    2    4    4    0    0 -0.25941743856E+03  0.95789533573E+02 -0.66456434821E+03  0.72424387137E+03  0.80064787054E+02 0.  0.
         24    2    4    4    0    0  0.67698653773E+03  0.16518522426E+03 -0.86411973121E+03  0.11127935874E+04  0.77522433190E+02 0.  0.
         13    1    3    3    0    0 -0.14434852677E+03 -0.13284439548E+03 -0.20164190686E+03  0.28132470420E+03  0.00000000000E+00 0. -1.
        -13    1    3    3    0    0 -0.27322057240E+03 -0.12813036235E+03 -0.23243962081E+03  0.38091343933E+03  0.00000000000E+00 0.  1.
          2    1    6    6  502    0  0.23301762482E+02 -0.49616158445E+01 -0.16633350752E+02  0.29056120246E+02  0.00000000000E+00 0. -1.
          1    1    5    5  503    0 -0.14649168243E+03  0.94075462099E+02 -0.37535577624E+03  0.41376559107E+03  0.00000000000E+00 0. -1.
         -2    1    5    5    0  503 -0.11292575612E+03  0.17140714740E+01 -0.28920857197E+03  0.31047828030E+03  0.00000000000E+00 0.  1.
         -1    1    6    6    0  502  0.65368477524E+03  0.17014684010E+03 -0.84748638045E+03  0.10837374671E+04  0.00000000000E+00 0.  1.
<mgrwt>
<rscale>  0 0.15472329E+04</rscale>
<asrwt>0</asrwt>
<pdfrwt beam="1">  1        2 0.34323392E+00 0.15472329E+04</pdfrwt>
<pdfrwt beam="2">  1       -2 0.41270002E-01 0.15472329E+04</pdfrwt>
<totfact> 0.26587479E+01</totfact>
</mgrwt>
</event>
<event>
12    1  0.1477245E-007  0.1578538E+04  0.7818608E-02  0.8833842E-01
          2   -1    0    0  501    0  0.00000000000E+00  0.00000000000E+00  0.19962560749E+04  0.19962560749E+04  0.00000000000E+00 0. -1.
         -2   -1    0    0    0  501 -0.00000000000E+00 -0.00000000000E+00 -0.31205699148E+03  0.31205699148E+03  0.00000000000E+00 0.  1.
         23    2    1    2    0    0 -0.47589556356E+03 -0.21636545763E+03  0.72988527745E+03  0.90238090739E+03  0.90929561209E+02 0.  0.
        254    2    1    2    0    0  0.47589556356E+03  0.21636545763E+03  0.95431380596E+03  0.14059321590E+04  0.89030320495E+03 0.  0.
        -24    2    4    4    0    0  0.41786022379E+02  0.45873282046E+03  0.22259714578E+03  0.51775247797E+03  0.79600671510E+02 0.  0.
         24    2    4    4    0    0  0.43410954118E+03 -0.24236736283E+03  0.73171666018E+03  0.88817968101E+03  0.79125486786E+02 0.  0.
         11    1    3    3    0    0 -0.44023849373E+03 -0.18306573908E+03  0.61979879561E+03  0.78196773797E+03  0.00000000000E+00 0. -1.
        -11    1    3    3    0    0 -0.35657069830E+02 -0.33299718547E+02  0.11008648184E+03  0.12041316941E+03  0.00000000000E+00 0.  1.
          2    1    6    6  502    0  0.16233759424E+03 -0.64169338892E+02  0.20475275008E+03  0.26906298003E+03  0.00000000000E+00 0. -1.
          1    1    5    5  503    0 -0.15046944156E+02  0.25735131892E+03  0.11192145364E+03  0.28103829572E+03  0.00000000000E+00 0. -1.
         -2    1    5    5    0  503  0.56832966535E+02  0.20138150154E+03  0.11067569214E+03  0.23671418225E+03  0.00000000000E+00 0.  1.
         -1    1    6    6    0  502  0.27177194694E+03 -0.17819802394E+03  0.52696391010E+03  0.61911670098E+03  0.00000000000E+00 0.  1.
<mgrwt>
<rscale>  0 0.15785381E+04</rscale>
<asrwt>0</asrwt>
<pdfrwt beam="1">  1        2 0.30711631E+00 0.15785381E+04</pdfrwt>
<pdfrwt beam="2">  1       -2 0.48008769E-01 0.15785381E+04</pdfrwt>
<totfact> 0.26512127E+01</totfact>
</mgrwt>
</event>
<event>
12    1  0.1477245E-007  0.1774848E+04  0.7818608E-02  0.8719790E-01
         -1   -1    0    0    0  501 -0.00000000000E+00  0.00000000000E+00  0.21066895212E+04  0.21066895212E+04  0.00000000000E+00 0.  1.
          1   -1    0    0  501    0  0.00000000000E+00 -0.00000000000E+00 -0.37381952554E+03  0.37381952554E+03  0.00000000000E+00 0. -1.
         23    2    1    2    0    0 -0.29653697089E+03  0.28146292630E+02  0.14576210197E+04  0.14905260712E+04  0.91008477648E+02 0.  0.
        254    2    1    2    0    0  0.29653697089E+03 -0.28146292630E+02  0.27524897597E+03  0.98998297554E+03  0.90309351907E+03 0.  0.
        -24    2    4    4    0    0 -0.94102942655E+02 -0.18566119378E+03 -0.23468945548E+03  0.32361570738E+03  0.79514419190E+02 0.  0.
         24    2    4    4    0    0  0.39063991355E+03  0.15751490115E+03  0.50993843145E+03  0.66636726815E+03  0.81225895223E+02 0.  0.
         11    1    3    3    0    0 -0.20980740006E+02  0.16362576225E+02  0.55657055386E+02  0.61689814120E+02  0.00000000000E+00 0. -1.
        -11    1    3    3    0    0 -0.27555623089E+03  0.11783716405E+02  0.14019639643E+04  0.14288362571E+04  0.00000000000E+00 0.  1.
          4    1    6    6  502    0  0.16691860313E+03  0.11067426746E+03  0.24578902178E+03  0.31705339736E+03  0.00000000000E+00 0. -1.
          3    1    5    5  503    0 -0.30947458138E+01 -0.82083334197E+02 -0.63615490405E+02  0.10389505197E+03  0.00000000000E+00 0. -1.
         -4    1    5    5    0  503 -0.91008196841E+02 -0.10357785958E+03 -0.17107396508E+03  0.21972065541E+03  0.00000000000E+00 0.  1.
         -3    1    6    6    0  502  0.22372131042E+03  0.46840633684E+02  0.26414940967E+03  0.34931387080E+03  0.00000000000E+00 0.  1.
<mgrwt>
<rscale>  0 0.17748484E+04</rscale>
<asrwt>0</asrwt>
<pdfrwt beam="1">  1        1 0.57510698E-01 0.17748484E+04</pdfrwt>
<pdfrwt beam="2">  1       -1 0.32410607E+00 0.17748484E+04</pdfrwt>
<totfact> 0.14311314E+00</totfact>
</mgrwt>
</event>
<event>
12    1  0.1477245E-007  0.1699503E+04  0.7818608E-02  0.8761648E-01
          1   -1    0    0  501    0  0.00000000000E+00  0.00000000000E+00  0.17399832532E+04  0.17399832532E+04  0.00000000000E+00 0. -1.
         -1   -1    0    0    0  501 -0.00000000000E+00 -0.00000000000E+00 -0.41499135746E+03  0.41499135746E+03  0.00000000000E+00 0.  1.
         23    2    1    2    0    0  0.14306929705E+03  0.40448489365E+03  0.10574813136E+04  0.11448438851E+04  0.91235626508E+02 0.  0.
        254    2    1    2    0    0 -0.14306929705E+03 -0.40448489365E+03  0.26751058217E+03  0.10101307256E+04  0.87448574509E+03 0.  0.
        -24    2    4    4    0    0  0.13904770311E+03  0.18772301617E+03  0.24671770135E+03  0.34898597669E+03  0.79670529226E+02 0.  0.
         24    2    4    4    0    0 -0.28211700016E+03 -0.59220790983E+03  0.20792880826E+02  0.66114474896E+03  0.79873806347E+02 0.  0.
         11    1    3    3    0    0  0.65349863172E+01  0.17723748954E+02  0.13600886490E+02  0.23277058157E+02  0.00000000000E+00 0.  1.
        -11    1    3    3    0    0  0.13653431073E+03  0.38676114470E+03  0.10438804271E+04  0.11215668269E+04  0.00000000000E+00 0. -1.
          4    1    6    6  502    0 -0.25980889259E+03 -0.57022173738E+03  0.63482324520E+01  0.62665284688E+03  0.00000000000E+00 0. -1.
          3    1    5    5  503    0  0.99548919990E+02  0.10026726364E+03  0.97839461073E+02  0.17186061728E+03  0.00000000000E+00 0. -1.
         -4    1    5    5    0  503  0.39498783122E+02  0.87455752534E+02  0.14887824027E+03  0.17712535941E+03  0.00000000000E+00 0.  1.
         -3    1    6    6    0  502 -0.22308107570E+02 -0.21986172449E+02  0.14444648374E+02  0.34491902078E+02  0.00000000000E+00 0.  1.
<mgrwt>
<rscale>  0 0.16995035E+04</rscale>
<asrwt>0</asrwt>
<pdfrwt beam="1">  1        1 0.26768973E+00 0.16995035E+04</pdfrwt>
<pdfrwt beam="2">  1       -1 0.63844825E-01 0.16995035E+04</pdfrwt>
<totfact> 0.10597590E+01</totfact>
</mgrwt>
</event>
<event>
12    1  0.1477245E-007  0.1881464E+04  0.7818608E-02  0.8664138E-01
          2   -1    0    0  501    0  0.00000000000E+00  0.00000000000E+00  0.13955885861E+04  0.13955885861E+04  0.00000000000E+00 0. -1.
         -2   -1    0    0    0  501 -0.00000000000E+00 -0.00000000000E+00 -0.63412461026E+03  0.63412461026E+03  0.00000000000E+00 0.  1.
         23    2    1    2    0    0 -0.35942058900E+03  0.31635434025E+03  0.85942804717E+03  0.98797712950E+03  0.90658765482E+02 0.  0.
        254    2    1    2    0    0  0.35942058900E+03 -0.31635434025E+03 -0.97964071302E+02  0.10417360669E+04  0.91997491564E+03 0.  0.
        -24    2    4    4    0    0  0.63944094179E+03 -0.19976768045E+03 -0.21312880014E+03  0.70750727950E+03  0.79692038001E+02 0.  0.
         24    2    4    4    0    0 -0.28002035278E+03 -0.11658665980E+03  0.11516472883E+03  0.33422878739E+03  0.80262820368E+02 0.  0.
         11    1    3    3    0    0 -0.81990428460E+02  0.62069679034E+02  0.26704538249E+03  0.28616133862E+03  0.00000000000E+00 0.  1.
        -11    1    3    3    0    0 -0.27743016054E+03  0.25428466122E+03  0.59238266468E+03  0.70181579088E+03  0.00000000000E+00 0. -1.
          4    1    6    6  502    0 -0.27035655740E+03 -0.12753253548E+03  0.11244584429E+03  0.31937639806E+03  0.00000000000E+00 0. -1.
          1    1    5    5  503    0  0.46944267785E+03 -0.11602630284E+03 -0.17460957221E+03  0.51412744864E+03  0.00000000000E+00 0. -1.
         -2    1    5    5    0  503  0.16999826394E+03 -0.83741377612E+02 -0.38519227927E+02  0.19337983087E+03  0.00000000000E+00 0.  1.
         -3    1    6    6    0  502 -0.96637953819E+01  0.10945875683E+02  0.27188845427E+01  0.14852389330E+02  0.00000000000E+00 0.  1.
<mgrwt>
<rscale>  0 0.18814644E+04</rscale>
<asrwt>0</asrwt>
<pdfrwt beam="1">  1        2 0.21470594E+00 0.18814644E+04</pdfrwt>
<pdfrwt beam="2">  1       -2 0.97557632E-01 0.18814644E+04</pdfrwt>
<totfact> 0.11956310E+01</totfact>
</mgrwt>
</event>
<event>
12    1  0.1477245E-007  0.2538802E+04  0.7818608E-02  0.8389291E-01
         -1   -1    0    0    0  501 -0.00000000000E+00  0.00000000000E+00  0.18600799216E+04  0.18600799216E+04  0.00000000000E+00 0.  1.
          1   -1    0    0  501    0  0.00000000000E+00 -0.00000000000E+00 -0.86629548214E+03  0.86629548214E+03  0.00000000000E+00 0. -1.
         23    2    1    2    0    0 -0.24295290089E+03  0.10270740509E+04  0.73008938588E+02  0.10609546516E+04  0.79920269841E+02 0.  0.
        254    2    1    2    0    0  0.24295290089E+03 -0.10270740509E+04  0.92077550087E+03  0.16654207521E+04  0.90105024306E+03 0.  0.
        -24    2    4    4    0    0 -0.82386056268E+02  0.12636115777E+02  0.46927934512E+03  0.48347913319E+03  0.81128507817E+02 0.  0.
         24    2    4    4    0    0  0.32533895716E+03 -0.10397101667E+04  0.45149615575E+03  0.11819416189E+04  0.79338163365E+02 0.  0.
         11    1    3    3    0    0 -0.14508075551E+03  0.69954521618E+03  0.81100416620E+02  0.71901961912E+03  0.00000000000E+00 0. -1.
        -11    1    3    3    0    0 -0.97872145388E+02  0.32752883474E+03 -0.80914780321E+01  0.34193503249E+03  0.00000000000E+00 0.  1.
          4    1    6    6  502    0  0.12626673341E+03 -0.32565804325E+03  0.17603344920E+03  0.39113197815E+03  0.00000000000E+00 0. -1.
          3    1    5    5  503    0 -0.84883229141E+01 -0.26758218319E+02  0.18514500745E+03  0.18726112159E+03  0.00000000000E+00 0. -1.
         -4    1    5    5    0  503 -0.73897733353E+02  0.39394334096E+02  0.28413433767E+03  0.29621801160E+03  0.00000000000E+00 0.  1.
         -3    1    6    6    0  502  0.19907222375E+03 -0.71405212345E+03  0.27546270654E+03  0.79080964079E+03  0.00000000000E+00 0.  1.
<mgrwt>
<rscale>  0 0.25388019E+04</rscale>
<asrwt>0</asrwt>
<pdfrwt beam="1">  1        1 0.13327623E+00 0.25388019E+04</pdfrwt>
<pdfrwt beam="2">  1       -1 0.28616614E+00 0.25388019E+04</pdfrwt>
<totfact> 0.69756792E-01</totfact>
</mgrwt>
</event>
<event>
12    1  0.1477245E-007  0.1400115E+04  0.7818608E-02  0.8953735E-01
          1   -1    0    0  501    0  0.00000000000E+00  0.00000000000E+00  0.19993055502E+04  0.19993055502E+04  0.00000000000E+00 0. -1.
         -1   -1    0    0    0  501 -0.00000000000E+00 -0.00000000000E+00 -0.24512530224E+03  0.24512530224E+03  0.00000000000E+00 0.  1.
         23    2    1    2    0    0 -0.28040522450E+03 -0.25247569417E+03  0.27674418651E+03  0.47679041834E+03  0.91491486920E+02 0.  0.
        254    2    1    2    0    0  0.28040522450E+03  0.25247569417E+03  0.14774360614E+04  0.17676404341E+04  0.89407176585E+03 0.  0.
        -24    2    4    4    0    0  0.53814124424E+03  0.36386320978E+03  0.82214446455E+03  0.10501765521E+04  0.70404800206E+02 0.  0.
         24    2    4    4    0    0 -0.25773601974E+03 -0.11138751561E+03  0.65529159686E+03  0.71746388191E+03  0.80698887457E+02 0.  0.
         11    1    3    3    0    0 -0.15887912713E+03 -0.14436018987E+03  0.21204484754E+03  0.30173740044E+03  0.00000000000E+00 0. -1.
        -11    1    3    3    0    0 -0.12152609737E+03 -0.10811550430E+03  0.64699338971E+02  0.17505301790E+03  0.00000000000E+00 0.  1.
          4    1    6    6  502    0 -0.19301181328E+03 -0.87150913011E+02  0.39542945981E+03  0.44856805436E+03  0.00000000000E+00 0. -1.
          1    1    5    5  503    0  0.30608853410E+03  0.24685229207E+03  0.51058540631E+03  0.64445612880E+03  0.00000000000E+00 0. -1.
         -2    1    5    5    0  503  0.23205271013E+03  0.11701091771E+03  0.31155905824E+03  0.40572042334E+03  0.00000000000E+00 0.  1.
         -3    1    6    6    0  502 -0.64724206456E+02 -0.24236602603E+02  0.25986213705E+03  0.26889582756E+03  0.00000000000E+00 0.  1.
<mgrwt>
<rscale>  0 0.14001148E+04</rscale>
<asrwt>0</asrwt>
<pdfrwt beam="1">  1        1 0.30758546E+00 0.14001148E+04</pdfrwt>
<pdfrwt beam="2">  1       -1 0.37711586E-01 0.14001148E+04</pdfrwt>
<totfact> 0.19745295E+01</totfact>
</mgrwt>
</event>
<event>
12    1  0.1477245E-007  0.2052299E+04  0.7818608E-02  0.8582552E-01
          2   -1    0    0  501    0  0.00000000000E+00  0.00000000000E+00  0.27330891060E+04  0.27330891060E+04  0.00000000000E+00 0. -1.
         -2   -1    0    0    0  501 -0.00000000000E+00 -0.00000000000E+00 -0.38527193130E+03  0.38527193130E+03  0.00000000000E+00 0.  1.
         23    2    1    2    0    0  0.19608648200E+03  0.45179481764E+03  0.19488749436E+04  0.20121837948E+04  0.90562755491E+02 0.  0.
        254    2    1    2    0    0 -0.19608648200E+03 -0.45179481764E+03  0.39894223110E+03  0.11061772425E+04  0.90658961077E+03 0.  0.
        -24    2    4    4    0    0  0.14346158447E+03  0.21778178154E+03  0.75209604467E+02  0.28408183197E+03  0.83880105278E+02 0.  0.
         24    2    4    4    0    0 -0.33954806647E+03 -0.66957659918E+03  0.32373262664E+03  0.82209541051E+03  0.86094940731E+02 0.  0.
         11    1    3    3    0    0  0.10971618728E+03  0.34841680526E+03  0.13727115163E+04  0.14204818968E+04  0.00000000000E+00 0. -1.
        -11    1    3    3    0    0  0.86370294725E+02  0.10337801238E+03  0.57616342727E+03  0.59170189807E+03  0.00000000000E+00 0.  1.
          4    1    6    6  502    0 -0.18610554083E+03 -0.45668136926E+03  0.20506034934E+03  0.53408135357E+03  0.00000000000E+00 0. -1.
          3    1    5    5  503    0  0.42862627024E+02  0.13365549723E+03  0.57788311457E+02  0.15179092752E+03  0.00000000000E+00 0. -1.
         -4    1    5    5    0  503  0.10059895744E+03  0.84126284310E+02  0.17421293010E+02  0.13229090445E+03  0.00000000000E+00 0.  1.
         -3    1    6    6    0  502 -0.15344252564E+03 -0.21289522992E+03  0.11867227729E+03  0.28801405694E+03  0.00000000000E+00 0.  1.
<mgrwt>
<rscale>  0 0.20522987E+04</rscale>
<asrwt>0</asrwt>
<pdfrwt beam="1">  1        2 0.42047523E+00 0.20522987E+04</pdfrwt>
<pdfrwt beam="2">  1       -2 0.59272607E-01 0.20522987E+04</pdfrwt>
<totfact> 0.62447895E+00</totfact>
</mgrwt>
</event>
<event>
12    1  0.1477245E-007  0.2181572E+04  0.7818608E-02  0.8526138E-01
          1   -1    0    0  501    0  0.00000000000E+00  0.00000000000E+00  0.12344047627E+04  0.12344047627E+04  0.00000000000E+00 0. -1.
         -1   -1    0    0    0  501 -0.00000000000E+00 -0.00000000000E+00 -0.96387694009E+03  0.96387694009E+03  0.00000000000E+00 0.  1.
         23    2    1    2    0    0 -0.10038614359E+02 -0.79148822480E+03 -0.32364011545E+03  0.85985737555E+03  0.89763011187E+02 0.  0.
        254    2    1    2    0    0  0.10038614359E+02  0.79148822480E+03  0.59416793807E+03  0.13384243273E+04  0.90099376101E+03 0.  0.
        -24    2    4    4    0    0  0.12881280590E+03  0.20718895033E+01 -0.17183367899E+03  0.22940732722E+03  0.80646617161E+02 0.  0.
         24    2    4    4    0    0 -0.11877419154E+03  0.78941633530E+03  0.76600161706E+03  0.11090170000E+04  0.76647048338E+02 0.  0.
         13    1    3    3    0    0 -0.21584589145E+02 -0.16321598750E+03 -0.34804816373E+02  0.16827575080E+03  0.00000000000E+00 0. -1.
        -13    1    3    3    0    0  0.11545974786E+02 -0.62827223731E+03 -0.28883529908E+03  0.69158162475E+03  0.00000000000E+00 0.  1.
          2    1    6    6  502    0  0.81329286743E+01  0.12684806610E+03  0.11146067150E+03  0.16905637430E+03  0.00000000000E+00 0. -1.
          3    1    5    5  503    0  0.70136105818E+02 -0.34018712514E+02 -0.61309364154E+02  0.99172497565E+02  0.00000000000E+00 0. -1.
         -4    1    5    5    0  503  0.58676700078E+02  0.36090602017E+02 -0.11052431483E+03  0.13023482966E+03  0.00000000000E+00 0.  1.
         -1    1    6    6    0  502 -0.12690712021E+03  0.66256826920E+03  0.65454094556E+03  0.93996062574E+03  0.00000000000E+00 0.  1.
<mgrwt>
<rscale>  0 0.21815722E+04</rscale>
<asrwt>0</asrwt>
<pdfrwt beam="1">  1        1 0.18990843E+00 0.21815722E+04</pdfrwt>
<pdfrwt beam="2">  1       -1 0.14828876E+00 0.21815722E+04</pdfrwt>
<totfact> 0.33146054E+00</totfact>
</mgrwt>
</event>
<event>
12    1  0.1477245E-007  0.2152344E+04  0.7818608E-02  0.8538530E-01
         -2   -1    0    0    0  501 -0.00000000000E+00  0.00000000000E+00  0.99101005395E+03  0.99101005395E+03  0.00000000000E+00 0. -1.
          2   -1    0    0  501    0  0.00000000000E+00 -0.00000000000E+00 -0.11686522339E+04  0.11686522339E+04  0.00000000000E+00 0.  1.
         23    2    1    2    0    0  0.94011805272E+02 -0.85987986680E+03 -0.29964705242E+03  0.91801017396E+03  0.68722038747E+02 0.  0.
        254    2    1    2    0    0 -0.94011805272E+02  0.85987986680E+03  0.12200487245E+03  0.12416521139E+04  0.88237360468E+03 0.  0.
        -24    2    4    4    0    0 -0.32779039356E+03  0.49826772659E+03  0.40027628636E+03  0.72254817916E+03  0.78342174503E+02 0.  0.
         24    2    4    4    0    0  0.23377858829E+03  0.36161214020E+03 -0.27827141391E+03  0.51910393475E+03  0.81351994375E+02 0.  0.
         13    1    3    3    0    0  0.56352275096E+02 -0.73497000423E+03 -0.26042321522E+03  0.78177793334E+03  0.00000000000E+00 0. -1.
        -13    1    3    3    0    0  0.37659530176E+02 -0.12490986256E+03 -0.39223837208E+02  0.13623224062E+03  0.00000000000E+00 0.  1.
          4    1    6    6  502    0  0.91788150543E+02  0.19587569786E+03 -0.10505970509E+03  0.24047847144E+03  0.00000000000E+00 0. -1.
          1    1    5    5  503    0 -0.32761461524E+03  0.48911338564E+03  0.38106292728E+03  0.70126471084E+03  0.00000000000E+00 0. -1.
         -2    1    5    5    0  503 -0.17577832614E+00  0.91543409561E+01  0.19213359082E+02  0.21283468316E+02  0.00000000000E+00 0.  1.
         -1    1    6    6    0  502  0.14199043775E+03  0.16573644234E+03 -0.17321170882E+03  0.27862546331E+03  0.00000000000E+00 0.  1.
<mgrwt>
<rscale>  0 0.21523439E+04</rscale>
<asrwt>0</asrwt>
<pdfrwt beam="1">  1        2 0.17979265E+00 0.21523439E+04</pdfrwt>
<pdfrwt beam="2">  1       -2 0.15246309E+00 0.21523439E+04</pdfrwt>
<totfact> 0.52081229E+00</totfact>
</mgrwt>
</event>
<event>
12    1  0.1477245E-007  0.2811816E+04  0.7818608E-02  0.8299609E-01
          2   -1    0    0  501    0  0.00000000000E+00  0.00000000000E+00  0.39464150904E+04  0.39464150904E+04  0.00000000000E+00 0. -1.
         -2   -1    0    0    0  501 -0.00000000000E+00 -0.00000000000E+00 -0.50085395167E+03  0.50085395167E+03  0.00000000000E+00 0.  1.
         23    2    1    2    0    0  0.35257427326E+03 -0.68807139930E+03  0.31291449015E+04  0.32245638955E+04  0.92269348366E+02 0.  0.
        254    2    1    2    0    0 -0.35257427326E+03  0.68807139930E+03  0.31641623724E+03  0.12227051466E+04  0.89282572301E+03 0.  0.
        -24    2    4    4    0    0  0.22044511094E+03  0.11574041830E+03 -0.13253760892E+03  0.29318850599E+03  0.80008692653E+02 0.  0.
         24    2    4    4    0    0 -0.57301938420E+03  0.57233098100E+03  0.44895384616E+03  0.92951664063E+03  0.80793952392E+02 0.  0.
         13    1    3    3    0    0  0.33404647582E+03 -0.60232873530E+03  0.26928237767E+04  0.27795119798E+04  0.00000000000E+00 0. -1.
        -13    1    3    3    0    0  0.18527797441E+02 -0.85742663999E+02  0.43632112482E+03  0.44505191571E+03  0.00000000000E+00 0.  1.
          2    1    6    6  502    0 -0.20861616647E+02  0.89385403139E+01  0.25706352350E+02  0.34291706042E+02  0.00000000000E+00 0. -1.
          3    1    5    5  503    0  0.38325234450E+02  0.59418075023E+02 -0.31002748695E+02  0.77204285255E+02  0.00000000000E+00 0. -1.
         -4    1    5    5    0  503  0.18211987649E+03  0.56322343275E+02 -0.10153486022E+03  0.21598422073E+03  0.00000000000E+00 0.  1.
         -1    1    6    6    0  502 -0.55215776755E+03  0.56339244068E+03  0.42324749381E+03  0.89522493459E+03  0.00000000000E+00 0.  1.
<mgrwt>
<rscale>  0 0.28118162E+04</rscale>
<asrwt>0</asrwt>
<pdfrwt beam="1">  1        2 0.60714076E+00 0.28118162E+04</pdfrwt>
<pdfrwt beam="2">  1       -2 0.77054457E-01 0.28118162E+04</pdfrwt>
<totfact> 0.49403039E-01</totfact>
</mgrwt>
</event>
<event>
12    1  0.1477245E-007  0.1253170E+04  0.7818608E-02  0.9067549E-01
         -2   -1    0    0    0  501 -0.00000000000E+00  0.00000000000E+00  0.37505753395E+03  0.37505753395E+03  0.00000000000E+00 0.  1.
          2   -1    0    0  501    0  0.00000000000E+00 -0.00000000000E+00 -0.10467960199E+04  0.10467960199E+04  0.00000000000E+00 0. -1.
         23    2    1    2    0    0 -0.19890858311E+03  0.13777903081E+03 -0.35657725461E+03  0.44040035999E+03  0.90870527758E+02 0.  0.
        254    2    1    2    0    0  0.19890858311E+03 -0.13777903081E+03 -0.31516123131E+03  0.98145319381E+03  0.89742748128E+03 0.  0.
        -24    2    4    4    0    0 -0.32288306027E+03  0.39351885636E+02 -0.25564994974E+03  0.42129582607E+03  0.79569056487E+02 0.  0.
         24    2    4    4    0    0  0.52179164338E+03 -0.17713091645E+03 -0.59511281570E+02  0.56015736774E+03  0.81196079570E+02 0.  0.
         11    1    3    3    0    0 -0.11050289545E+03  0.26765184635E+02 -0.12659929879E+03  0.17016065193E+03  0.00000000000E+00 0.  1.
        -11    1    3    3    0    0 -0.88405687659E+02  0.11101384618E+03 -0.22997795582E+03  0.27023970806E+03  0.00000000000E+00 0. -1.
          4    1    6    6  502    0  0.33901025071E+03 -0.13360443144E+03 -0.46408653162E+01  0.36441683800E+03  0.00000000000E+00 0. -1.
          1    1    5    5  503    0 -0.18951248957E+03  0.55392920454E+02 -0.17972890411E+03  0.26699407917E+03  0.00000000000E+00 0. -1.
         -2    1    5    5    0  503 -0.13337057070E+03 -0.16041034818E+02 -0.75921045624E+02  0.15430174690E+03  0.00000000000E+00 0.  1.
         -3    1    6    6    0  502  0.18278139267E+03 -0.43526485008E+02 -0.54870416254E+02  0.19574052974E+03  0.00000000000E+00 0.  1.
<mgrwt>
<rscale>  0 0.12531700E+04</rscale>
<asrwt>0</asrwt>
<pdfrwt beam="1">  1        2 0.16104554E+00 0.12531700E+04</pdfrwt>
<pdfrwt beam="2">  1       -2 0.57701161E-01 0.12531700E+04</pdfrwt>
<totfact> 0.65036605E+01</totfact>
</mgrwt>
</event>
<event>
12    1  0.1477245E-007  0.1405924E+04  0.7818608E-02  0.8949542E-01
          2   -1    0    0  501    0  0.00000000000E+00  0.00000000000E+00  0.83017152874E+03  0.83017152874E+03  0.00000000000E+00 0. -1.
         -2   -1    0    0    0  501 -0.00000000000E+00 -0.00000000000E+00 -0.59524519823E+03  0.59524519823E+03  0.00000000000E+00 0.  1.
         23    2    1    2    0    0 -0.36463028877E+03  0.16715629222E+03 -0.16665881061E+02  0.41179139845E+03  0.91640224396E+02 0.  0.
        254    2    1    2    0    0  0.36463028877E+03 -0.16715629222E+03  0.25159221156E+03  0.10136253285E+04  0.89623724102E+03 0.  0.
        -24    2    4    4    0    0 -0.18590849368E+03  0.32262150600E+02 -0.18728791898E+03  0.27755042786E+03  0.79716127751E+02 0.  0.
         24    2    4    4    0    0  0.55053878245E+03 -0.19941844282E+03  0.43888013054E+03  0.73607490067E+03  0.79560191601E+02 0.  0.
         13    1    3    3    0    0 -0.30792346150E+03  0.13115635831E+03 -0.47207243019E+02  0.33800498851E+03  0.00000000000E+00 0. -1.
        -13    1    3    3    0    0 -0.56706827268E+02  0.35999933915E+02  0.30541361958E+02  0.73786409934E+02  0.00000000000E+00 0.  1.
          4    1    6    6  502    0  0.15734081865E+03 -0.93945322521E+02  0.12142077279E+03  0.21982916299E+03  0.00000000000E+00 0. -1.
          3    1    5    5  503    0 -0.43575927729E+02 -0.24641419363E+02 -0.61220986964E+02  0.79082679965E+02  0.00000000000E+00 0. -1.
         -4    1    5    5    0  503 -0.14233256595E+03  0.56903569963E+02 -0.12606693201E+03  0.19846774789E+03  0.00000000000E+00 0.  1.
         -3    1    6    6    0  502  0.39319796380E+03 -0.10547312030E+03  0.31745935775E+03  0.51624573767E+03  0.00000000000E+00 0.  1.
<mgrwt>
<rscale>  0 0.14059241E+04</rscale>
<asrwt>0</asrwt>
<pdfrwt beam="1">  1        2 0.12771870E+00 0.14059241E+04</pdfrwt>
<pdfrwt beam="2">  1       -2 0.91576185E-01 0.14059241E+04</pdfrwt>
<totfact> 0.32380640E+01</totfact>
</mgrwt>
</event>
<event>
12    1  0.1477245E-007  0.1225732E+04  0.7818608E-02  0.9090627E-01
         -1   -1    0    0    0  501 -0.00000000000E+00  0.00000000000E+00  0.13797236894E+03  0.13797236894E+03  0.00000000000E+00 0.  1.
          1   -1    0    0  501    0  0.00000000000E+00 -0.00000000000E+00 -0.27223170578E+04  0.27223170578E+04  0.00000000000E+00 0. -1.
         23    2    1    2    0    0  0.17296901132E+03  0.19503138039E+03 -0.44468298851E+03  0.52345046619E+03  0.91114829013E+02 0.  0.
        254    2    1    2    0    0 -0.17296901132E+03 -0.19503138039E+03 -0.21396617003E+04  0.23368389606E+04  0.90261210796E+03 0.  0.
        -24    2    4    4    0    0  0.17077224190E+03  0.73951896982E+02 -0.61785248836E+02  0.21215722519E+03  0.81001416993E+02 0.  0.
         24    2    4    4    0    0 -0.34374125322E+03 -0.26898327737E+03 -0.20778764515E+04  0.21246817354E+04  0.78688475667E+02 0.  0.
         11    1    3    3    0    0  0.82143829889E+01  0.49546589506E+02 -0.13212072456E+03  0.14134435425E+03  0.00000000000E+00 0. -1.
        -11    1    3    3    0    0  0.16475462833E+03  0.14548479089E+03 -0.31256226396E+03  0.38210611194E+03  0.00000000000E+00 0.  1.
          2    1    6    6  502    0 -0.26997749269E+03 -0.22793791685E+03 -0.15249405480E+04  0.15653393291E+04  0.00000000000E+00 0. -1.
          3    1    5    5  503    0  0.14803454259E+03  0.30625059352E+02 -0.30901890505E+02  0.15429532364E+03  0.00000000000E+00 0. -1.
         -4    1    5    5    0  503  0.22737699309E+02  0.43326837630E+02 -0.30883358331E+02  0.57861901547E+02  0.00000000000E+00 0.  1.
         -1    1    6    6    0  502 -0.73763760529E+02 -0.41045360524E+02 -0.55293590353E+03  0.55934240622E+03  0.00000000000E+00 0.  1.
<mgrwt>
<rscale>  0 0.12257317E+04</rscale>
<asrwt>0</asrwt>
<pdfrwt beam="1">  1        1 0.41881796E+00 0.12257317E+04</pdfrwt>
<pdfrwt beam="2">  1       -1 0.21226521E-01 0.12257317E+04</pdfrwt>
<totfact> 0.17447941E+01</totfact>
</mgrwt>
</event>
<event>
12    1  0.1477245E-007  0.1516434E+04  0.7818608E-02  0.8873597E-01
         -1   -1    0    0    0  501 -0.00000000000E+00  0.00000000000E+00  0.16581376415E+03  0.16581376415E+03  0.00000000000E+00 0.  1.
          1   -1    0    0  501    0  0.00000000000E+00 -0.00000000000E+00 -0.34671027674E+04  0.34671027674E+04  0.00000000000E+00 0. -1.
         23    2    1    2    0    0 -0.38193090178E+03  0.50763459344E+02 -0.46111036759E+03  0.60786328655E+03  0.91797938399E+02 0.  0.
        254    2    1    2    0    0  0.38193090178E+03 -0.50763459344E+02 -0.28401786357E+04  0.30250532450E+04  0.96741113805E+03 0.  0.
        -24    2    4    4    0    0 -0.28602026370E+03  0.11016057679E+03 -0.57150768116E+03  0.65329778005E+03  0.78955784249E+02 0.  0.
         24    2    4    4    0    0  0.66795116549E+03 -0.16092403614E+03 -0.22686709545E+04  0.23717554649E+04  0.79377457741E+02 0.  0.
         13    1    3    3    0    0 -0.32126872326E+03  0.73970715496E+02 -0.40341564749E+03  0.52098890961E+03  0.00000000000E+00 0. -1.
        -13    1    3    3    0    0 -0.60662178522E+02 -0.23207256152E+02 -0.57694720096E+02  0.86874376936E+02  0.00000000000E+00 0.  1.
          2    1    6    6  502    0  0.12133937466E+02  0.96896209295E+00 -0.16777832832E+02  0.20728410467E+02  0.00000000000E+00 0. -1.
          3    1    5    5  503    0 -0.38704217853E+02 -0.11261811667E+02 -0.88210473320E+02  0.96984186777E+02  0.00000000000E+00 0. -1.
         -4    1    5    5    0  503 -0.24731604585E+03  0.12142238846E+03 -0.48329720784E+03  0.55631359328E+03  0.00000000000E+00 0.  1.
         -1    1    6    6    0  502  0.65581722802E+03 -0.16189299823E+03 -0.22518931217E+04  0.23510270545E+04  0.00000000000E+00 0.  1.
<mgrwt>
<rscale>  0 0.15164345E+04</rscale>
<asrwt>0</asrwt>
<pdfrwt beam="1">  1        1 0.53340041E+00 0.15164345E+04</pdfrwt>
<pdfrwt beam="2">  1       -1 0.25509810E-01 0.15164345E+04</pdfrwt>
<totfact> 0.35047378E+00</totfact>
</mgrwt>
</event>
<event>
12    1  0.1477245E-007  0.2699056E+04  0.7818608E-02  0.8335311E-01
         -2   -1    0    0    0  501 -0.00000000000E+00  0.00000000000E+00  0.65331843048E+03  0.65331843048E+03  0.00000000000E+00 0.  1.
          2   -1    0    0  501    0  0.00000000000E+00 -0.00000000000E+00 -0.27876546332E+04  0.27876546332E+04  0.00000000000E+00 0. -1.
         23    2    1    2    0    0  0.40785235647E+03  0.94312125523E+03 -0.17384428448E+04  0.20214611719E+04  0.91107070244E+02 0.  0.
        254    2    1    2    0    0 -0.40785235647E+03 -0.94312125523E+03 -0.39589335793E+03  0.14195118918E+04  0.89580199443E+03 0.  0.
        -24    2    4    4    0    0 -0.22998409506E+03 -0.34606928990E+03  0.27078142597E+03  0.50405098604E+03  0.89934300965E+02 0.  0.
         24    2    4    4    0    0 -0.17786826142E+03 -0.59705196533E+03 -0.66667478390E+03  0.91546090571E+03  0.74197268601E+02 0.  0.
         11    1    3    3    0    0  0.31900861973E+03  0.74509914339E+03 -0.12945752912E+04  0.15273717352E+04  0.00000000000E+00 0. -1.
        -11    1    3    3    0    0  0.88843736740E+02  0.19802211184E+03 -0.44386755366E+03  0.49408943677E+03  0.00000000000E+00 0.  1.
          4    1    6    6  502    0 -0.11267948018E+03 -0.43263697003E+03 -0.43284960399E+03  0.62227822778E+03  0.00000000000E+00 0. -1.
          3    1    5    5  503    0 -0.22341271778E+03 -0.27856614138E+03  0.23353516385E+03  0.42667436101E+03  0.00000000000E+00 0. -1.
         -4    1    5    5    0  503 -0.65713772746E+01 -0.67503148521E+02  0.37246262120E+02  0.77376625032E+02  0.00000000000E+00 0.  1.
         -1    1    6    6    0  502 -0.65188781240E+02 -0.16441499530E+03 -0.23382517991E+03  0.29318267793E+03  0.00000000000E+00 0.  1.
<mgrwt>
<rscale>  0 0.26990562E+04</rscale>
<asrwt>0</asrwt>
<pdfrwt beam="1">  1        2 0.42886994E+00 0.26990562E+04</pdfrwt>
<pdfrwt beam="2">  1       -2 0.10051053E+00 0.26990562E+04</pdfrwt>
<totfact> 0.16838656E+00</totfact>
</mgrwt>
</event>
<event>
12    1  0.1477245E-007  0.1344907E+04  0.7818608E-02  0.8994693E-01
          2   -1    0    0  501    0  0.00000000000E+00  0.00000000000E+00  0.22539346947E+04  0.22539346947E+04  0.00000000000E+00 0.  1.
         -2   -1    0    0    0  501 -0.00000000000E+00 -0.00000000000E+00 -0.20062402322E+03  0.20062402322E+03  0.00000000000E+00 0. -1.
         23    2    1    2    0    0 -0.24333261570E+03  0.25502200552E+02  0.97649940245E+03  0.10120036456E+04  0.10362997494E+03 0.  0.
        254    2    1    2    0    0  0.24333261570E+03 -0.25502200552E+02  0.10768112690E+04  0.14425550723E+04  0.92821414736E+03 0.  0.
        -24    2    4    4    0    0  0.12899412356E+03  0.40803993555E+03  0.79609638802E+03  0.90742382114E+03  0.80699809404E+02 0.  0.
         24    2    4    4    0    0  0.11433849214E+03 -0.43354213611E+03  0.28071488100E+03  0.53513125113E+03  0.80824111248E+02 0.  0.
         13    1    3    3    0    0 -0.16292604123E+03  0.17848032025E+02  0.44149441262E+03  0.47093605037E+03  0.00000000000E+00 0.  1.
        -13    1    3    3    0    0 -0.80406574468E+02  0.76541685278E+01  0.53500498983E+03  0.54106759528E+03  0.00000000000E+00 0. -1.
          4    1    6    6  502    0  0.30795519217E+02 -0.63905369628E+02  0.77721016213E+02  0.10522745190E+03  0.00000000000E+00 0. -1.
          3    1    5    5  503    0 -0.42122320667E+01  0.64685731205E+02  0.88239691422E+02  0.10949077524E+03  0.00000000000E+00 0. -1.
         -4    1    5    5    0  503  0.13320635563E+03  0.34335420435E+03  0.70785669660E+03  0.79793304590E+03  0.00000000000E+00 0.  1.
         -3    1    6    6    0  502  0.83542972922E+02 -0.36963676648E+03  0.20299386479E+03  0.42990379924E+03  0.00000000000E+00 0.  1.
<mgrwt>
<rscale>  0 0.13449066E+04</rscale>
<asrwt>0</asrwt>
<pdfrwt beam="1">  1        2 0.34675917E+00 0.13449066E+04</pdfrwt>
<pdfrwt beam="2">  1       -2 0.30865236E-01 0.13449066E+04</pdfrwt>
<totfact> 0.45839677E+01</totfact>
</mgrwt>
</event>
<event>
12    1  0.1477245E-007  0.1093935E+04  0.7818608E-02  0.9211123E-01
         -1   -1    0    0    0  501 -0.00000000000E+00  0.00000000000E+00  0.33192901678E+03  0.33192901678E+03  0.00000000000E+00 0.  1.
          1   -1    0    0  501    0  0.00000000000E+00 -0.00000000000E+00 -0.90131794752E+03  0.90131794752E+03  0.00000000000E+00 0. -1.
         23    2    1    2    0    0  0.13042246804E+03 -0.53722371225E+02 -0.59838751045E+02  0.18081343648E+03  0.96003694444E+02 0.  0.
        254    2    1    2    0    0 -0.13042246804E+03  0.53722371225E+02 -0.50955017969E+03  0.10524335278E+04  0.90998836889E+03 0.  0.
        -24    2    4    4    0    0 -0.31306809007E+03  0.11248759031E+03  0.14080103905E+03  0.36938164757E+03  0.77154273842E+02 0.  0.
         24    2    4    4    0    0  0.18264562203E+03 -0.58765219089E+02 -0.65035121874E+03  0.68305188025E+03  0.82403817736E+02 0.  0.
         11    1    3    3    0    0  0.97470752926E+01 -0.23887049568E+02 -0.49817208105E+02  0.56101255220E+02  0.00000000000E+00 0. -1.
        -11    1    3    3    0    0  0.12067539274E+03 -0.29835321657E+02 -0.10021542940E+02  0.12471218126E+03  0.00000000000E+00 0.  1.
          2    1    6    6  502    0  0.90887513518E+02 -0.71904852313E+02 -0.34540209686E+03  0.36432603038E+03  0.00000000000E+00 0. -1.
          3    1    5    5  503    0 -0.11422664930E+03  0.30257700799E+02  0.12414085020E+02  0.11881651978E+03  0.00000000000E+00 0. -1.
         -4    1    5    5    0  503 -0.19884144077E+03  0.82229889516E+02  0.12838695403E+03  0.25056512778E+03  0.00000000000E+00 0.  1.
         -1    1    6    6    0  502  0.91758108511E+02  0.13139633223E+02 -0.30494912188E+03  0.31872584987E+03  0.00000000000E+00 0.  1.
<mgrwt>
<rscale>  0 0.10939352E+04</rscale>
<asrwt>0</asrwt>
<pdfrwt beam="1">  1        1 0.13866430E+00 0.10939352E+04</pdfrwt>
<pdfrwt beam="2">  1       -1 0.51066004E-01 0.10939352E+04</pdfrwt>
<totfact> 0.69739369E+01</totfact>
</mgrwt>
</event>
<event>
12    1  0.1477245E-007  0.1702423E+04  0.7818608E-02  0.8759984E-01
          2   -1    0    0  501    0  0.00000000000E+00  0.00000000000E+00  0.20519445220E+04  0.20519445220E+04  0.00000000000E+00 0. -1.
         -2   -1    0    0    0  501 -0.00000000000E+00 -0.00000000000E+00 -0.35310933349E+03  0.35310933349E+03  0.00000000000E+00 0.  1.
         23    2    1    2    0    0 -0.50157012313E+03 -0.42222236238E+02  0.12826671447E+03  0.52742863608E+03  0.91505794706E+02 0.  0.
        254    2    1    2    0    0  0.50157012313E+03  0.42222236238E+02  0.15705684741E+04  0.18776252194E+04  0.89746076643E+03 0.  0.
        -24    2    4    4    0    0  0.58961470790E+03 -0.29219596954E+03  0.88308883407E+03  0.11041058122E+04  0.78611495932E+02 0.  0.
         24    2    4    4    0    0 -0.88044584774E+02  0.33441820578E+03  0.68747963999E+03  0.77351940722E+03  0.78208904153E+02 0.  0.
         13    1    3    3    0    0 -0.13789082441E+03 -0.33173078559E+02  0.72846967125E+02  0.15943968520E+03  0.00000000000E+00 0. -1.
        -13    1    3    3    0    0 -0.36367929872E+03 -0.90491576795E+01  0.55419747346E+02  0.36798895088E+03  0.00000000000E+00 0.  1.
          4    1    6    6  502    0 -0.32573353533E+02  0.36696065442E+02  0.13238868414E+03  0.14118919317E+03  0.00000000000E+00 0. -1.
          1    1    5    5  503    0  0.24230233389E+03 -0.78164358297E+02  0.35124832238E+03  0.43381502036E+03  0.00000000000E+00 0. -1.
         -2    1    5    5    0  503  0.34731237401E+03 -0.21403161125E+03  0.53184051170E+03  0.67029079185E+03  0.00000000000E+00 0.  1.
         -1    1    6    6    0  502 -0.55471231241E+02  0.29772214034E+03  0.55509095585E+03  0.63233021406E+03  0.00000000000E+00 0.  1.
<mgrwt>
<rscale>  0 0.17024227E+04</rscale>
<asrwt>0</asrwt>
<pdfrwt beam="1">  1        2 0.31568377E+00 0.17024227E+04</pdfrwt>
<pdfrwt beam="2">  1       -2 0.54324514E-01 0.17024227E+04</pdfrwt>
<totfact> 0.18972168E+01</totfact>
</mgrwt>
</event>
<event>
12    1  0.1477245E-007  0.2430759E+04  0.7818608E-02  0.8428077E-01
         -2   -1    0    0    0  501 -0.00000000000E+00  0.00000000000E+00  0.40886720498E+03  0.40886720498E+03  0.00000000000E+00 0.  1.
          2   -1    0    0  501    0  0.00000000000E+00 -0.00000000000E+00 -0.36127809428E+04  0.36127809428E+04  0.00000000000E+00 0. -1.
         23    2    1    2    0    0  0.25130728668E+02  0.46166179272E+03  0.17115953617E+03  0.50426610193E+03  0.10595069774E+03 0.  0.
        254    2    1    2    0    0 -0.25130728668E+02 -0.46166179272E+03 -0.33750732740E+04  0.35173820459E+04  0.87583884776E+03 0.  0.
        -24    2    4    4    0    0 -0.29207566021E+03  0.32672073015E+02 -0.48979811848E+03  0.57684795405E+03  0.80471793718E+02 0.  0.
         24    2    4    4    0    0  0.26694493154E+03 -0.49433386573E+03 -0.28852751556E+04  0.29405340918E+04  0.79388000919E+02 0.  0.
         11    1    3    3    0    0  0.17764918124E+02  0.18082556746E+03  0.13691829275E+02  0.18221126296E+03  0.00000000000E+00 0. -1.
        -11    1    3    3    0    0  0.73658105442E+01  0.28083622526E+03  0.15746770690E+03  0.32205483896E+03  0.00000000000E+00 0.  1.
          4    1    6    6  502    0  0.13246458410E+03 -0.16507622595E+03 -0.10991490812E+04  0.11193416498E+04  0.00000000000E+00 0. -1.
          1    1    5    5  503    0 -0.13218942778E+02  0.18950459541E+02 -0.60355607943E+02  0.64627082366E+02  0.00000000000E+00 0. -1.
         -2    1    5    5    0  503 -0.27885671743E+03  0.13721613474E+02 -0.42944251053E+03  0.51222087168E+03  0.00000000000E+00 0.  1.
         -3    1    6    6    0  502  0.13448034744E+03 -0.32925763978E+03 -0.17861260744E+04  0.18211924420E+04  0.00000000000E+00 0.  1.
<mgrwt>
<rscale>  0 0.24307593E+04</rscale>
<asrwt>0</asrwt>
<pdfrwt beam="1">  1        2 0.55581247E+00 0.24307593E+04</pdfrwt>
<pdfrwt beam="2">  1       -2 0.62902645E-01 0.24307593E+04</pdfrwt>
<totfact> 0.14232043E+00</totfact>
</mgrwt>
</event>
<event>
12    1  0.1477245E-007  0.1208101E+04  0.7818608E-02  0.9105795E-01
          1   -1    0    0  501    0  0.00000000000E+00  0.00000000000E+00  0.42824972414E+03  0.42824972414E+03  0.00000000000E+00 0. -1.
         -1   -1    0    0    0  501 -0.00000000000E+00 -0.00000000000E+00 -0.85201972334E+03  0.85201972334E+03  0.00000000000E+00 0.  1.
         23    2    1    2    0    0  0.87507272482E+02  0.18319768321E+03  0.78942911932E+02  0.23540008823E+03  0.89231745034E+02 0.  0.
        254    2    1    2    0    0 -0.87507272482E+02 -0.18319768321E+03 -0.50271291113E+03  0.10448693592E+04  0.89320366827E+03 0.  0.
        -24    2    4    4    0    0  0.70325731712E+02 -0.22770363377E+03 -0.72003032023E+03  0.76167145818E+03  0.70036381868E+02 0.  0.
         24    2    4    4    0    0 -0.15783300419E+03  0.44505950554E+02  0.21731740910E+03  0.28319790107E+03  0.77988191571E+02 0.  0.
         11    1    3    3    0    0 -0.13839752427E+02  0.62493083709E+02  0.18880093458E+02  0.66733666075E+02  0.00000000000E+00 0.  1.
        -11    1    3    3    0    0  0.10134702491E+03  0.12070459950E+03  0.60062818474E+02  0.16866642215E+03  0.00000000000E+00 0. -1.
          2    1    6    6  502    0 -0.37752280523E+02 -0.12518705317E+02  0.18094127825E+02  0.43696111146E+02  0.00000000000E+00 0. -1.
          3    1    5    5  503    0  0.68386589298E+02 -0.11798747447E+03 -0.44953843135E+03  0.46976863559E+03  0.00000000000E+00 0. -1.
         -4    1    5    5    0  503  0.19391424136E+01 -0.10971615929E+03 -0.27049188888E+03  0.29190282258E+03  0.00000000000E+00 0.  1.
         -1    1    6    6    0  502 -0.12008072367E+03  0.57024655871E+02  0.19922328128E+03  0.23950178992E+03  0.00000000000E+00 0.  1.
<mgrwt>
<rscale>  0 0.12081013E+04</rscale>
<asrwt>0</asrwt>
<pdfrwt beam="1">  1        1 0.65884574E-01 0.12081013E+04</pdfrwt>
<pdfrwt beam="2">  1       -1 0.13107996E+00 0.12081013E+04</pdfrwt>
<totfact> 0.26902788E+01</totfact>
</mgrwt>
</event>
<event>
12    1  0.1477245E-007  0.1174704E+04  0.7818608E-02  0.9135291E-01
          1   -1    0    0  501    0  0.00000000000E+00  0.00000000000E+00  0.11061561069E+04  0.11061561069E+04  0.00000000000E+00 0. -1.
         -1   -1    0    0    0  501 -0.00000000000E+00 -0.00000000000E+00 -0.31187492650E+03  0.31187492650E+03  0.00000000000E+00 0.  1.
         23    2    1    2    0    0 -0.55206580230E+02  0.11911511941E+03  0.26530535336E+03  0.30941076437E+03  0.90066155770E+02 0.  0.
        254    2    1    2    0    0  0.55206580230E+02 -0.11911511941E+03  0.52897582702E+03  0.11086202690E+04  0.96539489180E+03 0.  0.
        -24    2    4    4    0    0 -0.21218103003E+03 -0.56192645963E+02  0.72471770970E+03  0.76129267403E+03  0.78564456478E+02 0.  0.
         24    2    4    4    0    0  0.26738761026E+03 -0.62922473446E+02 -0.19574188267E+03  0.34732759498E+03  0.82862547745E+02 0.  0.
         11    1    3    3    0    0  0.16142703424E+02  0.11113599132E+02  0.75938735322E+01  0.21018227202E+02  0.00000000000E+00 0.  1.
        -11    1    3    3    0    0 -0.71349283654E+02  0.10800152028E+03  0.25771147983E+03  0.28839253717E+03  0.00000000000E+00 0. -1.
          4    1    6    6  502    0  0.49052169137E+02  0.20417375286E+02 -0.33007159928E+02  0.62549637226E+02  0.00000000000E+00 0. -1.
          3    1    5    5  503    0 -0.86252371123E+02 -0.62893005416E+02  0.31377272588E+03  0.33143374174E+03  0.00000000000E+00 0. -1.
         -4    1    5    5    0  503 -0.12592865890E+03  0.67003594533E+01  0.41094498381E+03  0.42985893229E+03  0.00000000000E+00 0.  1.
         -3    1    6    6    0  502  0.21833544112E+03 -0.83339848732E+02 -0.16273472274E+03  0.28477795775E+03  0.00000000000E+00 0.  1.
<mgrwt>
<rscale>  0 0.11747040E+04</rscale>
<asrwt>0</asrwt>
<pdfrwt beam="1">  1        1 0.17017786E+00 0.11747040E+04</pdfrwt>
<pdfrwt beam="2">  1       -1 0.47980759E-01 0.11747040E+04</pdfrwt>
<totfact> 0.53967344E+01</totfact>
</mgrwt>
</event>
<event>
12    1  0.1477245E-007  0.1902584E+04  0.7818608E-02  0.8653571E-01
          1   -1    0    0  501    0  0.00000000000E+00  0.00000000000E+00  0.12398028878E+04  0.12398028878E+04  0.00000000000E+00 0. -1.
         -1   -1    0    0    0  501 -0.00000000000E+00 -0.00000000000E+00 -0.72991977225E+03  0.72991977225E+03  0.00000000000E+00 0.  1.
         23    2    1    2    0    0  0.49843430711E+03  0.33302920862E+03 -0.24107423264E+03  0.65336990860E+03  0.97109420344E+02 0.  0.
        254    2    1    2    0    0 -0.49843430711E+03 -0.33302920862E+03  0.75095734821E+03  0.13163527515E+04  0.89972352153E+03 0.  0.
        -24    2    4    4    0    0  0.10637675438E+03  0.21907161618E+03  0.14387071389E+03  0.29377128920E+03  0.79337262070E+02 0.  0.
         24    2    4    4    0    0 -0.60481106150E+03 -0.55210082480E+03  0.60708663432E+03  0.10225814623E+04  0.80665510398E+02 0.  0.
         11    1    3    3    0    0  0.31026604185E+03  0.20588971016E+03 -0.19970930135E+03  0.42253922246E+03  0.00000000000E+00 0.  1.
        -11    1    3    3    0    0  0.18816826527E+03  0.12713949846E+03 -0.41364931286E+02  0.23083068614E+03  0.00000000000E+00 0. -1.
          2    1    6    6  502    0 -0.17932647861E+03 -0.20295427252E+03  0.17024925940E+03  0.31989565953E+03  0.00000000000E+00 0. -1.
          1    1    5    5  503    0  0.41036157114E+02  0.12575129686E+03  0.11729274443E+03  0.17679067495E+03  0.00000000000E+00 0. -1.
         -2    1    5    5    0  503  0.65340597269E+02  0.93320319327E+02  0.26577969459E+02  0.11698061425E+03  0.00000000000E+00 0.  1.
         -1    1    6    6    0  502 -0.42548458289E+03 -0.34914655228E+03  0.43683737492E+03  0.70268580275E+03  0.00000000000E+00 0.  1.
<mgrwt>
<rscale>  0 0.19025842E+04</rscale>
<asrwt>0</asrwt>
<pdfrwt beam="1">  1        1 0.19073890E+00 0.19025842E+04</pdfrwt>
<pdfrwt beam="2">  1       -1 0.11229535E+00 0.19025842E+04</pdfrwt>
<totfact> 0.67944608E+00</totfact>
</mgrwt>
</event>
<event>
12    1  0.1477245E-007  0.1126721E+04  0.7818608E-02  0.9179532E-01
          2   -1    0    0  501    0  0.00000000000E+00  0.00000000000E+00  0.15808712864E+04  0.15808712864E+04  0.00000000000E+00 0.  1.
         -2   -1    0    0    0  501 -0.00000000000E+00 -0.00000000000E+00 -0.20075972815E+03  0.20075972815E+03  0.00000000000E+00 0. -1.
         23    2    1    2    0    0  0.88972550498E+02  0.53787379173E+02  0.12706485238E+02  0.14004079958E+03  0.92955763029E+02 0.  0.
        254    2    1    2    0    0 -0.88972550498E+02 -0.53787379173E+02  0.13674050730E+04  0.16415902150E+04  0.90233730017E+03 0.  0.
        -24    2    4    4    0    0  0.18037729814E+03 -0.31668831824E+03  0.22335030842E+03  0.43444543867E+03  0.77653192536E+02 0.  0.
         24    2    4    4    0    0 -0.26934984864E+03  0.26290093907E+03  0.11440547646E+04  0.12071447763E+04  0.81675956304E+02 0.  0.
         13    1    3    3    0    0 -0.40312547981E+01  0.31133196969E+02 -0.21874786378E+02  0.38262687410E+02  0.00000000000E+00 0.  1.
        -13    1    3    3    0    0  0.93003805296E+02  0.22654182203E+02  0.34581271616E+02  0.10177811217E+03  0.00000000000E+00 0. -1.
          4    1    6    6  502    0 -0.24669224807E+03  0.19788083076E+03  0.93265994181E+03  0.98481899632E+03  0.00000000000E+00 0. -1.
          1    1    5    5  503    0  0.46116488557E+02 -0.77311087959E+02  0.18335223160E+02  0.91869011350E+02  0.00000000000E+00 0. -1.
         -2    1    5    5    0  503  0.13426080958E+03 -0.23937723028E+03  0.20501508526E+03  0.34257642732E+03  0.00000000000E+00 0.  1.
         -3    1    6    6    0  502 -0.22657600564E+02  0.65020108308E+02  0.21139482277E+03  0.22232577998E+03  0.00000000000E+00 0.  1.
<mgrwt>
<rscale>  0 0.11267214E+04</rscale>
<asrwt>0</asrwt>
<pdfrwt beam="1">  1        2 0.24321096E+00 0.11267214E+04</pdfrwt>
<pdfrwt beam="2">  1       -2 0.30886113E-01 0.11267214E+04</pdfrwt>
<totfact> 0.10997127E+02</totfact>
</mgrwt>
</event>
<event>
12    1  0.1477245E-007  0.2404574E+04  0.7818608E-02  0.8437793E-01
         -2   -1    0    0    0  501 -0.00000000000E+00  0.00000000000E+00  0.18241906316E+04  0.18241906316E+04  0.00000000000E+00 0. -1.
          2   -1    0    0  501    0  0.00000000000E+00 -0.00000000000E+00 -0.79240326869E+03  0.79240326869E+03  0.00000000000E+00 0.  1.
         23    2    1    2    0    0 -0.65617549482E+03  0.60473323392E+03  0.10027581339E+04  0.13454849480E+04  0.92397542386E+02 0.  0.
        254    2    1    2    0    0  0.65617549482E+03 -0.60473323392E+03  0.29029229009E+02  0.12711089523E+04  0.90476887014E+03 0.  0.
        -24    2    4    4    0    0 -0.10269082303E+03 -0.40615227651E+03  0.18678100268E+03  0.46675785328E+03  0.86433059595E+02 0.  0.
         24    2    4    4    0    0  0.75886631786E+03 -0.19858095742E+03 -0.15775177367E+03  0.80435109906E+03  0.82356441367E+02 0.  0.
         13    1    3    3    0    0 -0.23539642591E+03  0.15864929018E+03  0.32102975852E+03  0.42853375650E+03  0.00000000000E+00 0.  1.
        -13    1    3    3    0    0 -0.42077906892E+03  0.44608394374E+03  0.68172837539E+03  0.91695119146E+03  0.00000000000E+00 0. -1.
          2    1    6    6  502    0  0.25397817966E+03 -0.10563543043E+03 -0.44703410689E+02  0.27867930464E+03  0.00000000000E+00 0. -1.
          3    1    5    5  503    0 -0.33652600683E+02 -0.32127762407E+02  0.30057191289E+02  0.55390661652E+02  0.00000000000E+00 0. -1.
         -4    1    5    5    0  503 -0.69038222351E+02 -0.37402451410E+03  0.15672381139E+03  0.41136719163E+03  0.00000000000E+00 0.  1.
         -1    1    6    6    0  502  0.50488813820E+03 -0.92945526992E+02 -0.11304836299E+03  0.52567179443E+03  0.00000000000E+00 0.  1.
<mgrwt>
<rscale>  0 0.24045745E+04</rscale>
<asrwt>0</asrwt>
<pdfrwt beam="1">  1        2 0.12190820E+00 0.24045745E+04</pdfrwt>
<pdfrwt beam="2">  1       -2 0.28064471E+00 0.24045745E+04</pdfrwt>
<totfact> 0.13087981E+00</totfact>
</mgrwt>
</event>
<event>
12    1  0.1477245E-007  0.2250499E+04  0.7818608E-02  0.8497699E-01
         -2   -1    0    0    0  501 -0.00000000000E+00  0.00000000000E+00  0.68363985727E+03  0.68363985727E+03  0.00000000000E+00 0.  1.
          2   -1    0    0  501    0  0.00000000000E+00 -0.00000000000E+00 -0.18521243825E+04  0.18521243825E+04  0.00000000000E+00 0. -1.
         23    2    1    2    0    0  0.67901924955E+03 -0.47149676069E+03 -0.61318187122E+01  0.83144176895E+03  0.88777696216E+02 0.  0.
        254    2    1    2    0    0 -0.67901924955E+03  0.47149676069E+03 -0.11623527066E+04  0.17043224709E+04  0.93288527357E+03 0.  0.
        -24    2    4    4    0    0 -0.69462372222E+03  0.70665981475E+03 -0.87826779829E+03  0.13264744291E+04  0.79434729611E+02 0.  0.
         24    2    4    4    0    0  0.15604472664E+02 -0.23516305405E+03 -0.28408490826E+03  0.37784804177E+03  0.80744944174E+02 0.  0.
         11    1    3    3    0    0  0.38233607398E+03 -0.27878881662E+03 -0.46052708735E+02  0.47542079227E+03  0.00000000000E+00 0. -1.
        -11    1    3    3    0    0  0.29668317557E+03 -0.19270794407E+03  0.39920890022E+02  0.35602097668E+03  0.00000000000E+00 0.  1.
          4    1    6    6  502    0 -0.75920821809E+00 -0.83857285278E+02 -0.47036712685E+02  0.96151302807E+02  0.00000000000E+00 0. -1.
          3    1    5    5  503    0 -0.56759977644E+02  0.87115640233E+02 -0.10968116563E+03  0.15113169068E+03  0.00000000000E+00 0. -1.
         -4    1    5    5    0  503 -0.63786374457E+03  0.61954417451E+03 -0.76858663266E+03  0.11753427384E+04  0.00000000000E+00 0.  1.
         -3    1    6    6    0  502  0.16363680882E+02 -0.15130576877E+03 -0.23704819558E+03  0.28169673897E+03  0.00000000000E+00 0.  1.
<mgrwt>
<rscale>  0 0.22504987E+04</rscale>
<asrwt>0</asrwt>
<pdfrwt beam="1">  1        2 0.28494221E+00 0.22504987E+04</pdfrwt>
<pdfrwt beam="2">  1       -2 0.10517536E+00 0.22504987E+04</pdfrwt>
<totfact> 0.53800456E+00</totfact>
</mgrwt>
</event>
<event>
12    1  0.2355170E-007  0.1682433E+04  0.7818608E-02  0.8771447E-01
         -1   -1    0    0    0  501 -0.00000000000E+00  0.00000000000E+00  0.72214889754E+03  0.72214889754E+03  0.00000000000E+00 0.  1.
          1   -1    0    0  501    0  0.00000000000E+00 -0.00000000000E+00 -0.97991613432E+03  0.97991613432E+03  0.00000000000E+00 0. -1.
         23    2    1    2    0    0 -0.37496715320E+03  0.43471497994E+03 -0.27426243545E+03  0.64292739494E+03  0.92510928581E+02 0.  0.
        254    2    1    2    0    0  0.37496715320E+03 -0.43471497994E+03  0.16495198663E+02  0.10591376369E+04  0.88990053523E+03 0.  0.
        -24    2    4    4    0    0 -0.15683661412E+03 -0.14053453005E+03  0.30693243620E+03  0.38063745165E+03  0.79559232929E+02 0.  0.
         24    2    4    4    0    0  0.53180376732E+03 -0.29418044989E+03 -0.29043723754E+03  0.67850018527E+03  0.81555676913E+02 0.  0.
         11    1    3    3    0    0 -0.32114702127E+03  0.40621578651E+03 -0.22500585453E+03  0.56460101758E+03  0.00000000000E+00 0. -1.
        -11    1    3    3    0    0 -0.53820131937E+02  0.28499193432E+02 -0.49256580912E+02  0.78326377365E+02  0.00000000000E+00 0.  1.
          4    1    6    6  502    0  0.58292143359E+02 -0.36861600872E+02 -0.62610392883E+01  0.69252813728E+02  0.00000000000E+00 0. -1.
          3    1    5    5  503    0  0.92154188381E+01 -0.56064430533E+01  0.19880249037E+02  0.22618144262E+02  0.00000000000E+00 0. -1.
         -4    1    5    5    0  503 -0.16605203295E+03 -0.13492808699E+03  0.28705218716E+03  0.35801930739E+03  0.00000000000E+00 0.  1.
         -3    1    6    6    0  502  0.47351162396E+03 -0.25731884902E+03 -0.28417619825E+03  0.60924737154E+03  0.00000000000E+00 0.  1.
<mgrwt>
<rscale>  0 0.16824332E+04</rscale>
<asrwt>0</asrwt>
<pdfrwt beam="1">  1        1 0.15075633E+00 0.16824332E+04</pdfrwt>
<pdfrwt beam="2">  1       -1 0.11109983E+00 0.16824332E+04</pdfrwt>
<totfact> 0.11148870E+01</totfact>
</mgrwt>
</event>
<event>
12    1  0.1477245E-007  0.2093397E+04  0.7818608E-02  0.8564158E-01
          1   -1    0    0  501    0  0.00000000000E+00  0.00000000000E+00  0.33024714597E+04  0.33024714597E+04  0.00000000000E+00 0. -1.
         -1   -1    0    0    0  501 -0.00000000000E+00 -0.00000000000E+00 -0.33174480743E+03  0.33174480743E+03  0.00000000000E+00 0.  1.
         23    2    1    2    0    0  0.63673279603E+02  0.72164575859E+02 -0.24716809028E+03  0.29288252682E+03  0.12420184025E+03 0.  0.
        254    2    1    2    0    0 -0.63673279603E+02 -0.72164575859E+02  0.32178947425E+04  0.33413337403E+04  0.89465221035E+03 0.  0.
        -24    2    4    4    0    0 -0.33389545946E+03  0.27493485273E+03  0.13074238964E+04  0.13792320519E+04  0.76475204525E+02 0.  0.
         24    2    4    4    0    0  0.27022217985E+03 -0.34709942859E+03  0.19104708461E+04  0.19621016884E+04  0.80287869769E+02 0.  0.
         11    1    3    3    0    0  0.36804484003E+02  0.92627659172E+02 -0.23778472995E+03  0.25782946124E+03  0.00000000000E+00 0.  1.
        -11    1    3    3    0    0  0.26868795600E+02 -0.20463083313E+02 -0.93833603322E+01  0.35053065583E+02  0.00000000000E+00 0. -1.
          2    1    6    6  502    0  0.21207171574E+03 -0.29905594127E+03  0.16823543818E+04  0.17218377201E+04  0.00000000000E+00 0. -1.
          1    1    5    5  503    0 -0.30312090821E+03  0.26716567034E+03  0.11578155142E+04  0.12262938251E+04  0.00000000000E+00 0. -1.
         -2    1    5    5    0  503 -0.30774551246E+02  0.77691823906E+01  0.14960838216E+03  0.15293822678E+03  0.00000000000E+00 0.  1.
         -1    1    6    6    0  502  0.58150464108E+02 -0.48043487318E+02  0.22811646438E+03  0.24026396831E+03  0.00000000000E+00 0.  1.
<mgrwt>
<rscale>  0 0.20933970E+04</rscale>
<asrwt>0</asrwt>
<pdfrwt beam="1">  1        1 0.50807251E+00 0.20933970E+04</pdfrwt>
<pdfrwt beam="2">  1       -1 0.51037665E-01 0.20933970E+04</pdfrwt>
<totfact> 0.12661050E+00</totfact>
</mgrwt>
</event>
<event>
12    1  0.1477245E-007  0.1247992E+04  0.7818608E-02  0.9071856E-01
         -1   -1    0    0    0  501 -0.00000000000E+00  0.00000000000E+00  0.68942764502E+03  0.68942764502E+03  0.00000000000E+00 0.  1.
          1   -1    0    0  501    0  0.00000000000E+00 -0.00000000000E+00 -0.56477405895E+03  0.56477405895E+03  0.00000000000E+00 0. -1.
         23    2    1    2    0    0  0.23385753348E+03 -0.78131185704E+01 -0.90298087890E+02  0.26700168129E+03  0.91573808201E+02 0.  0.
        254    2    1    2    0    0 -0.23385753348E+03  0.78131185704E+01  0.21495167396E+03  0.98720002267E+03  0.93467067561E+03 0.  0.
        -24    2    4    4    0    0 -0.51644835459E+02 -0.24495785789E+03  0.49517527600E+03  0.56049449986E+03  0.79271616855E+02 0.  0.
         24    2    4    4    0    0 -0.18221269802E+03  0.25277097646E+03 -0.28022360204E+03  0.42670552282E+03  0.80359829559E+02 0.  0.
         11    1    3    3    0    0  0.33881909704E+02 -0.15364179000E+02  0.15891613064E+02  0.40454729851E+02  0.00000000000E+00 0.  1.
        -11    1    3    3    0    0  0.19997562377E+03  0.75510604296E+01 -0.10618970095E+03  0.22654695144E+03  0.00000000000E+00 0. -1.
          4    1    6    6  502    0 -0.95208426799E+01 -0.42269718409E+01 -0.18715847735E+02  0.21419539974E+02  0.00000000000E+00 0. -1.
          3    1    5    5  503    0 -0.33704029753E+01  0.49521343665E+00  0.47871062568E+02  0.47992118978E+02  0.00000000000E+00 0. -1.
         -4    1    5    5    0  503 -0.48274432484E+02 -0.24545307132E+03  0.44730421343E+03  0.51250238088E+03  0.00000000000E+00 0.  1.
         -1    1    6    6    0  502 -0.17269185534E+03  0.25699794830E+03 -0.26150775430E+03  0.40528598284E+03  0.00000000000E+00 0.  1.
<mgrwt>
<rscale>  0 0.12479917E+04</rscale>
<asrwt>0</asrwt>
<pdfrwt beam="1">  1        1 0.86888317E-01 0.12479917E+04</pdfrwt>
<pdfrwt beam="2">  1       -1 0.10606579E+00 0.12479917E+04</pdfrwt>
<totfact> 0.30653751E+01</totfact>
</mgrwt>
</event>
<event>
12    1  0.1477245E-007  0.1145672E+04  0.7818608E-02  0.9161786E-01
         -1   -1    0    0    0  501 -0.00000000000E+00  0.00000000000E+00  0.17501364168E+03  0.17501364168E+03  0.00000000000E+00 0.  1.
          1   -1    0    0  501    0  0.00000000000E+00 -0.00000000000E+00 -0.18749451320E+04  0.18749451320E+04  0.00000000000E+00 0. -1.
         23    2    1    2    0    0 -0.56957807083E+02  0.11949754270E+03 -0.72005427498E+03  0.73774071052E+03  0.90880925067E+02 0.  0.
        254    2    1    2    0    0  0.56957807083E+02 -0.11949754270E+03 -0.97987721536E+03  0.13122180632E+04  0.86268941901E+03 0.  0.
        -24    2    4    4    0    0 -0.46307619372E+02 -0.72941728654E+02  0.14127472045E+03  0.18295359934E+03  0.77772626810E+02 0.  0.
         24    2    4    4    0    0  0.10326542645E+03 -0.46555814044E+02 -0.11211519358E+04  0.11292644638E+04  0.73657138185E+02 0.  0.
         13    1    3    3    0    0 -0.58589760323E+02  0.12856413938E+03 -0.71071602635E+03  0.72462319039E+03  0.00000000000E+00 0. -1.
        -13    1    3    3    0    0  0.16319532397E+01 -0.90665966793E+01 -0.93382486332E+01  0.13117520126E+02  0.00000000000E+00 0.  1.
          4    1    6    6  502    0  0.98220550696E+02 -0.60314373026E+02 -0.85833618285E+03  0.86604047421E+03  0.00000000000E+00 0. -1.
          1    1    5    5  503    0 -0.61172711560E+02 -0.58114803738E+02  0.13793285134E+03  0.16169385434E+03  0.00000000000E+00 0. -1.
         -2    1    5    5    0  503  0.14865092189E+02 -0.14826924915E+02  0.33418691158E+01  0.21259744999E+02  0.00000000000E+00 0.  1.
         -3    1    6    6    0  502  0.50448757585E+01  0.13758558982E+02 -0.26281575296E+03  0.26322398963E+03  0.00000000000E+00 0.  1.
<mgrwt>
<rscale>  0 0.11456718E+04</rscale>
<asrwt>0</asrwt>
<pdfrwt beam="1">  1        1 0.28845307E+00 0.11456718E+04</pdfrwt>
<pdfrwt beam="2">  1       -1 0.26925178E-01 0.11456718E+04</pdfrwt>
<totfact> 0.44427329E+01</totfact>
</mgrwt>
</event>
<event>
12    1  0.1477245E-007  0.2744683E+04  0.7818608E-02  0.8320651E-01
         -2   -1    0    0    0  501 -0.00000000000E+00  0.00000000000E+00  0.41014500770E+03  0.41014500770E+03  0.00000000000E+00 0.  1.
          2   -1    0    0  501    0  0.00000000000E+00 -0.00000000000E+00 -0.45918432340E+04  0.45918432340E+04  0.00000000000E+00 0. -1.
         23    2    1    2    0    0 -0.98316264200E+03 -0.44736842597E+03 -0.82412975688E+03  0.13617989628E+04  0.92516321276E+02 0.  0.
        254    2    1    2    0    0  0.98316264200E+03  0.44736842597E+03 -0.33575684694E+04  0.36401892789E+04  0.90053576849E+03 0.  0.
        -24    2    4    4    0    0  0.10233406304E+04  0.54976415759E+03 -0.23424056330E+04  0.26160316434E+04  0.85385800665E+02 0.  0.
         24    2    4    4    0    0 -0.40177988396E+02 -0.10239573161E+03 -0.10151628364E+04  0.10241576355E+04  0.79019752958E+02 0.  0.
         11    1    3    3    0    0 -0.88180676903E+03 -0.38485446563E+03 -0.76293778535E+03  0.12279129456E+04  0.00000000000E+00 0. -1.
        -11    1    3    3    0    0 -0.10135587297E+03 -0.62513960343E+02 -0.61191971526E+02  0.13388601720E+03  0.00000000000E+00 0.  1.
          2    1    6    6  502    0 -0.64098236217E+02 -0.76716726200E+02 -0.78339398901E+03  0.78974691008E+03  0.00000000000E+00 0. -1.
          1    1    5    5  503    0  0.64979769982E+03  0.31161030710E+03 -0.13937848279E+04  0.15690679337E+04  0.00000000000E+00 0. -1.
         -2    1    5    5    0  503  0.37354293058E+03  0.23815385048E+03 -0.94862080514E+03  0.10469637097E+04  0.00000000000E+00 0.  1.
         -1    1    6    6    0  502  0.23920247821E+02 -0.25679005411E+02 -0.23176884736E+03  0.23441072540E+03  0.00000000000E+00 0.  1.
<mgrwt>
<rscale>  0 0.27446833E+04</rscale>
<asrwt>0</asrwt>
<pdfrwt beam="1">  1        2 0.70643741E+00 0.27446833E+04</pdfrwt>
<pdfrwt beam="2">  1       -2 0.63099233E-01 0.27446833E+04</pdfrwt>
<totfact> 0.20309964E-01</totfact>
</mgrwt>
</event>
<event>
12    1  0.1477245E-007  0.2298782E+04  0.7818608E-02  0.8478402E-01
         -1   -1    0    0    0  501 -0.00000000000E+00  0.00000000000E+00  0.75792014505E+03  0.75792014505E+03  0.00000000000E+00 0.  1.
          1   -1    0    0  501    0  0.00000000000E+00 -0.00000000000E+00 -0.17430586308E+04  0.17430586308E+04  0.00000000000E+00 0. -1.
         23    2    1    2    0    0 -0.51898947411E+03  0.33529104152E+03  0.40161293338E+03  0.74156166251E+03  0.82768316893E+02 0.  0.
        254    2    1    2    0    0  0.51898947411E+03 -0.33529104152E+03 -0.13867514191E+04  0.17594171133E+04  0.88921252997E+03 0.  0.
        -24    2    4    4    0    0  0.62676437089E+03 -0.48639565119E+03 -0.76275522095E+03  0.11033739223E+04  0.78893468134E+02 0.  0.
         24    2    4    4    0    0 -0.10777489678E+03  0.15110460967E+03 -0.62399619814E+03  0.65604319095E+03  0.81076393983E+02 0.  0.
         13    1    3    3    0    0 -0.12009518993E+03  0.10223507622E+03  0.13853556376E+03  0.20992133736E+03  0.00000000000E+00 0. -1.
        -13    1    3    3    0    0 -0.39889428418E+03  0.23305596530E+03  0.26307736963E+03  0.53164032515E+03  0.00000000000E+00 0.  1.
          4    1    6    6  502    0 -0.11432068240E+03  0.13644654581E+03 -0.49465298559E+03  0.52570757503E+03  0.00000000000E+00 0. -1.
          1    1    5    5  503    0  0.25681212963E+03 -0.15196129941E+03 -0.27500043303E+03  0.40579544676E+03  0.00000000000E+00 0. -1.
         -2    1    5    5    0  503  0.36995224126E+03 -0.33443435178E+03 -0.48775478792E+03  0.69757847559E+03  0.00000000000E+00 0.  1.
         -3    1    6    6    0  502  0.65457856204E+01  0.14658063855E+02 -0.12934321255E+03  0.13033561592E+03  0.00000000000E+00 0.  1.
<mgrwt>
<rscale>  0 0.22987816E+04</rscale>
<asrwt>0</asrwt>
<pdfrwt beam="1">  1        1 0.26816286E+00 0.22987816E+04</pdfrwt>
<pdfrwt beam="2">  1       -1 0.11660310E+00 0.22987816E+04</pdfrwt>
<totfact> 0.26730191E+00</totfact>
</mgrwt>
</event>
<event>
12    1  0.1477245E-007  0.2304646E+04  0.7818608E-02  0.8476092E-01
         -2   -1    0    0    0  501 -0.00000000000E+00  0.00000000000E+00  0.14927898808E+04  0.14927898808E+04  0.00000000000E+00 0.  1.
          2   -1    0    0  501    0  0.00000000000E+00 -0.00000000000E+00 -0.88950756156E+03  0.88950756156E+03  0.00000000000E+00 0. -1.
         23    2    1    2    0    0  0.45837069065E+02 -0.36206521617E+03 -0.68588392669E+03  0.78233855069E+03  0.91785561758E+02 0.  0.
        254    2    1    2    0    0 -0.45837069065E+02  0.36206521617E+03  0.12891662459E+04  0.15999588916E+04  0.87448647086E+03 0.  0.
        -24    2    4    4    0    0  0.69542564001E+02  0.50380783484E+03  0.13017671520E+04  0.13997866057E+04  0.78398474890E+02 0.  0.
         24    2    4    4    0    0 -0.11537963307E+03 -0.14174261867E+03 -0.12600906149E+02  0.20017228588E+03  0.80664313841E+02 0.  0.
         13    1    3    3    0    0  0.41218220241E+02 -0.58341436215E+02 -0.15566864088E+03  0.17127577357E+03  0.00000000000E+00 0.  1.
        -13    1    3    3    0    0  0.46188488238E+01 -0.30372377996E+03 -0.53021528581E+03  0.61106277712E+03  0.00000000000E+00 0. -1.
          4    1    6    6  502    0 -0.50851757775E+02 -0.11375508388E+03 -0.29034818572E+02  0.12794194412E+03  0.00000000000E+00 0. -1.
          1    1    5    5  503    0  0.61720246077E+01  0.26624928601E+03  0.60909474004E+03  0.66477302783E+03  0.00000000000E+00 0. -1.
         -2    1    5    5    0  503  0.63370539393E+02  0.23755854883E+03  0.69267241198E+03  0.73501357791E+03  0.00000000000E+00 0.  1.
         -1    1    6    6    0  502 -0.64527875291E+02 -0.27987534789E+02  0.16433912424E+02  0.72230341759E+02  0.00000000000E+00 0.  1.
<mgrwt>
<rscale>  0 0.23046456E+04</rscale>
<asrwt>0</asrwt>
<pdfrwt beam="1">  1        2 0.13684732E+00 0.23046456E+04</pdfrwt>
<pdfrwt beam="2">  1       -2 0.22965998E+00 0.23046456E+04</pdfrwt>
<totfact> 0.23203398E+00</totfact>
</mgrwt>
</event>
<event>
12    1  0.1477245E-007  0.1969191E+04  0.7818608E-02  0.8621162E-01
         -1   -1    0    0    0  501 -0.00000000000E+00  0.00000000000E+00  0.35157306462E+03  0.35157306462E+03  0.00000000000E+00 0.  1.
          1   -1    0    0  501    0  0.00000000000E+00 -0.00000000000E+00 -0.27574019901E+04  0.27574019901E+04  0.00000000000E+00 0. -1.
         23    2    1    2    0    0  0.33920762599E+03  0.52751962884E+03 -0.16690453633E+04  0.17856245915E+04  0.96974144691E+02 0.  0.
        254    2    1    2    0    0 -0.33920762599E+03 -0.52751962884E+03 -0.73678356215E+03  0.13233504632E+04  0.90281097611E+03 0.  0.
        -24    2    4    4    0    0 -0.52177798898E+03  0.73681599283E+01 -0.33127914419E+03  0.62317728381E+03  0.79356764751E+02 0.  0.
         24    2    4    4    0    0  0.18257036299E+03 -0.53488778877E+03 -0.40550441795E+03  0.70017317936E+03  0.79823330553E+02 0.  0.
         11    1    3    3    0    0  0.96199240629E+02  0.14924303157E+03 -0.35772892661E+03  0.39937170819E+03  0.00000000000E+00 0.  1.
        -11    1    3    3    0    0  0.24300838536E+03  0.37827659727E+03 -0.13113164367E+04  0.13862528834E+04  0.00000000000E+00 0. -1.
          2    1    6    6  502    0  0.17369612462E+02 -0.16195135990E+03 -0.11259320192E+03  0.19800801884E+03  0.00000000000E+00 0. -1.
          1    1    5    5  503    0 -0.10716553111E+03 -0.71046948937E+01 -0.33494152112E+02  0.11250238207E+03  0.00000000000E+00 0. -1.
         -2    1    5    5    0  503 -0.41461245787E+03  0.14472854822E+02 -0.29778499208E+03  0.51067490173E+03  0.00000000000E+00 0.  1.
         -1    1    6    6    0  502  0.16520075053E+03 -0.37293642888E+03 -0.29291121603E+03  0.50216516052E+03  0.00000000000E+00 0.  1.
<mgrwt>
<rscale>  0 0.19691910E+04</rscale>
<asrwt>0</asrwt>
<pdfrwt beam="1">  1        1 0.42421569E+00 0.19691910E+04</pdfrwt>
<pdfrwt beam="2">  1       -1 0.54088164E-01 0.19691910E+04</pdfrwt>
<totfact> 0.28721667E+00</totfact>
</mgrwt>
</event>
<event>
12    1  0.1477245E-007  0.2306794E+04  0.7818608E-02  0.8475247E-01
         -1   -1    0    0    0  501 -0.00000000000E+00  0.00000000000E+00  0.59892382203E+03  0.59892382203E+03  0.00000000000E+00 0.  1.
          1   -1    0    0  501    0  0.00000000000E+00 -0.00000000000E+00 -0.22211912767E+04  0.22211912767E+04  0.00000000000E+00 0. -1.
         23    2    1    2    0    0 -0.75367056372E+03 -0.61009043023E+03 -0.72978487191E+03  0.12172941628E+04  0.94812804574E+02 0.  0.
        254    2    1    2    0    0  0.75367056372E+03  0.61009043023E+03 -0.89248258273E+03  0.16028209359E+04  0.91229388923E+03 0.  0.
        -24    2    4    4    0    0 -0.12019356525E+03 -0.47025937971E+02 -0.34611981382E+03  0.37791928162E+03  0.79788006188E+02 0.  0.
         24    2    4    4    0    0  0.87386412898E+03  0.65711636820E+03 -0.54636276891E+03  0.12249016543E+04  0.80195698636E+02 0.  0.
         13    1    3    3    0    0 -0.48570206739E+02 -0.12936368905E+02 -0.35767027781E+02  0.61690314470E+02  0.00000000000E+00 0.  1.
        -13    1    3    3    0    0 -0.70510035698E+03 -0.59715406132E+03 -0.69401784412E+03  0.11556038484E+04  0.00000000000E+00 0. -1.
          4    1    6    6  502    0  0.24752822722E+03  0.22854052025E+03 -0.15150256360E+03  0.36939683193E+03  0.00000000000E+00 0. -1.
          1    1    5    5  503    0 -0.29289252099E+02 -0.12425980504E+02 -0.19916866147E+03  0.20169387942E+03  0.00000000000E+00 0. -1.
         -2    1    5    5    0  503 -0.90904313155E+02 -0.34599957467E+02 -0.14695115235E+03  0.17622540221E+03  0.00000000000E+00 0.  1.
         -3    1    6    6    0  502  0.62633590176E+03  0.42857584795E+03 -0.39486020532E+03  0.85550482232E+03  0.00000000000E+00 0.  1.
<mgrwt>
<rscale>  0 0.23067938E+04</rscale>
<asrwt>0</asrwt>
<pdfrwt beam="1">  1        1 0.34172174E+00 0.23067938E+04</pdfrwt>
<pdfrwt beam="2">  1       -1 0.92142125E-01 0.23067938E+04</pdfrwt>
<totfact> 0.21819682E+00</totfact>
</mgrwt>
</event>
<event>
12    1  0.1477245E-007  0.1431844E+04  0.7818608E-02  0.8931086E-01
          2   -1    0    0  501    0  0.00000000000E+00  0.00000000000E+00  0.12288619769E+04  0.12288619769E+04  0.00000000000E+00 0. -1.
         -2   -1    0    0    0  501 -0.00000000000E+00 -0.00000000000E+00 -0.41708849072E+03  0.41708849072E+03  0.00000000000E+00 0.  1.
         23    2    1    2    0    0 -0.19164735350E+02  0.23367705887E+03 -0.17013032254E+03  0.30472424147E+03  0.94553063264E+02 0.  0.
        254    2    1    2    0    0  0.19164735350E+02 -0.23367705887E+03  0.98190380868E+03  0.13412262261E+04  0.88305177943E+03 0.  0.
        -24    2    4    4    0    0 -0.27525762425E+03 -0.33862476357E+03  0.18529503195E+03  0.48213035853E+03  0.87646697237E+02 0.  0.
         24    2    4    4    0    0  0.29442235960E+03  0.10494770470E+03  0.79660877673E+03  0.85909586757E+03  0.75905335575E+02 0.  0.
         13    1    3    3    0    0 -0.24063925272E+02  0.75809919001E+02 -0.10612002725E+02  0.80242326239E+02  0.00000000000E+00 0. -1.
        -13    1    3    3    0    0  0.48991899221E+01  0.15786713987E+03 -0.15951831981E+03  0.22448191523E+03  0.00000000000E+00 0.  1.
          2    1    6    6  502    0  0.94802458657E+02  0.41334961673E+02  0.17671448653E+03  0.20475374227E+03  0.00000000000E+00 0. -1.
          1    1    5    5  503    0 -0.11615197516E+03 -0.13834218767E+03  0.30625666124E+02  0.18321510213E+03  0.00000000000E+00 0. -1.
         -2    1    5    5    0  503 -0.15910564909E+03 -0.20028257591E+03  0.15466936583E+03  0.29891525640E+03  0.00000000000E+00 0.  1.
         -1    1    6    6    0  502  0.19961990094E+03  0.63612743031E+02  0.61989429019E+03  0.65434212530E+03  0.00000000000E+00 0.  1.
<mgrwt>
<rscale>  0 0.14318438E+04</rscale>
<asrwt>0</asrwt>
<pdfrwt beam="1">  1        2 0.18905569E+00 0.14318438E+04</pdfrwt>
<pdfrwt beam="2">  1       -2 0.64167461E-01 0.14318438E+04</pdfrwt>
<totfact> 0.39679605E+01</totfact>
</mgrwt>
</event>
<event>
12    1  0.1477245E-007  0.2760266E+04  0.7818608E-02  0.8315712E-01
          2   -1    0    0  501    0  0.00000000000E+00  0.00000000000E+00  0.46459131469E+04  0.46459131469E+04  0.00000000000E+00 0.  1.
         -2   -1    0    0    0  501 -0.00000000000E+00 -0.00000000000E+00 -0.40998756321E+03  0.40998756321E+03  0.00000000000E+00 0. -1.
         23    2    1    2    0    0  0.40996195049E+03 -0.32242198631E+03 -0.14980363768E+03  0.55148036503E+03  0.98309333491E+02 0.  0.
        254    2    1    2    0    0 -0.40996195049E+03  0.32242198631E+03  0.43857292213E+04  0.45044203450E+04  0.88496163976E+03 0.  0.
        -24    2    4    4    0    0  0.22105164222E+03 -0.32413953298E+00  0.20187158244E+04  0.20323468691E+04  0.79726299396E+02 0.  0.
         24    2    4    4    0    0 -0.63101359271E+03  0.32274612584E+03  0.23670133969E+04  0.24720734760E+04  0.77792246014E+02 0.  0.
         11    1    3    3    0    0  0.18685346454E+03 -0.87627376327E+02 -0.69673794199E+02  0.21782380928E+03  0.00000000000E+00 0. -1.
        -11    1    3    3    0    0  0.22310848595E+03 -0.23479460998E+03 -0.80129843481E+02  0.33365655575E+03  0.00000000000E+00 0.  1.
          4    1    6    6  502    0 -0.61027410472E+03  0.29365838085E+03  0.22424126204E+04  0.23424525796E+04  0.00000000000E+00 0. -1.
          1    1    5    5  503    0  0.17757489992E+03 -0.28753191029E+02  0.14123109761E+04  0.14237211399E+04  0.00000000000E+00 0. -1.
         -2    1    5    5    0  503  0.43476742306E+02  0.28429051496E+02  0.60640484833E+03  0.60862572914E+03  0.00000000000E+00 0.  1.
         -3    1    6    6    0  502 -0.20739487991E+02  0.29087744996E+02  0.12460077652E+03  0.12962089639E+03  0.00000000000E+00 0.  1.
<mgrwt>
<rscale>  0 0.27602656E+04</rscale>
<asrwt>0</asrwt>
<pdfrwt beam="1">  1        2 0.71475583E+00 0.27602656E+04</pdfrwt>
<pdfrwt beam="2">  1       -2 0.63075013E-01 0.27602656E+04</pdfrwt>
<totfact> 0.17847214E-01</totfact>
</mgrwt>
</event>
<event>
12    1  0.1477245E-007  0.2039290E+04  0.7818608E-02  0.8588469E-01
          2   -1    0    0  501    0  0.00000000000E+00  0.00000000000E+00  0.15136217622E+04  0.15136217622E+04  0.00000000000E+00 0.  1.
         -2   -1    0    0    0  501 -0.00000000000E+00 -0.00000000000E+00 -0.68687942443E+03  0.68687942443E+03  0.00000000000E+00 0. -1.
         23    2    1    2    0    0  0.18585812477E+03  0.42225010498E+03 -0.38999115099E+03  0.61114517752E+03  0.92557746568E+02 0.  0.
        254    2    1    2    0    0 -0.18585812477E+03 -0.42225010498E+03  0.12167334887E+04  0.15893560091E+04  0.91256437981E+03 0.  0.
        -24    2    4    4    0    0 -0.18625480796E+03 -0.25426632313E+03  0.13314577835E+04  0.13711379877E+04  0.88866953960E+02 0.  0.
         24    2    4    4    0    0  0.39668318832E+00 -0.16798378185E+03 -0.11472429482E+03  0.21821802133E+03  0.78985648612E+02 0.  0.
         13    1    3    3    0    0  0.71736151223E+02  0.10630664279E+03 -0.65138697167E+02  0.14384098012E+03  0.00000000000E+00 0.  1.
        -13    1    3    3    0    0  0.11412197355E+03  0.31594346220E+03 -0.32485245382E+03  0.46730419740E+03  0.00000000000E+00 0. -1.
          4    1    6    6  502    0  0.58609582376E+01  0.59381585834E+01  0.21343677427E+01  0.86120894379E+01  0.00000000000E+00 0. -1.
          3    1    5    5  503    0 -0.29157984493E+02 -0.13381596021E+02  0.65614205476E+02  0.73037518660E+02  0.00000000000E+00 0. -1.
         -4    1    5    5    0  503 -0.15709682347E+03 -0.24088472711E+03  0.12658435781E+04  0.12981004691E+04  0.00000000000E+00 0.  1.
         -3    1    6    6    0  502 -0.54642750493E+01 -0.17392194044E+03 -0.11685866257E+03  0.20960593189E+03  0.00000000000E+00 0.  1.
<mgrwt>
<rscale>  0 0.20392897E+04</rscale>
<asrwt>0</asrwt>
<pdfrwt beam="1">  1        2 0.23286489E+00 0.20392897E+04</pdfrwt>
<pdfrwt beam="2">  1       -2 0.10567376E+00 0.20392897E+04</pdfrwt>
<totfact> 0.83612963E+00</totfact>
</mgrwt>
</event>
<event>
12    1  0.1477245E-007  0.1328982E+04  0.7818608E-02  0.9006893E-01
         -2   -1    0    0    0  501 -0.00000000000E+00  0.00000000000E+00  0.54543675701E+03  0.54543675701E+03  0.00000000000E+00 0.  1.
          2   -1    0    0  501    0  0.00000000000E+00 -0.00000000000E+00 -0.80953122770E+03  0.80953122770E+03  0.00000000000E+00 0. -1.
         23    2    1    2    0    0  0.76532304344E+02 -0.32709567271E+03 -0.20288444110E+03  0.40271709843E+03  0.90389115558E+02 0.  0.
        254    2    1    2    0    0 -0.76532304344E+02  0.32709567271E+03 -0.61210029592E+02  0.95225088628E+03  0.88892424310E+03 0.  0.
        -24    2    4    4    0    0 -0.25060007217E+03  0.40671534338E+03  0.27607173459E+03  0.55707337726E+03  0.76794389756E+02 0.  0.
         24    2    4    4    0    0  0.17406776783E+03 -0.79619670666E+02 -0.33728176419E+03  0.39517750902E+03  0.75943369880E+02 0.  0.
         13    1    3    3    0    0  0.93850931427E+02 -0.30589385657E+03 -0.18059658480E+03  0.36741553486E+03  0.00000000000E+00 0.  1.
        -13    1    3    3    0    0 -0.17318627083E+02 -0.21201816141E+02 -0.22287856302E+02  0.35301563567E+02  0.00000000000E+00 0. -1.
          2    1    6    6  502    0  0.14245992983E+03 -0.54475697388E+02 -0.31265415982E+03  0.34787218467E+03  0.00000000000E+00 0. -1.
          3    1    5    5  503    0 -0.15447428036E+03  0.26202922081E+03  0.21681255123E+03  0.37353620738E+03  0.00000000000E+00 0. -1.
         -4    1    5    5    0  503 -0.96125791806E+02  0.14468612257E+03  0.59259183361E+02  0.18353716988E+03  0.00000000000E+00 0.  1.
         -1    1    6    6    0  502  0.31607837997E+02 -0.25143973278E+02 -0.24627604364E+02  0.47305324349E+02  0.00000000000E+00 0.  1.
<mgrwt>
<rscale>  0 0.13289817E+04</rscale>
<asrwt>0</asrwt>
<pdfrwt beam="1">  1        2 0.12454327E+00 0.13289817E+04</pdfrwt>
<pdfrwt beam="2">  1       -2 0.83913347E-01 0.13289817E+04</pdfrwt>
<totfact> 0.41166251E+01</totfact>
</mgrwt>
</event>
<event>
12    1  0.1477245E-007  0.1383814E+04  0.7818608E-02  0.8965619E-01
         -2   -1    0    0    0  501 -0.00000000000E+00  0.00000000000E+00  0.29564711658E+03  0.29564711658E+03  0.00000000000E+00 0.  1.
          2   -1    0    0  501    0  0.00000000000E+00 -0.00000000000E+00 -0.16192787910E+04  0.16192787910E+04  0.00000000000E+00 0. -1.
         23    2    1    2    0    0 -0.54767602361E+02 -0.36121913392E+03 -0.18811977896E+03  0.42094616932E+03  0.91257181926E+02 0.  0.
        254    2    1    2    0    0  0.54767602361E+02  0.36121913392E+03 -0.11355118955E+04  0.14939797383E+04  0.89950510874E+03 0.  0.
        -24    2    4    4    0    0  0.19244882456E+02 -0.24409239067E+03 -0.72303723825E+02  0.26758056082E+03  0.80125322866E+02 0.  0.
         24    2    4    4    0    0  0.35522719905E+02  0.60531152459E+03 -0.10632081717E+04  0.12263991775E+04  0.77326714537E+02 0.  0.
         11    1    3    3    0    0 -0.19079605505E+02 -0.15841017198E+03 -0.32497061676E+02  0.16283081081E+03  0.00000000000E+00 0. -1.
        -11    1    3    3    0    0 -0.35687996856E+02 -0.20280896194E+03 -0.15562271728E+03  0.25811535851E+03  0.00000000000E+00 0.  1.
          2    1    6    6  502    0 -0.12321099875E+02  0.20685298877E+03 -0.41837818956E+03  0.46688358074E+03  0.00000000000E+00 0. -1.
          3    1    5    5  503    0  0.45724780346E+02 -0.15671163697E+03 -0.65918558564E+02  0.17605268831E+03  0.00000000000E+00 0. -1.
         -4    1    5    5    0  503 -0.26479897890E+02 -0.87380753703E+02 -0.63851652611E+01  0.91527872505E+02  0.00000000000E+00 0.  1.
         -1    1    6    6    0  502  0.47843819780E+02  0.39845853582E+03 -0.64482998209E+03  0.75951559672E+03  0.00000000000E+00 0.  1.
<mgrwt>
<rscale>  0 0.13838137E+04</rscale>
<asrwt>0</asrwt>
<pdfrwt beam="1">  1        2 0.24911982E+00 0.13838137E+04</pdfrwt>
<pdfrwt beam="2">  1       -2 0.45484171E-01 0.13838137E+04</pdfrwt>
<totfact> 0.48578737E+01</totfact>
</mgrwt>
</event>
<event>
12    1  0.1477245E-007  0.1176657E+04  0.7818608E-02  0.9133537E-01
         -2   -1    0    0    0  501 -0.00000000000E+00  0.00000000000E+00  0.15209318337E+03  0.15209318337E+03  0.00000000000E+00 0.  1.
          2   -1    0    0  501    0  0.00000000000E+00 -0.00000000000E+00 -0.22757798386E+04  0.22757798386E+04  0.00000000000E+00 0. -1.
         23    2    1    2    0    0 -0.16547177967E+03  0.78311852251E+02 -0.72722205652E+03  0.75538409192E+03  0.90771971283E+02 0.  0.
        254    2    1    2    0    0  0.16547177967E+03 -0.78311852251E+02 -0.13964645987E+04  0.16724889300E+04  0.90199345318E+03 0.  0.
        -24    2    4    4    0    0  0.31405121378E+03  0.32246243398E+03 -0.91942041459E+03  0.10270749168E+04  0.83299458214E+02 0.  0.
         24    2    4    4    0    0 -0.14857943410E+03 -0.40077428623E+03 -0.47704418410E+03  0.64541401323E+03  0.79323503105E+02 0.  0.
         13    1    3    3    0    0 -0.16566555469E+03  0.88546291030E+02 -0.71584093320E+03  0.74007686311E+03  0.00000000000E+00 0. -1.
        -13    1    3    3    0    0  0.19377502199E+00 -0.10234438779E+02 -0.11381123318E+02  0.15307228810E+02  0.00000000000E+00 0.  1.
          2    1    6    6  502    0 -0.42772556564E+00 -0.20666551926E+02 -0.53473955569E+02  0.57330212296E+02  0.00000000000E+00 0. -1.
          3    1    5    5  503    0  0.14092724511E+03  0.12385534935E+03 -0.47082604817E+03  0.50683113915E+03  0.00000000000E+00 0. -1.
         -4    1    5    5    0  503  0.17312396867E+03  0.19860708463E+03 -0.44859436641E+03  0.52024377764E+03  0.00000000000E+00 0.  1.
         -1    1    6    6    0  502 -0.14815170854E+03 -0.38010773430E+03 -0.42357022853E+03  0.58808380093E+03  0.00000000000E+00 0.  1.
<mgrwt>
<rscale>  0 0.11766573E+04</rscale>
<asrwt>0</asrwt>
<pdfrwt beam="1">  1        2 0.35011996E+00 0.11766573E+04</pdfrwt>
<pdfrwt beam="2">  1       -2 0.23398953E-01 0.11766573E+04</pdfrwt>
<totfact> 0.75071268E+01</totfact>
</mgrwt>
</event>
<event>
12    1  0.1477245E-007  0.1487392E+04  0.7818608E-02  0.8892881E-01
         -2   -1    0    0    0  501 -0.00000000000E+00  0.00000000000E+00  0.33065937847E+03  0.33065937847E+03  0.00000000000E+00 0. -1.
          2   -1    0    0  501    0  0.00000000000E+00 -0.00000000000E+00 -0.16726691795E+04  0.16726691795E+04  0.00000000000E+00 0.  1.
         23    2    1    2    0    0  0.41787775068E+03 -0.89062157914E+02 -0.65987039037E+03  0.79072151189E+03  0.85192105240E+02 0.  0.
        254    2    1    2    0    0 -0.41787775068E+03  0.89062157914E+02 -0.68213941070E+03  0.12126070461E+04  0.90694420456E+03 0.  0.
        -24    2    4    4    0    0  0.22020057875E+03  0.30687936883E+02 -0.48182900991E+03  0.53664820974E+03  0.80012885677E+02 0.  0.
         24    2    4    4    0    0 -0.63807832943E+03  0.58374221031E+02 -0.20031040079E+03  0.67595883637E+03  0.79022703341E+02 0.  0.
         13    1    3    3    0    0  0.16106384415E+03 -0.57376922108E+02 -0.32805974368E+03  0.36994170961E+03  0.00000000000E+00 0. -1.
        -13    1    3    3    0    0  0.25681390652E+03 -0.31685235806E+02 -0.33181064669E+03  0.42077980228E+03  0.00000000000E+00 0.  1.
          2    1    6    6  502    0 -0.55224158441E+02  0.68627796826E+01 -0.42220557286E+02  0.69852565293E+02  0.00000000000E+00 0. -1.
          3    1    5    5  503    0  0.42347077315E+02  0.24288114462E+02 -0.51452045826E+02  0.70926021183E+02  0.00000000000E+00 0. -1.
         -4    1    5    5    0  503  0.17785350144E+03  0.63998224216E+01 -0.43037696409E+03  0.46572218856E+03  0.00000000000E+00 0.  1.
         -1    1    6    6    0  502 -0.58285417099E+03  0.51511441348E+02 -0.15808984350E+03  0.60610627108E+03  0.00000000000E+00 0.  1.
<mgrwt>
<rscale>  0 0.14873920E+04</rscale>
<asrwt>0</asrwt>
<pdfrwt beam="1">  1        2 0.25733372E+00 0.14873920E+04</pdfrwt>
<pdfrwt beam="2">  1       -2 0.50870674E-01 0.14873920E+04</pdfrwt>
<totfact> 0.35875933E+01</totfact>
</mgrwt>
</event>
<event>
12    1  0.1477245E-007  0.1583836E+04  0.7818608E-02  0.8830540E-01
         -2   -1    0    0    0  501 -0.00000000000E+00  0.00000000000E+00  0.84061517078E+03  0.84061517078E+03  0.00000000000E+00 0.  1.
          2   -1    0    0  501    0  0.00000000000E+00 -0.00000000000E+00 -0.74604201464E+03  0.74604201464E+03  0.00000000000E+00 0. -1.
         23    2    1    2    0    0  0.52855335394E+03 -0.55572290650E+02  0.36814489496E+03  0.65276335112E+03  0.90068870476E+02 0.  0.
        254    2    1    2    0    0 -0.52855335394E+03  0.55572290650E+02 -0.27357173882E+03  0.93389383430E+03  0.71753694680E+03 0.  0.
        -24    2    4    4    0    0 -0.53796084427E+03  0.15415964680E+03  0.68116340429E+02  0.56939316773E+03  0.80010480269E+02 0.  0.
         24    2    4    4    0    0  0.94074903285E+01 -0.98587356151E+02 -0.34168807925E+03  0.36450066658E+03  0.79385293129E+02 0.  0.
         13    1    3    3    0    0  0.45580970143E+03 -0.19275301033E+02  0.29407266740E+03  0.54278241944E+03  0.00000000000E+00 0.  1.
        -13    1    3    3    0    0  0.72743652509E+02 -0.36296989616E+02  0.74072227564E+02  0.10998093167E+03  0.00000000000E+00 0. -1.
          4    1    6    6  502    0  0.25546553268E+02 -0.74356176978E+02 -0.31612985455E+03  0.32575996128E+03  0.00000000000E+00 0. -1.
          1    1    5    5  503    0 -0.51704697378E+03  0.14063852133E+03  0.80047024712E+02  0.54177882290E+03  0.00000000000E+00 0. -1.
         -2    1    5    5    0  503 -0.20913870488E+02  0.13521125468E+02 -0.11930684284E+02  0.27614344826E+02  0.00000000000E+00 0.  1.
         -3    1    6    6    0  502 -0.16139062939E+02 -0.24231179173E+02 -0.25558224704E+02  0.38740705295E+02  0.00000000000E+00 0.  1.
<mgrwt>
<rscale>  0 0.15838361E+04</rscale>
<asrwt>0</asrwt>
<pdfrwt beam="1">  1        2 0.11477569E+00 0.15838361E+04</pdfrwt>
<pdfrwt beam="2">  1       -2 0.12932541E+00 0.15838361E+04</pdfrwt>
<totfact> 0.15949628E+01</totfact>
</mgrwt>
</event>
<event>
12    1  0.1477245E-007  0.1401328E+04  0.7818608E-02  0.8952858E-01
          2   -1    0    0  501    0  0.00000000000E+00  0.00000000000E+00  0.49087043024E+03  0.49087043024E+03  0.00000000000E+00 0. -1.
         -2   -1    0    0    0  501 -0.00000000000E+00 -0.00000000000E+00 -0.10001214604E+04  0.10001214604E+04  0.00000000000E+00 0.  1.
         23    2    1    2    0    0 -0.18225035640E+03 -0.32874873516E+03  0.17858698677E+02  0.38659608255E+03  0.88581457706E+02 0.  0.
        254    2    1    2    0    0  0.18225035640E+03  0.32874873516E+03 -0.52710972887E+03  0.11043958081E+04  0.89473711863E+03 0.  0.
        -24    2    4    4    0    0  0.36561156644E+03  0.12330586007E+03 -0.67465500172E+03  0.78157057291E+03  0.82565346567E+02 0.  0.
         24    2    4    4    0    0 -0.18336121005E+03  0.20544287509E+03  0.14754527285E+03  0.32282523522E+03  0.81353651902E+02 0.  0.
         13    1    3    3    0    0 -0.16538999118E+03 -0.33012333541E+03  0.16071972416E+02  0.36958567892E+03  0.00000000000E+00 0. -1.
        -13    1    3    3    0    0 -0.16860365216E+02  0.13746002475E+01  0.17867262610E+01  0.17010403633E+02  0.00000000000E+00 0.  1.
          4    1    6    6  502    0 -0.10896446351E+03  0.86593058712E+02  0.11073532943E+03  0.17785928514E+03  0.00000000000E+00 0. -1.
          3    1    5    5  503    0  0.16508683127E+03  0.91468366853E+02 -0.37171382195E+03  0.41688282457E+03  0.00000000000E+00 0. -1.
         -4    1    5    5    0  503  0.20052473517E+03  0.31837493219E+02 -0.30294117977E+03  0.36468774834E+03  0.00000000000E+00 0.  1.
         -3    1    6    6    0  502 -0.74396746536E+02  0.11884981638E+03  0.36809943418E+02  0.14496595008E+03  0.00000000000E+00 0.  1.
<mgrwt>
<rscale>  0 0.14013280E+04</rscale>
<asrwt>0</asrwt>
<pdfrwt beam="1">  1        2 0.75518528E-01 0.14013280E+04</pdfrwt>
<pdfrwt beam="2">  1       -2 0.15386484E+00 0.14013280E+04</pdfrwt>
<totfact> 0.17126561E+01</totfact>
</mgrwt>
</event>
<event>
12    1  0.1477245E-007  0.1368935E+04  0.7818608E-02  0.8976617E-01
          2   -1    0    0  501    0  0.00000000000E+00  0.00000000000E+00  0.31284433349E+04  0.31284433349E+04  0.00000000000E+00 0. -1.
         -2   -1    0    0    0  501 -0.00000000000E+00 -0.00000000000E+00 -0.14975356702E+03  0.14975356702E+03  0.00000000000E+00 0.  1.
         23    2    1    2    0    0 -0.37832679473E+03 -0.45547196705E+02  0.89052166618E+03  0.97283152273E+03  0.90369369535E+02 0.  0.
        254    2    1    2    0    0  0.37832679473E+03  0.45547196705E+02  0.20881681017E+04  0.23053653792E+04  0.89947640315E+03 0.  0.
        -24    2    4    4    0    0  0.11769408745E+03  0.40300189304E+03  0.15324473557E+04  0.15907096754E+04  0.75498009105E+02 0.  0.
         24    2    4    4    0    0  0.26063270728E+03 -0.35745469633E+03  0.55572074593E+03  0.71465570372E+03  0.78765216744E+02 0.  0.
         13    1    3    3    0    0 -0.31775423030E+03 -0.41810549870E+02  0.64926031263E+03  0.72405443615E+03  0.00000000000E+00 0.  1.
        -13    1    3    3    0    0 -0.60572564426E+02 -0.37366468352E+01  0.24126135356E+03  0.24877708659E+03  0.00000000000E+00 0. -1.
          2    1    6    6  502    0  0.20352332140E+03 -0.30105640316E+03  0.40674545696E+03  0.54543429209E+03  0.00000000000E+00 0. -1.
          1    1    5    5  503    0  0.94107285173E+02  0.20352716281E+03  0.87404040616E+03  0.90234478927E+03  0.00000000000E+00 0. -1.
         -2    1    5    5    0  503  0.23586802275E+02  0.19947473023E+03  0.65840694959E+03  0.68836488617E+03  0.00000000000E+00 0.  1.
         -3    1    6    6    0  502  0.57109385877E+02 -0.56398293178E+02  0.14897528898E+03  0.16922141163E+03  0.00000000000E+00 0.  1.
<mgrwt>
<rscale>  0 0.13689347E+04</rscale>
<asrwt>0</asrwt>
<pdfrwt beam="1">  1        2 0.48129892E+00 0.13689347E+04</pdfrwt>
<pdfrwt beam="2">  1       -2 0.23039013E-01 0.13689347E+04</pdfrwt>
<totfact> 0.23676472E+01</totfact>
</mgrwt>
</event>
<event>
12    1  0.1477245E-007  0.1135696E+04  0.7818608E-02  0.9171082E-01
          2   -1    0    0  501    0  0.00000000000E+00  0.00000000000E+00  0.13574512689E+04  0.13574512689E+04  0.00000000000E+00 0. -1.
         -2   -1    0    0    0  501 -0.00000000000E+00 -0.00000000000E+00 -0.23754173754E+03  0.23754173754E+03  0.00000000000E+00 0.  1.
         23    2    1    2    0    0 -0.49888634086E+02 -0.79485681793E+02 -0.27082287712E+02  0.13243146059E+03  0.89430375299E+02 0.  0.
        254    2    1    2    0    0  0.49888634086E+02  0.79485681793E+02  0.11469918191E+04  0.14625615459E+04  0.90260134777E+03 0.  0.
        -24    2    4    4    0    0  0.41013441709E+03  0.24421314884E+03  0.77365657301E+03  0.91279294185E+03  0.82438823257E+02 0.  0.
         24    2    4    4    0    0 -0.36024578301E+03 -0.16472746705E+03  0.37333524611E+03  0.54976860405E+03  0.77163135224E+02 0.  0.
         11    1    3    3    0    0 -0.61564699689E+02 -0.71173118377E+02 -0.49111706626E+02  0.10614982221E+03  0.00000000000E+00 0.  1.
        -11    1    3    3    0    0  0.11676065603E+02 -0.83125634159E+01  0.22029418913E+02  0.26281638384E+02  0.00000000000E+00 0. -1.
          4    1    6    6  502    0 -0.21900963737E+03 -0.12833297209E+03  0.19951109775E+03  0.32286103994E+03  0.00000000000E+00 0. -1.
          1    1    5    5  503    0  0.26881106663E+03  0.15426042830E+03  0.42527513092E+03  0.52622676316E+03  0.00000000000E+00 0. -1.
         -2    1    5    5    0  503  0.14132335046E+03  0.89952720540E+02  0.34838144208E+03  0.38656617869E+03  0.00000000000E+00 0.  1.
         -3    1    6    6    0  502 -0.14123614563E+03 -0.36394494963E+02  0.17382414836E+03  0.22690756411E+03  0.00000000000E+00 0.  1.
<mgrwt>
<rscale>  0 0.11356960E+04</rscale>
<asrwt>0</asrwt>
<pdfrwt beam="1">  1        2 0.20883865E+00 0.11356960E+04</pdfrwt>
<pdfrwt beam="2">  1       -2 0.36544883E-01 0.11356960E+04</pdfrwt>
<totfact> 0.10684928E+02</totfact>
</mgrwt>
</event>
<event>
12    1  0.1477245E-007  0.1595309E+04  0.7818608E-02  0.8823435E-01
          1   -1    0    0  501    0  0.00000000000E+00  0.00000000000E+00  0.15690347258E+04  0.15690347258E+04  0.00000000000E+00 0. -1.
         -1   -1    0    0    0  501 -0.00000000000E+00 -0.00000000000E+00 -0.40550586670E+03  0.40550586670E+03  0.00000000000E+00 0.  1.
         23    2    1    2    0    0  0.73485416122E+02  0.50335594565E+03  0.56560679206E+03  0.76621356741E+03  0.91678095874E+02 0.  0.
        254    2    1    2    0    0 -0.73485416122E+02 -0.50335594565E+03  0.59792206702E+03  0.12083270251E+04  0.91857285334E+03 0.  0.
        -24    2    4    4    0    0 -0.44265764751E+03 -0.33042010626E+03  0.56118316015E+03  0.79141562344E+03  0.79302649822E+02 0.  0.
         24    2    4    4    0    0  0.36917223138E+03 -0.17293583939E+03  0.36738906870E+02  0.41691140163E+03  0.79186037687E+02 0.  0.
         11    1    3    3    0    0  0.87547495625E+02  0.46523186511E+03  0.49628571580E+03  0.68586060101E+03  0.00000000000E+00 0.  1.
        -11    1    3    3    0    0 -0.14062079504E+02  0.38124080536E+02  0.69321076258E+02  0.80352966406E+02  0.00000000000E+00 0. -1.
          2    1    6    6  502    0  0.32056496454E+03 -0.17565793051E+03  0.22687907982E+02  0.36624083089E+03  0.00000000000E+00 0. -1.
          3    1    5    5  503    0 -0.33163867104E+03 -0.28750460803E+03  0.43505890176E+03  0.61799624252E+03  0.00000000000E+00 0. -1.
         -4    1    5    5    0  503 -0.11101897646E+03 -0.42915498232E+02  0.12612425839E+03  0.17341938092E+03  0.00000000000E+00 0.  1.
         -1    1    6    6    0  502  0.48607266842E+02  0.27220911182E+01  0.14050998888E+02  0.50670570746E+02  0.00000000000E+00 0.  1.
<mgrwt>
<rscale>  0 0.15953091E+04</rscale>
<asrwt>0</asrwt>
<pdfrwt beam="1">  1        1 0.24138995E+00 0.15953091E+04</pdfrwt>
<pdfrwt beam="2">  1       -1 0.62385519E-01 0.15953091E+04</pdfrwt>
<totfact> 0.14660756E+01</totfact>
</mgrwt>
</event>
<event>
12    1  0.1477245E-007  0.2279405E+04  0.7818608E-02  0.8486086E-01
          2   -1    0    0  501    0  0.00000000000E+00  0.00000000000E+00  0.11507534986E+04  0.11507534986E+04  0.00000000000E+00 0. -1.
         -2   -1    0    0    0  501 -0.00000000000E+00 -0.00000000000E+00 -0.11287577965E+04  0.11287577965E+04  0.00000000000E+00 0.  1.
         23    2    1    2    0    0 -0.24273513095E+01 -0.59104677095E+03 -0.74802627890E+03  0.95768634281E+03  0.90981535448E+02 0.  0.
        254    2    1    2    0    0  0.24273513095E+01  0.59104677095E+03  0.77002198102E+03  0.13218249524E+04  0.89718736949E+03 0.  0.
        -24    2    4    4    0    0  0.35543798265E+03  0.20987146151E+03  0.66378376385E+03  0.78593916851E+03  0.81910326459E+02 0.  0.
         24    2    4    4    0    0 -0.35301063134E+03  0.38117530944E+03  0.10623821717E+03  0.53588578386E+03  0.77303895039E+02 0.  0.
         11    1    3    3    0    0  0.32850230508E+01 -0.10618575208E+03 -0.83850461035E+02  0.13534070023E+03  0.00000000000E+00 0. -1.
        -11    1    3    3    0    0 -0.57123743603E+01 -0.48486101886E+03 -0.66417581787E+03  0.82234564258E+03  0.00000000000E+00 0.  1.
          4    1    6    6  502    0 -0.97863465641E+01 -0.28033446465E+01  0.31155227230E+01  0.10646022831E+02  0.00000000000E+00 0. -1.
          1    1    5    5  503    0  0.47075118760E+02  0.18593225407E+01  0.54013175815E+02  0.71672498549E+02  0.00000000000E+00 0. -1.
         -2    1    5    5    0  503  0.30836286389E+03  0.20801213897E+03  0.60977058804E+03  0.71426666996E+03  0.00000000000E+00 0.  1.
         -3    1    6    6    0  502 -0.34322428477E+03  0.38397865409E+03  0.10312269444E+03  0.52523976103E+03  0.00000000000E+00 0.  1.
<mgrwt>
<rscale>  0 0.22794052E+04</rscale>
<asrwt>0</asrwt>
<pdfrwt beam="1">  1        2 0.17703900E+00 0.22794052E+04</pdfrwt>
<pdfrwt beam="2">  1       -2 0.17365504E+00 0.22794052E+04</pdfrwt>
<totfact> 0.36984226E+00</totfact>
</mgrwt>
</event>
<event>
12    1  0.1477245E-007  0.1637324E+04  0.7818608E-02  0.8797941E-01
          2   -1    0    0  501    0  0.00000000000E+00  0.00000000000E+00  0.20668286063E+04  0.20668286063E+04  0.00000000000E+00 0. -1.
         -2   -1    0    0    0  501 -0.00000000000E+00 -0.00000000000E+00 -0.32426863721E+03  0.32426863721E+03  0.00000000000E+00 0.  1.
         23    2    1    2    0    0  0.42407518895E+03  0.34762379610E+03  0.41466040988E+03  0.69297463499E+03  0.87112110058E+02 0.  0.
        254    2    1    2    0    0 -0.42407518895E+03 -0.34762379610E+03  0.13278995593E+04  0.16981226086E+04  0.90532926869E+03 0.  0.
        -24    2    4    4    0    0 -0.63435453258E+03 -0.10800800748E+03  0.53730750760E+03  0.84200585533E+03  0.78759761342E+02 0.  0.
         24    2    4    4    0    0  0.21027934363E+03 -0.23961578862E+03  0.79059205165E+03  0.85611675323E+03  0.79164224860E+02 0.  0.
         13    1    3    3    0    0  0.40757473088E+03  0.34618334347E+03  0.38473892054E+03  0.65877470012E+03  0.00000000000E+00 0.  1.
        -13    1    3    3    0    0  0.16500458075E+02  0.14404526302E+01  0.29921489344E+02  0.34199934869E+02  0.00000000000E+00 0. -1.
          4    1    6    6  502    0  0.38165472418E+02 -0.39484266414E+02  0.71820747251E+02  0.90409237995E+02  0.00000000000E+00 0. -1.
          3    1    5    5  503    0 -0.82822882613E+02  0.12120323447E+02  0.64067278330E+02  0.10540943163E+03  0.00000000000E+00 0. -1.
         -4    1    5    5    0  503 -0.55153164997E+03 -0.12012833092E+03  0.47324022927E+03  0.73659642370E+03  0.00000000000E+00 0.  1.
         -3    1    6    6    0  502  0.17211387121E+03 -0.20013152221E+03  0.71877130440E+03  0.76570751523E+03  0.00000000000E+00 0.  1.
<mgrwt>
<rscale>  0 0.16373243E+04</rscale>
<asrwt>0</asrwt>
<pdfrwt beam="1">  1        2 0.31797362E+00 0.16373243E+04</pdfrwt>
<pdfrwt beam="2">  1       -2 0.49887484E-01 0.16373243E+04</pdfrwt>
<totfact> 0.22297966E+01</totfact>
</mgrwt>
</event>
<event>
12    1  0.1919722E-007  0.2015830E+04  0.7818608E-02  0.8599255E-01
         -1   -1    0    0    0  501 -0.00000000000E+00  0.00000000000E+00  0.11591189970E+04  0.11591189970E+04  0.00000000000E+00 0.  1.
          1   -1    0    0  501    0  0.00000000000E+00 -0.00000000000E+00 -0.87643519982E+03  0.87643519982E+03  0.00000000000E+00 0. -1.
         23    2    1    2    0    0  0.18894624878E+03 -0.35920118108E+03  0.81552957524E+03  0.91566359951E+03  0.92871771642E+02 0.  0.
        254    2    1    2    0    0 -0.18894624878E+03  0.35920118108E+03 -0.53284577807E+03  0.11198905973E+04  0.89749883192E+03 0.  0.
        -24    2    4    4    0    0 -0.13328967022E+03  0.13537737178E+03 -0.75956274385E+03  0.78699482048E+03  0.79574597938E+02 0.  0.
         24    2    4    4    0    0 -0.55656578561E+02  0.22382380929E+03  0.22671696577E+03  0.33289577683E+03  0.78894000499E+02 0.  0.
         11    1    3    3    0    0  0.63808362857E+01  0.37486050821E+01  0.47706591587E+01  0.88049020764E+01  0.00000000000E+00 0. -1.
        -11    1    3    3    0    0  0.18256541249E+03 -0.36294978616E+03  0.81075891608E+03  0.90685869743E+03  0.00000000000E+00 0.  1.
          2    1    6    6  502    0 -0.46344147008E+02  0.19168780435E+03  0.22528325152E+03  0.29940697673E+03  0.00000000000E+00 0. -1.
          3    1    5    5  503    0 -0.90350733873E+02  0.13126797378E+03 -0.64993628511E+03  0.66918735102E+03  0.00000000000E+00 0. -1.
         -4    1    5    5    0  503 -0.42938936344E+02  0.41093980083E+01 -0.10962645873E+03  0.11780746946E+03  0.00000000000E+00 0.  1.
         -1    1    6    6    0  502 -0.93124315523E+01  0.32136004945E+02  0.14337142503E+01  0.33488800095E+02  0.00000000000E+00 0.  1.
<mgrwt>
<rscale>  0 0.20158300E+04</rscale>
<asrwt>0</asrwt>
<pdfrwt beam="1">  1        1 0.13483618E+00 0.20158300E+04</pdfrwt>
<pdfrwt beam="2">  1       -1 0.17832600E+00 0.20158300E+04</pdfrwt>
<totfact> 0.37722911E+00</totfact>
</mgrwt>
</event>
<event>
12    1  0.1477245E-007  0.2547339E+04  0.7818608E-02  0.8386312E-01
          2   -1    0    0  501    0  0.00000000000E+00  0.00000000000E+00  0.15817889386E+04  0.15817889386E+04  0.00000000000E+00 0. -1.
         -2   -1    0    0    0  501 -0.00000000000E+00 -0.00000000000E+00 -0.10255694272E+04  0.10255694272E+04  0.00000000000E+00 0.  1.
         23    2    1    2    0    0  0.69246007320E+03 -0.26265476411E+03  0.10857485518E+04  0.13175517945E+04  0.92759557656E+02 0.  0.
        254    2    1    2    0    0 -0.69246007320E+03  0.26265476411E+03 -0.52952904028E+03  0.12898065713E+04  0.91362547508E+03 0.  0.
        -24    2    4    4    0    0 -0.47068883070E+03 -0.96251815641E+02 -0.67799884386E+03  0.83523180480E+03  0.84364377007E+02 0.  0.
         24    2    4    4    0    0 -0.22177124249E+03  0.35890657975E+03  0.14846980359E+03  0.45457476647E+03  0.81231267068E+02 0.  0.
         13    1    3    3    0    0  0.24608925685E+03 -0.50214549391E+02  0.39645023111E+03  0.46931248551E+03  0.00000000000E+00 0.  1.
        -13    1    3    3    0    0  0.44637081634E+03 -0.21244021472E+03  0.68929832065E+03  0.84823930902E+03  0.00000000000E+00 0. -1.
          2    1    6    6  502    0 -0.12673338256E+03  0.22748312394E+03  0.50990864252E+02  0.26534880850E+03  0.00000000000E+00 0. -1.
          3    1    5    5  503    0 -0.94544290064E+02 -0.35444130294E+02 -0.94177716501E+02  0.13807371742E+03  0.00000000000E+00 0. -1.
         -4    1    5    5    0  503 -0.37614454064E+03 -0.60807685347E+02 -0.58382112736E+03  0.69715808738E+03  0.00000000000E+00 0.  1.
         -1    1    6    6    0  502 -0.95037859929E+02  0.13142345581E+03  0.97478939336E+02  0.18922595797E+03  0.00000000000E+00 0.  1.
<mgrwt>
<rscale>  0 0.25473393E+04</rscale>
<asrwt>0</asrwt>
<pdfrwt beam="1">  1        2 0.24335214E+00 0.25473393E+04</pdfrwt>
<pdfrwt beam="2">  1       -2 0.15777991E+00 0.25473393E+04</pdfrwt>
<totfact> 0.26543257E+00</totfact>
</mgrwt>
</event>
<event>
12    1  0.1477245E-007  0.1954755E+04  0.7818608E-02  0.8628071E-01
          2   -1    0    0  501    0  0.00000000000E+00  0.00000000000E+00  0.18448610562E+04  0.18448610562E+04  0.00000000000E+00 0.  1.
         -2   -1    0    0    0  501 -0.00000000000E+00 -0.00000000000E+00 -0.51779887971E+03  0.51779887971E+03  0.00000000000E+00 0. -1.
         23    2    1    2    0    0 -0.54806944963E+03 -0.53392661753E+03  0.44402085207E+03  0.88947074660E+03  0.92444239725E+02 0.  0.
        254    2    1    2    0    0  0.54806944963E+03  0.53392661753E+03  0.88304132440E+03  0.14731891893E+04  0.89725506535E+03 0.  0.
        -24    2    4    4    0    0  0.49818984031E+03  0.35598300160E+03  0.10465600645E+04  0.12151816729E+04  0.80383549968E+02 0.  0.
         24    2    4    4    0    0  0.49879609319E+02  0.17794361593E+03 -0.16351874015E+03  0.25800751635E+03  0.75349812474E+02 0.  0.
         11    1    3    3    0    0 -0.48241813353E+03 -0.46672260232E+03  0.42234714663E+03  0.79305381617E+03  0.00000000000E+00 0. -1.
        -11    1    3    3    0    0 -0.65651316097E+02 -0.67204015206E+02  0.21673705438E+02  0.96416930425E+02  0.00000000000E+00 0.  1.
          4    1    6    6  502    0  0.61553399045E+02  0.17641585680E+03 -0.14709019481E+03  0.23779592274E+03  0.00000000000E+00 0. -1.
          3    1    5    5  503    0  0.18691080781E+03  0.15023101630E+03  0.48360541104E+03  0.53979551862E+03  0.00000000000E+00 0. -1.
         -4    1    5    5    0  503  0.31127903251E+03  0.20575198530E+03  0.56295465351E+03  0.67538615431E+03  0.00000000000E+00 0.  1.
         -3    1    6    6    0  502 -0.11673789726E+02  0.15277591348E+01 -0.16428545334E+02  0.20211593612E+02  0.00000000000E+00 0.  1.
<mgrwt>
<rscale>  0 0.19547552E+04</rscale>
<asrwt>0</asrwt>
<pdfrwt beam="1">  1        2 0.28382478E+00 0.19547552E+04</pdfrwt>
<pdfrwt beam="2">  1       -2 0.79661367E-01 0.19547552E+04</pdfrwt>
<totfact> 0.10601967E+01</totfact>
</mgrwt>
</event>
<event>
12    1  0.1477245E-007  0.1944901E+04  0.7818608E-02  0.8632824E-01
          2   -1    0    0  501    0  0.00000000000E+00  0.00000000000E+00  0.75923009732E+03  0.75923009732E+03  0.00000000000E+00 0.  1.
         -2   -1    0    0    0  501 -0.00000000000E+00 -0.00000000000E+00 -0.12455511836E+04  0.12455511836E+04  0.00000000000E+00 0. -1.
         23    2    1    2    0    0 -0.99313264541E+01  0.72430138580E+03 -0.42728064121E+03  0.84579033380E+03  0.89896683351E+02 0.  0.
        254    2    1    2    0    0  0.99313264541E+01 -0.72430138580E+03 -0.59040445062E+02  0.11589909471E+04  0.90280845843E+03 0.  0.
        -24    2    4    4    0    0 -0.66608940636E+02 -0.78525416986E+03  0.24541519391E+03  0.82945990510E+03  0.81940554761E+02 0.  0.
         24    2    4    4    0    0  0.76540267090E+02  0.60952784063E+02 -0.30445563898E+03  0.32953104200E+03  0.79522431860E+02 0.  0.
         11    1    3    3    0    0  0.72360887463E+01  0.21189721252E+01 -0.44112072913E+01  0.87355465186E+01  0.00000000000E+00 0.  1.
        -11    1    3    3    0    0 -0.17167415200E+02  0.72218241367E+03 -0.42286943392E+03  0.83705478728E+03  0.00000000000E+00 0. -1.
          4    1    6    6  502    0  0.57973172876E+02  0.70597841469E+02 -0.29013574647E+03  0.30417707898E+03  0.00000000000E+00 0. -1.
          3    1    5    5  503    0 -0.45843838069E+01 -0.51020833497E+03  0.16554934595E+03  0.53641415678E+03  0.00000000000E+00 0. -1.
         -4    1    5    5    0  503 -0.62024556829E+02 -0.27504583489E+03  0.79865847963E+02  0.29304574833E+03  0.00000000000E+00 0.  1.
         -3    1    6    6    0  502  0.18567094214E+02 -0.96450574067E+01 -0.14319892505E+02  0.25353963029E+02  0.00000000000E+00 0.  1.
<mgrwt>
<rscale>  0 0.19449010E+04</rscale>
<asrwt>0</asrwt>
<pdfrwt beam="1">  1        2 0.11680463E+00 0.19449010E+04</pdfrwt>
<pdfrwt beam="2">  1       -2 0.19162326E+00 0.19449010E+04</pdfrwt>
<totfact> 0.52033085E+00</totfact>
</mgrwt>
</event>
<event>
12    1  0.1477245E-007  0.1834406E+04  0.7818608E-02  0.8688214E-01
         -1   -1    0    0    0  501 -0.00000000000E+00  0.00000000000E+00  0.21464172104E+03  0.21464172104E+03  0.00000000000E+00 0.  1.
          1   -1    0    0  501    0  0.00000000000E+00 -0.00000000000E+00 -0.39193728624E+04  0.39193728624E+04  0.00000000000E+00 0. -1.
         23    2    1    2    0    0 -0.46170014172E+03  0.49167168722E+03 -0.10513086085E+04  0.12524218066E+04  0.91665273279E+02 0.  0.
        254    2    1    2    0    0  0.46170014172E+03 -0.49167168722E+03 -0.26534225328E+04  0.28815927769E+04  0.89889806157E+03 0.  0.
        -24    2    4    4    0    0  0.23643948034E+03  0.21166698575E+03 -0.12694154556E+04  0.13108650358E+04  0.79025326923E+02 0.  0.
         24    2    4    4    0    0  0.22526066139E+03 -0.70333867297E+03 -0.13840070772E+04  0.15707277411E+04  0.79261544583E+02 0.  0.
         13    1    3    3    0    0 -0.45583145618E+03  0.49546445860E+03 -0.10353025340E+04  0.12349569559E+04  0.00000000000E+00 0.  1.
        -13    1    3    3    0    0 -0.58686855402E+01 -0.37927713824E+01 -0.16006074549E+02  0.17464850620E+02  0.00000000000E+00 0. -1.
          2    1    6    6  502    0  0.68156158628E+02 -0.26437717345E+03 -0.43909273107E+03  0.51705220073E+03  0.00000000000E+00 0. -1.
          3    1    5    5  503    0  0.12977558835E+03  0.70447128646E+02 -0.65710766751E+03  0.67349460871E+03  0.00000000000E+00 0. -1.
         -4    1    5    5    0  503  0.10666389198E+03  0.14121985710E+03 -0.61230778812E+03  0.63737042706E+03  0.00000000000E+00 0.  1.
         -3    1    6    6    0  502  0.15710450276E+03 -0.43896149952E+03 -0.94491434612E+03  0.10536755404E+04  0.00000000000E+00 0.  1.
<mgrwt>
<rscale>  0 0.18344056E+04</rscale>
<asrwt>0</asrwt>
<pdfrwt beam="1">  1        1 0.60298040E+00 0.18344056E+04</pdfrwt>
<pdfrwt beam="2">  1       -1 0.33021806E-01 0.18344056E+04</pdfrwt>
<totfact> 0.92307409E-01</totfact>
</mgrwt>
</event>
<event>
12    1  0.1477245E-007  0.1403045E+04  0.7818608E-02  0.8951617E-01
          2   -1    0    0  501    0  0.00000000000E+00  0.00000000000E+00  0.11536887230E+04  0.11536887230E+04  0.00000000000E+00 0. -1.
         -2   -1    0    0    0  501 -0.00000000000E+00 -0.00000000000E+00 -0.42657409523E+03  0.42657409523E+03  0.00000000000E+00 0.  1.
         23    2    1    2    0    0  0.53823023982E+02  0.23129991304E+03  0.58670519418E+03  0.63937512556E+03  0.90448873007E+02 0.  0.
        254    2    1    2    0    0 -0.53823023982E+02 -0.23129991304E+03  0.14040943359E+03  0.94088769267E+03  0.89953225261E+03 0.  0.
        -24    2    4    4    0    0  0.38734475527E+03 -0.25056734688E+03  0.15062875145E+03  0.49189155281E+03  0.80301458280E+02 0.  0.
         24    2    4    4    0    0 -0.44116777926E+03  0.19267433840E+02 -0.10219317865E+02  0.44899613985E+03  0.80578258132E+02 0.  0.
         13    1    3    3    0    0 -0.80731858930E+01  0.60076470358E+02  0.24275845650E+03  0.25021196379E+03  0.00000000000E+00 0. -1.
        -13    1    3    3    0    0  0.61896209875E+02  0.17122344269E+03  0.34394673768E+03  0.38916316178E+03  0.00000000000E+00 0.  1.
          4    1    6    6  502    0 -0.35813188362E+03  0.10406135239E+02  0.23237743668E+02  0.35903582892E+03  0.00000000000E+00 0. -1.
          1    1    5    5  503    0  0.36311985407E+03 -0.23655668847E+03  0.16060966541E+03  0.46218022449E+03  0.00000000000E+00 0. -1.
         -2    1    5    5    0  503  0.24224901203E+02 -0.14010658415E+02 -0.99809139623E+01  0.29711328329E+02  0.00000000000E+00 0.  1.
         -3    1    6    6    0  502 -0.83035895638E+02  0.88612986011E+01 -0.33457061532E+02  0.89960310936E+02  0.00000000000E+00 0.  1.
<mgrwt>
<rscale>  0 0.14030449E+04</rscale>
<asrwt>0</asrwt>
<pdfrwt beam="1">  1        2 0.17749057E+00 0.14030449E+04</pdfrwt>
<pdfrwt beam="2">  1       -2 0.65626784E-01 0.14030449E+04</pdfrwt>
<totfact> 0.42034182E+01</totfact>
</mgrwt>
</event>
<event>
12    1  0.1477245E-007  0.1120165E+04  0.7818608E-02  0.9185757E-01
          1   -1    0    0  501    0  0.00000000000E+00  0.00000000000E+00  0.47247957452E+03  0.47247957452E+03  0.00000000000E+00 0. -1.
         -1   -1    0    0    0  501 -0.00000000000E+00 -0.00000000000E+00 -0.66392854356E+03  0.66392854356E+03  0.00000000000E+00 0.  1.
         23    2    1    2    0    0  0.76964373626E+02 -0.11952019675E+03 -0.14859319363E+03  0.22670018907E+03  0.95417222185E+02 0.  0.
        254    2    1    2    0    0 -0.76964373626E+02  0.11952019675E+03 -0.42855775409E+02  0.90970792902E+03  0.89750950212E+03 0.  0.
        -24    2    4    4    0    0 -0.26085766712E+03 -0.17676050620E+03 -0.31984631813E+03  0.45771985453E+03  0.88965155889E+02 0.  0.
         24    2    4    4    0    0  0.18389329349E+03  0.29628070295E+03  0.27699054272E+03  0.45198807449E+03  0.77268754307E+02 0.  0.
         13    1    3    3    0    0  0.28960250158E+01 -0.43577434734E+02 -0.10176757821E+03  0.11074303479E+03  0.00000000000E+00 0.  1.
        -13    1    3    3    0    0  0.74068348610E+02 -0.75942762018E+02 -0.46825615419E+02  0.11595715428E+03  0.00000000000E+00 0. -1.
          4    1    6    6  502    0  0.10833663628E+03  0.23881636230E+03  0.20405649983E+03  0.33227870347E+03  0.00000000000E+00 0. -1.
          3    1    5    5  503    0 -0.17629293653E+03 -0.14839447177E+03 -0.18248796304E+03  0.29394212930E+03  0.00000000000E+00 0. -1.
         -4    1    5    5    0  503 -0.84564730588E+02 -0.28366034434E+02 -0.13735835509E+03  0.16377772523E+03  0.00000000000E+00 0.  1.
         -3    1    6    6    0  502  0.75556657215E+02  0.57464340654E+02  0.72934042896E+02  0.11970937102E+03  0.00000000000E+00 0.  1.
<mgrwt>
<rscale>  0 0.11201655E+04</rscale>
<asrwt>0</asrwt>
<pdfrwt beam="1">  1        1 0.72689166E-01 0.11201655E+04</pdfrwt>
<pdfrwt beam="2">  1       -1 0.10214285E+00 0.11201655E+04</pdfrwt>
<totfact> 0.43304269E+01</totfact>
</mgrwt>
</event>
<event>
12    1  0.1477245E-007  0.1681053E+04  0.7818608E-02  0.8772245E-01
          1   -1    0    0  501    0  0.00000000000E+00  0.00000000000E+00  0.96947568972E+03  0.96947568972E+03  0.00000000000E+00 0. -1.
         -1   -1    0    0    0  501 -0.00000000000E+00 -0.00000000000E+00 -0.72872892507E+03  0.72872892507E+03  0.00000000000E+00 0.  1.
         23    2    1    2    0    0  0.14178514466E+03  0.33065282901E+03  0.57746751644E+03  0.68634649615E+03  0.90379531203E+02 0.  0.
        254    2    1    2    0    0 -0.14178514466E+03 -0.33065282901E+03 -0.33672075178E+03  0.10118581186E+04  0.88376561768E+03 0.  0.
        -24    2    4    4    0    0  0.31922885683E+03 -0.35474092290E+03 -0.20711790526E+03  0.52654459256E+03  0.81260050875E+02 0.  0.
         24    2    4    4    0    0 -0.46101400148E+03  0.24088093887E+02 -0.12960284652E+03  0.48531352608E+03  0.74954485776E+02 0.  0.
         11    1    3    3    0    0  0.13189712352E+03  0.30835893821E+03  0.47793628779E+03  0.58387086000E+03  0.00000000000E+00 0. -1.
        -11    1    3    3    0    0  0.98880211311E+01  0.22293890799E+02  0.99531228642E+02  0.10247563615E+03  0.00000000000E+00 0.  1.
          4    1    6    6  502    0 -0.65591176152E+02  0.29519823102E+02 -0.13724796702E+02  0.73225626590E+02  0.00000000000E+00 0. -1.
          3    1    5    5  503    0  0.20703117419E+03 -0.27766855535E+03 -0.16779237828E+03  0.38485843622E+03  0.00000000000E+00 0. -1.
         -4    1    5    5    0  503  0.11219768263E+03 -0.77072367546E+02 -0.39325526980E+02  0.14168615635E+03  0.00000000000E+00 0.  1.
         -3    1    6    6    0  502 -0.39542282533E+03 -0.54317292151E+01 -0.11587804982E+03  0.41208789949E+03  0.00000000000E+00 0.  1.
<mgrwt>
<rscale>  0 0.16810532E+04</rscale>
<asrwt>0</asrwt>
<pdfrwt beam="1">  1        1 0.14915011E+00 0.16810532E+04</pdfrwt>
<pdfrwt beam="2">  1       -1 0.11211214E+00 0.16810532E+04</pdfrwt>
<totfact> 0.11121783E+01</totfact>
</mgrwt>
</event>
<event>
12    1  0.1477245E-007  0.1450677E+04  0.7818608E-02  0.8917931E-01
         -4   -1    0    0    0  501 -0.00000000000E+00  0.00000000000E+00  0.69664632758E+03  0.69664632758E+03  0.00000000000E+00 0.  1.
          4   -1    0    0  501    0  0.00000000000E+00 -0.00000000000E+00 -0.75521286645E+03  0.75521286645E+03  0.00000000000E+00 0. -1.
         23    2    1    2    0    0 -0.20897374854E+03  0.15532906871E+02  0.37014683675E+03  0.43543634636E+03  0.93192447133E+02 0.  0.
        254    2    1    2    0    0  0.20897374854E+03 -0.15532906871E+02 -0.42871337562E+03  0.10164228477E+04  0.89744579116E+03 0.  0.
        -24    2    4    4    0    0 -0.13599051334E+03  0.22820306393E+03 -0.50782149630E+03  0.57914200138E+03  0.83383017137E+02 0.  0.
         24    2    4    4    0    0  0.34496426188E+03 -0.24373597080E+03  0.79108120681E+02  0.43728084630E+03  0.80925140388E+02 0.  0.
         11    1    3    3    0    0 -0.87046683038E+02 -0.39237445829E+02  0.14547479743E+03  0.17401039874E+03  0.00000000000E+00 0.  1.
        -11    1    3    3    0    0 -0.12192706550E+03  0.54770352700E+02  0.22467203932E+03  0.26142594762E+03  0.00000000000E+00 0. -1.
          4    1    6    6  502    0  0.94376312603E+02 -0.96873286247E+02 -0.35606607395E+01  0.13529227721E+03  0.00000000000E+00 0. -1.
          1    1    5    5  503    0 -0.39761451282E+02  0.74405645925E+02 -0.25028113304E+03  0.26411705494E+03  0.00000000000E+00 0. -1.
         -4    1    5    5    0  503 -0.96229062058E+02  0.15379741800E+03 -0.25754036326E+03  0.31502494644E+03  0.00000000000E+00 0.  1.
         -3    1    6    6    0  502  0.25058794928E+03 -0.14686268455E+03  0.82668781421E+02  0.30198856909E+03  0.00000000000E+00 0.  1.
<mgrwt>
<rscale>  0 0.14506775E+04</rscale>
<asrwt>0</asrwt>
<pdfrwt beam="1">  1        4 0.11618659E+00 0.14506775E+04</pdfrwt>
<pdfrwt beam="2">  1       -4 0.10717636E+00 0.14506775E+04</pdfrwt>
<totfact> 0.77670941E-01</totfact>
</mgrwt>
</event>
<event>
12    1  0.1477245E-007  0.2026561E+04  0.7818608E-02  0.8594302E-01
         -1   -1    0    0    0  501 -0.00000000000E+00  0.00000000000E+00  0.51344878148E+03  0.51344878148E+03  0.00000000000E+00 0.  1.
          1   -1    0    0  501    0  0.00000000000E+00 -0.00000000000E+00 -0.19996881201E+04  0.19996881201E+04  0.00000000000E+00 0. -1.
         23    2    1    2    0    0  0.94161567327E+02  0.73042230266E+03 -0.10113362878E+04  0.12542609111E+04  0.89365569645E+02 0.  0.
        254    2    1    2    0    0 -0.94161567327E+02 -0.73042230266E+03 -0.47490305080E+03  0.12588759905E+04  0.90379904336E+03 0.  0.
        -24    2    4    4    0    0  0.23372513350E+03 -0.23060288937E+03  0.16784536314E+03  0.37738465106E+03  0.80261935623E+02 0.  0.
         24    2    4    4    0    0 -0.32788670083E+03 -0.49981941329E+03 -0.64274841393E+03  0.88149133943E+03  0.81069867383E+02 0.  0.
         13    1    3    3    0    0  0.17951553262E+02  0.26885192686E+03 -0.30411499370E+03  0.40631212907E+03  0.00000000000E+00 0. -1.
        -13    1    3    3    0    0  0.76210014064E+02  0.46157037580E+03 -0.70722129413E+03  0.84794878203E+03  0.00000000000E+00 0.  1.
          4    1    6    6  502    0 -0.38102277339E+02 -0.72560794802E+02 -0.52526647911E+02  0.97344240823E+02  0.00000000000E+00 0. -1.
          3    1    5    5  503    0  0.15189023344E+02  0.56039023387E+01  0.71652791509E+01  0.17704558082E+02  0.00000000000E+00 0. -1.
         -4    1    5    5    0  503  0.21853611016E+03 -0.23620679171E+03  0.16068008398E+03  0.35968009297E+03  0.00000000000E+00 0.  1.
         -3    1    6    6    0  502 -0.28978442349E+03 -0.42725861849E+03 -0.59022176602E+03  0.78414709861E+03  0.00000000000E+00 0.  1.
<mgrwt>
<rscale>  0 0.20265611E+04</rscale>
<asrwt>0</asrwt>
<pdfrwt beam="1">  1        1 0.30764433E+00 0.20265611E+04</pdfrwt>
<pdfrwt beam="2">  1       -1 0.78992120E-01 0.20265611E+04</pdfrwt>
<totfact> 0.44218216E+00</totfact>
</mgrwt>
</event>
<event>
12    1  0.1477245E-007  0.2652307E+04  0.7818608E-02  0.8350648E-01
          2   -1    0    0  501    0  0.00000000000E+00  0.00000000000E+00  0.25030271142E+04  0.25030271142E+04  0.00000000000E+00 0. -1.
         -2   -1    0    0    0  501 -0.00000000000E+00 -0.00000000000E+00 -0.70262260555E+03  0.70262260555E+03  0.00000000000E+00 0.  1.
         23    2    1    2    0    0 -0.10649587038E+04  0.41213731512E+03  0.11213252294E+04  0.16030226433E+04  0.91198233250E+02 0.  0.
        254    2    1    2    0    0  0.10649587038E+04 -0.41213731512E+03  0.67907927919E+03  0.16026270764E+04  0.89625368686E+03 0.  0.
        -24    2    4    4    0    0 -0.74633015393E+02 -0.27823967212E+03  0.10933620368E+03  0.31926996224E+03  0.83615197344E+02 0.  0.
         24    2    4    4    0    0  0.11395917192E+04 -0.13389764300E+03  0.56974307552E+03  0.12833571141E+04  0.76160653160E+02 0.  0.
         11    1    3    3    0    0 -0.94059582956E+03  0.35704560592E+03  0.10256956013E+04  0.14367510382E+04  0.00000000000E+00 0. -1.
        -11    1    3    3    0    0 -0.12436287420E+03  0.55091709194E+02  0.95629628139E+02  0.16627160515E+03  0.00000000000E+00 0.  1.
          2    1    6    6  502    0  0.84905275100E+03 -0.12789710771E+03  0.40571310792E+03  0.94965855447E+03  0.00000000000E+00 0. -1.
          1    1    5    5  503    0 -0.60905845796E+02 -0.81694935711E+02  0.49996873543E+02  0.11350450184E+03  0.00000000000E+00 0. -1.
         -2    1    5    5    0  503 -0.13727169598E+02 -0.19654473641E+03  0.59339330135E+02  0.20576546040E+03  0.00000000000E+00 0.  1.
         -1    1    6    6    0  502  0.29053896815E+03 -0.60005352862E+01  0.16402996760E+03  0.33369855964E+03  0.00000000000E+00 0.  1.
<mgrwt>
<rscale>  0 0.26523072E+04</rscale>
<asrwt>0</asrwt>
<pdfrwt beam="1">  1        2 0.38508109E+00 0.26523072E+04</pdfrwt>
<pdfrwt beam="2">  1       -2 0.10809579E+00 0.26523072E+04</pdfrwt>
<totfact> 0.20923856E+00</totfact>
</mgrwt>
</event>
<event>
12    1  0.1477245E-007  0.2052357E+04  0.7818608E-02  0.8582526E-01
          1   -1    0    0  501    0  0.00000000000E+00  0.00000000000E+00  0.44278606362E+03  0.44278606362E+03  0.00000000000E+00 0. -1.
         -1   -1    0    0    0  501 -0.00000000000E+00 -0.00000000000E+00 -0.23782201485E+04  0.23782201485E+04  0.00000000000E+00 0.  1.
         23    2    1    2    0    0 -0.83250811270E+03 -0.21378348924E+02 -0.87371404474E+03  0.12105324305E+04  0.92118086184E+02 0.  0.
        254    2    1    2    0    0  0.83250811270E+03  0.21378348924E+02 -0.10617200401E+04  0.16104737816E+04  0.87911863029E+03 0.  0.
        -24    2    4    4    0    0  0.95387212537E+03  0.36696258987E+02 -0.60834342501E+03  0.11342218869E+04  0.71825614535E+02 0.  0.
         24    2    4    4    0    0 -0.12136401267E+03 -0.15317910063E+02 -0.45337661512E+03  0.47625189475E+03  0.79382933765E+02 0.  0.
         11    1    3    3    0    0 -0.82609469141E+03 -0.16215453115E+02 -0.87339143102E+03  0.12022927979E+04  0.00000000000E+00 0. -1.
        -11    1    3    3    0    0 -0.64134212856E+01 -0.51628958086E+01 -0.32261371513E+00  0.82396325965E+01  0.00000000000E+00 0.  1.
          2    1    6    6  502    0 -0.12402264463E+03 -0.22925473211E+02 -0.34083626804E+03  0.36342338301E+03  0.00000000000E+00 0. -1.
          1    1    5    5  503    0  0.87107374996E+03  0.26694323176E+02 -0.57670620170E+03  0.10450225394E+04  0.00000000000E+00 0. -1.
         -2    1    5    5    0  503  0.82798375410E+02  0.10001935811E+02 -0.31637223316E+02  0.89199347473E+02  0.00000000000E+00 0.  1.
         -1    1    6    6    0  502  0.26586319638E+01  0.76075631487E+01 -0.11254034708E+03  0.11282851174E+03  0.00000000000E+00 0.  1.
<mgrwt>
<rscale>  0 0.20523574E+04</rscale>
<asrwt>0</asrwt>
<pdfrwt beam="1">  1        1 0.68120934E-01 0.20523574E+04</pdfrwt>
<pdfrwt beam="2">  1       -1 0.36588002E+00 0.20523574E+04</pdfrwt>
<totfact> 0.58944402E-01</totfact>
</mgrwt>
</event>
<event>
12    1  0.1477245E-007  0.1412759E+04  0.7818608E-02  0.8944634E-01
          2   -1    0    0  501    0  0.00000000000E+00  0.00000000000E+00  0.62782663089E+03  0.62782663089E+03  0.00000000000E+00 0. -1.
         -2   -1    0    0    0  501 -0.00000000000E+00 -0.00000000000E+00 -0.79476110358E+03  0.79476110358E+03  0.00000000000E+00 0.  1.
         23    2    1    2    0    0  0.38118547763E+03 -0.89068535887E+02 -0.18532034621E+03  0.44277427378E+03  0.92031811705E+02 0.  0.
        254    2    1    2    0    0 -0.38118547763E+03  0.89068535887E+02  0.18385873519E+02  0.97981346069E+03  0.89803162804E+03 0.  0.
        -24    2    4    4    0    0 -0.17617005120E+03  0.77615219357E+02  0.44953409727E+03  0.49557400676E+03  0.80328589861E+02 0.  0.
         24    2    4    4    0    0 -0.20501542643E+03  0.11453316530E+02 -0.43114822375E+03  0.48423945393E+03  0.80228139447E+02 0.  0.
         11    1    3    3    0    0  0.30047724101E+03 -0.43574185305E+02 -0.10851160918E+03  0.32242836618E+03  0.00000000000E+00 0.  1.
        -11    1    3    3    0    0  0.80708236614E+02 -0.45494350582E+02 -0.76808737030E+02  0.12034590760E+03  0.00000000000E+00 0. -1.
          4    1    6    6  502    0 -0.16963157028E+03  0.31835598894E+02 -0.38892327103E+03  0.42549933695E+03  0.00000000000E+00 0. -1.
          1    1    5    5  503    0 -0.18051999209E+03  0.78547874791E+02  0.44992235126E+03  0.49110829594E+03  0.00000000000E+00 0. -1.
         -2    1    5    5    0  503  0.43499408928E+01 -0.93265543353E+00 -0.38825398970E+00  0.44657108157E+01  0.00000000000E+00 0.  1.
         -3    1    6    6    0  502 -0.35383856149E+02 -0.20382282364E+02 -0.42224952725E+02  0.58740116981E+02  0.00000000000E+00 0.  1.
<mgrwt>
<rscale>  0 0.14127593E+04</rscale>
<asrwt>0</asrwt>
<pdfrwt beam="1">  1        2 0.96588713E-01 0.14127593E+04</pdfrwt>
<pdfrwt beam="2">  1       -2 0.12227094E+00 0.14127593E+04</pdfrwt>
<totfact> 0.23119667E+01</totfact>
</mgrwt>
</event>
<event>
12    1  0.1477245E-007  0.1200541E+04  0.7818608E-02  0.9112383E-01
         -2   -1    0    0    0  501 -0.00000000000E+00  0.00000000000E+00  0.45293338063E+03  0.45293338063E+03  0.00000000000E+00 0.  1.
          2   -1    0    0  501    0  0.00000000000E+00 -0.00000000000E+00 -0.79553582022E+03  0.79553582022E+03  0.00000000000E+00 0. -1.
         23    2    1    2    0    0 -0.15258131416E+03  0.22298148333E+02  0.16195494838E+03  0.24277916548E+03  0.94520119743E+02 0.  0.
        254    2    1    2    0    0  0.15258131416E+03 -0.22298148333E+02 -0.50455738797E+03  0.10056900354E+04  0.85618690987E+03 0.  0.
        -24    2    4    4    0    0 -0.28364299372E+03 -0.14687414750E+03 -0.42568811094E+03  0.53844412944E+03  0.81770102396E+02 0.  0.
         24    2    4    4    0    0  0.43622430788E+03  0.12457599916E+03 -0.78869277033E+02  0.46724590593E+03  0.79294056485E+02 0.  0.
         13    1    3    3    0    0 -0.14604677284E+03 -0.62894065001E+01  0.10936154485E+03  0.18256276724E+03  0.00000000000E+00 0.  1.
        -13    1    3    3    0    0 -0.65345413198E+01  0.28587554834E+02  0.52593403535E+02  0.60216398240E+02  0.00000000000E+00 0. -1.
          4    1    6    6  502    0  0.22313860785E+03  0.62963375534E+02 -0.80489085322E+02  0.24542558511E+03  0.00000000000E+00 0. -1.
          1    1    5    5  503    0 -0.28822517197E+03 -0.14048340496E+03 -0.42130783744E+03  0.52944275490E+03  0.00000000000E+00 0. -1.
         -2    1    5    5    0  503  0.45821782488E+01 -0.63907425409E+01 -0.43802734923E+01  0.90013745392E+01  0.00000000000E+00 0.  1.
         -3    1    6    6    0  502  0.21308570003E+03  0.61612623630E+02  0.16198082889E+01  0.22182032082E+03  0.00000000000E+00 0.  1.
<mgrwt>
<rscale>  0 0.12005411E+04</rscale>
<asrwt>0</asrwt>
<pdfrwt beam="1">  1        2 0.12239013E+00 0.12005411E+04</pdfrwt>
<pdfrwt beam="2">  1       -2 0.69682058E-01 0.12005411E+04</pdfrwt>
<totfact> 0.64319206E+01</totfact>
</mgrwt>
</event>
<event>
12    1  0.1477245E-007  0.3466938E+04  0.7818608E-02  0.8121670E-01
         -2   -1    0    0    0  501 -0.00000000000E+00  0.00000000000E+00  0.10478578024E+04  0.10478578024E+04  0.00000000000E+00 0.  1.
          2   -1    0    0  501    0  0.00000000000E+00 -0.00000000000E+00 -0.28676748870E+04  0.28676748870E+04  0.00000000000E+00 0. -1.
         23    2    1    2    0    0 -0.48994295180E+03 -0.15528390999E+03  0.88416023077E+03  0.10266882068E+04  0.90510616203E+02 0.  0.
        254    2    1    2    0    0  0.48994295180E+03  0.15528390999E+03 -0.27039773154E+04  0.28888444826E+04  0.87736647620E+03 0.  0.
        -24    2    4    4    0    0 -0.24099897625E+03  0.11997966706E+03 -0.71939946415E+03  0.77228580817E+03  0.80088410055E+02 0.  0.
         24    2    4    4    0    0  0.73094192806E+03  0.35304242933E+02 -0.19845778512E+04  0.21165586744E+04  0.75821387031E+02 0.  0.
         11    1    3    3    0    0 -0.45115416784E+03 -0.16537224695E+03  0.79494977072E+03  0.92888815322E+03  0.00000000000E+00 0.  1.
        -11    1    3    3    0    0 -0.38788783960E+02  0.10088336965E+02  0.89210460047E+02  0.97800053607E+02  0.00000000000E+00 0. -1.
          4    1    6    6  502    0  0.60520806458E+03  0.21834220086E+02 -0.17152919584E+04  0.18190602071E+04  0.00000000000E+00 0. -1.
          3    1    5    5  503    0 -0.12109675992E+03  0.31904266812E+02 -0.41486591783E+03  0.43335440148E+03  0.00000000000E+00 0. -1.
         -2    1    5    5    0  503 -0.11990221634E+03  0.88075400244E+02 -0.30453354632E+03  0.33893140669E+03  0.00000000000E+00 0.  1.
         -3    1    6    6    0  502  0.12573386348E+03  0.13470022847E+02 -0.26928589286E+03  0.29749846728E+03  0.00000000000E+00 0.  1.
<mgrwt>
<rscale>  0 0.34669384E+04</rscale>
<asrwt>0</asrwt>
<pdfrwt beam="1">  1        2 0.44118075E+00 0.34669384E+04</pdfrwt>
<pdfrwt beam="2">  1       -2 0.16120889E+00 0.34669384E+04</pdfrwt>
<totfact> 0.42736938E-01</totfact>
</mgrwt>
</event>
<event>
12    1  0.1477245E-007  0.1407426E+04  0.7818608E-02  0.8948461E-01
         -1   -1    0    0    0  501 -0.00000000000E+00  0.00000000000E+00  0.12362243812E+03  0.12362243812E+03  0.00000000000E+00 0.  1.
          1   -1    0    0  501    0  0.00000000000E+00 -0.00000000000E+00 -0.40058429502E+04  0.40058429502E+04  0.00000000000E+00 0. -1.
         23    2    1    2    0    0  0.31644014480E+03  0.25249649066E+03 -0.11669350122E+04  0.12384708719E+04  0.90465102609E+02 0.  0.
        254    2    1    2    0    0 -0.31644014480E+03 -0.25249649066E+03 -0.27152854999E+04  0.28909945165E+04  0.90619264242E+03 0.  0.
        -24    2    4    4    0    0  0.18736347166E+03 -0.25202280268E+03 -0.19117632890E+04  0.19390566955E+04  0.80507338826E+02 0.  0.
         24    2    4    4    0    0 -0.50380361646E+03 -0.47368797807E+00 -0.80352221094E+03  0.95193782100E+03  0.81971722126E+02 0.  0.
         11    1    3    3    0    0  0.31353849929E+03  0.25562927647E+03 -0.11658832674E+04  0.12340731383E+04  0.00000000000E+00 0.  1.
        -11    1    3    3    0    0  0.29016455157E+01 -0.31327858133E+01 -0.10517448352E+01  0.43977336037E+01  0.00000000000E+00 0. -1.
          4    1    6    6  502    0 -0.35545458397E+03 -0.28867454057E+02 -0.51743923763E+03  0.62843031101E+03  0.00000000000E+00 0. -1.
          1    1    5    5  503    0  0.12004781950E+03 -0.20119640369E+03 -0.15488665464E+04  0.15664862114E+04  0.00000000000E+00 0. -1.
         -2    1    5    5    0  503  0.67315652167E+02 -0.50826398986E+02 -0.36289674253E+03  0.37257048407E+03  0.00000000000E+00 0.  1.
         -3    1    6    6    0  502 -0.14834903250E+03  0.28393766079E+02 -0.28608297331E+03  0.32350750998E+03  0.00000000000E+00 0.  1.
<mgrwt>
<rscale>  0 0.14074261E+04</rscale>
<asrwt>0</asrwt>
<pdfrwt beam="1">  1        1 0.61628358E+00 0.14074261E+04</pdfrwt>
<pdfrwt beam="2">  1       -1 0.19018835E-01 0.14074261E+04</pdfrwt>
<totfact> 0.21043970E+00</totfact>
</mgrwt>
</event>
<event>
12    1  0.1477245E-007  0.1770881E+04  0.7818608E-02  0.8721939E-01
         -3   -1    0    0    0  501 -0.00000000000E+00  0.00000000000E+00  0.99181316076E+03  0.99181316076E+03  0.00000000000E+00 0.  1.
          3   -1    0    0  501    0  0.00000000000E+00 -0.00000000000E+00 -0.79047678263E+03  0.79047678263E+03  0.00000000000E+00 0. -1.
         23    2    1    2    0    0 -0.32723602006E+03  0.56617996421E+03  0.90081976674E+01  0.66073439633E+03  0.94051210387E+02 0.  0.
        254    2    1    2    0    0  0.32723602006E+03 -0.56617996421E+03  0.19232818047E+03  0.11215555471E+04  0.89064782683E+03 0.  0.
        -24    2    4    4    0    0  0.20726304898E+02  0.15802496389E+03 -0.17559266474E+03  0.24958817254E+03  0.77846021314E+02 0.  0.
         24    2    4    4    0    0  0.30650971516E+03 -0.72420492810E+03  0.36792084521E+03  0.87196737452E+03  0.80872557237E+02 0.  0.
         11    1    3    3    0    0 -0.78211424536E+02  0.11362881260E+03 -0.35018208067E+02  0.14231939038E+03  0.00000000000E+00 0. -1.
        -11    1    3    3    0    0 -0.24902459552E+03  0.45255115161E+03  0.44026405735E+02  0.51841500596E+03  0.00000000000E+00 0.  1.
          2    1    6    6  502    0  0.15414439129E+03 -0.28331257980E+03  0.17724038908E+03  0.36802264436E+03  0.00000000000E+00 0. -1.
          1    1    5    5  503    0  0.26598140023E+02  0.64680638092E+02 -0.29022062999E+02  0.75718730426E+02  0.00000000000E+00 0. -1.
         -2    1    5    5    0  503 -0.58718351253E+01  0.93344325797E+02 -0.14657060174E+03  0.17386944211E+03  0.00000000000E+00 0.  1.
         -1    1    6    6    0  502  0.15236532387E+03 -0.44089234830E+03  0.19068045613E+03  0.50394473016E+03  0.00000000000E+00 0.  1.
<mgrwt>
<rscale>  0 0.17708814E+04</rscale>
<asrwt>0</asrwt>
<pdfrwt beam="1">  1        3 0.12161181E+00 0.17708814E+04</pdfrwt>
<pdfrwt beam="2">  1       -3 0.15258664E+00 0.17708814E+04</pdfrwt>
<totfact> 0.41872044E-01</totfact>
</mgrwt>
</event>
<event>
12    1  0.1477245E-007  0.1708788E+04  0.7818608E-02  0.8756368E-01
          1   -1    0    0  501    0  0.00000000000E+00  0.00000000000E+00  0.33591242937E+04  0.33591242937E+04  0.00000000000E+00 0. -1.
         -1   -1    0    0    0  501 -0.00000000000E+00 -0.00000000000E+00 -0.21731521866E+03  0.21731521866E+03  0.00000000000E+00 0.  1.
         23    2    1    2    0    0  0.17777625995E+03  0.38339455050E+03  0.20727596870E+03  0.47950693277E+03  0.91475632925E+02 0.  0.
        254    2    1    2    0    0 -0.17777625995E+03 -0.38339455050E+03  0.29345331064E+04  0.30969325796E+04  0.89493634992E+03 0.  0.
        -24    2    4    4    0    0  0.12049639174E+03  0.23309099330E+03  0.11928101232E+04  0.12238926436E+04  0.79160731551E+02 0.  0.
         24    2    4    4    0    0 -0.29827265170E+03 -0.61648554380E+03  0.17417229832E+04  0.18730399361E+04  0.75224008537E+02 0.  0.
         11    1    3    3    0    0  0.15539549876E+03  0.34414459324E+03  0.21368591431E+03  0.43387202268E+03  0.00000000000E+00 0.  1.
        -11    1    3    3    0    0  0.22380761192E+02  0.39249957256E+02 -0.64099456045E+01  0.45634910088E+02  0.00000000000E+00 0. -1.
          2    1    6    6  502    0 -0.24183804221E+02 -0.21399108946E+02  0.58821417998E+02  0.67102440086E+02  0.00000000000E+00 0. -1.
          1    1    5    5  503    0  0.16330271759E+01  0.68645247236E+02  0.37891519647E+03  0.38508643558E+03  0.00000000000E+00 0. -1.
         -2    1    5    5    0  503  0.11886336457E+03  0.16444574607E+03  0.81389492670E+03  0.83880620798E+03  0.00000000000E+00 0.  1.
         -1    1    6    6    0  502 -0.27408884748E+03 -0.59508643485E+03  0.16829015652E+04  0.18059374960E+04  0.00000000000E+00 0.  1.
<mgrwt>
<rscale>  0 0.17087877E+04</rscale>
<asrwt>0</asrwt>
<pdfrwt beam="1">  1        1 0.51678831E+00 0.17087877E+04</pdfrwt>
<pdfrwt beam="2">  1       -1 0.33433113E-01 0.17087877E+04</pdfrwt>
<totfact> 0.25940516E+00</totfact>
</mgrwt>
</event>
<event>
12    1  0.1477245E-007  0.2017277E+04  0.7818608E-02  0.8598586E-01
          1   -1    0    0  501    0  0.00000000000E+00  0.00000000000E+00  0.26649322637E+04  0.26649322637E+04  0.00000000000E+00 0. -1.
         -1   -1    0    0    0  501 -0.00000000000E+00 -0.00000000000E+00 -0.38175499549E+03  0.38175499549E+03  0.00000000000E+00 0.  1.
         23    2    1    2    0    0 -0.46369238913E+03  0.30287158612E+02  0.19129638094E+04  0.19706587004E+04  0.90206615157E+02 0.  0.
        254    2    1    2    0    0  0.46369238913E+03 -0.30287158612E+02  0.37021345878E+03  0.10760285588E+04  0.89713516854E+03 0.  0.
        -24    2    4    4    0    0  0.31443511120E+03  0.32266894690E+03  0.48594292366E+03  0.66759981647E+03  0.81020376756E+02 0.  0.
         24    2    4    4    0    0  0.14925727793E+03 -0.35295610551E+03 -0.11572946488E+03  0.40842874235E+03  0.81024570999E+02 0.  0.
         13    1    3    3    0    0 -0.36573143350E+02  0.25441383417E+02  0.23459916996E+03  0.23879202112E+03  0.00000000000E+00 0.  1.
        -13    1    3    3    0    0 -0.42711924577E+03  0.48457751949E+01  0.16783646395E+04  0.17318666793E+04  0.00000000000E+00 0. -1.
          2    1    6    6  502    0  0.11049769175E+03 -0.32080917006E+03 -0.11434207856E+03  0.35805359153E+03  0.00000000000E+00 0. -1.
          1    1    5    5  503    0  0.17018153283E+03  0.13397281088E+03  0.27402031574E+03  0.34928155063E+03  0.00000000000E+00 0. -1.
         -2    1    5    5    0  503  0.14425357837E+03  0.18869613602E+03  0.21192260792E+03  0.31831826584E+03  0.00000000000E+00 0.  1.
         -1    1    6    6    0  502  0.38759586182E+02 -0.32146935449E+02 -0.13873863237E+01  0.50375150824E+02  0.00000000000E+00 0.  1.
<mgrwt>
<rscale>  0 0.20172766E+04</rscale>
<asrwt>0</asrwt>
<pdfrwt beam="1">  1        1 0.40998957E+00 0.20172766E+04</pdfrwt>
<pdfrwt beam="2">  1       -1 0.58731540E-01 0.20172766E+04</pdfrwt>
<totfact> 0.28295392E+00</totfact>
</mgrwt>
</event>
<event>
12    1  0.1477245E-007  0.2315342E+04  0.7818608E-02  0.8471896E-01
          1   -1    0    0  501    0  0.00000000000E+00  0.00000000000E+00  0.97417708412E+03  0.97417708412E+03  0.00000000000E+00 0. -1.
         -1   -1    0    0    0  501 -0.00000000000E+00 -0.00000000000E+00 -0.13757276485E+04  0.13757276485E+04  0.00000000000E+00 0.  1.
         23    2    1    2    0    0  0.28989239635E+03 -0.89046353205E+03 -0.35098567025E+03  0.10043207420E+04  0.92229651742E+02 0.  0.
        254    2    1    2    0    0 -0.28989239635E+03  0.89046353205E+03 -0.50564894082E+02  0.13455839906E+04  0.96492308702E+03 0.  0.
        -24    2    4    4    0    0 -0.56381462271E+03  0.66767905317E+03  0.20646937542E+03  0.90148779434E+03  0.79802215106E+02 0.  0.
         24    2    4    4    0    0  0.27392222636E+03  0.22278447888E+03 -0.25703426950E+03  0.44409619625E+03  0.80551261335E+02 0.  0.
         11    1    3    3    0    0 -0.14588018954E+01  0.16947711940E+01 -0.20313490381E+01  0.30210480441E+01  0.00000000000E+00 0. -1.
        -11    1    3    3    0    0  0.29135119825E+03 -0.89215830325E+03 -0.34895432121E+03  0.10012996939E+04  0.00000000000E+00 0.  1.
          4    1    6    6  502    0  0.44610638759E+02  0.81010302566E+02 -0.69554152621E+02  0.11571758016E+03  0.00000000000E+00 0. -1.
          1    1    5    5  503    0 -0.20314841013E+03  0.20749833201E+03  0.36926758207E+02  0.29272584409E+03  0.00000000000E+00 0. -1.
         -2    1    5    5    0  503 -0.36066621258E+03  0.46018072117E+03  0.16954261721E+03  0.60876195026E+03  0.00000000000E+00 0.  1.
         -3    1    6    6    0  502  0.22931158760E+03  0.14177417632E+03 -0.18748011688E+03  0.32837861609E+03  0.00000000000E+00 0.  1.
<mgrwt>
<rscale>  0 0.23153422E+04</rscale>
<asrwt>0</asrwt>
<pdfrwt beam="1">  1        1 0.14987340E+00 0.23153422E+04</pdfrwt>
<pdfrwt beam="2">  1       -1 0.21165041E+00 0.23153422E+04</pdfrwt>
<totfact> 0.17931446E+00</totfact>
</mgrwt>
</event>
<event>
12    1  0.1477245E-007  0.1490420E+04  0.7818608E-02  0.8890849E-01
          1   -1    0    0  501    0  0.00000000000E+00  0.00000000000E+00  0.38268258078E+03  0.38268258078E+03  0.00000000000E+00 0. -1.
         -1   -1    0    0    0  501 -0.00000000000E+00 -0.00000000000E+00 -0.14511707392E+04  0.14511707392E+04  0.00000000000E+00 0.  1.
         23    2    1    2    0    0  0.36249994544E+03 -0.65058894174E+02  0.18956080260E+02  0.38044873898E+03  0.93504223746E+02 0.  0.
        254    2    1    2    0    0 -0.36249994544E+03  0.65058894174E+02 -0.10874442387E+04  0.14534045810E+04  0.89118518485E+03 0.  0.
        -24    2    4    4    0    0 -0.13325663076E+03 -0.17643768466E+03  0.70926268895E+02  0.24525283775E+03  0.78935623125E+02 0.  0.
         24    2    4    4    0    0 -0.22924331468E+03  0.24149657883E+03 -0.11583705076E+04  0.12081517433E+04  0.83278490467E+02 0.  0.
         13    1    3    3    0    0  0.21584760024E+03  0.68147402891E+01 -0.66716579607E+00  0.21595618149E+03  0.00000000000E+00 0. -1.
        -13    1    3    3    0    0  0.14665234521E+03 -0.71873634463E+02  0.19623246056E+02  0.16449255749E+03  0.00000000000E+00 0.  1.
          2    1    6    6  502    0 -0.19227582974E+03  0.23076289888E+03 -0.10775672088E+04  0.11186476656E+04  0.00000000000E+00 0. -1.
          1    1    5    5  503    0 -0.10065777954E+03 -0.84719045739E+02  0.67459413126E+02  0.14785153943E+03  0.00000000000E+00 0. -1.
         -2    1    5    5    0  503 -0.32598851218E+02 -0.91718638917E+02  0.34668557693E+01  0.97401298320E+02  0.00000000000E+00 0.  1.
         -1    1    6    6    0  502 -0.36967484938E+02  0.10733679948E+02 -0.80803298802E+02  0.89504077702E+02  0.00000000000E+00 0.  1.
<mgrwt>
<rscale>  0 0.14904198E+04</rscale>
<asrwt>0</asrwt>
<pdfrwt beam="1">  1        1 0.58874244E-01 0.14904198E+04</pdfrwt>
<pdfrwt beam="2">  1       -1 0.22325703E+00 0.14904198E+04</pdfrwt>
<totfact> 0.64487265E+00</totfact>
</mgrwt>
</event>
<event>
12    1  0.1477245E-007  0.1409322E+04  0.7818608E-02  0.8947099E-01
         -2   -1    0    0    0  501 -0.00000000000E+00  0.00000000000E+00  0.11041177227E+04  0.11041177227E+04  0.00000000000E+00 0.  1.
          2   -1    0    0  501    0  0.00000000000E+00 -0.00000000000E+00 -0.44972267615E+03  0.44972267615E+03  0.00000000000E+00 0. -1.
         23    2    1    2    0    0 -0.36866934470E+03  0.56181750177E+02  0.37638386427E+03  0.53793549358E+03  0.92931734064E+02 0.  0.
        254    2    1    2    0    0  0.36866934470E+03 -0.56181750177E+02  0.27801118224E+03  0.10159049052E+04  0.90316060823E+03 0.  0.
        -24    2    4    4    0    0  0.26577829041E+03 -0.18893061596E+03 -0.27400366535E+03  0.43345703530E+03  0.80461888667E+02 0.  0.
         24    2    4    4    0    0  0.10289105429E+03  0.13274886578E+03  0.55201484759E+03  0.58244786993E+03  0.79475145860E+02 0.  0.
         13    1    3    3    0    0 -0.99314275349E+02 -0.40780781762E+01  0.15488218302E+03  0.18403381925E+03  0.00000000000E+00 0. -1.
        -13    1    3    3    0    0 -0.26935506936E+03  0.60259828353E+02  0.22150168124E+03  0.35390167433E+03  0.00000000000E+00 0.  1.
          2    1    6    6  502    0  0.79705248743E+02  0.13733902614E+03  0.51107197851E+03  0.53517240399E+03  0.00000000000E+00 0. -1.
          3    1    5    5  503    0  0.25378384444E+03 -0.18377288180E+03 -0.27893167439E+03  0.41950159805E+03  0.00000000000E+00 0. -1.
         -4    1    5    5    0  503  0.11994445969E+02 -0.51577341586E+01  0.49280090465E+01  0.13955437253E+02  0.00000000000E+00 0.  1.
         -3    1    6    6    0  502  0.23185805549E+02 -0.45901603643E+01  0.40942869083E+02  0.47275465940E+02  0.00000000000E+00 0.  1.
<mgrwt>
<rscale>  0 0.14093215E+04</rscale>
<asrwt>0</asrwt>
<pdfrwt beam="1">  1        2 0.69188104E-01 0.14093215E+04</pdfrwt>
<pdfrwt beam="2">  1       -2 0.16986426E+00 0.14093215E+04</pdfrwt>
<totfact> 0.14443535E+01</totfact>
</mgrwt>
</event>
<event>
12    1  0.1477245E-007  0.1777945E+04  0.7818608E-02  0.8718117E-01
          2   -1    0    0  501    0  0.00000000000E+00  0.00000000000E+00  0.17555722600E+04  0.17555722600E+04  0.00000000000E+00 0. -1.
         -2   -1    0    0    0  501 -0.00000000000E+00 -0.00000000000E+00 -0.45015052266E+03  0.45015052266E+03  0.00000000000E+00 0.  1.
         23    2    1    2    0    0  0.97663098870E+02  0.51067378788E+02 -0.31713135349E+03  0.34794326320E+03  0.91357873154E+02 0.  0.
        254    2    1    2    0    0 -0.97663098870E+02 -0.51067378788E+02  0.16225530908E+04  0.18577795195E+04  0.89806472611E+03 0.  0.
        -24    2    4    4    0    0 -0.34729483784E+02 -0.37780382280E+03  0.29510952728E+03  0.48696877994E+03  0.78147898099E+02 0.  0.
         24    2    4    4    0    0 -0.62933615086E+02  0.32673644401E+03  0.13274435636E+04  0.13708107395E+04  0.79361989668E+02 0.  0.
         13    1    3    3    0    0 -0.64397633675E+01  0.13751289575E+02 -0.12765605751E+03  0.12855597044E+03  0.00000000000E+00 0. -1.
        -13    1    3    3    0    0  0.10410286224E+03  0.37316089214E+02 -0.18947529598E+03  0.21938729277E+03  0.00000000000E+00 0.  1.
          4    1    6    6  502    0 -0.55930544587E+02  0.32656211566E+03  0.13182773644E+04  0.13592741632E+04  0.00000000000E+00 0. -1.
          3    1    5    5  503    0 -0.28880281352E+01 -0.30923015756E+03  0.25805794116E+03  0.40277230794E+03  0.00000000000E+00 0. -1.
         -4    1    5    5    0  503 -0.31841455649E+02 -0.68573665244E+02  0.37051586120E+02  0.84196471998E+02  0.00000000000E+00 0.  1.
         -1    1    6    6    0  502 -0.70030704990E+01  0.17432835495E+00  0.91661991839E+01  0.11536576367E+02  0.00000000000E+00 0.  1.
<mgrwt>
<rscale>  0 0.17779446E+04</rscale>
<asrwt>0</asrwt>
<pdfrwt beam="1">  1        2 0.27008804E+00 0.17779446E+04</pdfrwt>
<pdfrwt beam="2">  1       -2 0.69253927E-01 0.17779446E+04</pdfrwt>
<totfact> 0.16434992E+01</totfact>
</mgrwt>
</event>
<event>
12    1  0.1477245E-007  0.2695351E+04  0.7818608E-02  0.8336515E-01
          2   -1    0    0  501    0  0.00000000000E+00  0.00000000000E+00  0.23282640693E+04  0.23282640693E+04  0.00000000000E+00 0. -1.
         -2   -1    0    0    0  501 -0.00000000000E+00 -0.00000000000E+00 -0.78007865992E+03  0.78007865992E+03  0.00000000000E+00 0.  1.
         23    2    1    2    0    0  0.11251026964E+04  0.40516256347E+03  0.63962873837E+03  0.13591818673E+04  0.90761474171E+02 0.  0.
        254    2    1    2    0    0 -0.11251026964E+04 -0.40516256347E+03  0.90855667104E+03  0.17491608619E+04  0.89670269101E+03 0.  0.
        -24    2    4    4    0    0 -0.78971075915E+03  0.17521102830E+03  0.57716425690E+03  0.99710330073E+03  0.82185310897E+02 0.  0.
         24    2    4    4    0    0 -0.33539193727E+03 -0.58037359178E+03  0.33139241414E+03  0.75205756119E+03  0.80301840476E+02 0.  0.
         13    1    3    3    0    0  0.41360517903E+03  0.11256245581E+03  0.25949809933E+03  0.50107765280E+03  0.00000000000E+00 0. -1.
        -13    1    3    3    0    0  0.71149751739E+03  0.29260010766E+03  0.38013063903E+03  0.85810421453E+03  0.00000000000E+00 0.  1.
          4    1    6    6  502    0 -0.12310161667E+03 -0.24643009632E+03  0.17623244727E+03  0.32701632355E+03  0.00000000000E+00 0. -1.
          3    1    5    5  503    0 -0.16288893131E+02  0.14726220355E+02  0.74508682473E+01  0.23188467889E+02  0.00000000000E+00 0. -1.
         -2    1    5    5    0  503 -0.77342186602E+03  0.16048480795E+03  0.56971338865E+03  0.97391483284E+03  0.00000000000E+00 0.  1.
         -3    1    6    6    0  502 -0.21229032060E+03 -0.33394349545E+03  0.15515996687E+03  0.42504123764E+03  0.00000000000E+00 0.  1.
<mgrwt>
<rscale>  0 0.26953509E+04</rscale>
<asrwt>0</asrwt>
<pdfrwt beam="1">  1        2 0.35819447E+00 0.26953509E+04</pdfrwt>
<pdfrwt beam="2">  1       -2 0.12001210E+00 0.26953509E+04</pdfrwt>
<totfact> 0.20352096E+00</totfact>
</mgrwt>
</event>
<event>
12    1  0.1477245E-007  0.3529440E+04  0.7818608E-02  0.8106848E-01
         -2   -1    0    0    0  501 -0.00000000000E+00  0.00000000000E+00  0.10813495767E+04  0.10813495767E+04  0.00000000000E+00 0.  1.
          2   -1    0    0  501    0  0.00000000000E+00 -0.00000000000E+00 -0.28799535272E+04  0.28799535272E+04  0.00000000000E+00 0. -1.
         23    2    1    2    0    0 -0.15954240199E+04  0.23310813924E+03 -0.46201377490E+03  0.16797580344E+04  0.91723051538E+02 0.  0.
        254    2    1    2    0    0  0.15954240199E+04 -0.23310813924E+03 -0.13365901756E+04  0.22815450695E+04  0.90512838795E+03 0.  0.
        -24    2    4    4    0    0  0.13768808438E+04 -0.51378353578E+03 -0.95936047359E+03  0.17569905590E+04  0.82878988164E+02 0.  0.
         24    2    4    4    0    0  0.21854317611E+03  0.28067539654E+03 -0.37722970206E+03  0.52455451045E+03  0.79469417223E+02 0.  0.
         13    1    3    3    0    0 -0.17913172938E+03  0.32181318372E+02 -0.82316759367E+02  0.19974949961E+03  0.00000000000E+00 0. -1.
        -13    1    3    3    0    0 -0.14162922905E+04  0.20092682087E+03 -0.37969701554E+03  0.14800085348E+04  0.00000000000E+00 0.  1.
          2    1    6    6  502    0  0.57532389907E+02  0.48168435665E+02 -0.42097449857E+02  0.86037023236E+02  0.00000000000E+00 0. -1.
          1    1    5    5  503    0  0.26682045548E+03 -0.91215819158E+02 -0.22279608194E+03  0.35937664818E+03  0.00000000000E+00 0. -1.
         -2    1    5    5    0  503  0.11100603883E+04 -0.42256771662E+03 -0.73656439164E+03  0.13976139108E+04  0.00000000000E+00 0.  1.
         -1    1    6    6    0  502  0.16101078620E+03  0.23250696087E+03 -0.33513225220E+03  0.43851748722E+03  0.00000000000E+00 0.  1.
<mgrwt>
<rscale>  0 0.35294399E+04</rscale>
<asrwt>0</asrwt>
<pdfrwt beam="1">  1        2 0.44306977E+00 0.35294399E+04</pdfrwt>
<pdfrwt beam="2">  1       -2 0.16636147E+00 0.35294399E+04</pdfrwt>
<totfact> 0.38326720E-01</totfact>
</mgrwt>
</event>
<event>
12    1  0.1477245E-007  0.1321684E+04  0.7818608E-02  0.9012544E-01
          2   -1    0    0  501    0  0.00000000000E+00  0.00000000000E+00  0.15778804075E+04  0.15778804075E+04  0.00000000000E+00 0.  1.
         -2   -1    0    0    0  501 -0.00000000000E+00 -0.00000000000E+00 -0.27677146579E+03  0.27677146579E+03  0.00000000000E+00 0. -1.
         23    2    1    2    0    0 -0.15423698049E+03 -0.19041021291E+03  0.67098610749E+03  0.72005732585E+03  0.90637192961E+02 0.  0.
        254    2    1    2    0    0  0.15423698049E+03  0.19041021291E+03  0.63012283421E+03  0.11345945474E+04  0.91115580749E+03 0.  0.
        -24    2    4    4    0    0 -0.22583450855E+03 -0.19589517982E+03  0.13156891478E+02  0.30948819159E+03  0.78953721956E+02 0.  0.
         24    2    4    4    0    0  0.38007148904E+03  0.38630539273E+03  0.61696594273E+03  0.82510635583E+03  0.80419715907E+02 0.  0.
         13    1    3    3    0    0 -0.49058341112E+02 -0.11326558292E+03  0.41178110242E+03  0.42988311134E+03  0.00000000000E+00 0.  1.
        -13    1    3    3    0    0 -0.10517863937E+03 -0.77144629991E+02  0.25920500507E+03  0.29017421452E+03  0.00000000000E+00 0. -1.
          4    1    6    6  502    0  0.72393166345E+02  0.33781147624E+02  0.94553512410E+02  0.12378329119E+03  0.00000000000E+00 0. -1.
          3    1    5    5  503    0 -0.57004193367E+02 -0.10269543388E+02  0.83670512676E+01  0.58523064938E+02  0.00000000000E+00 0. -1.
         -4    1    5    5    0  503 -0.16883031519E+03 -0.18562563643E+03  0.47898402109E+01  0.25096512666E+03  0.00000000000E+00 0.  1.
         -3    1    6    6    0  502  0.30767832269E+03  0.35252424511E+03  0.52241243032E+03  0.70132306464E+03  0.00000000000E+00 0.  1.
<mgrwt>
<rscale>  0 0.13216842E+04</rscale>
<asrwt>0</asrwt>
<pdfrwt beam="1">  1        2 0.24275083E+00 0.13216842E+04</pdfrwt>
<pdfrwt beam="2">  1       -2 0.42580226E-01 0.13216842E+04</pdfrwt>
<totfact> 0.58700925E+01</totfact>
</mgrwt>
</event>
<event>
12    1  0.1477245E-007  0.1510927E+04  0.7818608E-02  0.8877219E-01
          2   -1    0    0  501    0  0.00000000000E+00  0.00000000000E+00  0.21179677277E+04  0.21179677277E+04  0.00000000000E+00 0. -1.
         -2   -1    0    0    0  501 -0.00000000000E+00 -0.00000000000E+00 -0.26946838644E+03  0.26946838644E+03  0.00000000000E+00 0.  1.
         23    2    1    2    0    0 -0.84442959727E+02  0.21206989588E+03 -0.69858842217E+02  0.25553184471E+03  0.91170234396E+02 0.  0.
        254    2    1    2    0    0  0.84442959727E+02 -0.21206989588E+03  0.19183581835E+04  0.21319042695E+04  0.90156166716E+03 0.  0.
        -24    2    4    4    0    0  0.25005443892E+03 -0.40376117561E+03  0.17556267560E+04  0.18204031990E+04  0.78052490859E+02 0.  0.
         24    2    4    4    0    0 -0.16561147920E+03  0.19169127974E+03  0.16273142755E+03  0.31150107046E+03  0.79866705289E+02 0.  0.
         13    1    3    3    0    0  0.17614631889E+02  0.54605673961E+02 -0.25075807716E+02  0.62616699194E+02  0.00000000000E+00 0. -1.
        -13    1    3    3    0    0 -0.10205759162E+03  0.15746422192E+03 -0.44783034501E+02  0.19291514551E+03  0.00000000000E+00 0.  1.
          2    1    6    6  502    0 -0.14373475512E+03  0.15327240639E+03  0.16510011781E+03  0.26722679374E+03  0.00000000000E+00 0. -1.
          1    1    5    5  503    0  0.12827240567E+03 -0.17993080962E+03  0.95372014261E+03  0.97898468667E+03  0.00000000000E+00 0. -1.
         -2    1    5    5    0  503  0.12178203325E+03 -0.22383036599E+03  0.80190661335E+03  0.84141851233E+03  0.00000000000E+00 0.  1.
         -1    1    6    6    0  502 -0.21876724076E+02  0.38418873344E+02 -0.23686902586E+01  0.44274276718E+02  0.00000000000E+00 0.  1.
<mgrwt>
<rscale>  0 0.15109273E+04</rscale>
<asrwt>0</asrwt>
<pdfrwt beam="1">  1        2 0.32584118E+00 0.15109273E+04</pdfrwt>
<pdfrwt beam="2">  1       -2 0.41456676E-01 0.15109273E+04</pdfrwt>
<totfact> 0.30576494E+01</totfact>
</mgrwt>
</event>
<event>
12    1  0.1477245E-007  0.1874972E+04  0.7818608E-02  0.8667416E-01
          2   -1    0    0  501    0  0.00000000000E+00  0.00000000000E+00  0.13973714535E+04  0.13973714535E+04  0.00000000000E+00 0.  1.
         -2   -1    0    0    0  501 -0.00000000000E+00 -0.00000000000E+00 -0.62895237252E+03  0.62895237252E+03  0.00000000000E+00 0. -1.
         23    2    1    2    0    0 -0.10401898843E+02 -0.65063488555E+02 -0.47626508719E+03  0.48974841613E+03  0.93185947353E+02 0.  0.
        254    2    1    2    0    0  0.10401898843E+02  0.65063488555E+02  0.12446841682E+04  0.15365754099E+04  0.89860105428E+03 0.  0.
        -24    2    4    4    0    0  0.13069518230E+03 -0.12759818865E+03 -0.61812862021E+02  0.20782691165E+03  0.77515591143E+02 0.  0.
         24    2    4    4    0    0 -0.12029328346E+03  0.19266167720E+03  0.13064970302E+04  0.13287484982E+04  0.83958833918E+02 0.  0.
         13    1    3    3    0    0 -0.45095222747E+01 -0.68894050877E+02 -0.17112982117E+03  0.18453222410E+03  0.00000000000E+00 0. -1.
        -13    1    3    3    0    0 -0.58923765683E+01  0.38305623220E+01 -0.30513526601E+03  0.30521619203E+03  0.00000000000E+00 0.  1.
          4    1    6    6  502    0 -0.78195682731E+02  0.75732613721E+02  0.43393743595E+03  0.44738316005E+03  0.00000000000E+00 0. -1.
          1    1    5    5  503    0  0.53222533424E+02 -0.71369024285E+02  0.79393930930E+01  0.89382378879E+02  0.00000000000E+00 0. -1.
         -2    1    5    5    0  503  0.77472648876E+02 -0.56229164365E+02 -0.69752255114E+02  0.11844453277E+03  0.00000000000E+00 0.  1.
         -1    1    6    6    0  502 -0.42097600726E+02  0.11692906348E+03  0.87255959424E+03  0.88136533819E+03  0.00000000000E+00 0.  1.
<mgrwt>
<rscale>  0 0.18749721E+04</rscale>
<asrwt>0</asrwt>
<pdfrwt beam="1">  1        2 0.21498022E+00 0.18749721E+04</pdfrwt>
<pdfrwt beam="2">  1       -2 0.96761903E-01 0.18749721E+04</pdfrwt>
<totfact> 0.12166424E+01</totfact>
</mgrwt>
</event>
<event>
12    1  0.1477245E-007  0.1771005E+04  0.7818608E-02  0.8721872E-01
          2   -1    0    0  501    0  0.00000000000E+00  0.00000000000E+00  0.86370954353E+03  0.86370954353E+03  0.00000000000E+00 0. -1.
         -2   -1    0    0    0  501 -0.00000000000E+00 -0.00000000000E+00 -0.90784541477E+03  0.90784541477E+03  0.00000000000E+00 0.  1.
         23    2    1    2    0    0  0.70408640442E+02  0.66040559385E+02  0.62553039541E+03  0.63914624166E+03  0.88887066073E+02 0.  0.
        254    2    1    2    0    0 -0.70408640442E+02 -0.66040559385E+02 -0.66966626665E+03  0.11324087166E+04  0.90806269645E+03 0.  0.
        -24    2    4    4    0    0 -0.26410348549E+03 -0.15968532872E+03 -0.80506477531E+03  0.86593346019E+03  0.80382894678E+02 0.  0.
         24    2    4    4    0    0  0.19369484505E+03  0.93644769338E+02  0.13539850866E+03  0.26647525645E+03  0.79932911407E+02 0.  0.
         11    1    3    3    0    0  0.16637725630E+02 -0.16983938537E+02  0.23824569991E+03  0.23942907428E+03  0.00000000000E+00 0.  1.
        -11    1    3    3    0    0  0.53770914812E+02  0.83024497923E+02  0.38728469550E+03  0.39971716739E+03  0.00000000000E+00 0. -1.
          4    1    6    6  502    0  0.48329121907E+01  0.52637753920E+00 -0.96341195493E+01  0.10791217403E+02  0.00000000000E+00 0. -1.
          3    1    5    5  503    0 -0.58900160077E+02 -0.47181672760E+02 -0.29903235964E+03  0.30840831898E+03  0.00000000000E+00 0. -1.
         -4    1    5    5    0  503 -0.20520332542E+03 -0.11250365596E+03 -0.50603241567E+03  0.55752514121E+03  0.00000000000E+00 0.  1.
         -3    1    6    6    0  502  0.18886193286E+03  0.93118391799E+02  0.14503262821E+03  0.25568403904E+03  0.00000000000E+00 0.  1.
<mgrwt>
<rscale>  0 0.17710051E+04</rscale>
<asrwt>0</asrwt>
<pdfrwt beam="1">  1        2 0.13287839E+00 0.17710051E+04</pdfrwt>
<pdfrwt beam="2">  1       -2 0.13966852E+00 0.17710051E+04</pdfrwt>
<totfact> 0.10615176E+01</totfact>
</mgrwt>
</event>
<event>
12    1  0.1477245E-007  0.1557241E+04  0.7818608E-02  0.8847256E-01
          2   -1    0    0  501    0  0.00000000000E+00  0.00000000000E+00  0.16670686428E+04  0.16670686428E+04  0.00000000000E+00 0. -1.
         -2   -1    0    0    0  501 -0.00000000000E+00 -0.00000000000E+00 -0.36366210253E+03  0.36366210253E+03  0.00000000000E+00 0.  1.
         23    2    1    2    0    0 -0.22848663294E+03 -0.16663761154E+02  0.10286958742E+04  0.10575606215E+04  0.87951373081E+02 0.  0.
        254    2    1    2    0    0  0.22848663294E+03  0.16663761154E+02  0.27471066607E+03  0.97317012390E+03  0.90504713558E+03 0.  0.
        -24    2    4    4    0    0 -0.36668733495E+01  0.11857225088E+03  0.56313669694E+03  0.58112103567E+03  0.80659122356E+02 0.  0.
         24    2    4    4    0    0  0.23215350629E+03 -0.10190848973E+03 -0.28842603087E+03  0.39204908823E+03  0.78945053894E+02 0.  0.
         11    1    3    3    0    0 -0.47143176062E+02 -0.93737971491E+01  0.95882979365E+02  0.10725620194E+03  0.00000000000E+00 0.  1.
        -11    1    3    3    0    0 -0.18134345688E+03 -0.72899640050E+01  0.93281289488E+03  0.95030441954E+03  0.00000000000E+00 0. -1.
          4    1    6    6  502    0  0.60117424571E+02  0.89042699202E+01 -0.71344720871E+02  0.93720115003E+02  0.00000000000E+00 0. -1.
          3    1    5    5  503    0  0.46413785969E+01  0.11802069209E+03  0.55984321271E+03  0.57216680171E+03  0.00000000000E+00 0. -1.
         -4    1    5    5    0  503 -0.83082519464E+01  0.55155879077E+00  0.32934842283E+01  0.89542339631E+01  0.00000000000E+00 0.  1.
         -3    1    6    6    0  502  0.17203608172E+03 -0.11081275965E+03 -0.21708131000E+03  0.29832897323E+03  0.00000000000E+00 0.  1.
<mgrwt>
<rscale>  0 0.15572407E+04</rscale>
<asrwt>0</asrwt>
<pdfrwt beam="1">  1        2 0.25647209E+00 0.15572407E+04</pdfrwt>
<pdfrwt beam="2">  1       -2 0.55948017E-01 0.15572407E+04</pdfrwt>
<totfact> 0.29522901E+01</totfact>
</mgrwt>
</event>
<event>
12    1  0.1477245E-007  0.1265328E+04  0.7818608E-02  0.9057522E-01
          2   -1    0    0  501    0  0.00000000000E+00  0.00000000000E+00  0.13916662200E+04  0.13916662200E+04  0.00000000000E+00 0. -1.
         -2   -1    0    0    0  501 -0.00000000000E+00 -0.00000000000E+00 -0.28761468402E+03  0.28761468402E+03  0.00000000000E+00 0.  1.
         23    2    1    2    0    0 -0.30236774347E+03  0.37802088950E+02  0.30449887019E+03  0.44000590822E+03  0.89612427192E+02 0.  0.
        254    2    1    2    0    0  0.30236774347E+03 -0.37802088950E+02  0.79955266580E+03  0.12392749958E+04  0.89647241990E+03 0.  0.
        -24    2    4    4    0    0  0.61414216878E+03  0.10206735748E+02  0.49292593870E+03  0.79158223672E+03  0.79697399721E+02 0.  0.
         24    2    4    4    0    0 -0.31177442531E+03 -0.48008824698E+02  0.30662672710E+03  0.44769275909E+03  0.83070555811E+02 0.  0.
         11    1    3    3    0    0 -0.24860434398E+03  0.38016515134E+02  0.19576292955E+03  0.31870440827E+03  0.00000000000E+00 0. -1.
        -11    1    3    3    0    0 -0.53763399490E+02 -0.21442618484E+00  0.10873594064E+03  0.12130149995E+03  0.00000000000E+00 0.  1.
          2    1    6    6  502    0 -0.10141771224E+03  0.21268737663E+02  0.80917779161E+02  0.13147470685E+03  0.00000000000E+00 0. -1.
          3    1    5    5  503    0  0.11727749111E+03 -0.23469896482E+02  0.11997926198E+03  0.16941035761E+03  0.00000000000E+00 0. -1.
         -4    1    5    5    0  503  0.49686467767E+03  0.33676632230E+02  0.37294667672E+03  0.62217187911E+03  0.00000000000E+00 0.  1.
         -1    1    6    6    0  502 -0.21035671307E+03 -0.69277562361E+02  0.22570894794E+03  0.31621805224E+03  0.00000000000E+00 0.  1.
<mgrwt>
<rscale>  0 0.12653278E+04</rscale>
<asrwt>0</asrwt>
<pdfrwt beam="1">  1        2 0.21410249E+00 0.12653278E+04</pdfrwt>
<pdfrwt beam="2">  1       -2 0.44248414E-01 0.12653278E+04</pdfrwt>
<totfact> 0.69594152E+01</totfact>
</mgrwt>
</event>
<event>
12    1  0.1477245E-007  0.1610490E+04  0.7818608E-02  0.8814130E-01
          1   -1    0    0  501    0  0.00000000000E+00  0.00000000000E+00  0.31816053298E+04  0.31816053298E+04  0.00000000000E+00 0. -1.
         -1   -1    0    0    0  501 -0.00000000000E+00 -0.00000000000E+00 -0.20380255247E+03  0.20380255247E+03  0.00000000000E+00 0.  1.
         23    2    1    2    0    0 -0.20352754294E+03  0.74169591586E+02 -0.31071773977E+02  0.23753642553E+03  0.92376995306E+02 0.  0.
        254    2    1    2    0    0  0.20352754294E+03 -0.74169591586E+02  0.30088745513E+04  0.31478714568E+04  0.89935757829E+03 0.  0.
        -24    2    4    4    0    0  0.54356302442E+01 -0.37569502688E+03  0.61029425825E+03  0.72098044190E+03  0.78596543520E+02 0.  0.
         24    2    4    4    0    0  0.19809191270E+03  0.30152543529E+03  0.23985802931E+04  0.24268910149E+04  0.80340411300E+02 0.  0.
         13    1    3    3    0    0 -0.11814685563E+03  0.69017070372E+02  0.19435085362E+02  0.13820187423E+03  0.00000000000E+00 0. -1.
        -13    1    3    3    0    0 -0.85380687318E+02  0.51525212140E+01 -0.50506859339E+02  0.99334551300E+02  0.00000000000E+00 0.  1.
          2    1    6    6  502    0  0.11769948183E+03  0.14517864300E+03  0.14680579894E+04  0.14799068439E+04  0.00000000000E+00 0. -1.
          3    1    5    5  503    0  0.46466220192E+01 -0.13951827786E+03  0.15872502162E+03  0.21137779789E+03  0.00000000000E+00 0. -1.
         -4    1    5    5    0  503  0.78900822495E+00 -0.23617674902E+03  0.45156923663E+03  0.50960264401E+03  0.00000000000E+00 0.  1.
         -1    1    6    6    0  502  0.80392430871E+02  0.15634679229E+03  0.93052230371E+03  0.94698417099E+03  0.00000000000E+00 0.  1.
<mgrwt>
<rscale>  0 0.16104897E+04</rscale>
<asrwt>0</asrwt>
<pdfrwt beam="1">  1        1 0.48947771E+00 0.16104897E+04</pdfrwt>
<pdfrwt beam="2">  1       -1 0.31354241E-01 0.16104897E+04</pdfrwt>
<totfact> 0.39962957E+00</totfact>
</mgrwt>
</event>
<event>
12    1  0.1477245E-007  0.1290194E+04  0.7818608E-02  0.9037378E-01
         -4   -1    0    0    0  501 -0.00000000000E+00  0.00000000000E+00  0.39476295161E+03  0.39476295161E+03  0.00000000000E+00 0. -1.
          4   -1    0    0  501    0  0.00000000000E+00 -0.00000000000E+00 -0.10541768321E+04  0.10541768321E+04  0.00000000000E+00 0.  1.
         23    2    1    2    0    0  0.28534695594E+03 -0.95672402090E+02 -0.31719577155E+03  0.44542567129E+03  0.84939845588E+02 0.  0.
        254    2    1    2    0    0 -0.28534695594E+03  0.95672402090E+02 -0.34221810892E+03  0.10035141124E+04  0.89406445288E+03 0.  0.
        -24    2    4    4    0    0  0.29404564063E+03  0.10078889718E+03 -0.25866722772E+03  0.41276749852E+03  0.82746797912E+02 0.  0.
         24    2    4    4    0    0 -0.57939259658E+03 -0.51164950910E+01 -0.83550881192E+02  0.59074661387E+03  0.79239211023E+02 0.  0.
         13    1    3    3    0    0  0.27534037718E+03 -0.69482751874E+02 -0.29670606154E+03  0.41070021070E+03  0.00000000000E+00 0.  1.
        -13    1    3    3    0    0  0.10006578760E+02 -0.26189650216E+02 -0.20489710010E+02  0.34725460590E+02  0.00000000000E+00 0. -1.
          2    1    6    6  502    0 -0.37948473061E+03  0.29463641226E+02 -0.35656861746E+02  0.38229331503E+03  0.00000000000E+00 0. -1.
          3    1    5    5  503    0  0.20952716383E+03  0.37804793164E+02 -0.20010324577E+03  0.29218511895E+03  0.00000000000E+00 0. -1.
         -4    1    5    5    0  503  0.84518476804E+02  0.62984104017E+02 -0.58563981956E+02  0.12058237957E+03  0.00000000000E+00 0.  1.
         -1    1    6    6    0  502 -0.19990786596E+03 -0.34580136316E+02 -0.47894019446E+02  0.20845329885E+03  0.00000000000E+00 0.  1.
<mgrwt>
<rscale>  0 0.12901937E+04</rscale>
<asrwt>0</asrwt>
<pdfrwt beam="1">  1        4 0.16218105E+00 0.12901937E+04</pdfrwt>
<pdfrwt beam="2">  1       -4 0.60732761E-01 0.12901937E+04</pdfrwt>
<totfact> 0.12057310E+00</totfact>
</mgrwt>
</event>
<event>
12    1  0.1477245E-007  0.1909490E+04  0.7818608E-02  0.8650147E-01
         -2   -1    0    0    0  501 -0.00000000000E+00  0.00000000000E+00  0.54698691513E+03  0.54698691513E+03  0.00000000000E+00 0. -1.
          2   -1    0    0  501    0  0.00000000000E+00 -0.00000000000E+00 -0.16664705026E+04  0.16664705026E+04  0.00000000000E+00 0.  1.
         23    2    1    2    0    0 -0.54698635524E+03 -0.32957106695E+03 -0.15201132213E+02  0.65049503165E+03  0.12288836721E+03 0.  0.
        254    2    1    2    0    0  0.54698635524E+03  0.32957106695E+03 -0.11042824552E+04  0.15629623861E+04  0.90310603933E+03 0.  0.
        -24    2    4    4    0    0 -0.54437583517E+02  0.44431719019E+03 -0.66126731924E+03  0.80271138630E+03  0.81791724535E+02 0.  0.
         24    2    4    4    0    0  0.60142393876E+03 -0.11474612323E+03 -0.44301513601E+03  0.76025099976E+03  0.82714841480E+02 0.  0.
         13    1    3    3    0    0 -0.50641404283E+03 -0.33484994265E+03 -0.76345777020E+00  0.60710810383E+03  0.00000000000E+00 0. -1.
        -13    1    3    3    0    0 -0.40572312413E+02  0.52788756944E+01 -0.14437674443E+02  0.43386927829E+02  0.00000000000E+00 0.  1.
          2    1    6    6  502    0  0.73787126306E+02 -0.41004050453E+02 -0.72968690105E+02  0.11158092085E+03  0.00000000000E+00 0. -1.
          3    1    5    5  503    0  0.18604603679E+02  0.17534207279E+03 -0.25391612697E+03  0.30913487882E+03  0.00000000000E+00 0. -1.
         -4    1    5    5    0  503 -0.73042187196E+02  0.26897511740E+03 -0.40735119227E+03  0.49357650748E+03  0.00000000000E+00 0.  1.
         -1    1    6    6    0  502  0.52763681245E+03 -0.73742072779E+02 -0.37004644590E+03  0.64867007891E+03  0.00000000000E+00 0.  1.
<mgrwt>
<rscale>  0 0.19094895E+04</rscale>
<asrwt>0</asrwt>
<pdfrwt beam="1">  1        2 0.25638007E+00 0.19094895E+04</pdfrwt>
<pdfrwt beam="2">  1       -2 0.84151834E-01 0.19094895E+04</pdfrwt>
<totfact> 0.11810724E+01</totfact>
</mgrwt>
</event>
<event>
12    1  0.1477245E-007  0.2564510E+04  0.7818608E-02  0.8380357E-01
          2   -1    0    0  501    0  0.00000000000E+00  0.00000000000E+00  0.28216659902E+04  0.28216659902E+04  0.00000000000E+00 0.  1.
         -2   -1    0    0    0  501 -0.00000000000E+00 -0.00000000000E+00 -0.58269750473E+03  0.58269750473E+03  0.00000000000E+00 0. -1.
         23    2    1    2    0    0  0.20803099453E+03  0.10626027014E+04  0.12709252343E+04  0.16724347021E+04  0.96878716859E+02 0.  0.
        254    2    1    2    0    0 -0.20803099453E+03 -0.10626027014E+04  0.96804325115E+03  0.17319287928E+04  0.94343426459E+03 0.  0.
        -24    2    4    4    0    0 -0.12649395837E+03 -0.67591798662E+03  0.11066561515E+04  0.13054799299E+04  0.82000996683E+02 0.  0.
         24    2    4    4    0    0 -0.81537036164E+02 -0.38668471479E+03 -0.13861290039E+03  0.42644886294E+03  0.80447123183E+02 0.  0.
         13    1    3    3    0    0  0.25826020583E+02  0.34476720317E+03  0.43409512940E+03  0.55495043841E+03  0.00000000000E+00 0.  1.
        -13    1    3    3    0    0  0.18220497395E+03  0.71783549824E+03  0.83683010488E+03  0.11174842636E+04  0.00000000000E+00 0. -1.
          2    1    6    6  502    0 -0.82021345538E+02 -0.19475893648E+03 -0.69612558595E+02  0.22249596126E+03  0.00000000000E+00 0. -1.
          3    1    5    5  503    0 -0.12146600920E+03 -0.62254592009E+03  0.97312153752E+03  0.11615863897E+04  0.00000000000E+00 0. -1.
         -4    1    5    5    0  503 -0.50279491751E+01 -0.53372066528E+02  0.13353461403E+03  0.14389354017E+03  0.00000000000E+00 0.  1.
         -1    1    6    6    0  502  0.48430937421E+00 -0.19192577831E+03 -0.69000341799E+02  0.20395290168E+03  0.00000000000E+00 0.  1.
<mgrwt>
<rscale>  0 0.25645099E+04</rscale>
<asrwt>0</asrwt>
<pdfrwt beam="1">  1        2 0.43410245E+00 0.25645099E+04</pdfrwt>
<pdfrwt beam="2">  1       -2 0.89645771E-01 0.25645099E+04</pdfrwt>
<totfact> 0.21223179E+00</totfact>
</mgrwt>
</event>
<event>
12    1  0.1477245E-007  0.1174459E+04  0.7818608E-02  0.9135511E-01
         -4   -1    0    0    0  501 -0.00000000000E+00  0.00000000000E+00  0.13289103747E+04  0.13289103747E+04  0.00000000000E+00 0.  1.
          4   -1    0    0  501    0  0.00000000000E+00 -0.00000000000E+00 -0.25948944119E+03  0.25948944119E+03  0.00000000000E+00 0. -1.
         23    2    1    2    0    0  0.14296940373E+03 -0.11661563793E+03  0.49992787510E+02  0.21138811412E+03  0.90256293824E+02 0.  0.
        254    2    1    2    0    0 -0.14296940373E+03  0.11661563793E+03  0.10194281460E+04  0.13770117018E+04  0.90713175700E+03 0.  0.
        -24    2    4    4    0    0  0.28906758662E+03 -0.16954096997E+03  0.65136186465E+03  0.73618329068E+03  0.73412183059E+02 0.  0.
         24    2    4    4    0    0 -0.43203699035E+03  0.28615660790E+03  0.36806628139E+03  0.64082841113E+03  0.81527294429E+02 0.  0.
         13    1    3    3    0    0  0.97567089267E+02 -0.10019687885E+03 -0.27565951154E+01  0.13987977072E+03  0.00000000000E+00 0. -1.
        -13    1    3    3    0    0  0.45402314467E+02 -0.16418759076E+02  0.52749382626E+02  0.71508343401E+02  0.00000000000E+00 0.  1.
          4    1    6    6  502    0 -0.41703805223E+03  0.28968397903E+03  0.34823632390E+03  0.61571591014E+03  0.00000000000E+00 0. -1.
          1    1    5    5  503    0  0.23483113795E+03 -0.13975322530E+03  0.58365124453E+03  0.64445744822E+03  0.00000000000E+00 0. -1.
         -2    1    5    5    0  503  0.54236448666E+02 -0.29787744670E+02  0.67710620123E+02  0.91725842454E+02  0.00000000000E+00 0.  1.
         -3    1    6    6    0  502 -0.14998938123E+02 -0.35273711307E+01  0.19829957495E+02  0.25112500994E+02  0.00000000000E+00 0.  1.
<mgrwt>
<rscale>  0 0.11744585E+04</rscale>
<asrwt>0</asrwt>
<pdfrwt beam="1">  1        4 0.39921453E-01 0.11744585E+04</pdfrwt>
<pdfrwt beam="2">  1       -4 0.20444775E+00 0.11744585E+04</pdfrwt>
<totfact> 0.14876080E+00</totfact>
</mgrwt>
</event>
<event>
12    1  0.1477245E-007  0.2099033E+04  0.7818608E-02  0.8561669E-01
         -2   -1    0    0    0  501 -0.00000000000E+00  0.00000000000E+00  0.31585685583E+04  0.31585685583E+04  0.00000000000E+00 0. -1.
          2   -1    0    0  501    0  0.00000000000E+00 -0.00000000000E+00 -0.34872920336E+03  0.34872920336E+03  0.00000000000E+00 0.  1.
         23    2    1    2    0    0  0.67246909545E+03 -0.50555793428E+02  0.27591979305E+03  0.73394512644E+03  0.88165434506E+02 0.  0.
        254    2    1    2    0    0 -0.67246909545E+03  0.50555793428E+02  0.25339195618E+04  0.27733526352E+04  0.90330831978E+03 0.  0.
        -24    2    4    4    0    0 -0.55274560909E+03 -0.88222348899E+02  0.58283166506E+03  0.81210611038E+03  0.80701260879E+02 0.  0.
         24    2    4    4    0    0 -0.11972348636E+03  0.13877814233E+03  0.19510878968E+04  0.19612465248E+04  0.78427444818E+02 0.  0.
         11    1    3    3    0    0  0.36605715849E+03 -0.52426963056E+02  0.18979277627E+03  0.41565337442E+03  0.00000000000E+00 0. -1.
        -11    1    3    3    0    0  0.30641193696E+03  0.18711696281E+01  0.86127016774E+02  0.31829175202E+03  0.00000000000E+00 0.  1.
          4    1    6    6  502    0 -0.13469164663E+02  0.68994790291E+02  0.83102803032E+03  0.83399597520E+03  0.00000000000E+00 0. -1.
          1    1    5    5  503    0 -0.41331964201E+02 -0.13804003936E+02  0.79733670348E+02  0.90864404343E+02  0.00000000000E+00 0. -1.
         -2    1    5    5    0  503 -0.51141364489E+03 -0.74418344964E+02  0.50309799471E+03  0.72124170604E+03  0.00000000000E+00 0.  1.
         -3    1    6    6    0  502 -0.10625432170E+03  0.69783352037E+02  0.11200598665E+04  0.11272505496E+04  0.00000000000E+00 0.  1.
<mgrwt>
<rscale>  0 0.20990332E+04</rscale>
<asrwt>0</asrwt>
<pdfrwt beam="1">  1        2 0.53650649E-01 0.20990332E+04</pdfrwt>
<pdfrwt beam="2">  1       -2 0.48593361E+00 0.20990332E+04</pdfrwt>
<totfact> 0.17265722E-01</totfact>
</mgrwt>
</event>
<event>
12    1  0.1477245E-007  0.1630648E+04  0.7818608E-02  0.8801938E-01
         -2   -1    0    0    0  501 -0.00000000000E+00  0.00000000000E+00  0.36166082790E+03  0.36166082790E+03  0.00000000000E+00 0.  1.
          2   -1    0    0  501    0  0.00000000000E+00 -0.00000000000E+00 -0.18380579973E+04  0.18380579973E+04  0.00000000000E+00 0. -1.
         23    2    1    2    0    0  0.55486627204E+03  0.44262629346E+02 -0.36717961947E+03  0.67307194137E+03  0.91483359647E+02 0.  0.
        254    2    1    2    0    0 -0.55486627204E+03 -0.44262629346E+02 -0.11092175500E+04  0.15266468839E+04  0.88907332355E+03 0.  0.
        -24    2    4    4    0    0 -0.37669942024E+03  0.30720172263E+03 -0.99322806999E+03  0.11081361807E+04  0.72030856732E+02 0.  0.
         24    2    4    4    0    0 -0.17816685180E+03 -0.35146435197E+03 -0.11598947996E+03  0.41851070317E+03  0.80168768332E+02 0.  0.
         13    1    3    3    0    0  0.42769321318E+03 -0.46100886288E+01 -0.27206134685E+03  0.50691233362E+03  0.00000000000E+00 0.  1.
        -13    1    3    3    0    0  0.12717305886E+03  0.48872717974E+02 -0.95118272620E+02  0.16615960775E+03  0.00000000000E+00 0. -1.
          4    1    6    6  502    0 -0.14458758046E+03 -0.23959659829E+03 -0.49732973619E+02  0.28422784346E+03  0.00000000000E+00 0. -1.
          3    1    5    5  503    0 -0.22758573408E+03  0.17493671026E+03 -0.66208061409E+03  0.72162930823E+03  0.00000000000E+00 0. -1.
         -4    1    5    5    0  503 -0.14911368616E+03  0.13226501237E+03 -0.33114745591E+03  0.38650687245E+03  0.00000000000E+00 0.  1.
         -3    1    6    6    0  502 -0.33579271346E+02 -0.11186775368E+03 -0.66256506340E+02  0.13428285971E+03  0.00000000000E+00 0.  1.
<mgrwt>
<rscale>  0 0.16306484E+04</rscale>
<asrwt>0</asrwt>
<pdfrwt beam="1">  1        2 0.28277815E+00 0.16306484E+04</pdfrwt>
<pdfrwt beam="2">  1       -2 0.55640128E-01 0.16306484E+04</pdfrwt>
<totfact> 0.23862664E+01</totfact>
</mgrwt>
</event>
<event>
12    1  0.1477245E-007  0.2816478E+04  0.7818608E-02  0.8298171E-01
          2   -1    0    0  501    0  0.00000000000E+00  0.00000000000E+00  0.25089339363E+04  0.25089339363E+04  0.00000000000E+00 0. -1.
         -2   -1    0    0    0  501 -0.00000000000E+00 -0.00000000000E+00 -0.79042999396E+03  0.79042999396E+03  0.00000000000E+00 0.  1.
         23    2    1    2    0    0  0.92814902220E+03 -0.12075783163E+03 -0.22095872189E+03  0.96610878910E+03  0.92197474395E+02 0.  0.
        254    2    1    2    0    0 -0.92814902220E+03  0.12075783163E+03  0.19394626643E+04  0.23332551412E+04  0.89806517945E+03 0.  0.
        -24    2    4    4    0    0 -0.60940627904E+03 -0.27784430166E+03  0.61921135470E+03  0.91562899465E+03  0.79876687199E+02 0.  0.
         24    2    4    4    0    0 -0.31874274316E+03  0.39860213330E+03  0.13202513096E+04  0.14176261466E+04  0.78228984175E+02 0.  0.
         13    1    3    3    0    0  0.18614936211E+03 -0.48391320569E+02 -0.16402190456E+02  0.19303454813E+03  0.00000000000E+00 0. -1.
        -13    1    3    3    0    0  0.74199966009E+03 -0.72366511066E+02 -0.20455653143E+03  0.77307424097E+03  0.00000000000E+00 0.  1.
          2    1    6    6  502    0 -0.10551006831E+03  0.17786497064E+03  0.46283624199E+03  0.50693757919E+03  0.00000000000E+00 0. -1.
          1    1    5    5  503    0 -0.18661125135E+03 -0.92085977110E+02  0.24342733424E+03  0.32025061025E+03  0.00000000000E+00 0. -1.
         -2    1    5    5    0  503 -0.42279502768E+03 -0.18575832456E+03  0.37578402046E+03  0.59537838440E+03  0.00000000000E+00 0.  1.
         -1    1    6    6    0  502 -0.21323267485E+03  0.22073716266E+03  0.85741506760E+03  0.91068856737E+03  0.00000000000E+00 0.  1.
<mgrwt>
<rscale>  0 0.28164777E+04</rscale>
<asrwt>0</asrwt>
<pdfrwt beam="1">  1        2 0.38598983E+00 0.28164777E+04</pdfrwt>
<pdfrwt beam="2">  1       -2 0.12160462E+00 0.28164777E+04</pdfrwt>
<totfact> 0.15351990E+00</totfact>
</mgrwt>
</event>
<event>
12    1  0.1651500E-007  0.2991085E+04  0.7818608E-02  0.8246281E-01
         -1   -1    0    0    0  501 -0.00000000000E+00  0.00000000000E+00  0.13056990050E+04  0.13056990050E+04  0.00000000000E+00 0.  1.
          1   -1    0    0  501    0  0.00000000000E+00 -0.00000000000E+00 -0.17129886430E+04  0.17129886430E+04  0.00000000000E+00 0. -1.
         23    2    1    2    0    0  0.79283815133E+01  0.12518623989E+04  0.30781510898E+03  0.12925346649E+04  0.93131056357E+02 0.  0.
        254    2    1    2    0    0 -0.79283815133E+01 -0.12518623989E+04 -0.71510474692E+03  0.17261529831E+04  0.94921388373E+03 0.  0.
        -24    2    4    4    0    0  0.22058721933E+03 -0.30075284255E+03  0.15799745250E+03  0.41256464996E+03  0.78328805438E+02 0.  0.
         24    2    4    4    0    0 -0.22851560085E+03 -0.95110955635E+03 -0.87310219943E+03  0.13135883332E+04  0.79862947513E+02 0.  0.
         11    1    3    3    0    0  0.76544799897E+01  0.81312933345E+01  0.61228660708E+01  0.12735716867E+02  0.00000000000E+00 0. -1.
        -11    1    3    3    0    0  0.27390152360E+00  0.12437311056E+04  0.30169224291E+03  0.12797989480E+04  0.00000000000E+00 0.  1.
          2    1    6    6  502    0 -0.20922333748E+03 -0.91701653074E+03 -0.82164593353E+03  0.12489178366E+04  0.00000000000E+00 0. -1.
          1    1    5    5  503    0  0.20196548403E+03 -0.22979000573E+03  0.14291085625E+03  0.33766405836E+03  0.00000000000E+00 0. -1.
         -2    1    5    5    0  503  0.18621735303E+02 -0.70962836819E+02  0.15086596251E+02  0.74900591597E+02  0.00000000000E+00 0.  1.
         -1    1    6    6    0  502 -0.19292263365E+02 -0.34093025606E+02 -0.51456265895E+02  0.64670496524E+02  0.00000000000E+00 0.  1.
<mgrwt>
<rscale>  0 0.29910851E+04</rscale>
<asrwt>0</asrwt>
<pdfrwt beam="1">  1        1 0.26353671E+00 0.29910851E+04</pdfrwt>
<pdfrwt beam="2">  1       -1 0.20087677E+00 0.29910851E+04</pdfrwt>
<totfact> 0.59033903E-01</totfact>
</mgrwt>
</event>
<event>
12    1  0.1477245E-007  0.1817283E+04  0.7818608E-02  0.8697162E-01
         -2   -1    0    0    0  501 -0.00000000000E+00  0.00000000000E+00  0.49773048313E+03  0.49773048313E+03  0.00000000000E+00 0.  1.
          2   -1    0    0  501    0  0.00000000000E+00 -0.00000000000E+00 -0.16587873593E+04  0.16587873593E+04  0.00000000000E+00 0. -1.
         23    2    1    2    0    0 -0.31338471852E+03 -0.15201310209E+03  0.25743105124E+03  0.44074613307E+03  0.81660533069E+02 0.  0.
        254    2    1    2    0    0  0.31338471852E+03  0.15201310209E+03 -0.14184879274E+04  0.17157717094E+04  0.90024807327E+03 0.  0.
        -24    2    4    4    0    0 -0.23634766047E+03  0.12420646924E+03 -0.94282566963E+03  0.98365945061E+03  0.85896494936E+02 0.  0.
         24    2    4    4    0    0  0.54973237899E+03  0.27806632850E+02 -0.47566225780E+03  0.73211225877E+03  0.82188068483E+02 0.  0.
         11    1    3    3    0    0 -0.13381230622E+03 -0.10971212457E+03  0.13241747597E+03  0.21789188033E+03  0.00000000000E+00 0.  1.
        -11    1    3    3    0    0 -0.17957241230E+03 -0.42300977520E+02  0.12501357527E+03  0.22285425274E+03  0.00000000000E+00 0. -1.
          2    1    6    6  502    0  0.47092267137E+03  0.17229632944E+02 -0.44087875908E+03  0.64532093014E+03  0.00000000000E+00 0. -1.
          1    1    5    5  503    0 -0.15353753917E+03  0.11265492203E+03 -0.74364760286E+03  0.76764357917E+03  0.00000000000E+00 0. -1.
         -2    1    5    5    0  503 -0.82810121299E+02  0.11551547209E+02 -0.19917806677E+03  0.21601587144E+03  0.00000000000E+00 0.  1.
         -1    1    6    6    0  502  0.78809707623E+02  0.10576999906E+02 -0.34783498713E+02  0.86791328630E+02  0.00000000000E+00 0.  1.
<mgrwt>
<rscale>  0 0.18172826E+04</rscale>
<asrwt>0</asrwt>
<pdfrwt beam="1">  1        2 0.25519806E+00 0.18172826E+04</pdfrwt>
<pdfrwt beam="2">  1       -2 0.76573920E-01 0.18172826E+04</pdfrwt>
<totfact> 0.14861310E+01</totfact>
</mgrwt>
</event>
<event>
12    1  0.1477245E-007  0.2084199E+04  0.7818608E-02  0.8568236E-01
         -2   -1    0    0    0  501 -0.00000000000E+00  0.00000000000E+00  0.15530414156E+04  0.15530414156E+04  0.00000000000E+00 0.  1.
          2   -1    0    0  501    0  0.00000000000E+00 -0.00000000000E+00 -0.69925492611E+03  0.69925492611E+03  0.00000000000E+00 0. -1.
         23    2    1    2    0    0 -0.63152918144E+03 -0.10328635470E+03  0.94806153377E+03  0.11477200353E+04  0.94569707532E+02 0.  0.
        254    2    1    2    0    0  0.63152918144E+03  0.10328635470E+03 -0.94275044270E+02  0.11045763064E+04  0.89537916807E+03 0.  0.
        -24    2    4    4    0    0 -0.13654080173E+03 -0.23392235377E+02  0.21085603268E+03  0.26472193378E+03  0.80167627464E+02 0.  0.
         24    2    4    4    0    0  0.76806998318E+03  0.12667859008E+03 -0.30513107695E+03  0.83985437263E+03  0.79192353554E+02 0.  0.
         11    1    3    3    0    0 -0.62239597039E+03 -0.10278626501E+03  0.94784014600E+03  0.11385704645E+04  0.00000000000E+00 0. -1.
        -11    1    3    3    0    0 -0.91332110530E+01 -0.50008968902E+00  0.22138776481E+00  0.91495708303E+01  0.00000000000E+00 0.  1.
          4    1    6    6  502    0  0.43175435996E+03  0.46470381906E+02 -0.20288262757E+03  0.47930437543E+03  0.00000000000E+00 0. -1.
          3    1    5    5  503    0 -0.14343677047E+03 -0.25674673107E+02  0.21212052625E+03  0.25734881701E+03  0.00000000000E+00 0. -1.
         -4    1    5    5    0  503  0.68959687413E+01  0.22824377308E+01 -0.12644935669E+01  0.73731167668E+01  0.00000000000E+00 0.  1.
         -3    1    6    6    0  502  0.33631562322E+03  0.80208208170E+02 -0.10224844938E+03  0.36054999720E+03  0.00000000000E+00 0.  1.
<mgrwt>
<rscale>  0 0.20841995E+04</rscale>
<asrwt>0</asrwt>
<pdfrwt beam="1">  1        2 0.10757768E+00 0.20841995E+04</pdfrwt>
<pdfrwt beam="2">  1       -2 0.23892945E+00 0.20841995E+04</pdfrwt>
<totfact> 0.28466062E+00</totfact>
</mgrwt>
</event>
<event>
12    1  0.1477245E-007  0.3129450E+04  0.7818608E-02  0.8207702E-01
          2   -1    0    0  501    0  0.00000000000E+00  0.00000000000E+00  0.14062968079E+04  0.14062968079E+04  0.00000000000E+00 0. -1.
         -2   -1    0    0    0  501 -0.00000000000E+00 -0.00000000000E+00 -0.17410008555E+04  0.17410008555E+04  0.00000000000E+00 0.  1.
         23    2    1    2    0    0  0.43536254967E+03 -0.47381738305E+03  0.11104030734E+04  0.12873220047E+04  0.10079432701E+03 0.  0.
        254    2    1    2    0    0 -0.43536254967E+03  0.47381738305E+03 -0.14451071210E+04  0.18599756586E+04  0.97833092432E+03 0.  0.
        -24    2    4    4    0    0 -0.92525778494E+02  0.67686939100E+03 -0.12068967879E+04  0.13889783801E+04  0.77122575237E+02 0.  0.
         24    2    4    4    0    0 -0.34283677118E+03 -0.20305200795E+03 -0.23821033307E+03  0.47099727852E+03  0.79543095166E+02 0.  0.
         11    1    3    3    0    0  0.35015656845E+03 -0.42875463419E+03  0.91461326136E+03  0.10690919402E+04  0.00000000000E+00 0. -1.
        -11    1    3    3    0    0  0.85205981215E+02 -0.45062748864E+02  0.19578981200E+03  0.21823006450E+03  0.00000000000E+00 0.  1.
          4    1    6    6  502    0 -0.10466104595E+03 -0.44859637324E+02 -0.10755835618E+03  0.15663691003E+03  0.00000000000E+00 0. -1.
          1    1    5    5  503    0 -0.80745548045E+02  0.33774236945E+03 -0.64614825365E+03  0.73355116887E+03  0.00000000000E+00 0. -1.
         -2    1    5    5    0  503 -0.11780230449E+02  0.33912702155E+03 -0.56074853426E+03  0.65542721125E+03  0.00000000000E+00 0.  1.
         -3    1    6    6    0  502 -0.23817572523E+03 -0.15819237063E+03 -0.13065197690E+03  0.31436036850E+03  0.00000000000E+00 0.  1.
<mgrwt>
<rscale>  0 0.31294498E+04</rscale>
<asrwt>0</asrwt>
<pdfrwt beam="1">  1        2 0.21635336E+00 0.31294498E+04</pdfrwt>
<pdfrwt beam="2">  1       -2 0.26784629E+00 0.31294498E+04</pdfrwt>
<totfact> 0.60721823E-01</totfact>
</mgrwt>
</event>
<event>
12    1  0.1477245E-007  0.2755954E+04  0.7818608E-02  0.8317075E-01
         -2   -1    0    0    0  501 -0.00000000000E+00  0.00000000000E+00  0.73147343400E+03  0.73147343400E+03  0.00000000000E+00 0.  1.
          2   -1    0    0  501    0  0.00000000000E+00 -0.00000000000E+00 -0.25958851783E+04  0.25958851783E+04  0.00000000000E+00 0. -1.
         23    2    1    2    0    0 -0.10082657936E+04  0.66596449348E+03 -0.60641156888E+03  0.13550835421E+04  0.91694045649E+02 0.  0.
        254    2    1    2    0    0  0.10082657936E+04 -0.66596449348E+03 -0.12580001754E+04  0.19722750702E+04  0.92043244958E+03 0.  0.
        -24    2    4    4    0    0  0.11362776110E+04 -0.57805348219E+03 -0.12655704540E+04  0.17980995256E+04  0.78871366579E+02 0.  0.
         24    2    4    4    0    0 -0.12801181736E+03 -0.87911011289E+02  0.75702785694E+01  0.17417554466E+03  0.78513947488E+02 0.  0.
         13    1    3    3    0    0 -0.97049206269E+03  0.62394259639E+03 -0.59198347655E+03  0.12967666112E+04  0.00000000000E+00 0. -1.
        -13    1    3    3    0    0 -0.37773730904E+02  0.42021897089E+02 -0.14428092333E+02  0.58316930901E+02  0.00000000000E+00 0.  1.
          2    1    6    6  502    0  0.10251820372E+02 -0.73102494398E+00  0.27983068436E+01  0.10651982895E+02  0.00000000000E+00 0. -1.
          1    1    5    5  503    0  0.16436480453E+03 -0.11558571263E+03 -0.20357753252E+03  0.28604135659E+03  0.00000000000E+00 0. -1.
         -2    1    5    5    0  503  0.97191280642E+03 -0.46246776956E+03 -0.10619929215E+04  0.15120581690E+04  0.00000000000E+00 0.  1.
         -1    1    6    6    0  502 -0.13826363773E+03 -0.87179986345E+02  0.47719717259E+01  0.16352356177E+03  0.00000000000E+00 0.  1.
<mgrwt>
<rscale>  0 0.27559543E+04</rscale>
<asrwt>0</asrwt>
<pdfrwt beam="1">  1        2 0.39936696E+00 0.27559543E+04</pdfrwt>
<pdfrwt beam="2">  1       -2 0.11253437E+00 0.27559543E+04</pdfrwt>
<totfact> 0.16608874E+00</totfact>
</mgrwt>
</event>
<event>
12    1  0.1477245E-007  0.1724544E+04  0.7818608E-02  0.8747489E-01
         -1   -1    0    0    0  501 -0.00000000000E+00  0.00000000000E+00  0.11435754122E+04  0.11435754122E+04  0.00000000000E+00 0.  1.
          1   -1    0    0  501    0  0.00000000000E+00 -0.00000000000E+00 -0.65016522644E+03  0.65016522644E+03  0.00000000000E+00 0. -1.
         23    2    1    2    0    0 -0.29600121366E+03  0.34032274238E+03  0.61224520981E+03  0.76604091131E+03  0.92402345168E+02 0.  0.
        254    2    1    2    0    0  0.29600121366E+03 -0.34032274238E+03 -0.11883502402E+03  0.10276997274E+04  0.91575579671E+03 0.  0.
        -24    2    4    4    0    0 -0.14017793541E+02 -0.15802282237E+03  0.37295326249E+03  0.41311468628E+03  0.80011855961E+02 0.  0.
         24    2    4    4    0    0  0.31001900720E+03 -0.18229992001E+03 -0.49178828650E+03  0.61458504108E+03  0.80709406619E+02 0.  0.
         13    1    3    3    0    0 -0.13540968806E+03  0.16881418162E+03  0.21857497089E+03  0.30758580825E+03  0.00000000000E+00 0.  1.
        -13    1    3    3    0    0 -0.16059152560E+03  0.17150856076E+03  0.39367023893E+03  0.45845510306E+03  0.00000000000E+00 0. -1.
          4    1    6    6  502    0  0.90865767956E+02 -0.20744338392E+02 -0.16233392764E+03  0.18718765831E+03  0.00000000000E+00 0. -1.
          3    1    5    5  503    0  0.86149457087E+00 -0.37227135315E+02  0.18838525234E+03  0.19203021917E+03  0.00000000000E+00 0. -1.
         -4    1    5    5    0  503 -0.14879288112E+02 -0.12079568706E+03  0.18456801015E+03  0.22108446711E+03  0.00000000000E+00 0.  1.
         -3    1    6    6    0  502  0.21915323924E+03 -0.16155558162E+03 -0.32945435887E+03  0.42739738277E+03  0.00000000000E+00 0.  1.
<mgrwt>
<rscale>  0 0.17245440E+04</rscale>
<asrwt>0</asrwt>
<pdfrwt beam="1">  1        1 0.10002542E+00 0.17245440E+04</pdfrwt>
<pdfrwt beam="2">  1       -1 0.17593468E+00 0.17245440E+04</pdfrwt>
<totfact> 0.64374469E+00</totfact>
</mgrwt>
</event>
<event>
12    1  0.1477245E-007  0.1216122E+04  0.7818608E-02  0.9098861E-01
          1   -1    0    0  501    0  0.00000000000E+00  0.00000000000E+00  0.45184059665E+03  0.45184059665E+03  0.00000000000E+00 0. -1.
         -1   -1    0    0    0  501 -0.00000000000E+00 -0.00000000000E+00 -0.81829348860E+03  0.81829348860E+03  0.00000000000E+00 0.  1.
         23    2    1    2    0    0 -0.24748741545E+03  0.74382841153E+02 -0.22301921642E+02  0.27520915214E+03  0.91977572515E+02 0.  0.
        254    2    1    2    0    0  0.24748741545E+03 -0.74382841153E+02 -0.34415097030E+03  0.99492493312E+03  0.89702447253E+03 0.  0.
        -24    2    4    4    0    0  0.53427069122E+03 -0.72639763854E+02 -0.41847167189E+03  0.68799515842E+03  0.86585743846E+02 0.  0.
         24    2    4    4    0    0 -0.28678327577E+03 -0.17430772987E+01  0.74320701591E+02  0.30692977470E+03  0.80216172523E+02 0.  0.
         11    1    3    3    0    0 -0.17789941877E+03  0.47194342088E+02 -0.57218208801E+02  0.19274188061E+03  0.00000000000E+00 0.  1.
        -11    1    3    3    0    0 -0.69587996684E+02  0.27188499065E+02  0.34916287159E+02  0.82467271526E+02  0.00000000000E+00 0. -1.
          4    1    6    6  502    0 -0.21053261915E+03 -0.30209684611E+02  0.31648532895E+02  0.21503078478E+03  0.00000000000E+00 0. -1.
          3    1    5    5  503    0  0.41203657386E+03 -0.86983535707E+02 -0.29898830029E+03  0.51646323915E+03  0.00000000000E+00 0. -1.
         -4    1    5    5    0  503  0.12223411736E+03  0.14343771852E+02 -0.11948337160E+03  0.17153191927E+03  0.00000000000E+00 0.  1.
         -3    1    6    6    0  502 -0.76250656619E+02  0.28466607312E+02  0.42672168696E+02  0.91898989918E+02  0.00000000000E+00 0.  1.
<mgrwt>
<rscale>  0 0.12161221E+04</rscale>
<asrwt>0</asrwt>
<pdfrwt beam="1">  1        1 0.69513938E-01 0.12161221E+04</pdfrwt>
<pdfrwt beam="2">  1       -1 0.12589131E+00 0.12161221E+04</pdfrwt>
<totfact> 0.27685508E+01</totfact>
</mgrwt>
</event>
<event>
12    1  0.1477245E-007  0.1150598E+04  0.7818608E-02  0.9157232E-01
         -2   -1    0    0    0  501 -0.00000000000E+00  0.00000000000E+00  0.15390458025E+04  0.15390458025E+04  0.00000000000E+00 0.  1.
          2   -1    0    0  501    0  0.00000000000E+00 -0.00000000000E+00 -0.21504796834E+03  0.21504796834E+03  0.00000000000E+00 0. -1.
         23    2    1    2    0    0 -0.31702936939E+01  0.21733022900E+02  0.40031242178E+03  0.41132813449E+03  0.91969691423E+02 0.  0.
        254    2    1    2    0    0  0.31702936939E+01 -0.21733022900E+02  0.92368541234E+03  0.13427656363E+04  0.97434205393E+03 0.  0.
        -24    2    4    4    0    0  0.35875488754E+02  0.14868954882E+03 -0.16269352270E+03  0.23963819998E+03  0.86957759522E+02 0.  0.
         24    2    4    4    0    0 -0.32705195060E+02 -0.17042257172E+03  0.10863789350E+04  0.11031274363E+04  0.80978191863E+02 0.  0.
         11    1    3    3    0    0 -0.31145005433E+02 -0.25023419627E+02  0.15930901903E+03  0.16424234057E+03  0.00000000000E+00 0.  1.
        -11    1    3    3    0    0  0.27974711739E+02  0.46756442527E+02  0.24100340276E+03  0.24708579391E+03  0.00000000000E+00 0. -1.
          2    1    6    6  502    0 -0.29078888958E+02 -0.14436399264E+03  0.10347982118E+04  0.10452243220E+04  0.00000000000E+00 0. -1.
          3    1    5    5  503    0  0.25846469645E+02  0.15542459560E+03 -0.16407805954E+03  0.22747847048E+03  0.00000000000E+00 0. -1.
         -4    1    5    5    0  503  0.10029019108E+02 -0.67350467739E+01  0.13845368426E+01  0.12159729503E+02  0.00000000000E+00 0.  1.
         -1    1    6    6    0  502 -0.36263061014E+01 -0.26058579086E+02  0.51580723254E+02  0.57903114349E+02  0.00000000000E+00 0.  1.
<mgrwt>
<rscale>  0 0.11505975E+04</rscale>
<asrwt>0</asrwt>
<pdfrwt beam="1">  1        2 0.33084304E-01 0.11505975E+04</pdfrwt>
<pdfrwt beam="2">  1       -2 0.23677627E+00 0.11505975E+04</pdfrwt>
<totfact> 0.12267256E+01</totfact>
</mgrwt>
</event>
<event>
12    1  0.1477245E-007  0.1307872E+04  0.7818608E-02  0.9023346E-01
          2   -1    0    0  501    0  0.00000000000E+00  0.00000000000E+00  0.88246407061E+03  0.88246407061E+03  0.00000000000E+00 0. -1.
         -2   -1    0    0    0  501 -0.00000000000E+00 -0.00000000000E+00 -0.48458855717E+03  0.48458855717E+03  0.00000000000E+00 0.  1.
         23    2    1    2    0    0 -0.12181936207E+03 -0.27133432339E+03 -0.49531016400E+02  0.31275991980E+03  0.83085340592E+02 0.  0.
        254    2    1    2    0    0  0.12181936207E+03  0.27133432339E+03  0.44740652985E+03  0.10542927080E+04  0.90713738713E+03 0.  0.
        -24    2    4    4    0    0 -0.84497527770E+02  0.24405213726E+03  0.68017371122E+03  0.73176770575E+03  0.78399106184E+02 0.  0.
         24    2    4    4    0    0  0.20631688984E+03  0.27282186133E+02 -0.23276718137E+03  0.32252500223E+03  0.80813610396E+02 0.  0.
         13    1    3    3    0    0 -0.11606208448E+03 -0.16310440454E+03 -0.26157423077E+02  0.20188527687E+03  0.00000000000E+00 0. -1.
        -13    1    3    3    0    0 -0.57572775863E+01 -0.10822991885E+03 -0.23373593322E+02  0.11087464293E+03  0.00000000000E+00 0.  1.
          4    1    6    6  502    0  0.52371978511E+02 -0.18289414194E+02 -0.27462666647E+02  0.61899312307E+02  0.00000000000E+00 0. -1.
          3    1    5    5  503    0 -0.29301981513E+02  0.16834208803E+02  0.58284417874E+02  0.67372621097E+02  0.00000000000E+00 0. -1.
         -4    1    5    5    0  503 -0.55195546257E+02  0.22721792845E+03  0.62188929334E+03  0.66439508465E+03  0.00000000000E+00 0.  1.
         -3    1    6    6    0  502  0.15394491133E+03  0.45571600328E+02 -0.20530451472E+03  0.26062568992E+03  0.00000000000E+00 0.  1.
<mgrwt>
<rscale>  0 0.13078715E+04</rscale>
<asrwt>0</asrwt>
<pdfrwt beam="1">  1        2 0.13576370E+00 0.13078715E+04</pdfrwt>
<pdfrwt beam="2">  1       -2 0.74552086E-01 0.13078715E+04</pdfrwt>
<totfact> 0.47794881E+01</totfact>
</mgrwt>
</event>
<event>
12    1  0.1535495E-007  0.2362407E+04  0.7818608E-02  0.8453713E-01
         -1   -1    0    0    0  501 -0.00000000000E+00  0.00000000000E+00  0.77468551687E+03  0.77468551687E+03  0.00000000000E+00 0.  1.
          1   -1    0    0  501    0  0.00000000000E+00 -0.00000000000E+00 -0.18010429111E+04  0.18010429111E+04  0.00000000000E+00 0. -1.
         23    2    1    2    0    0 -0.15785292505E+03  0.79686817498E+03  0.20579905792E+03  0.84288945053E+03  0.90514856928E+02 0.  0.
        254    2    1    2    0    0  0.15785292505E+03 -0.79686817498E+03 -0.12321564522E+04  0.17328389775E+04  0.90807762056E+03 0.  0.
        -24    2    4    4    0    0  0.53070286761E+03 -0.45916869662E+03 -0.65624341968E+03  0.96399797117E+03  0.78455317963E+02 0.  0.
         24    2    4    4    0    0 -0.37284994255E+03 -0.33769947836E+03 -0.57591303249E+03  0.76884100629E+03  0.79891517795E+02 0.  0.
         11    1    3    3    0    0 -0.67882658428E+02  0.51088251446E+03  0.15979003704E+03  0.53957562476E+03  0.00000000000E+00 0. -1.
        -11    1    3    3    0    0 -0.89970266627E+02  0.28598566052E+03  0.46009020879E+02  0.30331382577E+03  0.00000000000E+00 0.  1.
          4    1    6    6  502    0 -0.21638135336E+02 -0.79837323478E+00 -0.15641639294E+02  0.26711555186E+02  0.00000000000E+00 0. -1.
          3    1    5    5  503    0  0.13744295686E+01  0.30313520092E+01 -0.21040394012E+01  0.39376558311E+01  0.00000000000E+00 0. -1.
         -4    1    5    5    0  503  0.52932843804E+03 -0.46220004863E+03 -0.65413938027E+03  0.96006031534E+03  0.00000000000E+00 0.  1.
         -3    1    6    6    0  502 -0.35121180722E+03 -0.33690110512E+03 -0.56027139319E+03  0.74212945110E+03  0.00000000000E+00 0.  1.
<mgrwt>
<rscale>  0 0.23624071E+04</rscale>
<asrwt>0</asrwt>
<pdfrwt beam="1">  1        1 0.27708352E+00 0.23624071E+04</pdfrwt>
<pdfrwt beam="2">  1       -1 0.11918239E+00 0.23624071E+04</pdfrwt>
<totfact> 0.23018254E+00</totfact>
</mgrwt>
</event>
<event>
12    1  0.1477245E-007  0.2111082E+04  0.7818608E-02  0.8556378E-01
         -2   -1    0    0    0  501 -0.00000000000E+00  0.00000000000E+00  0.18081342335E+04  0.18081342335E+04  0.00000000000E+00 0. -1.
          2   -1    0    0  501    0  0.00000000000E+00 -0.00000000000E+00 -0.61619666333E+03  0.61619666333E+03  0.00000000000E+00 0.  1.
         23    2    1    2    0    0 -0.39185314921E+03  0.69320893119E+03  0.86163292326E+03  0.11758717047E+04  0.78584086799E+02 0.  0.
        254    2    1    2    0    0  0.39185314921E+03 -0.69320893119E+03  0.33030464693E+03  0.12484591921E+04  0.90302916996E+03 0.  0.
        -24    2    4    4    0    0  0.25200238914E+03 -0.33856464106E+03 -0.28813117260E+03  0.51749455217E+03  0.81546419862E+02 0.  0.
         24    2    4    4    0    0  0.13985076008E+03 -0.35464429013E+03  0.61843581953E+03  0.73096463995E+03  0.80719479475E+02 0.  0.
         13    1    3    3    0    0 -0.16411952792E+03  0.36932270222E+03  0.42680658089E+03  0.58779106433E+03  0.00000000000E+00 0. -1.
        -13    1    3    3    0    0 -0.22773362130E+03  0.32388622897E+03  0.43482634238E+03  0.58808064040E+03  0.00000000000E+00 0.  1.
          2    1    6    6  502    0  0.13873922168E+03 -0.30220184222E+03  0.56810691630E+03  0.65827045614E+03  0.00000000000E+00 0. -1.
          1    1    5    5  503    0  0.25519981745E+03 -0.32855161274E+03 -0.26825135480E+03  0.49500696804E+03  0.00000000000E+00 0. -1.
         -2    1    5    5    0  503 -0.31974283088E+01 -0.10013028322E+02 -0.19879817808E+02  0.22487584131E+02  0.00000000000E+00 0.  1.
         -1    1    6    6    0  502  0.11115383987E+01 -0.52442447910E+02  0.50328903230E+02  0.72694183816E+02  0.00000000000E+00 0.  1.
<mgrwt>
<rscale>  0 0.21110815E+04</rscale>
<asrwt>0</asrwt>
<pdfrwt beam="1">  1        2 0.94799487E-01 0.21110815E+04</pdfrwt>
<pdfrwt beam="2">  1       -2 0.27817450E+00 0.21110815E+04</pdfrwt>
<totfact> 0.19105978E+00</totfact>
</mgrwt>
</event>
<event>
12    1  0.1477245E-007  0.1929089E+04  0.7818608E-02  0.8640511E-01
          2   -1    0    0  501    0  0.00000000000E+00  0.00000000000E+00  0.12848405280E+04  0.12848405280E+04  0.00000000000E+00 0. -1.
         -2   -1    0    0    0  501 -0.00000000000E+00 -0.00000000000E+00 -0.72409464949E+03  0.72409464949E+03  0.00000000000E+00 0.  1.
         23    2    1    2    0    0  0.52105361113E+03 -0.37975960588E+03 -0.19454687764E+03  0.67972905278E+03  0.92026483494E+02 0.  0.
        254    2    1    2    0    0 -0.52105361113E+03  0.37975960588E+03  0.75529275615E+03  0.13292061247E+04  0.88351997746E+03 0.  0.
        -24    2    4    4    0    0 -0.25154033137E+03  0.41466344398E+03  0.88910368812E+03  0.10158426684E+04  0.78820357017E+02 0.  0.
         24    2    4    4    0    0 -0.26951327976E+03 -0.34903838109E+02 -0.13381093196E+03  0.31336345630E+03  0.80222218544E+02 0.  0.
         11    1    3    3    0    0  0.24455855463E+03 -0.14109295806E+03 -0.12083114736E+03  0.30710954988E+03  0.00000000000E+00 0. -1.
        -11    1    3    3    0    0  0.27649505650E+03 -0.23866664781E+03 -0.73715730289E+02  0.37261950290E+03  0.00000000000E+00 0.  1.
          2    1    6    6  502    0 -0.16717038633E+03  0.59388790954E+01 -0.11123161023E+03  0.20088225274E+03  0.00000000000E+00 0. -1.
          3    1    5    5  503    0 -0.11001113253E+03  0.17932102225E+03  0.46792859414E+03  0.51304546340E+03  0.00000000000E+00 0. -1.
         -4    1    5    5    0  503 -0.14152919884E+03  0.23534242173E+03  0.42117509398E+03  0.50279720502E+03  0.00000000000E+00 0.  1.
         -1    1    6    6    0  502 -0.10234289343E+03 -0.40842717204E+02 -0.22579321733E+02  0.11248120356E+03  0.00000000000E+00 0.  1.
<mgrwt>
<rscale>  0 0.19290891E+04</rscale>
<asrwt>0</asrwt>
<pdfrwt beam="1">  1        2 0.19766777E+00 0.19290891E+04</pdfrwt>
<pdfrwt beam="2">  1       -2 0.11139918E+00 0.19290891E+04</pdfrwt>
<totfact> 0.10046993E+01</totfact>
</mgrwt>
</event>
<event>
12    1  0.1477245E-007  0.1376545E+04  0.7818608E-02  0.8970974E-01
         -1   -1    0    0    0  501 -0.00000000000E+00  0.00000000000E+00  0.95679103432E+03  0.95679103432E+03  0.00000000000E+00 0.  1.
          1   -1    0    0  501    0  0.00000000000E+00 -0.00000000000E+00 -0.49511226693E+03  0.49511226693E+03  0.00000000000E+00 0. -1.
         23    2    1    2    0    0 -0.43838944709E+02  0.30747032258E+03  0.36875344297E+03  0.49058002745E+03  0.90718296332E+02 0.  0.
        254    2    1    2    0    0  0.43838944709E+02 -0.30747032258E+03  0.92925324415E+02  0.96132327381E+03  0.90501241346E+03 0.  0.
        -24    2    4    4    0    0  0.42653234726E+03 -0.31227203873E+03 -0.67513641943E+02  0.53881255795E+03  0.79480886588E+02 0.  0.
         24    2    4    4    0    0 -0.38269340255E+03  0.48017161505E+01  0.16043896636E+03  0.42251071586E+03  0.79355820553E+02 0.  0.
         11    1    3    3    0    0 -0.50011305496E+02  0.22399183118E+03  0.31973089125E+03  0.39357504231E+03  0.00000000000E+00 0.  1.
        -11    1    3    3    0    0  0.61723607870E+01  0.83478491399E+02  0.49022551723E+02  0.97004985137E+02  0.00000000000E+00 0. -1.
          4    1    6    6  502    0 -0.35787481425E+03  0.20428206665E+02  0.16150960215E+03  0.39316287451E+03  0.00000000000E+00 0. -1.
          3    1    5    5  503    0  0.39100716697E+03 -0.26732528870E+03 -0.40241806147E+02  0.47536177545E+03  0.00000000000E+00 0. -1.
         -4    1    5    5    0  503  0.35525180291E+02 -0.44946750023E+02 -0.27271835795E+02  0.63450782501E+02  0.00000000000E+00 0.  1.
         -3    1    6    6    0  502 -0.24818588295E+02 -0.15626490515E+02 -0.10706357950E+01  0.29347841348E+02  0.00000000000E+00 0.  1.
<mgrwt>
<rscale>  0 0.13765449E+04</rscale>
<asrwt>0</asrwt>
<pdfrwt beam="1">  1        1 0.76171118E-01 0.13765449E+04</pdfrwt>
<pdfrwt beam="2">  1       -1 0.14719862E+00 0.13765449E+04</pdfrwt>
<totfact> 0.16110164E+01</totfact>
</mgrwt>
</event>
<event>
12    1  0.1477245E-007  0.2326939E+04  0.7818608E-02  0.8467374E-01
         -2   -1    0    0    0  501 -0.00000000000E+00  0.00000000000E+00  0.66589052556E+03  0.66589052556E+03  0.00000000000E+00 0.  1.
          2   -1    0    0  501    0  0.00000000000E+00 -0.00000000000E+00 -0.20328593785E+04  0.20328593785E+04  0.00000000000E+00 0. -1.
         23    2    1    2    0    0  0.23780137062E+03  0.57273146431E+02 -0.17203063916E+04  0.17400641961E+04  0.92410067043E+02 0.  0.
        254    2    1    2    0    0 -0.23780137062E+03 -0.57273146431E+02  0.35333753863E+03  0.95868570796E+03  0.85697209130E+03 0.  0.
        -24    2    4    4    0    0 -0.52882773260E+03 -0.15630370403E+03  0.31204005990E+03  0.63842627258E+03  0.78291045964E+02 0.  0.
         24    2    4    4    0    0  0.29102636198E+03  0.99030557597E+02  0.41297478734E+02  0.32025943538E+03  0.79732236261E+02 0.  0.
         11    1    3    3    0    0  0.82457255986E+02  0.79927919150E+01 -0.33005696972E+03  0.34029500003E+03  0.00000000000E+00 0.  1.
        -11    1    3    3    0    0  0.15534411464E+03  0.49280354516E+02 -0.13902494219E+04  0.13997691961E+04  0.00000000000E+00 0. -1.
          2    1    6    6  502    0  0.27972550989E+03  0.79966517725E+02  0.23578822645E+02  0.29188519270E+03  0.00000000000E+00 0. -1.
          3    1    5    5  503    0 -0.26189581512E+03 -0.11098038373E+03  0.13434333938E+03  0.31456985931E+03  0.00000000000E+00 0. -1.
         -4    1    5    5    0  503 -0.26693191748E+03 -0.45323320295E+02  0.17769672052E+03  0.32385641327E+03  0.00000000000E+00 0.  1.
         -1    1    6    6    0  502  0.11300852082E+02  0.19064039872E+02  0.17718656089E+02  0.28374242680E+02  0.00000000000E+00 0.  1.
<mgrwt>
<rscale>  0 0.23269394E+04</rscale>
<asrwt>0</asrwt>
<pdfrwt beam="1">  1        2 0.31274759E+00 0.23269394E+04</pdfrwt>
<pdfrwt beam="2">  1       -2 0.10244470E+00 0.23269394E+04</pdfrwt>
<totfact> 0.45182591E+00</totfact>
</mgrwt>
</event>
<event>
12    1  0.1477245E-007  0.2385899E+04  0.7818608E-02  0.8444802E-01
         -1   -1    0    0    0  501 -0.00000000000E+00  0.00000000000E+00  0.39614558785E+03  0.39614558785E+03  0.00000000000E+00 0.  1.
          1   -1    0    0  501    0  0.00000000000E+00 -0.00000000000E+00 -0.35924395270E+04  0.35924395270E+04  0.00000000000E+00 0. -1.
         23    2    1    2    0    0  0.17727679024E+03 -0.95342213425E+03 -0.85442829356E+03  0.12956159037E+04  0.90177794671E+02 0.  0.
        254    2    1    2    0    0 -0.17727679024E+03  0.95342213425E+03 -0.23418656456E+04  0.26929692112E+04  0.90956453524E+03 0.  0.
        -24    2    4    4    0    0 -0.21986796334E+03  0.31222031371E+03 -0.16823894233E+03  0.42490765273E+03  0.80116952257E+02 0.  0.
         24    2    4    4    0    0  0.42591173105E+02  0.64120182054E+03 -0.21736267033E+04  0.22680615584E+04  0.80600278657E+02 0.  0.
         13    1    3    3    0    0  0.54825769673E+02 -0.29185112720E+03 -0.31838735098E+03  0.43537736590E+03  0.00000000000E+00 0. -1.
        -13    1    3    3    0    0  0.12245102056E+03 -0.66157100705E+03 -0.53604094257E+03  0.86023853780E+03  0.00000000000E+00 0.  1.
          4    1    6    6  502    0  0.22476785785E+02  0.14988128016E+03 -0.40802299219E+03  0.43526126200E+03  0.00000000000E+00 0. -1.
          1    1    5    5  503    0  0.63058212855E+01  0.17956713532E+02 -0.75717075539E+01  0.20482619418E+02  0.00000000000E+00 0. -1.
         -2    1    5    5    0  503 -0.22617378463E+03  0.29426360018E+03 -0.16066723477E+03  0.40442503332E+03  0.00000000000E+00 0.  1.
         -3    1    6    6    0  502  0.20114387321E+02  0.49132054038E+03 -0.17656037111E+04  0.18328002964E+04  0.00000000000E+00 0.  1.
<mgrwt>
<rscale>  0 0.23858995E+04</rscale>
<asrwt>0</asrwt>
<pdfrwt beam="1">  1        1 0.55268299E+00 0.23858995E+04</pdfrwt>
<pdfrwt beam="2">  1       -1 0.60945477E-01 0.23858995E+04</pdfrwt>
<totfact> 0.51774324E-01</totfact>
</mgrwt>
</event>
<event>
12    1  0.1477245E-007  0.2458371E+04  0.7818608E-02  0.8417968E-01
         -2   -1    0    0    0  501 -0.00000000000E+00  0.00000000000E+00  0.96335650838E+03  0.96335650838E+03  0.00000000000E+00 0.  1.
          2   -1    0    0  501    0  0.00000000000E+00 -0.00000000000E+00 -0.15683680311E+04  0.15683680311E+04  0.00000000000E+00 0. -1.
         23    2    1    2    0    0 -0.10167362539E+04 -0.26624768596E+03 -0.37906463962E+03  0.11208921814E+04  0.89826728594E+02 0.  0.
        254    2    1    2    0    0  0.10167362539E+04  0.26624768596E+03 -0.22594688310E+03  0.14108323581E+04  0.91364955449E+03 0.  0.
        -24    2    4    4    0    0 -0.84727041120E+02  0.18665334971E+03  0.11962195153E+03  0.25089964847E+03  0.81382294497E+02 0.  0.
         24    2    4    4    0    0  0.11014632950E+04  0.79594336251E+02 -0.34556883463E+03  0.11599327096E+04  0.80432722180E+02 0.  0.
         13    1    3    3    0    0 -0.71173503875E+03 -0.14764113706E+03 -0.24223124688E+03  0.76618577885E+03  0.00000000000E+00 0. -1.
        -13    1    3    3    0    0 -0.30500121510E+03 -0.11860654891E+03 -0.13683339274E+03  0.35470640257E+03  0.00000000000E+00 0.  1.
          2    1    6    6  502    0  0.10843852924E+04  0.69210143342E+02 -0.34458531505E+03  0.11399212892E+04  0.00000000000E+00 0. -1.
          1    1    5    5  503    0 -0.81749434364E+02  0.19416695242E+03  0.10800106162E+03  0.23674459813E+03  0.00000000000E+00 0. -1.
         -2    1    5    5    0  503 -0.29776067557E+01 -0.75136027115E+01  0.11620889918E+02  0.14155050342E+02  0.00000000000E+00 0.  1.
         -1    1    6    6    0  502  0.17078002602E+02  0.10384192909E+02 -0.98351958755E+00  0.20011420390E+02  0.00000000000E+00 0.  1.
<mgrwt>
<rscale>  0 0.24583715E+04</rscale>
<asrwt>0</asrwt>
<pdfrwt beam="1">  1        2 0.24128739E+00 0.24583715E+04</pdfrwt>
<pdfrwt beam="2">  1       -2 0.14820870E+00 0.24583715E+04</pdfrwt>
<totfact> 0.32161772E+00</totfact>
</mgrwt>
</event>
<event>
12    1  0.1477245E-007  0.2203561E+04  0.7818608E-02  0.8516948E-01
          1   -1    0    0  501    0  0.00000000000E+00  0.00000000000E+00  0.20521449915E+04  0.20521449915E+04  0.00000000000E+00 0. -1.
         -1   -1    0    0    0  501 -0.00000000000E+00 -0.00000000000E+00 -0.59153712690E+03  0.59153712690E+03  0.00000000000E+00 0.  1.
         23    2    1    2    0    0 -0.68086761786E+02  0.89118799633E+03  0.87616916708E+03  0.12548219268E+04  0.89743003677E+02 0.  0.
        254    2    1    2    0    0  0.68086761786E+02 -0.89118799633E+03  0.58443869751E+03  0.13888601916E+04  0.88798208803E+03 0.  0.
        -24    2    4    4    0    0 -0.13694997094E+03 -0.81463598293E+02  0.51810671198E+03  0.54774592840E+03  0.78736425442E+02 0.  0.
         24    2    4    4    0    0  0.20503673272E+03 -0.80972439804E+03  0.66331985530E+02  0.84111426318E+03  0.73345817042E+02 0.  0.
         11    1    3    3    0    0  0.23722777410E+00  0.47699705721E+02  0.78684273070E+02  0.92013765445E+02  0.00000000000E+00 0.  1.
        -11    1    3    3    0    0 -0.68323989560E+02  0.84348829061E+03  0.79748489401E+03  0.11628081614E+04  0.00000000000E+00 0. -1.
          2    1    6    6  502    0  0.19294167581E+03 -0.66377081300E+03  0.40760142901E+02  0.69244463440E+03  0.00000000000E+00 0. -1.
          3    1    5    5  503    0 -0.72176491488E+02 -0.31306619853E+02  0.37210294893E+03  0.38032900885E+03  0.00000000000E+00 0. -1.
         -4    1    5    5    0  503 -0.64773479449E+02 -0.50156978440E+02  0.14600376305E+03  0.16741691954E+03  0.00000000000E+00 0.  1.
         -1    1    6    6    0  502  0.12095056910E+02 -0.14595358504E+03  0.25571842629E+02  0.14866962878E+03  0.00000000000E+00 0.  1.
<mgrwt>
<rscale>  0 0.22035607E+04</rscale>
<asrwt>0</asrwt>
<pdfrwt beam="1">  1        1 0.31571461E+00 0.22035607E+04</pdfrwt>
<pdfrwt beam="2">  1       -1 0.91005713E-01 0.22035607E+04</pdfrwt>
<totfact> 0.29499562E+00</totfact>
</mgrwt>
</event>
<event>
12    1  0.1477245E-007  0.2136918E+04  0.7818608E-02  0.8545153E-01
          2   -1    0    0  501    0  0.00000000000E+00  0.00000000000E+00  0.31278952302E+04  0.31278952302E+04  0.00000000000E+00 0. -1.
         -2   -1    0    0    0  501 -0.00000000000E+00 -0.00000000000E+00 -0.36497521896E+03  0.36497521896E+03  0.00000000000E+00 0.  1.
         23    2    1    2    0    0  0.46372933936E+02 -0.37648934176E+03 -0.15196105026E+03  0.41883863321E+03  0.91863847151E+02 0.  0.
        254    2    1    2    0    0 -0.46372933936E+02  0.37648934176E+03  0.29148810615E+04  0.30740318160E+04  0.89958064080E+03 0.  0.
        -24    2    4    4    0    0  0.37074816799E+03  0.19576134647E+03  0.77269768875E+03  0.88270793785E+03  0.79591937463E+02 0.  0.
         24    2    4    4    0    0 -0.41712110193E+03  0.18072799529E+03  0.21421833728E+04  0.21913238781E+04  0.79360659443E+02 0.  0.
         11    1    3    3    0    0 -0.10774357849E+02 -0.14672461778E+02  0.70380744622E+01  0.19516721390E+02  0.00000000000E+00 0. -1.
        -11    1    3    3    0    0  0.57147291784E+02 -0.36181687998E+03 -0.15899912472E+03  0.39932191182E+03  0.00000000000E+00 0.  1.
          2    1    6    6  502    0 -0.35965798891E+03  0.12666527104E+03  0.17100399548E+04  0.17520372732E+04  0.00000000000E+00 0. -1.
          3    1    5    5  503    0  0.25471955918E+03  0.15682614168E+03  0.60710903669E+03  0.67679973033E+03  0.00000000000E+00 0. -1.
         -4    1    5    5    0  503  0.11602860881E+03  0.38935204785E+02  0.16558865206E+03  0.20590820752E+03  0.00000000000E+00 0.  1.
         -1    1    6    6    0  502 -0.57463113018E+02  0.54062724252E+02  0.43214341799E+03  0.43928660487E+03  0.00000000000E+00 0.  1.
<mgrwt>
<rscale>  0 0.21369176E+04</rscale>
<asrwt>0</asrwt>
<pdfrwt beam="1">  1        2 0.48121463E+00 0.21369176E+04</pdfrwt>
<pdfrwt beam="2">  1       -2 0.56150036E-01 0.21369176E+04</pdfrwt>
<totfact> 0.39590902E+00</totfact>
</mgrwt>
</event>
<event>
12    1  0.1477245E-007  0.3391331E+04  0.7818608E-02  0.8140037E-01
          2   -1    0    0  501    0  0.00000000000E+00  0.00000000000E+00  0.33695731945E+04  0.33695731945E+04  0.00000000000E+00 0. -1.
         -2   -1    0    0    0  501 -0.00000000000E+00 -0.00000000000E+00 -0.85330742073E+03  0.85330742073E+03  0.00000000000E+00 0.  1.
         23    2    1    2    0    0  0.77560966722E+03  0.42824363254E+03  0.27788170966E+04  0.29181290051E+04  0.93217324069E+02 0.  0.
        254    2    1    2    0    0 -0.77560966722E+03 -0.42824363254E+03 -0.26255132282E+03  0.13047516101E+04  0.92113006805E+03 0.  0.
        -24    2    4    4    0    0  0.15521655069E+03 -0.80119365756E+02  0.12881842113E+03  0.23373483978E+03  0.86755399413E+02 0.  0.
         24    2    4    4    0    0 -0.93082621792E+03 -0.34812426678E+03 -0.39136974394E+03  0.10710167703E+04  0.79238202732E+02 0.  0.
         11    1    3    3    0    0  0.69267177150E+03  0.37598092856E+03  0.25547317895E+04  0.26735389202E+04  0.00000000000E+00 0. -1.
        -11    1    3    3    0    0  0.82937895725E+02  0.52262703980E+02  0.22408530709E+03  0.24459008490E+03  0.00000000000E+00 0.  1.
          2    1    6    6  502    0 -0.35613128281E+03 -0.94927036071E+02 -0.13043708683E+03  0.39096606808E+03  0.00000000000E+00 0. -1.
          3    1    5    5  503    0  0.10282141516E+03 -0.92738739319E+02  0.74578314503E+02  0.15727250929E+03  0.00000000000E+00 0. -1.
         -4    1    5    5    0  503  0.52395135534E+02  0.12619373562E+02  0.54240106624E+02  0.76462330486E+02  0.00000000000E+00 0.  1.
         -1    1    6    6    0  502 -0.57469493511E+03 -0.25319723071E+03 -0.26093265712E+03  0.68005070225E+03  0.00000000000E+00 0.  1.
<mgrwt>
<rscale>  0 0.33913312E+04</rscale>
<asrwt>0</asrwt>
<pdfrwt beam="1">  1        2 0.51839587E+00 0.33913312E+04</pdfrwt>
<pdfrwt beam="2">  1       -2 0.13127807E+00 0.33913312E+04</pdfrwt>
<totfact> 0.35075964E-01</totfact>
</mgrwt>
</event>
<event>
12    1  0.1477245E-007  0.1191777E+04  0.7818608E-02  0.9120085E-01
         -1   -1    0    0    0  501 -0.00000000000E+00  0.00000000000E+00  0.92580828163E+03  0.92580828163E+03  0.00000000000E+00 0.  1.
          1   -1    0    0  501    0  0.00000000000E+00 -0.00000000000E+00 -0.38353837321E+03  0.38353837321E+03  0.00000000000E+00 0. -1.
         23    2    1    2    0    0 -0.89923059312E+02 -0.28480068627E+02  0.36356090811E+03  0.38678298698E+03  0.92343241271E+02 0.  0.
        254    2    1    2    0    0  0.89923059312E+02  0.28480068627E+02  0.17870900031E+03  0.92256366785E+03  0.90016084315E+03 0.  0.
        -24    2    4    4    0    0  0.35071641125E+03 -0.21548585133E+03 -0.13538260162E+03  0.44024827518E+03  0.77807080231E+02 0.  0.
         24    2    4    4    0    0 -0.26079335194E+03  0.24396591995E+03  0.31409160193E+03  0.48231539267E+03  0.80262451319E+02 0.  0.
         13    1    3    3    0    0 -0.35537670907E+02 -0.49382840283E+02  0.10162297779E+03  0.11844332224E+03  0.00000000000E+00 0.  1.
        -13    1    3    3    0    0 -0.54385388405E+02  0.20902771656E+02  0.26193793032E+03  0.26833966474E+03  0.00000000000E+00 0. -1.
          4    1    6    6  502    0 -0.12587104020E+03  0.64462764160E+02  0.11743350060E+03  0.18381945976E+03  0.00000000000E+00 0. -1.
          3    1    5    5  503    0  0.63206933331E+01 -0.13366507152E+02  0.69206072618E+01  0.16325118147E+02  0.00000000000E+00 0. -1.
         -4    1    5    5    0  503  0.34439571792E+03 -0.20211934418E+03 -0.14230320888E+03  0.42392315703E+03  0.00000000000E+00 0.  1.
         -3    1    6    6    0  502 -0.13492231174E+03  0.17950315580E+03  0.19665810133E+03  0.29849593291E+03  0.00000000000E+00 0.  1.
<mgrwt>
<rscale>  0 0.11917768E+04</rscale>
<asrwt>0</asrwt>
<pdfrwt beam="1">  1        1 0.59005904E-01 0.11917768E+04</pdfrwt>
<pdfrwt beam="2">  1       -1 0.14243204E+00 0.11917768E+04</pdfrwt>
<totfact> 0.25175257E+01</totfact>
</mgrwt>
</event>
<event>
12    1  0.1477245E-007  0.1231247E+04  0.7818608E-02  0.9085937E-01
          1   -1    0    0  501    0  0.00000000000E+00  0.00000000000E+00  0.11007761068E+04  0.11007761068E+04  0.00000000000E+00 0. -1.
         -1   -1    0    0    0  501 -0.00000000000E+00 -0.00000000000E+00 -0.34429569417E+03  0.34429569417E+03  0.00000000000E+00 0.  1.
         23    2    1    2    0    0  0.47307820522E+02 -0.23409303150E+03  0.32307996338E+02  0.25781241034E+03  0.91574314192E+02 0.  0.
        254    2    1    2    0    0 -0.47307820522E+02  0.23409303150E+03  0.72417241633E+03  0.11872593907E+04  0.91001186524E+03 0.  0.
        -24    2    4    4    0    0 -0.20060222892E+03  0.26264322437E+03 -0.92288780860E+02  0.35211447753E+03  0.79023215981E+02 0.  0.
         24    2    4    4    0    0  0.15329440839E+03 -0.28550192872E+02  0.81646119719E+03  0.83514491314E+03  0.80894068165E+02 0.  0.
         13    1    3    3    0    0  0.11431099500E+02  0.45256422731E+01  0.93033404702E+01  0.15417639821E+02  0.00000000000E+00 0. -1.
        -13    1    3    3    0    0  0.35876721022E+02 -0.23861867377E+03  0.23004655868E+02  0.24239477052E+03  0.00000000000E+00 0.  1.
          4    1    6    6  502    0  0.14213688164E+01  0.16634565280E+02  0.60853486937E+02  0.63102107127E+02  0.00000000000E+00 0. -1.
          1    1    5    5  503    0 -0.74187851898E+02  0.12131755432E+03 -0.22805895853E+01  0.14222161385E+03  0.00000000000E+00 0. -1.
         -2    1    5    5    0  503 -0.12641437702E+03  0.14132567005E+03 -0.90008191275E+02  0.20989286369E+03  0.00000000000E+00 0.  1.
         -3    1    6    6    0  502  0.15187303958E+03 -0.45184758152E+02  0.75560771025E+03  0.77204280601E+03  0.00000000000E+00 0.  1.
<mgrwt>
<rscale>  0 0.12312473E+04</rscale>
<asrwt>0</asrwt>
<pdfrwt beam="1">  1        1 0.16935017E+00 0.12312473E+04</pdfrwt>
<pdfrwt beam="2">  1       -1 0.52968569E-01 0.12312473E+04</pdfrwt>
<totfact> 0.44923846E+01</totfact>
</mgrwt>
</event>
<event>
12    1  0.1477245E-007  0.1297398E+04  0.7818608E-02  0.9031631E-01
         -2   -1    0    0    0  501 -0.00000000000E+00  0.00000000000E+00  0.78484247786E+03  0.78484247786E+03  0.00000000000E+00 0. -1.
          2   -1    0    0  501    0  0.00000000000E+00 -0.00000000000E+00 -0.53617139494E+03  0.53617139494E+03  0.00000000000E+00 0.  1.
         23    2    1    2    0    0  0.63450529593E+02  0.27621407650E+03  0.23055185165E+03  0.37767400929E+03  0.95725206874E+02 0.  0.
        254    2    1    2    0    0 -0.63450529593E+02 -0.27621407650E+03  0.18119231275E+02  0.94333986351E+03  0.89957857121E+03 0.  0.
        -24    2    4    4    0    0 -0.25520748028E+02  0.23077712228E+03  0.27541721771E+03  0.36890033273E+03  0.79519953061E+02 0.  0.
         24    2    4    4    0    0 -0.37929781565E+02 -0.50699119878E+03 -0.25729798643E+03  0.57443953078E+03  0.72799565465E+02 0.  0.
         11    1    3    3    0    0  0.31352370326E+02  0.98577256432E+02  0.14447202634E+03  0.17768683971E+03  0.00000000000E+00 0. -1.
        -11    1    3    3    0    0  0.32098159267E+02  0.17763682007E+03  0.86079825313E+02  0.19998716958E+03  0.00000000000E+00 0.  1.
          2    1    6    6  502    0  0.17238099521E+02 -0.25725713898E+03 -0.13040471698E+03  0.28893559462E+03  0.00000000000E+00 0. -1.
          3    1    5    5  503    0 -0.46744394995E+01  0.95415932489E+02  0.57443220388E+02  0.11147095642E+03  0.00000000000E+00 0. -1.
         -2    1    5    5    0  503 -0.20846308529E+02  0.13536118979E+03  0.21797399732E+03  0.25742937631E+03  0.00000000000E+00 0.  1.
         -1    1    6    6    0  502 -0.55167881086E+02 -0.24973405980E+03 -0.12689326945E+03  0.28550393616E+03  0.00000000000E+00 0.  1.
<mgrwt>
<rscale>  0 0.12973975E+04</rscale>
<asrwt>0</asrwt>
<pdfrwt beam="1">  1        2 0.82487907E-01 0.12973975E+04</pdfrwt>
<pdfrwt beam="2">  1       -2 0.12074500E+00 0.12973975E+04</pdfrwt>
<totfact> 0.29075474E+01</totfact>
</mgrwt>
</event>
<event>
12    1  0.1477245E-007  0.1440360E+04  0.7818608E-02  0.8925111E-01
         -2   -1    0    0    0  501 -0.00000000000E+00  0.00000000000E+00  0.33830610246E+03  0.33830610246E+03  0.00000000000E+00 0. -1.
          2   -1    0    0  501    0  0.00000000000E+00 -0.00000000000E+00 -0.15331063632E+04  0.15331063632E+04  0.00000000000E+00 0.  1.
         23    2    1    2    0    0 -0.30453291996E+02 -0.30111778750E+03 -0.73125724333E+03  0.79689225361E+03  0.93277987726E+02 0.  0.
        254    2    1    2    0    0  0.30453291996E+02  0.30111778750E+03 -0.46354301739E+03  0.10745202120E+04  0.92093552009E+03 0.  0.
        -24    2    4    4    0    0 -0.86350643816E+01  0.62017199557E+03 -0.22098263916E+03  0.66437425601E+03  0.88724048627E+02 0.  0.
         24    2    4    4    0    0  0.39088356377E+02 -0.31905420807E+03 -0.24256037823E+03  0.41014595603E+03  0.77850374892E+02 0.  0.
         11    1    3    3    0    0 -0.48539729953E+02 -0.11282321729E+03 -0.22317547988E+03  0.25474002151E+03  0.00000000000E+00 0. -1.
        -11    1    3    3    0    0  0.18086437957E+02 -0.18829457021E+03 -0.50808176346E+03  0.54215223210E+03  0.00000000000E+00 0.  1.
          2    1    6    6  502    0 -0.19588879687E+01 -0.23726983535E+03 -0.19436787227E+03  0.30672411347E+03  0.00000000000E+00 0. -1.
          1    1    5    5  503    0 -0.25485408595E+02  0.58550636956E+03 -0.19404373126E+03  0.61734932129E+03  0.00000000000E+00 0. -1.
         -2    1    5    5    0  503  0.16850344214E+02  0.34665626007E+02 -0.26938907896E+02  0.47024934718E+02  0.00000000000E+00 0.  1.
         -1    1    6    6    0  502  0.41047244346E+02 -0.81784372718E+02 -0.48192505961E+02  0.10342184257E+03  0.00000000000E+00 0.  1.
<mgrwt>
<rscale>  0 0.14403600E+04</rscale>
<asrwt>0</asrwt>
<pdfrwt beam="1">  1        2 0.23586251E+00 0.14403600E+04</pdfrwt>
<pdfrwt beam="2">  1       -2 0.52047093E-01 0.14403600E+04</pdfrwt>
<totfact> 0.41119014E+01</totfact>
</mgrwt>
</event>
<event>
12    1  0.1477245E-007  0.1543498E+04  0.7818608E-02  0.8856032E-01
          1   -1    0    0  501    0  0.00000000000E+00  0.00000000000E+00  0.72802721149E+03  0.72802721149E+03  0.00000000000E+00 0. -1.
         -1   -1    0    0    0  501 -0.00000000000E+00 -0.00000000000E+00 -0.81809634793E+03  0.81809634793E+03  0.00000000000E+00 0.  1.
         23    2    1    2    0    0 -0.14215104956E+03  0.33900782027E+03 -0.37565477484E+03  0.53350750480E+03  0.91545205875E+02 0.  0.
        254    2    1    2    0    0  0.14215104956E+03 -0.33900782027E+03  0.28558563840E+03  0.10126160546E+04  0.89927687290E+03 0.  0.
        -24    2    4    4    0    0 -0.88436651019E+02  0.12680507990E+03 -0.22189223845E+03  0.28216668909E+03  0.80506555120E+02 0.  0.
         24    2    4    4    0    0  0.23058770058E+03 -0.46581290018E+03  0.50747787685E+03  0.73044936554E+03  0.76616802940E+02 0.  0.
         11    1    3    3    0    0 -0.25346827177E+02  0.13064216905E+03 -0.87724514751E+02  0.15939080422E+03  0.00000000000E+00 0. -1.
        -11    1    3    3    0    0 -0.11680422238E+03  0.20836565122E+03 -0.28793026009E+03  0.37411670058E+03  0.00000000000E+00 0.  1.
          4    1    6    6  502    0  0.21891548405E+03 -0.39750884056E+03  0.46180367800E+03  0.64745648850E+03  0.00000000000E+00 0. -1.
          3    1    5    5  503    0 -0.95287183389E+02  0.93590635097E+02 -0.20397035642E+03  0.24380886078E+03  0.00000000000E+00 0. -1.
         -4    1    5    5    0  503  0.68505323704E+01  0.33214444807E+02 -0.17921882030E+02  0.38357828316E+02  0.00000000000E+00 0.  1.
         -3    1    6    6    0  502  0.11672216525E+02 -0.68304059621E+02  0.45674198847E+02  0.82992877042E+02  0.00000000000E+00 0.  1.
<mgrwt>
<rscale>  0 0.15434978E+04</rscale>
<asrwt>0</asrwt>
<pdfrwt beam="1">  1        1 0.11200419E+00 0.15434978E+04</pdfrwt>
<pdfrwt beam="2">  1       -1 0.12586098E+00 0.15434978E+04</pdfrwt>
<totfact> 0.13606364E+01</totfact>
</mgrwt>
</event>
<event>
12    1  0.1477245E-007  0.2772176E+04  0.7818608E-02  0.8311959E-01
         -1   -1    0    0    0  501 -0.00000000000E+00  0.00000000000E+00  0.19048496910E+04  0.19048496910E+04  0.00000000000E+00 0.  1.
          1   -1    0    0  501    0  0.00000000000E+00 -0.00000000000E+00 -0.10086042645E+04  0.10086042645E+04  0.00000000000E+00 0. -1.
         23    2    1    2    0    0 -0.11748430446E+04  0.31002976717E+03  0.62673198777E+03  0.13704564986E+04  0.94780768343E+02 0.  0.
        254    2    1    2    0    0  0.11748430446E+04 -0.31002976717E+03  0.26951343873E+03  0.15429974568E+04  0.91204661175E+03 0.  0.
        -24    2    4    4    0    0  0.11384830305E+04 -0.10172911962E+03  0.47206278911E+03  0.12394774541E+04  0.83478487034E+02 0.  0.
         24    2    4    4    0    0  0.36360014162E+02 -0.20830064755E+03 -0.20254935038E+03  0.30352000275E+03  0.79918347907E+02 0.  0.
         13    1    3    3    0    0 -0.19816774345E+03  0.85582852520E+02  0.12982296396E+03  0.25189061349E+03  0.00000000000E+00 0. -1.
        -13    1    3    3    0    0 -0.97667530118E+03  0.22444691465E+03  0.49690902380E+03  0.11185658851E+04  0.00000000000E+00 0.  1.
          4    1    6    6  502    0  0.29072704056E+02 -0.60171709304E+02 -0.10998611094E+03  0.12869654743E+03  0.00000000000E+00 0. -1.
          3    1    5    5  503    0  0.11238010375E+04 -0.98120172571E+02  0.45421587461E+03  0.12160873328E+04  0.00000000000E+00 0. -1.
         -4    1    5    5    0  503  0.14681992934E+02 -0.36089470473E+01  0.17846914505E+02  0.23390121262E+02  0.00000000000E+00 0.  1.
         -3    1    6    6    0  502  0.72873101060E+01 -0.14812893824E+03 -0.92563239443E+02  0.17482345532E+03  0.00000000000E+00 0.  1.
<mgrwt>
<rscale>  0 0.27721757E+04</rscale>
<asrwt>0</asrwt>
<pdfrwt beam="1">  1        1 0.15516989E+00 0.27721757E+04</pdfrwt>
<pdfrwt beam="2">  1       -1 0.29305380E+00 0.27721757E+04</pdfrwt>
<totfact> 0.47358629E-01</totfact>
</mgrwt>
</event>
<event>
12    1  0.1477245E-007  0.1498470E+04  0.7818608E-02  0.8885471E-01
         -2   -1    0    0    0  501 -0.00000000000E+00  0.00000000000E+00  0.25002749715E+03  0.25002749715E+03  0.00000000000E+00 0.  1.
          2   -1    0    0  501    0  0.00000000000E+00 -0.00000000000E+00 -0.22451641267E+04  0.22451641267E+04  0.00000000000E+00 0. -1.
         23    2    1    2    0    0 -0.32767214935E+03  0.85635428278E+02 -0.87087961586E+02  0.36092141819E+03  0.89316812613E+02 0.  0.
        254    2    1    2    0    0  0.32767214935E+03 -0.85635428278E+02 -0.19080486680E+04  0.21342702057E+04  0.89429141080E+03 0.  0.
        -24    2    4    4    0    0 -0.56573664983E+02  0.35287270275E+03 -0.74114310460E+03  0.82730493454E+03  0.86143074530E+02 0.  0.
         24    2    4    4    0    0  0.38424581433E+03 -0.43850813103E+03 -0.11669055634E+04  0.13069652711E+04  0.80965420561E+02 0.  0.
         13    1    3    3    0    0 -0.37470588693E+02  0.37846966158E+01  0.17825967317E+02  0.41666942007E+02  0.00000000000E+00 0.  1.
        -13    1    3    3    0    0 -0.29020156066E+03  0.81850731662E+02 -0.10491392890E+03  0.31925447618E+03  0.00000000000E+00 0. -1.
          4    1    6    6  502    0  0.32989519941E+03 -0.34090606141E+03 -0.89375197388E+03  0.10118499771E+04  0.00000000000E+00 0. -1.
          3    1    5    5  503    0  0.20737633214E+02  0.12998460591E+03 -0.27322971381E+03  0.30328291036E+03  0.00000000000E+00 0. -1.
         -4    1    5    5    0  503 -0.77311298197E+02  0.22288809684E+03 -0.46791339079E+03  0.52402202418E+03  0.00000000000E+00 0.  1.
         -3    1    6    6    0  502  0.54350614922E+02 -0.97602069617E+02 -0.27315358949E+03  0.29511529406E+03  0.00000000000E+00 0.  1.
<mgrwt>
<rscale>  0 0.14984696E+04</rscale>
<asrwt>0</asrwt>
<pdfrwt beam="1">  1        2 0.34540987E+00 0.14984696E+04</pdfrwt>
<pdfrwt beam="2">  1       -2 0.38465768E-01 0.14984696E+04</pdfrwt>
<totfact> 0.30079056E+01</totfact>
</mgrwt>
</event>
<event>
12    1  0.1477245E-007  0.1851494E+04  0.7818608E-02  0.8679385E-01
          1   -1    0    0  501    0  0.00000000000E+00  0.00000000000E+00  0.13722112387E+04  0.13722112387E+04  0.00000000000E+00 0. -1.
         -1   -1    0    0    0  501 -0.00000000000E+00 -0.00000000000E+00 -0.62454456928E+03  0.62454456928E+03  0.00000000000E+00 0.  1.
         23    2    1    2    0    0  0.60837416512E+03 -0.21327559633E+03  0.58645207616E+03  0.87653958043E+03  0.93754966011E+02 0.  0.
        254    2    1    2    0    0 -0.60837416512E+03  0.21327559633E+03  0.16121459326E+03  0.11202162275E+04  0.90182517519E+03 0.  0.
        -24    2    4    4    0    0 -0.15157473131E+03 -0.34337203435E+03  0.37923882751E+02  0.38531377389E+03  0.78417028287E+02 0.  0.
         24    2    4    4    0    0 -0.45679943381E+03  0.55664763068E+03  0.12329071051E+03  0.73490245366E+03  0.79741517591E+02 0.  0.
         13    1    3    3    0    0  0.53596378879E+03 -0.18220703238E+03  0.55156556210E+03  0.79036773393E+03  0.00000000000E+00 0. -1.
        -13    1    3    3    0    0  0.72410376323E+02 -0.31068563954E+02  0.34886514064E+02  0.86171846498E+02  0.00000000000E+00 0.  1.
          4    1    6    6  502    0 -0.22184942169E+03  0.23220252794E+03  0.23074288681E+02  0.32197453733E+03  0.00000000000E+00 0. -1.
          3    1    5    5  503    0 -0.22852979969E+02 -0.10135306875E+03  0.39597155187E+02  0.11118740008E+03  0.00000000000E+00 0. -1.
         -4    1    5    5    0  503 -0.12872175134E+03 -0.24201896560E+03 -0.16732724362E+01  0.27412637381E+03  0.00000000000E+00 0.  1.
         -3    1    6    6    0  502 -0.23495001212E+03  0.32444510274E+03  0.10021642183E+03  0.41292791633E+03  0.00000000000E+00 0.  1.
<mgrwt>
<rscale>  0 0.18514935E+04</rscale>
<asrwt>0</asrwt>
<pdfrwt beam="1">  1        1 0.21110942E+00 0.18514935E+04</pdfrwt>
<pdfrwt beam="2">  1       -1 0.96083780E-01 0.18514935E+04</pdfrwt>
<totfact> 0.78811299E+00</totfact>
</mgrwt>
</event>
<event>
12    1  0.1477245E-007  0.1945561E+04  0.7818608E-02  0.8632504E-01
          1   -1    0    0  501    0  0.00000000000E+00  0.00000000000E+00  0.80091483267E+03  0.80091483267E+03  0.00000000000E+00 0. -1.
         -1   -1    0    0    0  501 -0.00000000000E+00 -0.00000000000E+00 -0.11815264177E+04  0.11815264177E+04  0.00000000000E+00 0.  1.
         23    2    1    2    0    0 -0.34973662279E+02 -0.26926341644E+03 -0.86919875994E+03  0.91593265021E+03  0.98489547469E+02 0.  0.
        254    2    1    2    0    0  0.34973662279E+02  0.26926341644E+03  0.48858717496E+03  0.10665086001E+04  0.90829357704E+03 0.  0.
        -24    2    4    4    0    0 -0.21615551526E+03 -0.21929089045E+03 -0.13525420961E+02  0.31837105423E+03  0.79784019370E+02 0.  0.
         24    2    4    4    0    0  0.25112917753E+03  0.48855430689E+03  0.50211259592E+03  0.74813754588E+03  0.76430059474E+02 0.  0.
         13    1    3    3    0    0 -0.58489362013E+02 -0.93889381527E+02 -0.37707228884E+03  0.39296276216E+03  0.00000000000E+00 0. -1.
        -13    1    3    3    0    0  0.23515699734E+02 -0.17537403491E+03 -0.49212647110E+03  0.52296988806E+03  0.00000000000E+00 0.  1.
          2    1    6    6  502    0  0.49310536586E+02  0.86772202538E+02  0.13378063512E+03  0.16690776640E+03  0.00000000000E+00 0. -1.
          1    1    5    5  503    0 -0.42556179439E+01  0.37401756439E+01  0.81940135163E+01  0.99619804977E+01  0.00000000000E+00 0. -1.
         -2    1    5    5    0  503 -0.21189989731E+03 -0.22303106609E+03 -0.21719434477E+02  0.30840907373E+03  0.00000000000E+00 0.  1.
         -1    1    6    6    0  502  0.20181864095E+03  0.40178210435E+03  0.36833196079E+03  0.58122977948E+03  0.00000000000E+00 0.  1.
<mgrwt>
<rscale>  0 0.19455611E+04</rscale>
<asrwt>0</asrwt>
<pdfrwt beam="1">  1        1 0.12321767E+00 0.19455611E+04</pdfrwt>
<pdfrwt beam="2">  1       -1 0.18177329E+00 0.19455611E+04</pdfrwt>
<totfact> 0.41565487E+00</totfact>
</mgrwt>
</event>
<event>
12    1  0.1477245E-007  0.1987948E+04  0.7818608E-02  0.8612276E-01
         -2   -1    0    0    0  501 -0.00000000000E+00  0.00000000000E+00  0.46121020730E+03  0.46121020730E+03  0.00000000000E+00 0.  1.
          2   -1    0    0  501    0  0.00000000000E+00 -0.00000000000E+00 -0.21421552877E+04  0.21421552877E+04  0.00000000000E+00 0. -1.
         23    2    1    2    0    0  0.58773035134E+03 -0.13761186983E+03 -0.13246233132E+04  0.14585508582E+04  0.91540654948E+02 0.  0.
        254    2    1    2    0    0 -0.58773035134E+03  0.13761186983E+03 -0.35632176726E+03  0.11448146368E+04  0.90513609933E+03 0.  0.
        -24    2    4    4    0    0  0.15921344972E+03  0.24058616132E+03 -0.22650643720E+03  0.37544721609E+03  0.80154989798E+02 0.  0.
         24    2    4    4    0    0 -0.74694380105E+03 -0.10297429149E+03 -0.12981533006E+03  0.76936742075E+03  0.80904026795E+02 0.  0.
         13    1    3    3    0    0  0.53582864000E+03 -0.13861834241E+03 -0.11479401742E+04  0.12743994742E+04  0.00000000000E+00 0. -1.
        -13    1    3    3    0    0  0.51901711340E+02  0.10064725834E+01 -0.17668313895E+03  0.18415138397E+03  0.00000000000E+00 0.  1.
          4    1    6    6  502    0 -0.14701708489E+02 -0.74345304320E+01  0.77633861282E+01  0.18212156364E+02  0.00000000000E+00 0. -1.
          1    1    5    5  503    0  0.55739213764E+02  0.54733129397E+02 -0.23926741655E+02  0.81701067134E+02  0.00000000000E+00 0. -1.
         -2    1    5    5    0  503  0.10347423595E+03  0.18585303192E+03 -0.20257969555E+03  0.29374614896E+03  0.00000000000E+00 0.  1.
         -3    1    6    6    0  502 -0.73224209256E+03 -0.95539761058E+02 -0.13757871619E+03  0.75115526439E+03  0.00000000000E+00 0.  1.
<mgrwt>
<rscale>  0 0.19879476E+04</rscale>
<asrwt>0</asrwt>
<pdfrwt beam="1">  1        2 0.32956236E+00 0.19879476E+04</pdfrwt>
<pdfrwt beam="2">  1       -2 0.70955415E-01 0.19879476E+04</pdfrwt>
<totfact> 0.93389327E+00</totfact>
</mgrwt>
</event>
<event>
12    1  0.1477245E-007  0.1614592E+04  0.7818608E-02  0.8811634E-01
          1   -1    0    0  501    0  0.00000000000E+00  0.00000000000E+00  0.80322436771E+03  0.80322436771E+03  0.00000000000E+00 0. -1.
         -1   -1    0    0    0  501 -0.00000000000E+00 -0.00000000000E+00 -0.81138792923E+03  0.81138792923E+03  0.00000000000E+00 0.  1.
         23    2    1    2    0    0 -0.91232709016E+02  0.28411486959E+02 -0.53915461117E+03  0.55505433351E+03  0.90923036781E+02 0.  0.
        254    2    1    2    0    0  0.91232709016E+02 -0.28411486959E+02  0.53099104966E+03  0.10595579634E+04  0.91191061144E+03 0.  0.
        -24    2    4    4    0    0 -0.23305946366E+03  0.26590882984E+03  0.49425474617E+03  0.61300213472E+03  0.80371908511E+02 0.  0.
         24    2    4    4    0    0  0.32429217268E+03 -0.29432031680E+03  0.36736303494E+02  0.44655582870E+03  0.79200315724E+02 0.  0.
         13    1    3    3    0    0 -0.99049422573E+02  0.34360632429E+02 -0.53353367956E+03  0.54373672711E+03  0.00000000000E+00 0.  1.
        -13    1    3    3    0    0  0.78167135571E+01 -0.59491454702E+01 -0.56209316069E+01  0.11317606407E+02  0.00000000000E+00 0. -1.
          2    1    6    6  502    0  0.13554096475E+03 -0.16765354191E+03 -0.39680215920E+01  0.21562654854E+03  0.00000000000E+00 0. -1.
          3    1    5    5  503    0 -0.27857495222E+02  0.61925605196E+02  0.14004248225E+03  0.15563649140E+03  0.00000000000E+00 0. -1.
         -4    1    5    5    0  503 -0.20520196844E+03  0.20398322465E+03  0.35421226391E+03  0.45736564333E+03  0.00000000000E+00 0.  1.
         -3    1    6    6    0  502  0.18875120792E+03 -0.12666677490E+03  0.40704325086E+02  0.23092928016E+03  0.00000000000E+00 0.  1.
<mgrwt>
<rscale>  0 0.16145917E+04</rscale>
<asrwt>0</asrwt>
<pdfrwt beam="1">  1        1 0.12357298E+00 0.16145917E+04</pdfrwt>
<pdfrwt beam="2">  1       -1 0.12482891E+00 0.16145917E+04</pdfrwt>
<totfact> 0.11824708E+01</totfact>
</mgrwt>
</event>
<event>
12    1  0.1477245E-007  0.1635615E+04  0.7818608E-02  0.8798962E-01
          1   -1    0    0  501    0  0.00000000000E+00  0.00000000000E+00  0.74350835178E+03  0.74350835178E+03  0.00000000000E+00 0. -1.
         -1   -1    0    0    0  501 -0.00000000000E+00 -0.00000000000E+00 -0.89953162017E+03  0.89953162017E+03  0.00000000000E+00 0.  1.
         23    2    1    2    0    0 -0.11983019347E+03  0.51566973517E+03  0.14121127824E+03  0.55537647207E+03  0.90707494667E+02 0.  0.
        254    2    1    2    0    0  0.11983019347E+03 -0.51566973517E+03 -0.29723454663E+03  0.10876634999E+04  0.90243501829E+03 0.  0.
        -24    2    4    4    0    0 -0.37913932025E+03 -0.19057243309E+03 -0.21085490193E+03  0.48055663841E+03  0.80065077490E+02 0.  0.
         24    2    4    4    0    0  0.49896951372E+03 -0.32509730207E+03 -0.86379644701E+02  0.60710686148E+03  0.80364586693E+02 0.  0.
         13    1    3    3    0    0  0.80367496710E+00  0.21049078440E+02  0.25860082223E+02  0.33353462327E+02  0.00000000000E+00 0.  1.
        -13    1    3    3    0    0 -0.12063386843E+03  0.49462065673E+03  0.11535119602E+03  0.52202300974E+03  0.00000000000E+00 0. -1.
          2    1    6    6  502    0  0.32088486701E+02 -0.48466611577E+02 -0.47369348001E+01  0.58319138949E+02  0.00000000000E+00 0. -1.
          1    1    5    5  503    0 -0.11949583396E+03 -0.75875309476E+02 -0.11020273650E+03  0.17939052387E+03  0.00000000000E+00 0. -1.
         -2    1    5    5    0  503 -0.25964348630E+03 -0.11469712362E+03 -0.10065216543E+03  0.30116611454E+03  0.00000000000E+00 0.  1.
         -1    1    6    6    0  502  0.46688102702E+03 -0.27663069050E+03 -0.81642709901E+02  0.54878772253E+03  0.00000000000E+00 0.  1.
<mgrwt>
<rscale>  0 0.16356152E+04</rscale>
<asrwt>0</asrwt>
<pdfrwt beam="1">  1        1 0.11438590E+00 0.16356152E+04</pdfrwt>
<pdfrwt beam="2">  1       -1 0.13838948E+00 0.16356152E+04</pdfrwt>
<totfact> 0.10263396E+01</totfact>
</mgrwt>
</event>
<event>
12    1  0.1477245E-007  0.1610301E+04  0.7818608E-02  0.8814245E-01
         -1   -1    0    0    0  501 -0.00000000000E+00  0.00000000000E+00  0.26705173747E+03  0.26705173747E+03  0.00000000000E+00 0.  1.
          1   -1    0    0  501    0  0.00000000000E+00 -0.00000000000E+00 -0.24274958658E+04  0.24274958658E+04  0.00000000000E+00 0. -1.
         23    2    1    2    0    0  0.25851017473E+03  0.30656643279E+02 -0.15368715876E+04  0.15614666404E+04  0.91850160875E+02 0.  0.
        254    2    1    2    0    0 -0.25851017473E+03 -0.30656643279E+02 -0.62357254073E+03  0.11330809629E+04  0.90953967185E+03 0.  0.
        -24    2    4    4    0    0  0.24955423467E+03 -0.21088532261E+03 -0.44869960173E+03  0.56074010145E+03  0.79675551148E+02 0.  0.
         24    2    4    4    0    0 -0.50806440941E+03  0.18022867933E+03 -0.17487293900E+03  0.57234086143E+03  0.79885517480E+02 0.  0.
         13    1    3    3    0    0  0.24541599811E+03  0.61693094702E+01 -0.14364369192E+04  0.14572639072E+04  0.00000000000E+00 0. -1.
        -13    1    3    3    0    0  0.13094176625E+02  0.24487333809E+02 -0.10043466840E+03  0.10420273315E+03  0.00000000000E+00 0.  1.
          2    1    6    6  502    0 -0.41072117363E+03  0.11746084372E+03 -0.11731854129E+03  0.44300403204E+03  0.00000000000E+00 0. -1.
          1    1    5    5  503    0  0.16015187303E+03 -0.14005889084E+03 -0.35154753154E+03  0.41091456809E+03  0.00000000000E+00 0. -1.
         -2    1    5    5    0  503  0.89402361646E+02 -0.70826431772E+02 -0.97152070185E+02  0.14982553336E+03  0.00000000000E+00 0.  1.
         -1    1    6    6    0  502 -0.97343235783E+02  0.62767835615E+02 -0.57554397717E+02  0.12933682939E+03  0.00000000000E+00 0.  1.
<mgrwt>
<rscale>  0 0.16103006E+04</rscale>
<asrwt>0</asrwt>
<pdfrwt beam="1">  1        1 0.37346092E+00 0.16103006E+04</pdfrwt>
<pdfrwt beam="2">  1       -1 0.41084881E-01 0.16103006E+04</pdfrwt>
<totfact> 0.84685630E+00</totfact>
</mgrwt>
</event>
<event>
12    1  0.1477245E-007  0.1202352E+04  0.7818608E-02  0.9110800E-01
         -1   -1    0    0    0  501 -0.00000000000E+00  0.00000000000E+00  0.10800328533E+03  0.10800328533E+03  0.00000000000E+00 0.  1.
          1   -1    0    0  501    0  0.00000000000E+00 -0.00000000000E+00 -0.33463110641E+04  0.33463110641E+04  0.00000000000E+00 0. -1.
         23    2    1    2    0    0  0.72930374794E+02  0.43610000267E+01 -0.71044826005E+02  0.15927491103E+03  0.12240617669E+03 0.  0.
        254    2    1    2    0    0 -0.72930374794E+02 -0.43610000267E+01 -0.31672629528E+04  0.32950394384E+04  0.90575517153E+03 0.  0.
        -24    2    4    4    0    0 -0.18974313128E+03  0.39296135646E+03 -0.21232158406E+04  0.21690625122E+04  0.79784663603E+02 0.  0.
         24    2    4    4    0    0  0.11681275648E+03 -0.39732235648E+03 -0.10440471122E+04  0.11259769262E+04  0.79242607591E+02 0.  0.
         13    1    3    3    0    0 -0.87163214037E+01 -0.20008430586E+02 -0.70780223986E+02  0.74068560542E+02  0.00000000000E+00 0. -1.
        -13    1    3    3    0    0  0.81646696198E+02  0.24369430613E+02 -0.26460201967E+00  0.85206350483E+02  0.00000000000E+00 0.  1.
          4    1    6    6  502    0  0.53798055807E+02 -0.28159478519E+03 -0.64805917265E+03  0.70863992628E+03  0.00000000000E+00 0. -1.
          3    1    5    5  503    0 -0.15362017155E+03  0.36878554790E+03 -0.18777423373E+04  0.19197703568E+04  0.00000000000E+00 0. -1.
         -4    1    5    5    0  503 -0.36122959728E+02  0.24175808552E+02 -0.24547350328E+03  0.24929215542E+03  0.00000000000E+00 0.  1.
         -3    1    6    6    0  502  0.63014700676E+02 -0.11572757129E+03 -0.39598793950E+03  0.41733699991E+03  0.00000000000E+00 0.  1.
<mgrwt>
<rscale>  0 0.12023520E+04</rscale>
<asrwt>0</asrwt>
<pdfrwt beam="1">  1        1 0.51481700E+00 0.12023520E+04</pdfrwt>
<pdfrwt beam="2">  1       -1 0.16615893E-01 0.12023520E+04</pdfrwt>
<totfact> 0.92394550E+00</totfact>
</mgrwt>
</event>
<event>
12    1  0.1477245E-007  0.1624813E+04  0.7818608E-02  0.8805448E-01
         -1   -1    0    0    0  501 -0.00000000000E+00  0.00000000000E+00  0.70345620480E+03  0.70345620480E+03  0.00000000000E+00 0.  1.
          1   -1    0    0  501    0  0.00000000000E+00 -0.00000000000E+00 -0.93823134413E+03  0.93823134413E+03  0.00000000000E+00 0. -1.
         23    2    1    2    0    0  0.25454784084E+03 -0.30633003416E+03  0.26699994101E+03  0.48707695881E+03  0.85570451630E+02 0.  0.
        254    2    1    2    0    0 -0.25454784084E+03  0.30633003416E+03 -0.50177508035E+03  0.11546105901E+04  0.96058039250E+03 0.  0.
        -24    2    4    4    0    0 -0.44464328166E+03  0.41781907604E+03 -0.63507748501E+03  0.88425754766E+03  0.79420214112E+02 0.  0.
         24    2    4    4    0    0  0.19009544082E+03 -0.11148904187E+03  0.13330240466E+03  0.27035304246E+03  0.82189740237E+02 0.  0.
         13    1    3    3    0    0  0.10068559152E+03 -0.67658535661E+02  0.57819281301E+02  0.13438130479E+03  0.00000000000E+00 0. -1.
        -13    1    3    3    0    0  0.15386224932E+03 -0.23867149850E+03  0.20918065971E+03  0.35269565402E+03  0.00000000000E+00 0.  1.
          2    1    6    6  502    0 -0.40851292589E+01  0.33311315280E+01 -0.36837434154E+01  0.64307607535E+01  0.00000000000E+00 0. -1.
          3    1    5    5  503    0 -0.38951983912E+02  0.69178559619E+02 -0.65997745436E+02  0.10324065364E+03  0.00000000000E+00 0. -1.
         -4    1    5    5    0  503 -0.40569129775E+03  0.34864051642E+03 -0.56907973957E+03  0.78101689402E+03  0.00000000000E+00 0.  1.
         -1    1    6    6    0  502  0.19418057007E+03 -0.11482017340E+03  0.13698614808E+03  0.26392228170E+03  0.00000000000E+00 0.  1.
<mgrwt>
<rscale>  0 0.16248134E+04</rscale>
<asrwt>0</asrwt>
<pdfrwt beam="1">  1        1 0.14434328E+00 0.16248134E+04</pdfrwt>
<pdfrwt beam="2">  1       -1 0.10822403E+00 0.16248134E+04</pdfrwt>
<totfact> 0.12867820E+01</totfact>
</mgrwt>
</event>
<event>
12    1  0.1477245E-007  0.3327808E+04  0.7818608E-02  0.8155856E-01
         -2   -1    0    0    0  501 -0.00000000000E+00  0.00000000000E+00  0.32704931150E+04  0.32704931150E+04  0.00000000000E+00 0. -1.
          2   -1    0    0  501    0  0.00000000000E+00 -0.00000000000E+00 -0.84653158962E+03  0.84653158962E+03  0.00000000000E+00 0.  1.
         23    2    1    2    0    0 -0.11676686271E+04 -0.41983248093E+03  0.22516176116E+04  0.25723919663E+04  0.87802190251E+02 0.  0.
        254    2    1    2    0    0  0.11676686271E+04  0.41983248093E+03  0.17234391381E+03  0.15446327384E+04  0.90359201914E+03 0.  0.
        -24    2    4    4    0    0  0.97231749352E+03 -0.22045132027E+02  0.33158229891E+03  0.10304868588E+04  0.77904102719E+02 0.  0.
         24    2    4    4    0    0  0.19535113357E+03  0.44187761295E+03 -0.15923838510E+03  0.51414587953E+03  0.74640685505E+02 0.  0.
         13    1    3    3    0    0 -0.99515934784E+03 -0.34262306075E+03  0.18474878994E+04  0.21262512146E+04  0.00000000000E+00 0.  1.
        -13    1    3    3    0    0 -0.17250927925E+03 -0.77209420181E+02  0.40412971220E+03  0.44614075164E+03  0.00000000000E+00 0. -1.
          4    1    6    6  502    0  0.16405073086E+03  0.41178871474E+03 -0.15841566638E+03  0.47072084215E+03  0.00000000000E+00 0. -1.
          3    1    5    5  503    0  0.59381870750E+03  0.61599136366E+01  0.16774975263E+03  0.61708879541E+03  0.00000000000E+00 0. -1.
         -4    1    5    5    0  503  0.37849878602E+03 -0.28205045664E+02  0.16383254628E+03  0.41339806342E+03  0.00000000000E+00 0.  1.
         -3    1    6    6    0  502  0.31300402704E+02  0.30088898216E+02 -0.82271872469E+00  0.43425037379E+02  0.00000000000E+00 0.  1.
<mgrwt>
<rscale>  0 0.33278075E+04</rscale>
<asrwt>0</asrwt>
<pdfrwt beam="1">  1        2 0.13023563E+00 0.33278075E+04</pdfrwt>
<pdfrwt beam="2">  1       -2 0.50315278E+00 0.33278075E+04</pdfrwt>
<totfact> 0.41857714E-02</totfact>
</mgrwt>
</event>
<event>
12    1  0.1477245E-007  0.1716598E+04  0.7818608E-02  0.8751954E-01
         -1   -1    0    0    0  501 -0.00000000000E+00  0.00000000000E+00  0.50245414822E+03  0.50245414822E+03  0.00000000000E+00 0.  1.
          1   -1    0    0  501    0  0.00000000000E+00 -0.00000000000E+00 -0.14661576991E+04  0.14661576991E+04  0.00000000000E+00 0. -1.
         23    2    1    2    0    0  0.20717001381E+03 -0.99224029883E+02  0.31157165071E+03  0.39796288316E+03  0.92372832124E+02 0.  0.
        254    2    1    2    0    0 -0.20717001381E+03  0.99224029883E+02 -0.12752752016E+04  0.15706489642E+04  0.88760718009E+03 0.  0.
        -24    2    4    4    0    0  0.28607702105E+03  0.22807492474E+03 -0.35713072363E+03  0.51740928108E+03  0.79446693595E+02 0.  0.
         24    2    4    4    0    0 -0.49324703486E+03 -0.12885089485E+03 -0.91814447801E+03  0.10532396831E+04  0.80183272146E+02 0.  0.
         11    1    3    3    0    0  0.39203920606E+02 -0.23711040519E+02  0.13604554536E+03  0.14355330455E+03  0.00000000000E+00 0. -1.
        -11    1    3    3    0    0  0.16796609321E+03 -0.75512989364E+02  0.17552610535E+03  0.25440957861E+03  0.00000000000E+00 0.  1.
          4    1    6    6  502    0 -0.44447140788E+03 -0.14003605427E+03 -0.83147894416E+03  0.95316428988E+03  0.00000000000E+00 0. -1.
          3    1    5    5  503    0  0.21138625414E+03  0.15180697143E+03 -0.29699433145E+03  0.39488623416E+03  0.00000000000E+00 0. -1.
         -4    1    5    5    0  503  0.74690766907E+02  0.76267953307E+02 -0.60136392179E+02  0.12252304692E+03  0.00000000000E+00 0.  1.
         -3    1    6    6    0  502 -0.48775626973E+02  0.11185159415E+02 -0.86665533848E+02  0.10007539325E+03  0.00000000000E+00 0.  1.
<mgrwt>
<rscale>  0 0.17165978E+04</rscale>
<asrwt>0</asrwt>
<pdfrwt beam="1">  1        1 0.22556272E+00 0.17165978E+04</pdfrwt>
<pdfrwt beam="2">  1       -1 0.77300639E-01 0.17165978E+04</pdfrwt>
<totfact> 0.11010355E+01</totfact>
</mgrwt>
</event>
<event>
12    1  0.1477245E-007  0.1489534E+04  0.7818608E-02  0.8891443E-01
         -1   -1    0    0    0  501 -0.00000000000E+00  0.00000000000E+00  0.21862131254E+03  0.21862131254E+03  0.00000000000E+00 0.  1.
          1   -1    0    0  501    0  0.00000000000E+00 -0.00000000000E+00 -0.25371626704E+04  0.25371626704E+04  0.00000000000E+00 0. -1.
         23    2    1    2    0    0 -0.51709748990E+02 -0.22470805046E+03 -0.14913169512E+04  0.15118333527E+04  0.91903380618E+02 0.  0.
        254    2    1    2    0    0  0.51709748990E+02  0.22470805046E+03 -0.82722440670E+03  0.12439506303E+04  0.89996963584E+03 0.  0.
        -24    2    4    4    0    0 -0.13536858191E+03 -0.27604844484E+03 -0.92371917099E+02  0.33173000925E+03  0.83575302015E+02 0.  0.
         24    2    4    4    0    0  0.18707833090E+03  0.50075649530E+03 -0.73485248960E+03  0.91222062102E+03  0.79893119002E+02 0.  0.
         11    1    3    3    0    0 -0.29312532475E+02 -0.54655667201E+02 -0.66601074011E+03  0.66889219794E+03  0.00000000000E+00 0.  1.
        -11    1    3    3    0    0 -0.22397216515E+02 -0.17005238326E+03 -0.82530621104E+03  0.84294115473E+03  0.00000000000E+00 0. -1.
          2    1    6    6  502    0  0.17170951098E+03  0.36126585586E+03 -0.55383009643E+03  0.68317270912E+03  0.00000000000E+00 0. -1.
          1    1    5    5  503    0 -0.85387685728E+02 -0.10792168300E+03 -0.71534806755E+02  0.15509795328E+03  0.00000000000E+00 0. -1.
         -2    1    5    5    0  503 -0.49980896179E+02 -0.16812676184E+03 -0.20837110345E+02  0.17663205597E+03  0.00000000000E+00 0.  1.
         -1    1    6    6    0  502  0.15368819915E+02  0.13949063944E+03 -0.18102239317E+03  0.22904791190E+03  0.00000000000E+00 0.  1.
<mgrwt>
<rscale>  0 0.14895339E+04</rscale>
<asrwt>0</asrwt>
<pdfrwt beam="1">  1        1 0.39033276E+00 0.14895339E+04</pdfrwt>
<pdfrwt beam="2">  1       -1 0.33634045E-01 0.14895339E+04</pdfrwt>
<totfact> 0.10328700E+01</totfact>
</mgrwt>
</event>
<event>
12    1  0.1477245E-007  0.1348685E+04  0.7818608E-02  0.8991824E-01
          1   -1    0    0  501    0  0.00000000000E+00  0.00000000000E+00  0.11374535062E+04  0.11374535062E+04  0.00000000000E+00 0. -1.
         -1   -1    0    0    0  501 -0.00000000000E+00 -0.00000000000E+00 -0.39978588884E+03  0.39978588884E+03  0.00000000000E+00 0.  1.
         23    2    1    2    0    0 -0.29120319522E+03  0.18192280178E+03  0.15311666340E+03  0.38715921203E+03  0.92478841560E+02 0.  0.
        254    2    1    2    0    0  0.29120319522E+03 -0.18192280178E+03  0.58455095395E+03  0.11500801830E+04  0.92902605069E+03 0.  0.
        -24    2    4    4    0    0  0.16270786956E+03  0.37150894376E+03  0.29346069546E+03  0.50690660725E+03  0.79639077010E+02 0.  0.
         24    2    4    4    0    0  0.12849532566E+03 -0.55343174554E+03  0.29109025849E+03  0.64317357575E+03  0.78364304839E+02 0.  0.
         11    1    3    3    0    0 -0.29984949842E+02  0.18055581579E+01  0.40597209311E+02  0.50502382727E+02  0.00000000000E+00 0.  1.
        -11    1    3    3    0    0 -0.26121824538E+03  0.18011724362E+03  0.11251945408E+03  0.33665682931E+03  0.00000000000E+00 0. -1.
          4    1    6    6  502    0  0.41196676935E+02 -0.19097336628E+03  0.14257346056E+03  0.24185777738E+03  0.00000000000E+00 0. -1.
          3    1    5    5  503    0  0.18640138693E+02  0.51770835656E+02  0.98870669019E+01  0.55905530021E+02  0.00000000000E+00 0. -1.
         -4    1    5    5    0  503  0.14406773087E+03  0.31973810810E+03  0.28357362856E+03  0.45100107723E+03  0.00000000000E+00 0.  1.
         -3    1    6    6    0  502  0.87298648727E+02 -0.36245837925E+03  0.14851679793E+03  0.40131579838E+03  0.00000000000E+00 0.  1.
<mgrwt>
<rscale>  0 0.13486851E+04</rscale>
<asrwt>0</asrwt>
<pdfrwt beam="1">  1        1 0.17499285E+00 0.13486851E+04</pdfrwt>
<pdfrwt beam="2">  1       -1 0.61505522E-01 0.13486851E+04</pdfrwt>
<totfact> 0.31193351E+01</totfact>
</mgrwt>
</event>
<event>
12    1  0.1477245E-007  0.3146800E+04  0.7818608E-02  0.8203010E-01
         -2   -1    0    0    0  501 -0.00000000000E+00  0.00000000000E+00  0.22970245440E+04  0.22970245440E+04  0.00000000000E+00 0.  1.
          2   -1    0    0  501    0  0.00000000000E+00 -0.00000000000E+00 -0.10777367403E+04  0.10777367403E+04  0.00000000000E+00 0. -1.
         23    2    1    2    0    0  0.54153539321E+03 -0.12628460666E+04  0.10281281601E+04  0.17185884376E+04  0.91967026546E+02 0.  0.
        254    2    1    2    0    0 -0.54153539321E+03  0.12628460666E+04  0.19115964364E+03  0.16561728467E+04  0.90461357435E+03 0.  0.
        -24    2    4    4    0    0  0.88516116553E+02  0.42926696190E+03  0.38673703620E+03  0.59007772948E+03  0.80752487200E+02 0.  0.
         24    2    4    4    0    0 -0.63005150976E+03  0.83357910470E+03 -0.19557739256E+03  0.10660951173E+04  0.80555904963E+02 0.  0.
         11    1    3    3    0    0  0.47565142312E+03 -0.11282198141E+04  0.94897088237E+03  0.15490868152E+04  0.00000000000E+00 0.  1.
        -11    1    3    3    0    0  0.65883970093E+02 -0.13462625246E+03  0.79157277776E+02  0.16950162238E+03  0.00000000000E+00 0. -1.
          4    1    6    6  502    0 -0.45306895758E+03  0.59536890264E+03 -0.17667801202E+03  0.76873319850E+03  0.00000000000E+00 0. -1.
          1    1    5    5  503    0  0.79816173006E+02  0.20036867541E+03  0.16852664695E+03  0.27371419089E+03  0.00000000000E+00 0. -1.
         -2    1    5    5    0  503  0.86999435473E+01  0.22889828649E+03  0.21821038924E+03  0.31636353859E+03  0.00000000000E+00 0.  1.
         -3    1    6    6    0  502 -0.17698255218E+03  0.23821020206E+03 -0.18899380545E+02  0.29736191876E+03  0.00000000000E+00 0.  1.
<mgrwt>
<rscale>  0 0.31468001E+04</rscale>
<asrwt>0</asrwt>
<pdfrwt beam="1">  1        2 0.16580565E+00 0.31468001E+04</pdfrwt>
<pdfrwt beam="2">  1       -2 0.35338839E+00 0.31468001E+04</pdfrwt>
<totfact> 0.28159798E-01</totfact>
</mgrwt>
</event>
<event>
12    1  0.1477245E-007  0.1306525E+04  0.7818608E-02  0.9024407E-01
         -2   -1    0    0    0  501 -0.00000000000E+00  0.00000000000E+00  0.85066600535E+03  0.85066600535E+03  0.00000000000E+00 0.  1.
          2   -1    0    0  501    0  0.00000000000E+00 -0.00000000000E+00 -0.50166816471E+03  0.50166816471E+03  0.00000000000E+00 0. -1.
         23    2    1    2    0    0  0.33077484292E+02 -0.10887562135E+03  0.43975192776E+03  0.46320075842E+03  0.90692688470E+02 0.  0.
        254    2    1    2    0    0 -0.33077484292E+02  0.10887562135E+03 -0.90754087122E+02  0.88913341163E+03  0.87713961173E+03 0.  0.
        -24    2    4    4    0    0 -0.27904363823E+03 -0.28935513558E+03 -0.43373240055E+02  0.41206805055E+03  0.79543031165E+02 0.  0.
         24    2    4    4    0    0  0.24596615394E+03  0.39823075694E+03 -0.47380847067E+02  0.47706536108E+03  0.79115923920E+02 0.  0.
         11    1    3    3    0    0 -0.28958381601E+02 -0.17077591189E+02  0.80073344166E+02  0.86844530234E+02  0.00000000000E+00 0. -1.
        -11    1    3    3    0    0  0.62035865893E+02 -0.91798030164E+02  0.35967858359E+03  0.37635622819E+03  0.00000000000E+00 0.  1.
          2    1    6    6  502    0  0.13717954613E+03  0.27926713517E+03 -0.85876779136E+01  0.31125890971E+03  0.00000000000E+00 0. -1.
          3    1    5    5  503    0 -0.49521660230E+02 -0.97247630074E+02  0.30910269065E+01  0.10917440558E+03  0.00000000000E+00 0. -1.
         -4    1    5    5    0  503 -0.22952197800E+03 -0.19210750551E+03 -0.46464266961E+02  0.30289364497E+03  0.00000000000E+00 0.  1.
         -1    1    6    6    0  502  0.10878660781E+03  0.11896362177E+03 -0.38793169153E+02  0.16580645137E+03  0.00000000000E+00 0.  1.
<mgrwt>
<rscale>  0 0.13065252E+04</rscale>
<asrwt>0</asrwt>
<pdfrwt beam="1">  1        2 0.77179718E-01 0.13065252E+04</pdfrwt>
<pdfrwt beam="2">  1       -2 0.13087169E+00 0.13065252E+04</pdfrwt>
<totfact> 0.25647990E+01</totfact>
</mgrwt>
</event>
<event>
12    1  0.1573695E-007  0.2667039E+04  0.7818608E-02  0.8345780E-01
         -1   -1    0    0    0  501 -0.00000000000E+00  0.00000000000E+00  0.70206105298E+03  0.70206105298E+03  0.00000000000E+00 0.  1.
          1   -1    0    0  501    0  0.00000000000E+00 -0.00000000000E+00 -0.25329333773E+04  0.25329333773E+04  0.00000000000E+00 0. -1.
         23    2    1    2    0    0  0.77623936984E+03 -0.88721370380E+03 -0.88997200602E+03  0.14802024520E+04  0.96194656748E+02 0.  0.
        254    2    1    2    0    0 -0.77623936984E+03  0.88721370380E+03 -0.94090031825E+03  0.17547919782E+04  0.89683095529E+03 0.  0.
        -24    2    4    4    0    0 -0.49177075165E+03  0.10276403911E+04 -0.81998105257E+03  0.14060199041E+04  0.81484958923E+02 0.  0.
         24    2    4    4    0    0 -0.28446861819E+03 -0.14042668727E+03 -0.12091926568E+03  0.34877207413E+03  0.79865146644E+02 0.  0.
         13    1    3    3    0    0  0.87416479806E+02 -0.10946636965E+03 -0.14621349063E+03  0.20249175753E+03  0.00000000000E+00 0. -1.
        -13    1    3    3    0    0  0.68882289004E+03 -0.77774733415E+03 -0.74375851539E+03  0.12777106945E+04  0.00000000000E+00 0.  1.
          4    1    6    6  502    0 -0.24883274716E+03 -0.14955306975E+03 -0.10896960881E+03  0.31009390896E+03  0.00000000000E+00 0. -1.
          1    1    5    5  503    0 -0.48480236906E+03  0.99323652590E+03 -0.80736736791E+03  0.13687199130E+04  0.00000000000E+00 0. -1.
         -4    1    5    5    0  503 -0.69683825901E+01  0.34403865170E+02 -0.12613684666E+02  0.37299991092E+02  0.00000000000E+00 0.  1.
         -3    1    6    6    0  502 -0.35635871031E+02  0.91263824857E+01 -0.11949656864E+02  0.38678165166E+02  0.00000000000E+00 0.  1.
<mgrwt>
<rscale>  0 0.26670387E+04</rscale>
<asrwt>0</asrwt>
<pdfrwt beam="1">  1        1 0.38968206E+00 0.26670387E+04</pdfrwt>
<pdfrwt beam="2">  1       -1 0.10800939E+00 0.26670387E+04</pdfrwt>
<totfact> 0.89628158E-01</totfact>
</mgrwt>
</event>
<event>
12    1  0.1477245E-007  0.1548675E+04  0.7818608E-02  0.8852714E-01
          4   -1    0    0  501    0  0.00000000000E+00  0.00000000000E+00  0.16217561272E+04  0.16217561272E+04  0.00000000000E+00 0. -1.
         -4   -1    0    0    0  501 -0.00000000000E+00 -0.00000000000E+00 -0.36972198422E+03  0.36972198422E+03  0.00000000000E+00 0.  1.
         23    2    1    2    0    0 -0.46366510602E+03  0.18004220178E+03  0.28616585848E+03  0.58104942856E+03  0.91252478900E+02 0.  0.
        254    2    1    2    0    0  0.46366510602E+03 -0.18004220178E+03  0.96586828452E+03  0.14104286829E+04  0.89944816500E+03 0.  0.
        -24    2    4    4    0    0  0.57523330125E+03  0.17568488447E+03  0.39491439977E+03  0.72384818789E+03  0.78995483913E+02 0.  0.
         24    2    4    4    0    0 -0.11156819523E+03 -0.35572708625E+03  0.57095388476E+03  0.68658049500E+03  0.80095040519E+02 0.  0.
         11    1    3    3    0    0 -0.87784474814E+02  0.15822691739E+02  0.88741793878E+02  0.12582359704E+03  0.00000000000E+00 0. -1.
        -11    1    3    3    0    0 -0.37588063120E+03  0.16421951004E+03  0.19742406460E+03  0.45522583151E+03  0.00000000000E+00 0.  1.
          2    1    6    6  502    0 -0.11926314492E+03 -0.34998500360E+03  0.54225610023E+03  0.65631918966E+03  0.00000000000E+00 0. -1.
          1    1    5    5  503    0  0.40711581074E+03  0.11775447867E+03  0.31928283514E+03  0.53061372901E+03  0.00000000000E+00 0. -1.
         -2    1    5    5    0  503  0.16811749051E+03  0.57930405803E+02  0.75631564621E+02  0.19323445888E+03  0.00000000000E+00 0.  1.
         -1    1    6    6    0  502  0.76949496942E+01 -0.57420826520E+01  0.28697784533E+02  0.30261305343E+02  0.00000000000E+00 0.  1.
<mgrwt>
<rscale>  0 0.15486754E+04</rscale>
<asrwt>0</asrwt>
<pdfrwt beam="1">  1        4 0.24950094E+00 0.15486754E+04</pdfrwt>
<pdfrwt beam="2">  1       -4 0.56880306E-01 0.15486754E+04</pdfrwt>
<totfact> 0.36081083E-01</totfact>
</mgrwt>
</event>
<event>
12    1  0.1477245E-007  0.1419617E+04  0.7818608E-02  0.8939740E-01
         -1   -1    0    0    0  501 -0.00000000000E+00  0.00000000000E+00  0.11918841852E+03  0.11918841852E+03  0.00000000000E+00 0.  1.
          1   -1    0    0  501    0  0.00000000000E+00 -0.00000000000E+00 -0.42271537147E+04  0.42271537147E+04  0.00000000000E+00 0. -1.
         23    2    1    2    0    0 -0.34857247860E+03 -0.18697644377E+03 -0.16872752479E+04  0.17355058435E+04  0.92842918815E+02 0.  0.
        254    2    1    2    0    0  0.34857247860E+03  0.18697644377E+03 -0.24206900483E+04  0.26108362896E+04  0.89457412107E+03 0.  0.
        -24    2    4    4    0    0 -0.12688355710E+03 -0.16416105645E+03 -0.14842949119E+04  0.15008453859E+04  0.79732033302E+02 0.  0.
         24    2    4    4    0    0  0.47545603570E+03  0.35113750022E+03 -0.93639513633E+03  0.11099909038E+04  0.76733103405E+02 0.  0.
         11    1    3    3    0    0 -0.49602903488E+02 -0.52554638488E+01 -0.12608227688E+03  0.13559059140E+03  0.00000000000E+00 0.  1.
        -11    1    3    3    0    0 -0.29896957511E+03 -0.18172097992E+03 -0.15611929710E+04  0.15999152521E+04  0.00000000000E+00 0. -1.
          2    1    6    6  502    0  0.19522166100E+03  0.18816292503E+03 -0.39970984281E+03  0.48299559182E+03  0.00000000000E+00 0. -1.
          1    1    5    5  503    0 -0.10529674151E+02 -0.59419065175E+02 -0.57654877398E+03  0.57969818710E+03  0.00000000000E+00 0. -1.
         -2    1    5    5    0  503 -0.11635388295E+03 -0.10474199128E+03 -0.90774613796E+03  0.92114719877E+03  0.00000000000E+00 0.  1.
         -1    1    6    6    0  502  0.28023437470E+03  0.16297457520E+03 -0.53668529352E+03  0.62699531194E+03  0.00000000000E+00 0.  1.
<mgrwt>
<rscale>  0 0.14196165E+04</rscale>
<asrwt>0</asrwt>
<pdfrwt beam="1">  1        1 0.65033140E+00 0.14196165E+04</pdfrwt>
<pdfrwt beam="2">  1       -1 0.18336678E-01 0.14196165E+04</pdfrwt>
<totfact> 0.14116733E+00</totfact>
</mgrwt>
</event>
<event>
12    1  0.1477245E-007  0.2398484E+04  0.7818608E-02  0.8440071E-01
         -2   -1    0    0    0  501 -0.00000000000E+00  0.00000000000E+00  0.67112578983E+03  0.67112578983E+03  0.00000000000E+00 0.  1.
          2   -1    0    0  501    0  0.00000000000E+00 -0.00000000000E+00 -0.21429382715E+04  0.21429382715E+04  0.00000000000E+00 0. -1.
         23    2    1    2    0    0 -0.50772429877E+01 -0.78845010564E+03  0.13939363438E+03  0.80579398500E+03  0.90520790337E+02 0.  0.
        254    2    1    2    0    0  0.50772429877E+01  0.78845010564E+03 -0.16112061160E+04  0.20082700763E+04  0.90304163999E+03 0.  0.
        -24    2    4    4    0    0 -0.33217352199E+03  0.72516303545E+03 -0.13481001102E+04  0.15684154820E+04  0.79702826401E+02 0.  0.
         24    2    4    4    0    0  0.33725076498E+03  0.63287070183E+02 -0.26310600581E+03  0.43985459423E+03  0.80647145265E+02 0.  0.
         11    1    3    3    0    0  0.24019359880E+01 -0.26354064200E+03  0.36999697405E+01  0.26357755795E+03  0.00000000000E+00 0.  1.
        -11    1    3    3    0    0 -0.74791789757E+01 -0.52490946364E+03  0.13569366464E+03  0.54221642705E+03  0.00000000000E+00 0. -1.
          4    1    6    6  502    0  0.29628123540E+03  0.72409769316E+02 -0.25397655176E+03  0.39690028217E+03  0.00000000000E+00 0. -1.
          3    1    5    5  503    0 -0.27316865301E+03  0.63955875523E+03 -0.11311521362E+04  0.13278409805E+04  0.00000000000E+00 0. -1.
         -4    1    5    5    0  503 -0.59004868978E+02  0.85604280220E+02 -0.21694797401E+03  0.24057450152E+03  0.00000000000E+00 0.  1.
         -3    1    6    6    0  502  0.40969529580E+02 -0.91226991328E+01 -0.91294540565E+01  0.42954312063E+02  0.00000000000E+00 0.  1.
<mgrwt>
<rscale>  0 0.23984838E+04</rscale>
<asrwt>0</asrwt>
<pdfrwt beam="1">  1        2 0.32968281E+00 0.23984838E+04</pdfrwt>
<pdfrwt beam="2">  1       -2 0.10325012E+00 0.23984838E+04</pdfrwt>
<totfact> 0.38260556E+00</totfact>
</mgrwt>
</event>
<event>
12    1  0.1477245E-007  0.1872137E+04  0.7818608E-02  0.8668851E-01
          1   -1    0    0  501    0  0.00000000000E+00  0.00000000000E+00  0.25896074104E+04  0.25896074104E+04  0.00000000000E+00 0. -1.
         -1   -1    0    0    0  501 -0.00000000000E+00 -0.00000000000E+00 -0.33836195653E+03  0.33836195653E+03  0.00000000000E+00 0.  1.
         23    2    1    2    0    0 -0.36403146804E+03 -0.51798781692E+03  0.36927594380E+03  0.74035375315E+03  0.10454027427E+03 0.  0.
        254    2    1    2    0    0  0.36403146804E+03  0.51798781692E+03  0.18819695101E+04  0.21876156138E+04  0.91816259377E+03 0.  0.
        -24    2    4    4    0    0 -0.26229371468E+03  0.35159513956E+03  0.95318754599E+03  0.10524034173E+04  0.81051341686E+02 0.  0.
         24    2    4    4    0    0  0.62632518271E+03  0.16639267736E+03  0.92878196411E+03  0.11352121965E+04  0.78109132963E+02 0.  0.
         11    1    3    3    0    0 -0.29267384958E+03 -0.39461642318E+03  0.23528836995E+03  0.54473913088E+03  0.00000000000E+00 0.  1.
        -11    1    3    3    0    0 -0.71357618461E+02 -0.12337139374E+03  0.13398757384E+03  0.19561462228E+03  0.00000000000E+00 0. -1.
          4    1    6    6  502    0  0.19875908242E+02  0.20803998970E+02  0.34389350538E+02  0.44838438108E+02  0.00000000000E+00 0. -1.
          1    1    5    5  503    0 -0.11974253798E+03  0.10428906750E+03  0.29605872178E+03  0.33595424055E+03  0.00000000000E+00 0. -1.
         -2    1    5    5    0  503 -0.14255117670E+03  0.24730607206E+03  0.65712882421E+03  0.71644917675E+03  0.00000000000E+00 0.  1.
         -3    1    6    6    0  502  0.60644927447E+03  0.14558867839E+03  0.89439261358E+03  0.10903737584E+04  0.00000000000E+00 0.  1.
<mgrwt>
<rscale>  0 0.18721374E+04</rscale>
<asrwt>0</asrwt>
<pdfrwt beam="1">  1        1 0.39840113E+00 0.18721374E+04</pdfrwt>
<pdfrwt beam="2">  1       -1 0.52055687E-01 0.18721374E+04</pdfrwt>
<totfact> 0.40933627E+00</totfact>
</mgrwt>
</event>
<event>
12    1  0.1477245E-007  0.2663976E+04  0.7818608E-02  0.8346789E-01
          2   -1    0    0  501    0  0.00000000000E+00  0.00000000000E+00  0.11054777061E+04  0.11054777061E+04  0.00000000000E+00 0. -1.
         -2   -1    0    0    0  501 -0.00000000000E+00 -0.00000000000E+00 -0.16049098887E+04  0.16049098887E+04  0.00000000000E+00 0.  1.
         23    2    1    2    0    0  0.18259712052E+03 -0.95178698461E+03 -0.90109848853E+03  0.13267294487E+04  0.94828115145E+02 0.  0.
        254    2    1    2    0    0 -0.18259712052E+03  0.95178698461E+03  0.40166630596E+03  0.13836581461E+04  0.90218283709E+03 0.  0.
        -24    2    4    4    0    0  0.25290287478E+03  0.96746709718E+02  0.30582300294E+03  0.41604776510E+03  0.79045833560E+02 0.  0.
         24    2    4    4    0    0 -0.43549999530E+03  0.85504027489E+03  0.95843303027E+02  0.96761038104E+03  0.79559997347E+02 0.  0.
         11    1    3    3    0    0  0.75807895970E+02 -0.63194629253E+03 -0.59796563743E+03  0.87330742427E+03  0.00000000000E+00 0.  1.
        -11    1    3    3    0    0  0.10678922455E+03 -0.31984069207E+03 -0.30313285110E+03  0.45342202439E+03  0.00000000000E+00 0. -1.
          2    1    6    6  502    0 -0.27064112285E+03  0.44399854561E+03  0.51660417593E+02  0.52254198360E+03  0.00000000000E+00 0. -1.
          1    1    5    5  503    0  0.29868818886E+02  0.41233397382E+02  0.40809893764E+02  0.65251718984E+02  0.00000000000E+00 0. -1.
         -2    1    5    5    0  503  0.22303405589E+03  0.55513312336E+02  0.26501310917E+03  0.35079604611E+03  0.00000000000E+00 0.  1.
         -1    1    6    6    0  502 -0.16485887244E+03  0.41104172928E+03  0.44182885434E+02  0.44506839744E+03  0.00000000000E+00 0.  1.
<mgrwt>
<rscale>  0 0.26639761E+04</rscale>
<asrwt>0</asrwt>
<pdfrwt beam="1">  1        2 0.17007349E+00 0.26639761E+04</pdfrwt>
<pdfrwt beam="2">  1       -2 0.24690921E+00 0.26639761E+04</pdfrwt>
<totfact> 0.12770374E+00</totfact>
</mgrwt>
</event>
<event>
12    1  0.1477245E-007  0.2235232E+04  0.7818608E-02  0.8503905E-01
         -2   -1    0    0    0  501 -0.00000000000E+00  0.00000000000E+00  0.18010952375E+04  0.18010952375E+04  0.00000000000E+00 0.  1.
          2   -1    0    0  501    0  0.00000000000E+00 -0.00000000000E+00 -0.69350337205E+03  0.69350337205E+03  0.00000000000E+00 0. -1.
         23    2    1    2    0    0 -0.24422771148E+03  0.76503046925E+03  0.98631666908E+03  0.12751538748E+04  0.90983728576E+02 0.  0.
        254    2    1    2    0    0  0.24422771148E+03 -0.76503046925E+03  0.12127519636E+03  0.12194447347E+04  0.90962574381E+03 0.  0.
        -24    2    4    4    0    0  0.49067138639E+03 -0.13890174970E+03 -0.54334051317E+02  0.51927570750E+03  0.81504391129E+02 0.  0.
         24    2    4    4    0    0 -0.24644367492E+03 -0.62612871956E+03  0.17560924768E+03  0.70016902720E+03  0.81402705273E+02 0.  0.
         13    1    3    3    0    0 -0.20165901921E+03  0.68463613644E+03  0.90938194274E+03  0.11560140644E+04  0.00000000000E+00 0.  1.
        -13    1    3    3    0    0 -0.42568692268E+02  0.80394332809E+02  0.76934726342E+02  0.11913981042E+03  0.00000000000E+00 0. -1.
          4    1    6    6  502    0 -0.34988746184E+02 -0.33162789231E+02  0.14466707330E+02  0.50331586207E+02  0.00000000000E+00 0. -1.
          3    1    5    5  503    0  0.16290531098E+03 -0.79038565852E+02 -0.41922134838E+02  0.18585666689E+03  0.00000000000E+00 0. -1.
         -4    1    5    5    0  503  0.32776607541E+03 -0.59863183843E+02 -0.12411916479E+02  0.33341904061E+03  0.00000000000E+00 0.  1.
         -1    1    6    6    0  502 -0.21145492873E+03 -0.59296593032E+03  0.16114254035E+03  0.64983744100E+03  0.00000000000E+00 0.  1.
<mgrwt>
<rscale>  0 0.22352321E+04</rscale>
<asrwt>0</asrwt>
<pdfrwt beam="1">  1        2 0.10669283E+00 0.22352321E+04</pdfrwt>
<pdfrwt beam="2">  1       -2 0.27709157E+00 0.22352321E+04</pdfrwt>
<totfact> 0.16578626E+00</totfact>
</mgrwt>
</event>
<event>
12    1  0.1477245E-007  0.1629468E+04  0.7818608E-02  0.8802646E-01
          2   -1    0    0  501    0  0.00000000000E+00  0.00000000000E+00  0.11816763030E+04  0.11816763030E+04  0.00000000000E+00 0. -1.
         -2   -1    0    0    0  501 -0.00000000000E+00 -0.00000000000E+00 -0.56173736540E+03  0.56173736540E+03  0.00000000000E+00 0.  1.
         23    2    1    2    0    0 -0.35669038087E+03  0.42879005887E+02  0.67977324883E+03  0.77440225608E+03  0.92415082379E+02 0.  0.
        254    2    1    2    0    0  0.35669038087E+03 -0.42879005887E+02 -0.59834311265E+02  0.96901141228E+03  0.89796232402E+03 0.  0.
        -24    2    4    4    0    0  0.51152339215E+03  0.53854500652E+02  0.26857603088E+03  0.58480550148E+03  0.72855351561E+02 0.  0.
         24    2    4    4    0    0 -0.15483301127E+03 -0.96733506539E+02 -0.32841034214E+03  0.38420591079E+03  0.80188505364E+02 0.  0.
         13    1    3    3    0    0 -0.33613358232E+03  0.62346375706E+02  0.61320555515E+03  0.70206403454E+03  0.00000000000E+00 0. -1.
        -13    1    3    3    0    0 -0.20556798550E+02 -0.19467369819E+02  0.66567693675E+02  0.72338221540E+02  0.00000000000E+00 0.  1.
          4    1    6    6  502    0  0.93985390424E+01 -0.47357301420E+01 -0.11381262670E+02  0.15501381102E+02  0.00000000000E+00 0. -1.
          1    1    5    5  503    0  0.26026675057E+03  0.63738582246E+02  0.13355726412E+03  0.29939761375E+03  0.00000000000E+00 0. -1.
         -2    1    5    5    0  503  0.25125664157E+03 -0.98840815940E+01  0.13501876676E+03  0.28540788773E+03  0.00000000000E+00 0.  1.
         -3    1    6    6    0  502 -0.16423155032E+03 -0.91997776397E+02 -0.31702907947E+03  0.36870452969E+03  0.00000000000E+00 0.  1.
<mgrwt>
<rscale>  0 0.16294683E+04</rscale>
<asrwt>0</asrwt>
<pdfrwt beam="1">  1        2 0.18179635E+00 0.16294683E+04</pdfrwt>
<pdfrwt beam="2">  1       -2 0.86421133E-01 0.16294683E+04</pdfrwt>
<totfact> 0.21566521E+01</totfact>
</mgrwt>
</event>
<event>
12    1  0.1477245E-007  0.1534908E+04  0.7818608E-02  0.8861565E-01
         -2   -1    0    0    0  501 -0.00000000000E+00  0.00000000000E+00  0.35462629070E+03  0.35462629070E+03  0.00000000000E+00 0.  1.
          2   -1    0    0  501    0  0.00000000000E+00 -0.00000000000E+00 -0.16608638965E+04  0.16608638965E+04  0.00000000000E+00 0. -1.
         23    2    1    2    0    0 -0.25174212877E+03  0.40516365977E+03 -0.58668089497E+03  0.76155673390E+03  0.90788192055E+02 0.  0.
        254    2    1    2    0    0  0.25174212877E+03 -0.40516365977E+03 -0.71955671082E+03  0.12539334533E+04  0.90942594783E+03 0.  0.
        -24    2    4    4    0    0  0.54264087998E+03 -0.45138914123E+03 -0.58675102751E+03  0.92117713837E+03  0.77969676935E+02 0.  0.
         24    2    4    4    0    0 -0.29089875121E+03  0.46225481453E+02 -0.13280568331E+03  0.33275631492E+03  0.79564671884E+02 0.  0.
         11    1    3    3    0    0 -0.23317037001E+03  0.32966350647E+03 -0.45241865732E+03  0.60640670382E+03  0.00000000000E+00 0.  1.
        -11    1    3    3    0    0 -0.18571758761E+02  0.75500153305E+02 -0.13426223766E+03  0.15515003008E+03  0.00000000000E+00 0. -1.
          4    1    6    6  502    0 -0.26096917124E+03  0.53305144948E+02 -0.14037385388E+03  0.30108332015E+03  0.00000000000E+00 0. -1.
          3    1    5    5  503    0  0.30260894956E+03 -0.29553195592E+03 -0.37331954719E+03  0.56416203137E+03  0.00000000000E+00 0. -1.
         -2    1    5    5    0  503  0.24003193042E+03 -0.15585718530E+03 -0.21343148033E+03  0.35701510700E+03  0.00000000000E+00 0.  1.
         -3    1    6    6    0  502 -0.29929579964E+02 -0.70796634952E+01  0.75681705767E+01  0.31672994773E+02  0.00000000000E+00 0.  1.
<mgrwt>
<rscale>  0 0.15349085E+04</rscale>
<asrwt>0</asrwt>
<pdfrwt beam="1">  1        2 0.25551753E+00 0.15349085E+04</pdfrwt>
<pdfrwt beam="2">  1       -2 0.54557890E-01 0.15349085E+04</pdfrwt>
<totfact> 0.31413167E+01</totfact>
</mgrwt>
</event>
<event>
12    1  0.1477245E-007  0.2354851E+04  0.7818608E-02  0.8456603E-01
         -2   -1    0    0    0  501 -0.00000000000E+00  0.00000000000E+00  0.58674287473E+03  0.58674287473E+03  0.00000000000E+00 0.  1.
          2   -1    0    0  501    0  0.00000000000E+00 -0.00000000000E+00 -0.23627568883E+04  0.23627568883E+04  0.00000000000E+00 0. -1.
         23    2    1    2    0    0 -0.55867354817E+03 -0.23155498655E+03  0.24355800234E+03  0.65832048992E+03  0.91277169767E+02 0.  0.
        254    2    1    2    0    0  0.55867354817E+03  0.23155498655E+03 -0.20195720159E+04  0.22911792731E+04  0.89727224904E+03 0.  0.
        -24    2    4    4    0    0  0.31022667312E+03 -0.21455419603E+03 -0.15347031831E+04  0.15823529372E+04  0.79075065140E+02 0.  0.
         24    2    4    4    0    0  0.24844687505E+03  0.44610918257E+03 -0.48486883289E+03  0.70882633598E+03  0.81226454910E+02 0.  0.
         13    1    3    3    0    0 -0.42833728587E+03 -0.20211124000E+03  0.22161496975E+03  0.52291010567E+03  0.00000000000E+00 0.  1.
        -13    1    3    3    0    0 -0.13033626230E+03 -0.29443746547E+02  0.21943032591E+02  0.13541038424E+03  0.00000000000E+00 0. -1.
          2    1    6    6  502    0  0.47516756991E+01  0.98932531558E+01 -0.34283340414E+02  0.35997254200E+02  0.00000000000E+00 0. -1.
          1    1    5    5  503    0 -0.38478346590E+01 -0.37773959199E+01 -0.47422718380E+02  0.47728280611E+02  0.00000000000E+00 0. -1.
         -2    1    5    5    0  503  0.31407450778E+03 -0.21077680011E+03 -0.14872804647E+04  0.15346246566E+04  0.00000000000E+00 0.  1.
         -1    1    6    6    0  502  0.24369519935E+03  0.43621592942E+03 -0.45058549247E+03  0.67282908178E+03  0.00000000000E+00 0.  1.
<mgrwt>
<rscale>  0 0.23548510E+04</rscale>
<asrwt>0</asrwt>
<pdfrwt beam="1">  1        2 0.36350105E+00 0.23548510E+04</pdfrwt>
<pdfrwt beam="2">  1       -2 0.90268136E-01 0.23548510E+04</pdfrwt>
<totfact> 0.39549240E+00</totfact>
</mgrwt>
</event>
<event>
12    1  0.1477245E-007  0.2875183E+04  0.7818608E-02  0.8280300E-01
          2   -1    0    0  501    0  0.00000000000E+00  0.00000000000E+00  0.20868487375E+04  0.20868487375E+04  0.00000000000E+00 0. -1.
         -2   -1    0    0    0  501 -0.00000000000E+00 -0.00000000000E+00 -0.99033017922E+03  0.99033017922E+03  0.00000000000E+00 0.  1.
         23    2    1    2    0    0  0.32627289147E+03 -0.11907658254E+03 -0.84017664496E+03  0.91395142606E+03  0.93686617151E+02 0.  0.
        254    2    1    2    0    0 -0.32627289147E+03  0.11907658254E+03  0.19366952033E+04  0.21632274907E+04  0.89896141955E+03 0.  0.
        -24    2    4    4    0    0  0.29180738815E+03 -0.26631619842E+02  0.84398746693E+03  0.89693360376E+03  0.79462256930E+02 0.  0.
         24    2    4    4    0    0 -0.61808027961E+03  0.14570820238E+03  0.10927077363E+04  0.12662938869E+04  0.78967706616E+02 0.  0.
         11    1    3    3    0    0  0.22727123048E+02 -0.34497825904E+02 -0.63148907142E+02  0.75461291981E+02  0.00000000000E+00 0. -1.
        -11    1    3    3    0    0  0.30354576842E+03 -0.84578756639E+02 -0.77702773782E+03  0.83849013408E+03  0.00000000000E+00 0.  1.
          2    1    6    6  502    0 -0.15578389632E+03  0.64892571391E+02  0.24804137594E+03  0.30000698718E+03  0.00000000000E+00 0. -1.
          3    1    5    5  503    0  0.29657014283E+03 -0.26603780244E+02  0.83769845520E+03  0.88904460663E+03  0.00000000000E+00 0. -1.
         -4    1    5    5    0  503 -0.47627546811E+01 -0.27839597803E-01  0.62890117266E+01  0.78889971284E+01  0.00000000000E+00 0.  1.
         -1    1    6    6    0  502 -0.46229638329E+03  0.80815630994E+02  0.84466636039E+03  0.96628689973E+03  0.00000000000E+00 0.  1.
<mgrwt>
<rscale>  0 0.28751830E+04</rscale>
<asrwt>0</asrwt>
<pdfrwt beam="1">  1        2 0.32105365E+00 0.28751830E+04</pdfrwt>
<pdfrwt beam="2">  1       -2 0.15235849E+00 0.28751830E+04</pdfrwt>
<totfact> 0.14856181E+00</totfact>
</mgrwt>
</event>
<event>
12    1  0.1477245E-007  0.2746881E+04  0.7818608E-02  0.8319952E-01
          1   -1    0    0  501    0  0.00000000000E+00  0.00000000000E+00  0.12542424216E+04  0.12542424216E+04  0.00000000000E+00 0. -1.
         -1   -1    0    0    0  501 -0.00000000000E+00 -0.00000000000E+00 -0.15039670263E+04  0.15039670263E+04  0.00000000000E+00 0.  1.
         23    2    1    2    0    0 -0.10816133890E+03  0.46069307700E+03  0.10239068899E+04  0.11315767901E+04  0.90242597352E+02 0.  0.
        254    2    1    2    0    0  0.10816133890E+03 -0.46069307700E+03 -0.12736314945E+04  0.16266326578E+04  0.89434872011E+03 0.  0.
        -24    2    4    4    0    0 -0.15611569914E+03  0.20591705112E+03 -0.21463191464E+03  0.34520742576E+03  0.79544733069E+02 0.  0.
         24    2    4    4    0    0  0.26427703804E+03 -0.66661012812E+03 -0.10589995799E+04  0.12814252321E+04  0.79743961260E+02 0.  0.
         11    1    3    3    0    0 -0.16561391595E+02  0.26669842486E+03  0.56965826712E+03  0.62921607641E+03  0.00000000000E+00 0.  1.
        -11    1    3    3    0    0 -0.91599947300E+02  0.19399465214E+03  0.45424862273E+03  0.50236071369E+03  0.00000000000E+00 0. -1.
          4    1    6    6  502    0  0.83200215646E+02 -0.24682376844E+03 -0.32222581016E+03  0.41433527642E+03  0.00000000000E+00 0. -1.
          1    1    5    5  503    0 -0.49872768815E+02  0.12097918781E+03 -0.77635468133E+02  0.15215295877E+03  0.00000000000E+00 0. -1.
         -2    1    5    5    0  503 -0.10624293033E+03  0.84937863317E+02 -0.13699644651E+03  0.19305446699E+03  0.00000000000E+00 0.  1.
         -3    1    6    6    0  502  0.18107682239E+03 -0.41978635968E+03 -0.73677376975E+03  0.86708995564E+03  0.00000000000E+00 0.  1.
<mgrwt>
<rscale>  0 0.27468813E+04</rscale>
<asrwt>0</asrwt>
<pdfrwt beam="1">  1        1 0.19296037E+00 0.27468813E+04</pdfrwt>
<pdfrwt beam="2">  1       -1 0.23137954E+00 0.27468813E+04</pdfrwt>
<totfact> 0.78429759E-01</totfact>
</mgrwt>
</event>
<event>
12    1  0.1477245E-007  0.1658255E+04  0.7818608E-02  0.8785538E-01
         -2   -1    0    0    0  501 -0.00000000000E+00  0.00000000000E+00  0.79682882930E+03  0.79682882930E+03  0.00000000000E+00 0.  1.
          2   -1    0    0  501    0  0.00000000000E+00 -0.00000000000E+00 -0.86273586481E+03  0.86273586481E+03  0.00000000000E+00 0. -1.
         23    2    1    2    0    0 -0.28387716995E+03 -0.15654193858E+03  0.46026307409E+03  0.57006275665E+03  0.89653906755E+02 0.  0.
        254    2    1    2    0    0  0.28387716995E+03  0.15654193858E+03 -0.52617010960E+03  0.10895019375E+04  0.89725573909E+03 0.  0.
        -24    2    4    4    0    0  0.11163880684E+03  0.67636978987E+02  0.24600920574E+03  0.28965875820E+03  0.79647239596E+02 0.  0.
         24    2    4    4    0    0  0.17223836312E+03  0.88904959596E+02 -0.77217931534E+03  0.79984317925E+03  0.76928998388E+02 0.  0.
         11    1    3    3    0    0  0.35273523437E+01 -0.15750324990E+02  0.26188970248E+02  0.30763242912E+02  0.00000000000E+00 0. -1.
        -11    1    3    3    0    0 -0.28740452230E+03 -0.14079161359E+03  0.43407410384E+03  0.53929951374E+03  0.00000000000E+00 0.  1.
          4    1    6    6  502    0  0.34800891107E+02  0.50297792696E+02 -0.31539370772E+03  0.32126960772E+03  0.00000000000E+00 0. -1.
          1    1    5    5  503    0  0.26336936806E+02  0.33773755240E+02  0.15343811199E+03  0.15930334270E+03  0.00000000000E+00 0. -1.
         -2    1    5    5    0  503  0.85301870031E+02  0.33863223747E+02  0.92571093752E+02  0.13035541551E+03  0.00000000000E+00 0.  1.
         -3    1    6    6    0  502  0.13743747201E+03  0.38607166901E+02 -0.45678560762E+03  0.47857357154E+03  0.00000000000E+00 0.  1.
<mgrwt>
<rscale>  0 0.16582555E+04</rscale>
<asrwt>0</asrwt>
<pdfrwt beam="1">  1        2 0.13272859E+00 0.16582555E+04</pdfrwt>
<pdfrwt beam="2">  1       -2 0.12258905E+00 0.16582555E+04</pdfrwt>
<totfact> 0.14945769E+01</totfact>
</mgrwt>
</event>
<event>
12    1  0.1477245E-007  0.1173365E+04  0.7818608E-02  0.9136495E-01
          2   -1    0    0  501    0  0.00000000000E+00  0.00000000000E+00  0.21531436274E+04  0.21531436274E+04  0.00000000000E+00 0. -1.
         -2   -1    0    0    0  501 -0.00000000000E+00 -0.00000000000E+00 -0.15985757362E+03  0.15985757362E+03  0.00000000000E+00 0.  1.
         23    2    1    2    0    0  0.16008813275E+03  0.81438433471E+02  0.12190363739E+03  0.23958662579E+03  0.10139440691E+03 0.  0.
        254    2    1    2    0    0 -0.16008813275E+03 -0.81438433471E+02  0.18713824163E+04  0.20734145752E+04  0.87448008765E+03 0.  0.
        -24    2    4    4    0    0 -0.19136965992E+03 -0.40007893240E+03  0.54857859908E+03  0.71009635294E+03  0.81319445416E+02 0.  0.
         24    2    4    4    0    0  0.31281527171E+02  0.31864049893E+03  0.13228038173E+04  0.13633182222E+04  0.79475371209E+02 0.  0.
         13    1    3    3    0    0 -0.80717331398E+01 -0.82350696619E+01  0.20972927286E+02  0.23933928369E+02  0.00000000000E+00 0. -1.
        -13    1    3    3    0    0  0.16815986589E+03  0.89673503133E+02  0.10093071011E+03  0.21565269742E+03  0.00000000000E+00 0.  1.
          2    1    6    6  502    0  0.22143779139E+02  0.16653939982E+02  0.10430043094E+03  0.10791793440E+03  0.00000000000E+00 0. -1.
          1    1    5    5  503    0 -0.95493918151E+01 -0.73885904027E+02  0.63306769362E+02  0.97765355545E+02  0.00000000000E+00 0. -1.
         -2    1    5    5    0  503 -0.18182026811E+03 -0.32619302838E+03  0.48527182972E+03  0.61233099740E+03  0.00000000000E+00 0.  1.
         -1    1    6    6    0  502  0.91377480324E+01  0.30198655895E+03  0.12185033863E+04  0.12554002878E+04  0.00000000000E+00 0.  1.
<mgrwt>
<rscale>  0 0.11733649E+04</rscale>
<asrwt>0</asrwt>
<pdfrwt beam="1">  1        2 0.33125284E+00 0.11733649E+04</pdfrwt>
<pdfrwt beam="2">  1       -2 0.24593474E-01 0.11733649E+04</pdfrwt>
<totfact> 0.80376769E+01</totfact>
</mgrwt>
</event>
<event>
12    1  0.2511819E-007  0.1769741E+04  0.7818608E-02  0.8722559E-01
          2   -1    0    0  501    0  0.00000000000E+00  0.00000000000E+00  0.79202609669E+03  0.79202609669E+03  0.00000000000E+00 0. -1.
         -2   -1    0    0    0  501 -0.00000000000E+00 -0.00000000000E+00 -0.98859816707E+03  0.98859816707E+03  0.00000000000E+00 0.  1.
         23    2    1    2    0    0  0.99991330658E+02  0.11246280703E+02  0.58515604338E+03  0.60086481976E+03  0.92229016532E+02 0.  0.
        254    2    1    2    0    0 -0.99991330658E+02 -0.11246280703E+02 -0.78172811376E+03  0.11797594440E+04  0.87784324160E+03 0.  0.
        -24    2    4    4    0    0  0.10505255567E+03  0.21118146675E+03  0.81012034167E+02  0.26231469775E+03  0.81316662643E+02 0.  0.
         24    2    4    4    0    0 -0.20504388632E+03 -0.22242774746E+03 -0.86274014793E+03  0.91744474625E+03  0.76597659316E+02 0.  0.
         13    1    3    3    0    0  0.90499255166E+02  0.19852582944E+02  0.57949879217E+03  0.58685866302E+03  0.00000000000E+00 0. -1.
        -13    1    3    3    0    0  0.94920754920E+01 -0.86063022409E+01  0.56572512039E+01  0.14006156739E+02  0.00000000000E+00 0.  1.
          2    1    6    6  502    0 -0.21089484812E+03 -0.21247908236E+03 -0.84297872202E+03  0.89455973707E+03  0.00000000000E+00 0. -1.
          1    1    5    5  503    0  0.99565112670E+02  0.14044194768E+03  0.83464375725E+02  0.19132029256E+03  0.00000000000E+00 0. -1.
         -2    1    5    5    0  503  0.54874429954E+01  0.70739519073E+02 -0.24523415580E+01  0.70994405191E+02  0.00000000000E+00 0.  1.
         -1    1    6    6    0  502  0.58509618006E+01 -0.99486650954E+01 -0.19761425906E+02  0.22885009177E+02  0.00000000000E+00 0.  1.
<mgrwt>
<rscale>  0 0.17697407E+04</rscale>
<asrwt>0</asrwt>
<pdfrwt beam="1">  1        2 0.12185017E+00 0.17697407E+04</pdfrwt>
<pdfrwt beam="2">  1       -2 0.15209203E+00 0.17697407E+04</pdfrwt>
<totfact> 0.95359767E+00</totfact>
</mgrwt>
</event>
<event>
12    1  0.1477245E-007  0.1513800E+04  0.7818608E-02  0.8875328E-01
          2   -1    0    0  501    0  0.00000000000E+00  0.00000000000E+00  0.68034735005E+03  0.68034735005E+03  0.00000000000E+00 0.  1.
         -2   -1    0    0    0  501 -0.00000000000E+00 -0.00000000000E+00 -0.84206582922E+03  0.84206582922E+03  0.00000000000E+00 0. -1.
         23    2    1    2    0    0  0.25352445537E+03  0.28335917901E+02 -0.46168886287E+03  0.53554712814E+03  0.92609646586E+02 0.  0.
        254    2    1    2    0    0 -0.25352445537E+03 -0.28335917901E+02  0.29997038370E+03  0.98686605114E+03  0.90490043545E+03 0.  0.
        -24    2    4    4    0    0 -0.47928126012E+03  0.23024316048E+02 -0.11838957634E+03  0.50034584164E+03  0.78033480170E+02 0.  0.
         24    2    4    4    0    0  0.22575680475E+03 -0.51360233949E+02  0.41835996005E+03  0.48652020950E+03  0.89849037598E+02 0.  0.
         11    1    3    3    0    0  0.23788460180E+02 -0.18273865650E+02 -0.10112587466E+03  0.10548112404E+03  0.00000000000E+00 0.  1.
        -11    1    3    3    0    0  0.22973599519E+03  0.46609783551E+02 -0.36056298821E+03  0.43006600409E+03  0.00000000000E+00 0. -1.
          2    1    6    6  502    0 -0.24893434443E+01 -0.14274610158E+02  0.45739695618E+02  0.47980007098E+02  0.00000000000E+00 0. -1.
          3    1    5    5  503    0 -0.33422326456E+01 -0.35101628037E+00 -0.11514505145E+02  0.11994897258E+02  0.00000000000E+00 0. -1.
         -4    1    5    5    0  503 -0.47593902747E+03  0.23375332328E+02 -0.10687507120E+03  0.48835094438E+03  0.00000000000E+00 0.  1.
         -1    1    6    6    0  502  0.22824614820E+03 -0.37085623791E+02  0.37262026443E+03  0.43854020240E+03  0.00000000000E+00 0.  1.
<mgrwt>
<rscale>  0 0.15137995E+04</rscale>
<asrwt>0</asrwt>
<pdfrwt beam="1">  1        2 0.10466882E+00 0.15137995E+04</pdfrwt>
<pdfrwt beam="2">  1       -2 0.12954859E+00 0.15137995E+04</pdfrwt>
<totfact> 0.17956268E+01</totfact>
</mgrwt>
</event>
<event>
12    1  0.1477245E-007  0.3027855E+04  0.7818608E-02  0.8235821E-01
          2   -1    0    0  501    0  0.00000000000E+00  0.00000000000E+00  0.22168736674E+04  0.22168736674E+04  0.00000000000E+00 0. -1.
         -2   -1    0    0    0  501 -0.00000000000E+00 -0.00000000000E+00 -0.10338781313E+04  0.10338781313E+04  0.00000000000E+00 0.  1.
         23    2    1    2    0    0  0.11158549017E+04 -0.68873945947E+03  0.99659013962E+03  0.16498004872E+04  0.95684567983E+02 0.  0.
        254    2    1    2    0    0 -0.11158549017E+04  0.68873945947E+03  0.18640539648E+03  0.16009513116E+04  0.89933526871E+03 0.  0.
        -24    2    4    4    0    0 -0.12575813064E+04  0.63314549658E+03  0.21284562900E+03  0.14262850967E+04  0.81252404398E+02 0.  0.
         24    2    4    4    0    0  0.14172640473E+03  0.55593962894E+02 -0.26440232521E+02  0.17466621487E+03  0.81437940855E+02 0.  0.
         13    1    3    3    0    0  0.69061397549E+03 -0.39172343818E+03  0.55679327555E+03  0.96974928041E+03  0.00000000000E+00 0. -1.
        -13    1    3    3    0    0  0.42524092618E+03 -0.29701602130E+03  0.43979686407E+03  0.68005120679E+03  0.00000000000E+00 0.  1.
          2    1    6    6  502    0  0.59707103181E+02 -0.73047431019E+01  0.17060208001E+02  0.62524780200E+02  0.00000000000E+00 0. -1.
          1    1    5    5  503    0 -0.15926351145E+03  0.80121132998E+02 -0.16862258230E+00  0.17828149221E+03  0.00000000000E+00 0. -1.
         -2    1    5    5    0  503 -0.10983177950E+04  0.55302436358E+03  0.21301425158E+03  0.12480036045E+04  0.00000000000E+00 0.  1.
         -1    1    6    6    0  502  0.82019301553E+02  0.62898705995E+02 -0.43500440522E+02  0.11214143466E+03  0.00000000000E+00 0.  1.
<mgrwt>
<rscale>  0 0.30278555E+04</rscale>
<asrwt>0</asrwt>
<pdfrwt beam="1">  1        2 0.34105749E+00 0.30278555E+04</pdfrwt>
<pdfrwt beam="2">  1       -2 0.15905817E+00 0.30278555E+04</pdfrwt>
<totfact> 0.11044350E+00</totfact>
</mgrwt>
</event>
<event>
12    1  0.1477245E-007  0.1271768E+04  0.7818608E-02  0.9052258E-01
          1   -1    0    0  501    0  0.00000000000E+00  0.00000000000E+00  0.22556169865E+04  0.22556169865E+04  0.00000000000E+00 0. -1.
         -1   -1    0    0    0  501 -0.00000000000E+00 -0.00000000000E+00 -0.17926282811E+03  0.17926282811E+03  0.00000000000E+00 0.  1.
         23    2    1    2    0    0  0.27978254066E+03 -0.87589337035E+02  0.36010795163E+03  0.47481844072E+03  0.99119386593E+02 0.  0.
        254    2    1    2    0    0 -0.27978254066E+03  0.87589337035E+02  0.17162462067E+04  0.19600613738E+04  0.90021629909E+03 0.  0.
        -24    2    4    4    0    0 -0.19891655018E+02 -0.29531995578E+03  0.18360933611E+03  0.35715526437E+03  0.78980632715E+02 0.  0.
         24    2    4    4    0    0 -0.25989088564E+03  0.38290929281E+03  0.15326368706E+04  0.16029061095E+04  0.78545653399E+02 0.  0.
         11    1    3    3    0    0  0.76472949781E+02 -0.28074863018E+02  0.39474989507E+02  0.90523945883E+02  0.00000000000E+00 0. -1.
        -11    1    3    3    0    0  0.20330959088E+03 -0.59514474017E+02  0.32063296212E+03  0.38429449484E+03  0.00000000000E+00 0.  1.
          4    1    6    6  502    0 -0.23484167393E+02  0.89139634423E+02  0.31661984297E+03  0.32976583436E+03  0.00000000000E+00 0. -1.
          3    1    5    5  503    0 -0.40860144050E+02 -0.78348929735E+02  0.52926003867E+02  0.10300130119E+03  0.00000000000E+00 0. -1.
         -4    1    5    5    0  503  0.20968489032E+02 -0.21697102604E+03  0.13068333224E+03  0.25415396318E+03  0.00000000000E+00 0.  1.
         -3    1    6    6    0  502 -0.23640671825E+03  0.29376965839E+03  0.12160170276E+04  0.12731402751E+04  0.00000000000E+00 0.  1.
<mgrwt>
<rscale>  0 0.12717677E+04</rscale>
<asrwt>0</asrwt>
<pdfrwt beam="1">  1        1 0.34701798E+00 0.12717677E+04</pdfrwt>
<pdfrwt beam="2">  1       -1 0.27578898E-01 0.12717677E+04</pdfrwt>
<totfact> 0.23302173E+01</totfact>
</mgrwt>
</event>
<event>
12    1  0.1477245E-007  0.3239048E+04  0.7818608E-02  0.8178580E-01
          2   -1    0    0  501    0  0.00000000000E+00  0.00000000000E+00  0.29479372175E+04  0.29479372175E+04  0.00000000000E+00 0. -1.
         -2   -1    0    0    0  501 -0.00000000000E+00 -0.00000000000E+00 -0.88972641711E+03  0.88972641711E+03  0.00000000000E+00 0.  1.
         23    2    1    2    0    0 -0.93938971952E+02  0.76249676605E+03  0.24697395659E+04  0.25881140540E+04  0.92168239035E+02 0.  0.
        254    2    1    2    0    0  0.93938971952E+02 -0.76249676605E+03 -0.41152876552E+03  0.12495495806E+04  0.89542860181E+03 0.  0.
        -24    2    4    4    0    0  0.49077530855E+03 -0.40378505114E+03 -0.21810649098E+03  0.67649144283E+03  0.78533176490E+02 0.  0.
         24    2    4    4    0    0 -0.39683633660E+03 -0.35871171492E+03 -0.19342227453E+03  0.57305813781E+03  0.69500219834E+02 0.  0.
         13    1    3    3    0    0 -0.42659724523E+02  0.11779461044E+03  0.46883295876E+03  0.48528318079E+03  0.00000000000E+00 0.  1.
        -13    1    3    3    0    0 -0.51279247430E+02  0.64470215561E+03  0.20009066072E+04  0.21028308732E+04  0.00000000000E+00 0. -1.
          2    1    6    6  502    0 -0.39187661350E+03 -0.36184729117E+03 -0.18973137051E+03  0.56612607721E+03  0.00000000000E+00 0. -1.
          1    1    5    5  503    0  0.31207706825E+03 -0.21092393259E+03 -0.14475532713E+03  0.40352832193E+03  0.00000000000E+00 0. -1.
         -2    1    5    5    0  503  0.17869824030E+03 -0.19286111854E+03 -0.73351163852E+02  0.27296312090E+03  0.00000000000E+00 0.  1.
         -1    1    6    6    0  502 -0.49597231025E+01  0.31355762551E+01 -0.36909040217E+01  0.69320606029E+01  0.00000000000E+00 0.  1.
<mgrwt>
<rscale>  0 0.32390478E+04</rscale>
<asrwt>0</asrwt>
<pdfrwt beam="1">  1        2 0.45352880E+00 0.32390478E+04</pdfrwt>
<pdfrwt beam="2">  1       -2 0.13688099E+00 0.32390478E+04</pdfrwt>
<totfact> 0.59931705E-01</totfact>
</mgrwt>
</event>
<event>
12    1  0.1477245E-007  0.2202547E+04  0.7818608E-02  0.8517369E-01
         -2   -1    0    0    0  501 -0.00000000000E+00  0.00000000000E+00  0.24195723447E+03  0.24195723447E+03  0.00000000000E+00 0.  1.
          2   -1    0    0  501    0  0.00000000000E+00 -0.00000000000E+00 -0.50124710130E+04  0.50124710130E+04  0.00000000000E+00 0. -1.
         23    2    1    2    0    0  0.12769035882E+03  0.43288318484E+03 -0.92013540263E+02  0.46991432921E+03  0.93060763743E+02 0.  0.
        254    2    1    2    0    0 -0.12769035882E+03 -0.43288318484E+03 -0.46785002383E+04  0.47845139183E+04  0.89415673967E+03 0.  0.
        -24    2    4    4    0    0 -0.24986536691E+02 -0.69934739618E+03 -0.32087745491E+04  0.32852082379E+04  0.81534976580E+02 0.  0.
         24    2    4    4    0    0 -0.10270382213E+03  0.26646421133E+03 -0.14697256893E+04  0.14993056804E+04  0.79200192618E+02 0.  0.
         11    1    3    3    0    0  0.68625073081E+01  0.25366713709E+01 -0.14520465776E+02  0.16259539801E+02  0.00000000000E+00 0. -1.
        -11    1    3    3    0    0  0.12082785151E+03  0.43034651347E+03 -0.77493074487E+02  0.45365478941E+03  0.00000000000E+00 0.  1.
          2    1    6    6  502    0 -0.60209708874E+02  0.23306645359E+03 -0.12554155056E+04  0.12782852861E+04  0.00000000000E+00 0. -1.
          1    1    5    5  503    0 -0.39286819972E+02 -0.43073505282E+03 -0.21227733703E+04  0.21663893745E+04  0.00000000000E+00 0. -1.
         -2    1    5    5    0  503  0.14300283281E+02 -0.26861234335E+03 -0.10860011787E+04  0.11188188635E+04  0.00000000000E+00 0.  1.
         -1    1    6    6    0  502 -0.42494113255E+02  0.33397757741E+02 -0.21431018362E+03  0.22102039427E+03  0.00000000000E+00 0.  1.
<mgrwt>
<rscale>  0 0.22025473E+04</rscale>
<asrwt>0</asrwt>
<pdfrwt beam="1">  1        2 0.77114932E+00 0.22025473E+04</pdfrwt>
<pdfrwt beam="2">  1       -2 0.37224193E-01 0.22025473E+04</pdfrwt>
<totfact> 0.20959277E-01</totfact>
</mgrwt>
</event>
<event>
12    1  0.1477245E-007  0.1147617E+04  0.7818608E-02  0.9159985E-01
         -1   -1    0    0    0  501 -0.00000000000E+00  0.00000000000E+00  0.12430685399E+04  0.12430685399E+04  0.00000000000E+00 0.  1.
          1   -1    0    0  501    0  0.00000000000E+00 -0.00000000000E+00 -0.26487357236E+03  0.26487357236E+03  0.00000000000E+00 0. -1.
         23    2    1    2    0    0  0.27373681128E+02  0.13208528286E+03 -0.20817660621E+02  0.16355704726E+03  0.90120432457E+02 0.  0.
        254    2    1    2    0    0 -0.27373681128E+02 -0.13208528286E+03  0.99901262814E+03  0.13443850650E+04  0.88946564374E+03 0.  0.
        -24    2    4    4    0    0  0.35181893923E+03  0.17221480316E+03  0.36506786561E+03  0.54145213936E+03  0.80382636725E+02 0.  0.
         24    2    4    4    0    0 -0.37919262036E+03 -0.30430008602E+03  0.63394476253E+03  0.80293292562E+03  0.80185631058E+02 0.  0.
         13    1    3    3    0    0  0.55031644732E+02  0.10894206623E+03 -0.27463848365E+00  0.12205298498E+03  0.00000000000E+00 0. -1.
        -13    1    3    3    0    0 -0.27657963605E+02  0.23143216631E+02 -0.20543022137E+02  0.41504062275E+02  0.00000000000E+00 0.  1.
          4    1    6    6  502    0 -0.89964451940E+02 -0.88747661288E+02  0.11451792624E+03  0.17054062691E+03  0.00000000000E+00 0. -1.
          3    1    5    5  503    0  0.20861661208E+03  0.13927610450E+03  0.25641899592E+03  0.35870520708E+03  0.00000000000E+00 0. -1.
         -4    1    5    5    0  503  0.14320232715E+03  0.32938698659E+02  0.10864886969E+03  0.18274693228E+03  0.00000000000E+00 0.  1.
         -3    1    6    6    0  502 -0.28922816842E+03 -0.21555242474E+03  0.51942683629E+03  0.63239229871E+03  0.00000000000E+00 0.  1.
<mgrwt>
<rscale>  0 0.11476167E+04</rscale>
<asrwt>0</asrwt>
<pdfrwt beam="1">  1        1 0.40749781E-01 0.11476167E+04</pdfrwt>
<pdfrwt beam="2">  1       -1 0.19124131E+00 0.11476167E+04</pdfrwt>
<totfact> 0.17750027E+01</totfact>
</mgrwt>
</event>
<event>
12    1  0.1477245E-007  0.1846177E+04  0.7818608E-02  0.8682121E-01
          2   -1    0    0  501    0  0.00000000000E+00  0.00000000000E+00  0.11299546711E+04  0.11299546711E+04  0.00000000000E+00 0. -1.
         -2   -1    0    0    0  501 -0.00000000000E+00 -0.00000000000E+00 -0.75409429710E+03  0.75409429710E+03  0.00000000000E+00 0.  1.
         23    2    1    2    0    0 -0.80805690778E+02  0.69416746501E+03  0.11740966739E+03  0.71444704457E+03  0.90837879523E+02 0.  0.
        254    2    1    2    0    0  0.80805690778E+02 -0.69416746501E+03  0.25845070665E+03  0.11696019237E+04  0.90153971790E+03 0.  0.
        -24    2    4    4    0    0 -0.36726966435E+03 -0.48587003260E+03  0.18254180919E+02  0.61454555045E+03  0.79851885002E+02 0.  0.
         24    2    4    4    0    0  0.44807535512E+03 -0.20829743241E+03  0.24019652573E+03  0.55505637322E+03  0.78954811486E+02 0.  0.
         13    1    3    3    0    0  0.12176796535E+01  0.61715015253E+02  0.36171945546E+02  0.71544639883E+02  0.00000000000E+00 0. -1.
        -13    1    3    3    0    0 -0.82023370432E+02  0.63245244975E+03  0.81237721846E+02  0.64290240468E+03  0.00000000000E+00 0.  1.
          4    1    6    6  502    0  0.36011147517E+03 -0.19886040202E+03  0.20748380351E+03  0.46073339662E+03  0.00000000000E+00 0. -1.
          1    1    5    5  503    0 -0.36116131522E+03 -0.48068891988E+03  0.77016576810E+01  0.60129747117E+03  0.00000000000E+00 0. -1.
         -2    1    5    5    0  503 -0.61083491253E+01 -0.51811127209E+01  0.10552523238E+02  0.13248079286E+02  0.00000000000E+00 0.  1.
         -3    1    6    6    0  502  0.87963879956E+02 -0.94370303882E+01  0.32712722228E+02  0.94322976602E+02  0.00000000000E+00 0.  1.
<mgrwt>
<rscale>  0 0.18461770E+04</rscale>
<asrwt>0</asrwt>
<pdfrwt beam="1">  1        2 0.17383918E+00 0.18461770E+04</pdfrwt>
<pdfrwt beam="2">  1       -2 0.11601451E+00 0.18461770E+04</pdfrwt>
<totfact> 0.11336935E+01</totfact>
</mgrwt>
</event>
<event>
12    1  0.1477245E-007  0.1183875E+04  0.7818608E-02  0.9127089E-01
         -2   -1    0    0    0  501 -0.00000000000E+00  0.00000000000E+00  0.50543900751E+03  0.50543900751E+03  0.00000000000E+00 0.  1.
          2   -1    0    0  501    0  0.00000000000E+00 -0.00000000000E+00 -0.69323855096E+03  0.69323855096E+03  0.00000000000E+00 0. -1.
         23    2    1    2    0    0 -0.62311421009E+02 -0.10726840018E+02  0.14711818726E+03  0.18337457218E+03  0.89357117318E+02 0.  0.
        254    2    1    2    0    0  0.62311421009E+02  0.10726840018E+02 -0.33491773072E+03  0.10153029863E+04  0.95638511560E+03 0.  0.
        -24    2    4    4    0    0  0.20362764340E+03  0.31525000251E+03 -0.50244374513E+03  0.63179512129E+03  0.76606638257E+02 0.  0.
         24    2    4    4    0    0 -0.14131622239E+03 -0.30452316249E+03  0.16752601441E+03  0.38350786500E+03  0.79427235936E+02 0.  0.
         11    1    3    3    0    0  0.56934522958E+01  0.11773748905E+02 -0.59554159833E+01  0.14370231099E+02  0.00000000000E+00 0. -1.
        -11    1    3    3    0    0 -0.68004873305E+02 -0.22500588923E+02  0.15307360324E+03  0.16900434108E+03  0.00000000000E+00 0.  1.
          2    1    6    6  502    0 -0.31978381620E+02 -0.39185863434E+02 -0.12158684996E+01  0.50592757588E+02  0.00000000000E+00 0. -1.
          3    1    5    5  503    0  0.86334914110E+02  0.12389057690E+03 -0.14262117217E+03  0.20770987263E+03  0.00000000000E+00 0. -1.
         -4    1    5    5    0  503  0.11729272929E+03  0.19135942561E+03 -0.35982257296E+03  0.42408524866E+03  0.00000000000E+00 0.  1.
         -1    1    6    6    0  502 -0.10933784077E+03 -0.26533729906E+03  0.16874188291E+03  0.33291510742E+03  0.00000000000E+00 0.  1.
<mgrwt>
<rscale>  0 0.11838747E+04</rscale>
<asrwt>0</asrwt>
<pdfrwt beam="1">  1        2 0.10665208E+00 0.11838747E+04</pdfrwt>
<pdfrwt beam="2">  1       -2 0.77759848E-01 0.11838747E+04</pdfrwt>
<totfact> 0.60395577E+01</totfact>
</mgrwt>
</event>
<event>
12    1  0.1477245E-007  0.1583099E+04  0.7818608E-02  0.8830999E-01
          2   -1    0    0  501    0  0.00000000000E+00  0.00000000000E+00  0.12389613764E+04  0.12389613764E+04  0.00000000000E+00 0. -1.
         -2   -1    0    0    0  501 -0.00000000000E+00 -0.00000000000E+00 -0.50570636446E+03  0.50570636446E+03  0.00000000000E+00 0.  1.
         23    2    1    2    0    0  0.15795776716E+03 -0.10670375182E+03  0.79007226852E+03  0.81670987693E+03  0.80402031874E+02 0.  0.
        254    2    1    2    0    0 -0.15795776716E+03  0.10670375182E+03 -0.56817256596E+02  0.92795786391E+03  0.90638912707E+03 0.  0.
        -24    2    4    4    0    0  0.35756870365E+03  0.14132534737E+03 -0.94271516583E+02  0.40378260271E+03  0.79530118688E+02 0.  0.
         24    2    4    4    0    0 -0.51552647081E+03 -0.34621595546E+02  0.37454259987E+02  0.52417526119E+03  0.79941765513E+02 0.  0.
         11    1    3    3    0    0  0.69675224569E+02 -0.74988787911E+02  0.54013165714E+03  0.54974554321E+03  0.00000000000E+00 0.  1.
        -11    1    3    3    0    0  0.88282542594E+02 -0.31714963911E+02  0.24994061138E+03  0.26696433372E+03  0.00000000000E+00 0. -1.
          2    1    6    6  502    0 -0.26583106792E+03  0.14820176860E+02  0.42315285045E+02  0.26958556649E+03  0.00000000000E+00 0. -1.
          1    1    5    5  503    0  0.58717786516E+02 -0.18990062684E+01 -0.30900206888E+02  0.66379269836E+02  0.00000000000E+00 0. -1.
         -4    1    5    5    0  503  0.29885091713E+03  0.14322435364E+03 -0.63371309695E+02  0.33740333288E+03  0.00000000000E+00 0.  1.
         -1    1    6    6    0  502 -0.24969540289E+03 -0.49441772406E+02 -0.48610250573E+01  0.25458969470E+03  0.00000000000E+00 0.  1.
<mgrwt>
<rscale>  0 0.15830991E+04</rscale>
<asrwt>0</asrwt>
<pdfrwt beam="1">  1        2 0.19060944E+00 0.15830991E+04</pdfrwt>
<pdfrwt beam="2">  1       -2 0.77800979E-01 0.15830991E+04</pdfrwt>
<totfact> 0.25372308E+01</totfact>
</mgrwt>
</event>
<event>
12    1  0.1477245E-007  0.2071043E+04  0.7818608E-02  0.8574107E-01
         -1   -1    0    0    0  501 -0.00000000000E+00  0.00000000000E+00  0.46340209417E+03  0.46340209417E+03  0.00000000000E+00 0.  1.
          1   -1    0    0  501    0  0.00000000000E+00 -0.00000000000E+00 -0.23139842286E+04  0.23139842286E+04  0.00000000000E+00 0. -1.
         23    2    1    2    0    0 -0.74048339100E+03  0.33594479005E+03 -0.10563446134E+04  0.13356007655E+04  0.82406967450E+02 0.  0.
        254    2    1    2    0    0  0.74048339100E+03 -0.33594479005E+03 -0.79423752097E+03  0.14417855572E+04  0.88699368594E+03 0.  0.
        -24    2    4    4    0    0  0.58677678301E+03 -0.61858187088E+03 -0.67013765255E+03  0.10874118103E+04  0.80183837108E+02 0.  0.
         24    2    4    4    0    0  0.15370660799E+03  0.28263708083E+03 -0.12409986842E+03  0.35437374690E+03  0.81673339282E+02 0.  0.
         13    1    3    3    0    0 -0.18890567309E+02  0.71301368030E-01 -0.11451387785E+02  0.22090561318E+02  0.00000000000E+00 0.  1.
        -13    1    3    3    0    0 -0.72159282370E+03  0.33587348868E+03 -0.10448932256E+04  0.13135102042E+04  0.00000000000E+00 0. -1.
          4    1    6    6  502    0  0.33728709099E+02  0.72884136260E+02  0.48898661642E+01  0.80458895885E+02  0.00000000000E+00 0. -1.
          1    1    5    5  503    0  0.18848269240E+03 -0.20290334261E+03 -0.26625425652E+03  0.38417030194E+03  0.00000000000E+00 0. -1.
         -2    1    5    5    0  503  0.39829409061E+03 -0.41567852827E+03 -0.40388339603E+03  0.70324150836E+03  0.00000000000E+00 0.  1.
         -3    1    6    6    0  502  0.11997789889E+03  0.20975294457E+03 -0.12898973459E+03  0.27391485102E+03  0.00000000000E+00 0.  1.
<mgrwt>
<rscale>  0 0.20710433E+04</rscale>
<asrwt>0</asrwt>
<pdfrwt beam="1">  1        1 0.35599757E+00 0.20710433E+04</pdfrwt>
<pdfrwt beam="2">  1       -1 0.71292631E-01 0.20710433E+04</pdfrwt>
<totfact> 0.33351057E+00</totfact>
</mgrwt>
</event>
<event>
12    1  0.1477245E-007  0.2479606E+04  0.7818608E-02  0.8410287E-01
         -1   -1    0    0    0  501 -0.00000000000E+00  0.00000000000E+00  0.32740106952E+03  0.32740106952E+03  0.00000000000E+00 0.  1.
          1   -1    0    0  501    0  0.00000000000E+00 -0.00000000000E+00 -0.46948871019E+04  0.46948871019E+04  0.00000000000E+00 0. -1.
         23    2    1    2    0    0 -0.29047495486E+03  0.84327521307E+03 -0.68568088405E+03  0.11286412112E+04  0.90465045370E+02 0.  0.
        254    2    1    2    0    0  0.29047495486E+03 -0.84327521307E+03 -0.36818051483E+04  0.38936469602E+04  0.89961587152E+03 0.  0.
        -24    2    4    4    0    0  0.48650650735E+03 -0.83753926332E+03 -0.34283963606E+04  0.35635247268E+04  0.81524681341E+02 0.  0.
         24    2    4    4    0    0 -0.19603155248E+03 -0.57359497522E+01 -0.25340878770E+03  0.33012223343E+03  0.79393983616E+02 0.  0.
         11    1    3    3    0    0 -0.94711189171E+01  0.10998847752E+02 -0.39343951801E+00  0.14520039259E+02  0.00000000000E+00 0. -1.
        -11    1    3    3    0    0 -0.28100383595E+03  0.83227636532E+03 -0.68528744453E+03  0.11141211719E+04  0.00000000000E+00 0.  1.
          4    1    6    6  502    0 -0.18202183022E+03 -0.27586301569E+02 -0.20760842839E+03  0.27747830591E+03  0.00000000000E+00 0. -1.
          1    1    5    5  503    0  0.19097705382E+03 -0.28597325193E+03 -0.13376471171E+04  0.13811418268E+04  0.00000000000E+00 0. -1.
         -2    1    5    5    0  503  0.29552945352E+03 -0.55156601138E+03 -0.20907492435E+04  0.21823829000E+04  0.00000000000E+00 0.  1.
         -1    1    6    6    0  502 -0.14009722265E+02  0.21850351817E+02 -0.45800359307E+02  0.52643927524E+02  0.00000000000E+00 0.  1.
<mgrwt>
<rscale>  0 0.24796057E+04</rscale>
<asrwt>0</asrwt>
<pdfrwt beam="1">  1        1 0.72229030E+00 0.24796057E+04</pdfrwt>
<pdfrwt beam="2">  1       -1 0.50369397E-01 0.24796057E+04</pdfrwt>
<totfact> 0.70757468E-02</totfact>
</mgrwt>
</event>
<event>
12    1  0.1477245E-007  0.2219276E+04  0.7818608E-02  0.8510447E-01
          1   -1    0    0  501    0  0.00000000000E+00  0.00000000000E+00  0.96334897436E+03  0.96334897436E+03  0.00000000000E+00 0. -1.
         -1   -1    0    0    0  501 -0.00000000000E+00 -0.00000000000E+00 -0.12781420947E+04  0.12781420947E+04  0.00000000000E+00 0.  1.
         23    2    1    2    0    0 -0.37909123640E+03 -0.36821694021E+03  0.64062608659E+03  0.83554144915E+03  0.91835994330E+02 0.  0.
        254    2    1    2    0    0  0.37909123640E+03  0.36821694021E+03 -0.95541920692E+03  0.14059496199E+04  0.88576215327E+03 0.  0.
        -24    2    4    4    0    0  0.62075001772E+03  0.21670624044E+03 -0.87768373600E+03  0.10995499453E+04  0.79932237579E+02 0.  0.
         24    2    4    4    0    0 -0.24165878132E+03  0.15151069978E+03 -0.77735470921E+02  0.30639967461E+03  0.80520174022E+02 0.  0.
         11    1    3    3    0    0 -0.20559582828E+03 -0.21601171274E+03  0.29143969617E+03  0.41697458094E+03  0.00000000000E+00 0. -1.
        -11    1    3    3    0    0 -0.17349540812E+03 -0.15220522747E+03  0.34918639042E+03  0.41856686821E+03  0.00000000000E+00 0.  1.
          2    1    6    6  502    0 -0.79547508092E+02  0.90977437464E+02 -0.12610035389E+02  0.12150602110E+03  0.00000000000E+00 0. -1.
          1    1    5    5  503    0  0.50269141348E+03  0.19310061976E+03 -0.75777706254E+03  0.92963034753E+03  0.00000000000E+00 0. -1.
         -4    1    5    5    0  503  0.11805860424E+03  0.23605620680E+02 -0.11990667346E+03  0.16991959776E+03  0.00000000000E+00 0.  1.
         -1    1    6    6    0  502 -0.16211127323E+03  0.60533262312E+02 -0.65125435532E+02  0.18489365351E+03  0.00000000000E+00 0.  1.
<mgrwt>
<rscale>  0 0.22192763E+04</rscale>
<asrwt>0</asrwt>
<pdfrwt beam="1">  1        1 0.14820754E+00 0.22192763E+04</pdfrwt>
<pdfrwt beam="2">  1       -1 0.19663724E+00 0.22192763E+04</pdfrwt>
<totfact> 0.23374992E+00</totfact>
</mgrwt>
</event>
<event>
12    1  0.1477245E-007  0.2240882E+04  0.7818608E-02  0.8501602E-01
         -2   -1    0    0    0  501 -0.00000000000E+00  0.00000000000E+00  0.67978013355E+03  0.67978013355E+03  0.00000000000E+00 0. -1.
          2   -1    0    0  501    0  0.00000000000E+00 -0.00000000000E+00 -0.18467554545E+04  0.18467554545E+04  0.00000000000E+00 0.  1.
         23    2    1    2    0    0  0.48113575905E+03 -0.52755450494E+03 -0.11690353159E+04  0.13728879978E+04  0.91501423542E+02 0.  0.
        254    2    1    2    0    0 -0.48113575905E+03  0.52755450494E+03  0.20599949116E+01  0.11536475902E+04  0.90614190089E+03 0.  0.
        -24    2    4    4    0    0 -0.29913621104E+03  0.32074561297E+03 -0.44048212095E+03  0.62647175344E+03  0.77988063051E+02 0.  0.
         24    2    4    4    0    0 -0.18199954801E+03  0.20680889198E+03  0.44254211586E+03  0.52717583679E+03  0.78594435628E+02 0.  0.
         11    1    3    3    0    0  0.22956697968E+03 -0.28758246500E+03 -0.67495408976E+03  0.76874423290E+03  0.00000000000E+00 0. -1.
        -11    1    3    3    0    0  0.25156877937E+03 -0.23997203994E+03 -0.49408122612E+03  0.60414376493E+03  0.00000000000E+00 0.  1.
          2    1    6    6  502    0 -0.16598060730E+03  0.17304516581E+03  0.41973226220E+03  0.48339359050E+03  0.00000000000E+00 0. -1.
          1    1    5    5  503    0 -0.21052319691E+03  0.20248003497E+03 -0.33751634434E+03  0.44635799947E+03  0.00000000000E+00 0. -1.
         -2    1    5    5    0  503 -0.88613014131E+02  0.11826557799E+03 -0.10296577662E+03  0.18011375396E+03  0.00000000000E+00 0.  1.
         -1    1    6    6    0  502 -0.16018940708E+02  0.33763726170E+02  0.22809853669E+02  0.43782246296E+02  0.00000000000E+00 0.  1.
<mgrwt>
<rscale>  0 0.22408817E+04</rscale>
<asrwt>0</asrwt>
<pdfrwt beam="1">  1        2 0.28411622E+00 0.22408817E+04</pdfrwt>
<pdfrwt beam="2">  1       -2 0.10458156E+00 0.22408817E+04</pdfrwt>
<totfact> 0.54955623E+00</totfact>
</mgrwt>
</event>
<event>
12    1  0.1477245E-007  0.2114168E+04  0.7818608E-02  0.8555028E-01
          1   -1    0    0  501    0  0.00000000000E+00  0.00000000000E+00  0.17685166442E+04  0.17685166442E+04  0.00000000000E+00 0. -1.
         -1   -1    0    0    0  501 -0.00000000000E+00 -0.00000000000E+00 -0.63184397896E+03  0.63184397896E+03  0.00000000000E+00 0.  1.
         23    2    1    2    0    0  0.25262742340E+03  0.46939752108E+03  0.12448604902E+04  0.13572504635E+04  0.91085303610E+02 0.  0.
        254    2    1    2    0    0 -0.25262742340E+03 -0.46939752108E+03 -0.10818782504E+03  0.10431101597E+04  0.89006716145E+03 0.  0.
        -24    2    4    4    0    0  0.25365076477E+03  0.63196707382E+02 -0.13242770935E+03  0.30352378332E+03  0.79101545775E+02 0.  0.
         24    2    4    4    0    0 -0.50627818816E+03 -0.53259422846E+03  0.24239884318E+02  0.73958637636E+03  0.80163708151E+02 0.  0.
         13    1    3    3    0    0  0.23299467505E+03  0.37522421692E+03  0.96382671633E+03  0.10602083148E+04  0.00000000000E+00 0. -1.
        -13    1    3    3    0    0  0.19632748344E+02  0.94173304151E+02  0.28103377392E+03  0.29704214870E+03  0.00000000000E+00 0.  1.
          4    1    6    6  502    0 -0.38021593317E+03 -0.37995081536E+03  0.50487681597E+02  0.53988497286E+03  0.00000000000E+00 0. -1.
          1    1    5    5  503    0  0.14811968027E+03  0.65414410114E+02 -0.10960746327E+03  0.19553076673E+03  0.00000000000E+00 0. -1.
         -4    1    5    5    0  503  0.10553108450E+03 -0.22177027318E+01 -0.22820246089E+02  0.10799301659E+03  0.00000000000E+00 0.  1.
         -3    1    6    6    0  502 -0.12606225500E+03 -0.15264341309E+03 -0.26247797279E+02  0.19970140350E+03  0.00000000000E+00 0.  1.
<mgrwt>
<rscale>  0 0.21141680E+04</rscale>
<asrwt>0</asrwt>
<pdfrwt beam="1">  1        1 0.27207948E+00 0.21141680E+04</pdfrwt>
<pdfrwt beam="2">  1       -1 0.97206767E-01 0.21141680E+04</pdfrwt>
<totfact> 0.39964068E+00</totfact>
</mgrwt>
</event>
<event>
12    1  0.1477245E-007  0.1254916E+04  0.7818608E-02  0.9066102E-01
         -4   -1    0    0    0  501 -0.00000000000E+00  0.00000000000E+00  0.95904776955E+03  0.95904776955E+03  0.00000000000E+00 0.  1.
          4   -1    0    0  501    0  0.00000000000E+00 -0.00000000000E+00 -0.41051477927E+03  0.41051477927E+03  0.00000000000E+00 0. -1.
         23    2    1    2    0    0 -0.14199619235E+03  0.14227167449E+03 -0.96206679110E+02  0.24151431209E+03  0.93109021222E+02 0.  0.
        254    2    1    2    0    0  0.14199619235E+03 -0.14227167449E+03  0.64473966939E+03  0.11280482367E+04  0.90354824725E+03 0.  0.
        -24    2    4    4    0    0  0.11397076741E+03  0.30548623541E+03 -0.28661909097E+01  0.33625152655E+03  0.82132199603E+02 0.  0.
         24    2    4    4    0    0  0.28025424940E+02 -0.44775790990E+03  0.64760586030E+03  0.79179671018E+03  0.79221901247E+02 0.  0.
         11    1    3    3    0    0 -0.22265484533E+02  0.45395160622E+02  0.13605791977E+02  0.52360194659E+02  0.00000000000E+00 0.  1.
        -11    1    3    3    0    0 -0.11973070781E+03  0.96876513870E+02 -0.10981247109E+03  0.18915411743E+03  0.00000000000E+00 0. -1.
          4    1    6    6  502    0  0.47972990766E+02 -0.27577606005E+03  0.35883255262E+03  0.45509849918E+03  0.00000000000E+00 0. -1.
          1    1    5    5  503    0  0.84911374952E+02  0.22119105427E+03  0.34776412625E+02  0.23946779107E+03  0.00000000000E+00 0. -1.
         -2    1    5    5    0  503  0.29059392454E+02  0.84295181139E+02 -0.37642603535E+02  0.96783735483E+02  0.00000000000E+00 0.  1.
         -3    1    6    6    0  502 -0.19947565826E+02 -0.17198184985E+03  0.28877330768E+03  0.33669821100E+03  0.00000000000E+00 0.  1.
<mgrwt>
<rscale>  0 0.12549156E+04</rscale>
<asrwt>0</asrwt>
<pdfrwt beam="1">  1        4 0.63156120E-01 0.12549156E+04</pdfrwt>
<pdfrwt beam="2">  1       -4 0.14754581E+00 0.12549156E+04</pdfrwt>
<totfact> 0.14329627E+00</totfact>
</mgrwt>
</event>
<event>
12    1  0.1477245E-007  0.2167116E+04  0.7818608E-02  0.8532241E-01
          2   -1    0    0  501    0  0.00000000000E+00  0.00000000000E+00  0.23883029837E+04  0.23883029837E+04  0.00000000000E+00 0. -1.
         -2   -1    0    0    0  501 -0.00000000000E+00 -0.00000000000E+00 -0.49160327333E+03  0.49160327333E+03  0.00000000000E+00 0.  1.
         23    2    1    2    0    0 -0.40828386324E+03 -0.74441077053E+03  0.10988967079E+04  0.13914104381E+04  0.87211950219E+02 0.  0.
        254    2    1    2    0    0  0.40828386324E+03  0.74441077053E+03  0.79780300241E+03  0.14884958189E+04  0.92643783601E+03 0.  0.
        -24    2    4    4    0    0  0.11884846329E+03  0.54198865797E+03 -0.53526526542E+02  0.56329478426E+03  0.80989273011E+02 0.  0.
         24    2    4    4    0    0  0.28943539995E+03  0.20242211256E+03  0.85132952896E+03  0.92520103465E+03  0.80544554381E+02 0.  0.
         11    1    3    3    0    0 -0.18873568476E+03 -0.29707537542E+03  0.51512695780E+03  0.62388357892E+03  0.00000000000E+00 0. -1.
        -11    1    3    3    0    0 -0.21954817848E+03 -0.44733539511E+03  0.58376975013E+03  0.76752685918E+03  0.00000000000E+00 0.  1.
          2    1    6    6  502    0  0.54832350932E+01 -0.48118001193E+01  0.44821906393E+02  0.45411700917E+02  0.00000000000E+00 0. -1.
          3    1    5    5  503    0  0.59971452774E+02  0.11558128740E+03 -0.16433381628E+02  0.13124658158E+03  0.00000000000E+00 0. -1.
         -4    1    5    5    0  503  0.58877010514E+02  0.42640737057E+03 -0.37093144913E+02  0.43204820268E+03  0.00000000000E+00 0.  1.
         -1    1    6    6    0  502  0.28395216486E+03  0.20723391268E+03  0.80650762256E+03  0.87978933373E+03  0.00000000000E+00 0.  1.
<mgrwt>
<rscale>  0 0.21671157E+04</rscale>
<asrwt>0</asrwt>
<pdfrwt beam="1">  1        2 0.36743122E+00 0.21671157E+04</pdfrwt>
<pdfrwt beam="2">  1       -2 0.75631274E-01 0.21671157E+04</pdfrwt>
<totfact> 0.57997394E+00</totfact>
</mgrwt>
</event>
<event>
12    1  0.1477245E-007  0.2660615E+04  0.7818608E-02  0.8347898E-01
         -1   -1    0    0    0  501 -0.00000000000E+00  0.00000000000E+00  0.86748484197E+03  0.86748484197E+03  0.00000000000E+00 0.  1.
          1   -1    0    0  501    0  0.00000000000E+00 -0.00000000000E+00 -0.20400558283E+04  0.20400558283E+04  0.00000000000E+00 0. -1.
         23    2    1    2    0    0 -0.84217644430E+03  0.26168905503E+03 -0.13604770588E+04  0.16239211534E+04  0.92085613244E+02 0.  0.
        254    2    1    2    0    0  0.84217644430E+03 -0.26168905503E+03  0.18790607243E+03  0.12836195169E+04  0.91357979796E+03 0.  0.
        -24    2    4    4    0    0 -0.10342910471E+03  0.53025492938E+02  0.24476165494E+03  0.28222613962E+03  0.78955959585E+02 0.  0.
         24    2    4    4    0    0  0.94560554901E+03 -0.31471454797E+03 -0.56855582512E+02  0.10013933773E+04  0.79630633266E+02 0.  0.
         13    1    3    3    0    0 -0.89365758196E+01  0.53420337180E+01 -0.42161961612E+02  0.43428455171E+02  0.00000000000E+00 0.  1.
        -13    1    3    3    0    0 -0.83323986848E+03  0.25634702131E+03 -0.13183150972E+04  0.15804926982E+04  0.00000000000E+00 0. -1.
          4    1    6    6  502    0  0.73008453116E+03 -0.27142693522E+03 -0.63289998607E+02  0.78147400963E+03  0.00000000000E+00 0. -1.
          1    1    5    5  503    0 -0.15370362045E+02  0.46821111915E+02  0.11678368316E+03  0.12675524921E+03  0.00000000000E+00 0. -1.
         -2    1    5    5    0  503 -0.88058742666E+02  0.62043810233E+01  0.12797797178E+03  0.15547089041E+03  0.00000000000E+00 0.  1.
         -1    1    6    6    0  502  0.21552101785E+03 -0.43287612746E+02  0.64344160950E+01  0.21991936764E+03  0.00000000000E+00 0.  1.
<mgrwt>
<rscale>  0 0.26606146E+04</rscale>
<asrwt>0</asrwt>
<pdfrwt beam="1">  1        1 0.31385474E+00 0.26606146E+04</pdfrwt>
<pdfrwt beam="2">  1       -1 0.13345921E+00 0.26606146E+04</pdfrwt>
<totfact> 0.11631665E+00</totfact>
</mgrwt>
</event>
<event>
12    1  0.1477245E-007  0.1583529E+04  0.7818608E-02  0.8830731E-01
          2   -1    0    0  501    0  0.00000000000E+00  0.00000000000E+00  0.81173171474E+03  0.81173171474E+03  0.00000000000E+00 0. -1.
         -2   -1    0    0    0  501 -0.00000000000E+00 -0.00000000000E+00 -0.77228796949E+03  0.77228796949E+03  0.00000000000E+00 0.  1.
         23    2    1    2    0    0 -0.42111151427E+03 -0.93616265006E+02 -0.29494870567E+03  0.53032003921E+03  0.90253490168E+02 0.  0.
        254    2    1    2    0    0  0.42111151427E+03  0.93616265006E+02  0.33439245092E+03  0.10536996450E+04  0.90131332961E+03 0.  0.
        -24    2    4    4    0    0  0.49397646023E+02  0.44497109687E+03  0.27671393987E+03  0.53290994942E+03  0.83564377511E+02 0.  0.
         24    2    4    4    0    0  0.37171386825E+03 -0.35135483187E+03  0.57678511051E+02  0.52078969559E+03  0.79206556995E+02 0.  0.
         11    1    3    3    0    0 -0.29216849837E+03 -0.23373847137E+02 -0.21135229721E+03  0.36135655758E+03  0.00000000000E+00 0.  1.
        -11    1    3    3    0    0 -0.12894301590E+03 -0.70242417869E+02 -0.83596408457E+02  0.16896348163E+03  0.00000000000E+00 0. -1.
          2    1    6    6  502    0  0.32503598992E+03 -0.33288357837E+03  0.37758609964E+02  0.46678215916E+03  0.00000000000E+00 0. -1.
          3    1    5    5  503    0 -0.52345911975E+01  0.30301640763E+03  0.19284831667E+03  0.35921695044E+03  0.00000000000E+00 0. -1.
         -4    1    5    5    0  503  0.54632237220E+02  0.14195468924E+03  0.83865623198E+02  0.17369299898E+03  0.00000000000E+00 0.  1.
         -1    1    6    6    0  502  0.46677878333E+02 -0.18471253499E+02  0.19919901087E+02  0.54007536426E+02  0.00000000000E+00 0.  1.
<mgrwt>
<rscale>  0 0.15835285E+04</rscale>
<asrwt>0</asrwt>
<pdfrwt beam="1">  1        2 0.12488180E+00 0.15835285E+04</pdfrwt>
<pdfrwt beam="2">  1       -2 0.11881353E+00 0.15835285E+04</pdfrwt>
<totfact> 0.17653143E+01</totfact>
</mgrwt>
</event>
<event>
12    1  0.1477245E-007  0.2184720E+04  0.7818608E-02  0.8524815E-01
          2   -1    0    0  501    0  0.00000000000E+00  0.00000000000E+00  0.27313425495E+04  0.27313425495E+04  0.00000000000E+00 0. -1.
         -2   -1    0    0    0  501 -0.00000000000E+00 -0.00000000000E+00 -0.43687332916E+03  0.43687332916E+03  0.00000000000E+00 0.  1.
         23    2    1    2    0    0  0.20710585213E+03 -0.87336191018E+03  0.70341443110E+03  0.11432490393E+04  0.81071843503E+02 0.  0.
        254    2    1    2    0    0 -0.20710585213E+03  0.87336191018E+03  0.15910547892E+04  0.20249668394E+04  0.87371705835E+03 0.  0.
        -24    2    4    4    0    0 -0.20929042361E+03  0.68802837551E+03  0.16605242039E+04  0.18113252691E+04  0.79831522079E+02 0.  0.
         24    2    4    4    0    0  0.21845714740E+01  0.18533353466E+03 -0.69469414663E+02  0.21364157024E+03  0.80395457193E+02 0.  0.
         13    1    3    3    0    0  0.24160443211E+02 -0.25208086176E+03  0.21203037227E+03  0.33028073914E+03  0.00000000000E+00 0. -1.
        -13    1    3    3    0    0  0.18294540892E+03 -0.62128104842E+03  0.49138405884E+03  0.81296830015E+03  0.00000000000E+00 0.  1.
          4    1    6    6  502    0  0.39598969602E+02  0.11250142487E+03 -0.50945187678E+02  0.12969217840E+03  0.00000000000E+00 0. -1.
          1    1    5    5  503    0 -0.21453592858E+03  0.67107201563E+03  0.16339405410E+04  0.17793608421E+04  0.00000000000E+00 0. -1.
         -2    1    5    5    0  503  0.52455049736E+01  0.16956359885E+02  0.26583662864E+02  0.31964427012E+02  0.00000000000E+00 0.  1.
         -3    1    6    6    0  502 -0.37414398129E+02  0.72832109794E+02 -0.18524226985E+02  0.83949391837E+02  0.00000000000E+00 0.  1.
<mgrwt>
<rscale>  0 0.21847203E+04</rscale>
<asrwt>0</asrwt>
<pdfrwt beam="1">  1        2 0.42020654E+00 0.21847203E+04</pdfrwt>
<pdfrwt beam="2">  1       -2 0.67211283E-01 0.21847203E+04</pdfrwt>
<totfact> 0.47300410E+00</totfact>
</mgrwt>
</event>
<event>
12    1  0.1477245E-007  0.1142135E+04  0.7818608E-02  0.9165071E-01
          1   -1    0    0  501    0  0.00000000000E+00  0.00000000000E+00  0.74709172617E+03  0.74709172617E+03  0.00000000000E+00 0. -1.
         -1   -1    0    0    0  501 -0.00000000000E+00 -0.00000000000E+00 -0.43651643754E+03  0.43651643754E+03  0.00000000000E+00 0.  1.
         23    2    1    2    0    0 -0.49635476046E+02 -0.12986387296E+03  0.22255707651E+03  0.27774635802E+03  0.91011433932E+02 0.  0.
        254    2    1    2    0    0  0.49635476046E+02  0.12986387296E+03  0.88018212122E+02  0.90586180569E+03  0.89079183840E+03 0.  0.
        -24    2    4    4    0    0 -0.24568453543E+03  0.67755159703E+02 -0.30407557591E+03  0.40463724868E+03  0.79483926277E+02 0.  0.
         24    2    4    4    0    0  0.29532001147E+03  0.62108713256E+02  0.39209378803E+03  0.50122455701E+03  0.80106906683E+02 0.  0.
         11    1    3    3    0    0 -0.39927295583E+01 -0.69688541080E+02  0.40634451254E+02  0.80768764234E+02  0.00000000000E+00 0.  1.
        -11    1    3    3    0    0 -0.45642746487E+02 -0.60175331880E+02  0.18192262526E+03  0.19697759379E+03  0.00000000000E+00 0. -1.
          4    1    6    6  502    0  0.13661549268E+03 -0.11860257306E+02  0.17061825029E+03  0.21889505677E+03  0.00000000000E+00 0. -1.
          3    1    5    5  503    0 -0.10377633431E+03  0.69368722852E+02 -0.15050265567E+03  0.19553157452E+03  0.00000000000E+00 0. -1.
         -4    1    5    5    0  503 -0.14190820112E+03 -0.16135631492E+01 -0.15357292024E+03  0.20910567415E+03  0.00000000000E+00 0.  1.
         -3    1    6    6    0  502  0.15870451879E+03  0.73968970562E+02  0.22147553774E+03  0.28232950024E+03  0.00000000000E+00 0.  1.
<mgrwt>
<rscale>  0 0.11421345E+04</rscale>
<asrwt>0</asrwt>
<pdfrwt beam="1">  1        1 0.11493719E+00 0.11421345E+04</pdfrwt>
<pdfrwt beam="2">  1       -1 0.67156375E-01 0.11421345E+04</pdfrwt>
<totfact> 0.55012464E+01</totfact>
</mgrwt>
</event>
<event>
12    1  0.1477245E-007  0.2240912E+04  0.7818608E-02  0.8501590E-01
         -2   -1    0    0    0  501 -0.00000000000E+00  0.00000000000E+00  0.73090859724E+03  0.73090859724E+03  0.00000000000E+00 0.  1.
          2   -1    0    0  501    0  0.00000000000E+00 -0.00000000000E+00 -0.17176174589E+04  0.17176174589E+04  0.00000000000E+00 0. -1.
         23    2    1    2    0    0 -0.85763518193E+03  0.25240991512E+03 -0.15078282794E+03  0.91439564422E+03  0.11889096864E+03 0.  0.
        254    2    1    2    0    0  0.85763518193E+03 -0.25240991512E+03 -0.83592603369E+03  0.15341304119E+04  0.92495130486E+03 0.  0.
        -24    2    4    4    0    0  0.34729334712E+03 -0.27679900622E+03 -0.90547684724E+03  0.10118547379E+04  0.82044688824E+02 0.  0.
         24    2    4    4    0    0  0.51034183481E+03  0.24389091099E+02  0.69550813547E+02  0.52227567398E+03  0.83011733134E+02 0.  0.
         11    1    3    3    0    0 -0.62587892373E+03  0.17890813425E+03 -0.55678927232E+02  0.65332433798E+03  0.00000000000E+00 0. -1.
        -11    1    3    3    0    0 -0.23175625820E+03  0.73501780874E+02 -0.95103900708E+02  0.26107130623E+03  0.00000000000E+00 0.  1.
          2    1    6    6  502    0  0.47202706259E+03  0.40330975235E+02  0.77437106193E+02  0.48003399963E+03  0.00000000000E+00 0. -1.
          1    1    5    5  503    0  0.90827264622E+02 -0.63035055523E+02 -0.15426897981E+03  0.18979443710E+03  0.00000000000E+00 0. -1.
         -2    1    5    5    0  503  0.25646608250E+03 -0.21376395070E+03 -0.75120786743E+03  0.82206030082E+03  0.00000000000E+00 0.  1.
         -1    1    6    6    0  502  0.38314772222E+02 -0.15941884136E+02 -0.78862926458E+01  0.42241674350E+02  0.00000000000E+00 0.  1.
<mgrwt>
<rscale>  0 0.22409117E+04</rscale>
<asrwt>0</asrwt>
<pdfrwt beam="1">  1        2 0.26424884E+00 0.22409117E+04</pdfrwt>
<pdfrwt beam="2">  1       -2 0.11244748E+00 0.22409117E+04</pdfrwt>
<totfact> 0.54405399E+00</totfact>
</mgrwt>
</event>
<event>
12    1  0.1477245E-007  0.1836809E+04  0.7818608E-02  0.8686966E-01
          2   -1    0    0  501    0  0.00000000000E+00  0.00000000000E+00  0.15851173974E+04  0.15851173974E+04  0.00000000000E+00 0. -1.
         -2   -1    0    0    0  501 -0.00000000000E+00 -0.00000000000E+00 -0.53211620718E+03  0.53211620718E+03  0.00000000000E+00 0.  1.
         23    2    1    2    0    0  0.66157822278E+03 -0.17515408648E+03  0.54658729424E+03  0.88065824555E+03  0.91850837529E+02 0.  0.
        254    2    1    2    0    0 -0.66157822278E+03  0.17515408648E+03  0.50641389595E+03  0.12365753590E+04  0.89682712135E+03 0.  0.
        -24    2    4    4    0    0 -0.64942278779E+03  0.44249836447E+03  0.53821005300E+03  0.95583508726E+03  0.79974327300E+02 0.  0.
         24    2    4    4    0    0 -0.12155434992E+02 -0.26734427798E+03 -0.31796157048E+02  0.28074027173E+03  0.78634515320E+02 0.  0.
         11    1    3    3    0    0  0.72858289329E+02 -0.24415875290E+02  0.10189839160E+03  0.12762345984E+03  0.00000000000E+00 0. -1.
        -11    1    3    3    0    0  0.58871993346E+03 -0.15073821119E+03  0.44468890264E+03  0.75303478571E+03  0.00000000000E+00 0.  1.
          2    1    6    6  502    0  0.54473682921E+00 -0.21251707955E+03 -0.55543504303E+02  0.21965629221E+03  0.00000000000E+00 0. -1.
          1    1    5    5  503    0 -0.31772513675E+03  0.16833350273E+03  0.24315329616E+03  0.43406100504E+03  0.00000000000E+00 0. -1.
         -2    1    5    5    0  503 -0.33169765105E+03  0.27416486174E+03  0.29505675684E+03  0.52177408222E+03  0.00000000000E+00 0.  1.
         -1    1    6    6    0  502 -0.12700171821E+02 -0.54827198437E+02  0.23747347255E+02  0.61083979523E+02  0.00000000000E+00 0.  1.
<mgrwt>
<rscale>  0 0.18368088E+04</rscale>
<asrwt>0</asrwt>
<pdfrwt beam="1">  1        2 0.24386421E+00 0.18368088E+04</pdfrwt>
<pdfrwt beam="2">  1       -2 0.81864032E-01 0.18368088E+04</pdfrwt>
<totfact> 0.14041933E+01</totfact>
</mgrwt>
</event>
<event>
12    1  0.1477245E-007  0.2997010E+04  0.7818608E-02  0.8244585E-01
          2   -1    0    0  501    0  0.00000000000E+00  0.00000000000E+00  0.11388770869E+04  0.11388770869E+04  0.00000000000E+00 0. -1.
         -2   -1    0    0    0  501 -0.00000000000E+00 -0.00000000000E+00 -0.19716937283E+04  0.19716937283E+04  0.00000000000E+00 0.  1.
         23    2    1    2    0    0 -0.49883265111E+03  0.97114906416E+03 -0.12243936711E+04  0.16427357172E+04  0.86465346971E+02 0.  0.
        254    2    1    2    0    0  0.49883265111E+03 -0.97114906416E+03  0.39157702962E+03  0.14678350980E+04  0.89957922723E+03 0.  0.
        -24    2    4    4    0    0  0.31875018245E+02  0.14618929256E+03  0.15549126327E+03  0.23195345666E+03  0.85073774187E+02 0.  0.
         24    2    4    4    0    0  0.46695763287E+03 -0.11173383567E+04  0.23608576635E+03  0.12358816413E+04  0.71920149967E+02 0.  0.
         11    1    3    3    0    0 -0.76626868883E+01  0.29108193390E+01 -0.17760427571E+02  0.19560736875E+02  0.00000000000E+00 0. -1.
        -11    1    3    3    0    0 -0.49116996422E+03  0.96823824482E+03 -0.12066332435E+04  0.16231749803E+04  0.00000000000E+00 0.  1.
          2    1    6    6  502    0  0.11699844584E+03 -0.35628599121E+03  0.57318223460E+02  0.37935962174E+03  0.00000000000E+00 0. -1.
          3    1    5    5  503    0  0.50803678321E+02  0.61557158337E+02  0.45454284949E+02  0.91849820325E+02  0.00000000000E+00 0. -1.
         -4    1    5    5    0  503 -0.18928660076E+02  0.84632134221E+02  0.11003697832E+03  0.14010363633E+03  0.00000000000E+00 0.  1.
         -1    1    6    6    0  502  0.34995918703E+03 -0.76105236551E+03  0.17876754289E+03  0.85652201958E+03  0.00000000000E+00 0.  1.
<mgrwt>
<rscale>  0 0.29970097E+04</rscale>
<asrwt>0</asrwt>
<pdfrwt beam="1">  1        2 0.17521186E+00 0.29970097E+04</pdfrwt>
<pdfrwt beam="2">  1       -2 0.30333749E+00 0.29970097E+04</pdfrwt>
<totfact> 0.53533480E-01</totfact>
</mgrwt>
</event>
<event>
12    1  0.1477245E-007  0.1161773E+04  0.7818608E-02  0.9146991E-01
         -1   -1    0    0    0  501 -0.00000000000E+00  0.00000000000E+00  0.16880441300E+03  0.16880441300E+03  0.00000000000E+00 0.  1.
          1   -1    0    0  501    0  0.00000000000E+00 -0.00000000000E+00 -0.19989349290E+04  0.19989349290E+04  0.00000000000E+00 0. -1.
         23    2    1    2    0    0  0.27737797566E+02  0.31860424075E+02 -0.76156200919E+03  0.76873317562E+03  0.95862033255E+02 0.  0.
        254    2    1    2    0    0 -0.27737797566E+02 -0.31860424075E+02 -0.10685685068E+04  0.13990061664E+04  0.90199508190E+03 0.  0.
        -24    2    4    4    0    0 -0.36709171479E+03 -0.65868508477E+02 -0.14089786487E+03  0.40730918951E+03  0.83388128995E+02 0.  0.
         24    2    4    4    0    0  0.33935391723E+03  0.34008084402E+02 -0.92767064192E+03  0.99169697685E+03  0.81070605457E+02 0.  0.
         11    1    3    3    0    0  0.18296686937E+02  0.18444634761E+02 -0.74489221217E+03  0.74534514224E+03  0.00000000000E+00 0. -1.
        -11    1    3    3    0    0  0.94411106295E+01  0.13415789315E+02 -0.16669797023E+02  0.23388033386E+02  0.00000000000E+00 0.  1.
          2    1    6    6  502    0  0.16790761903E+03  0.40266047271E+02 -0.55906320834E+03  0.58512049529E+03  0.00000000000E+00 0. -1.
          3    1    5    5  503    0 -0.22679507329E+03 -0.74059853880E+02 -0.63574121587E+02  0.24690592573E+03  0.00000000000E+00 0. -1.
         -4    1    5    5    0  503 -0.14029664150E+03  0.81913454027E+01 -0.77323743281E+02  0.16040326378E+03  0.00000000000E+00 0.  1.
         -1    1    6    6    0  502  0.17144629820E+03 -0.62579628699E+01 -0.36860743358E+03  0.40657648156E+03  0.00000000000E+00 0.  1.
<mgrwt>
<rscale>  0 0.11617728E+04</rscale>
<asrwt>0</asrwt>
<pdfrwt beam="1">  1        1 0.30752846E+00 0.11617728E+04</pdfrwt>
<pdfrwt beam="2">  1       -1 0.25969909E-01 0.11617728E+04</pdfrwt>
<totfact> 0.38946241E+01</totfact>
</mgrwt>
</event>
<event>
12    1  0.1477245E-007  0.2557145E+04  0.7818608E-02  0.8382906E-01
          2   -1    0    0  501    0  0.00000000000E+00  0.00000000000E+00  0.81754327745E+03  0.81754327745E+03  0.00000000000E+00 0. -1.
         -2   -1    0    0    0  501 -0.00000000000E+00 -0.00000000000E+00 -0.19995848629E+04  0.19995848629E+04  0.00000000000E+00 0.  1.
         23    2    1    2    0    0 -0.37620496454E+03  0.53810629732E+03  0.47719413260E+03  0.81713869460E+03  0.94407856980E+02 0.  0.
        254    2    1    2    0    0  0.37620496454E+03 -0.53810629732E+03 -0.16592357180E+04  0.19999894457E+04  0.90321982510E+03 0.  0.
        -24    2    4    4    0    0 -0.41902213785E+02 -0.17298637409E+03 -0.13410803376E+04  0.13552338770E+04  0.80512782591E+02 0.  0.
         24    2    4    4    0    0  0.41810717833E+03 -0.36511992323E+03 -0.31815538040E+03  0.64475556876E+03  0.79754162624E+02 0.  0.
         13    1    3    3    0    0 -0.16760211324E+03  0.27997832201E+03  0.28734399620E+03  0.43479294074E+03  0.00000000000E+00 0.  1.
        -13    1    3    3    0    0 -0.20860285130E+03  0.25812797531E+03  0.18985013640E+03  0.38234575387E+03  0.00000000000E+00 0. -1.
          2    1    6    6  502    0  0.18361622197E+03 -0.11301111662E+03 -0.10504944426E+03  0.23983705966E+03  0.00000000000E+00 0. -1.
          1    1    5    5  503    0  0.21099912778E+02 -0.21835975813E+02 -0.27108566888E+03  0.27278096713E+03  0.00000000000E+00 0. -1.
         -2    1    5    5    0  503 -0.63002126563E+02 -0.15115039828E+03 -0.10699946687E+04  0.10824529098E+04  0.00000000000E+00 0.  1.
         -1    1    6    6    0  502  0.23449095636E+03 -0.25210880662E+03 -0.21310593615E+03  0.40491850909E+03  0.00000000000E+00 0.  1.
<mgrwt>
<rscale>  0 0.25571446E+04</rscale>
<asrwt>0</asrwt>
<pdfrwt beam="1">  1        2 0.12577589E+00 0.25571446E+04</pdfrwt>
<pdfrwt beam="2">  1       -2 0.30762844E+00 0.25571446E+04</pdfrwt>
<totfact> 0.84776304E-01</totfact>
</mgrwt>
</event>
<event>
12    1  0.1477245E-007  0.1428474E+04  0.7818608E-02  0.8933462E-01
          1   -1    0    0  501    0  0.00000000000E+00  0.00000000000E+00  0.90304883959E+03  0.90304883959E+03  0.00000000000E+00 0. -1.
         -1   -1    0    0    0  501 -0.00000000000E+00 -0.00000000000E+00 -0.56490254808E+03  0.56490254808E+03  0.00000000000E+00 0.  1.
         23    2    1    2    0    0 -0.13781340310E+03  0.24934075381E+03 -0.22535743567E+03  0.37457269167E+03  0.91407778398E+02 0.  0.
        254    2    1    2    0    0  0.13781340310E+03 -0.24934075381E+03  0.56350372718E+03  0.10933786960E+04  0.89262375989E+03 0.  0.
        -24    2    4    4    0    0  0.40764912872E+03 -0.28086357821E+03  0.62649062022E+03  0.80250340939E+03  0.80368296890E+02 0.  0.
         24    2    4    4    0    0 -0.26983572562E+03  0.31522824398E+02 -0.62986893040E+02  0.29087528660E+03  0.82680568355E+02 0.  0.
         13    1    3    3    0    0 -0.83339029340E+02  0.69659910220E+02 -0.10790301462E+03  0.15310440055E+03  0.00000000000E+00 0.  1.
        -13    1    3    3    0    0 -0.54474373762E+02  0.17968084359E+03 -0.11745442104E+03  0.22146829112E+03  0.00000000000E+00 0. -1.
          4    1    6    6  502    0 -0.15650761036E+03 -0.58482756782E+01 -0.14758975936E+01  0.15662379354E+03  0.00000000000E+00 0. -1.
          3    1    5    5  503    0  0.33113038505E+03 -0.23299418306E+03  0.45760660644E+03  0.61101344298E+03  0.00000000000E+00 0. -1.
         -4    1    5    5    0  503  0.76518743674E+02 -0.47869395144E+02  0.16888401378E+03  0.19148996641E+03  0.00000000000E+00 0.  1.
         -3    1    6    6    0  502 -0.11332811526E+03  0.37371100076E+02 -0.61510995447E+02  0.13425149306E+03  0.00000000000E+00 0.  1.
<mgrwt>
<rscale>  0 0.14284741E+04</rscale>
<asrwt>0</asrwt>
<pdfrwt beam="1">  1        1 0.13893059E+00 0.14284741E+04</pdfrwt>
<pdfrwt beam="2">  1       -1 0.86908084E-01 0.14284741E+04</pdfrwt>
<totfact> 0.22967618E+01</totfact>
</mgrwt>
</event>
<event>
12    1  0.1477245E-007  0.1487110E+04  0.7818608E-02  0.8893070E-01
         -2   -1    0    0    0  501 -0.00000000000E+00  0.00000000000E+00  0.39077472004E+03  0.39077472004E+03  0.00000000000E+00 0.  1.
          2   -1    0    0  501    0  0.00000000000E+00 -0.00000000000E+00 -0.14148152155E+04  0.14148152155E+04  0.00000000000E+00 0. -1.
         23    2    1    2    0    0 -0.39744298064E+03 -0.77017291498E+02 -0.60858888563E+03  0.73656847247E+03  0.90885075126E+02 0.  0.
        254    2    1    2    0    0  0.39744298064E+03  0.77017291498E+02 -0.41545160981E+03  0.10690214630E+04  0.89795003329E+03 0.  0.
        -24    2    4    4    0    0  0.28831489751E+03  0.40756383894E+03  0.19999878153E+02  0.50575396430E+03  0.78443064367E+02 0.  0.
         24    2    4    4    0    0  0.10912808312E+03 -0.33054654744E+03 -0.43545148796E+03  0.56326749873E+03  0.80512845007E+02 0.  0.
         11    1    3    3    0    0 -0.26365190709E+02 -0.13778776936E+02 -0.96700090596E+02  0.10117255308E+03  0.00000000000E+00 0.  1.
        -11    1    3    3    0    0 -0.37107778993E+03 -0.63238514561E+02 -0.51188879503E+03  0.63539591939E+03  0.00000000000E+00 0. -1.
          4    1    6    6  502    0  0.10623727425E+03 -0.32287106834E+03 -0.43823991582E+03  0.55460464209E+03  0.00000000000E+00 0. -1.
          3    1    5    5  503    0  0.21493489045E+03  0.35087379364E+03  0.29573032484E+02  0.41253362341E+03  0.00000000000E+00 0. -1.
         -4    1    5    5    0  503  0.73380007063E+02  0.56690045300E+02 -0.95731543305E+01  0.93220340895E+02  0.00000000000E+00 0.  1.
         -3    1    6    6    0  502  0.28908088768E+01 -0.76754790933E+01  0.27884278563E+01  0.86628566410E+01  0.00000000000E+00 0.  1.
<mgrwt>
<rscale>  0 0.14871100E+04</rscale>
<asrwt>0</asrwt>
<pdfrwt beam="1">  1        2 0.21766388E+00 0.14871100E+04</pdfrwt>
<pdfrwt beam="2">  1       -2 0.60119188E-01 0.14871100E+04</pdfrwt>
<totfact> 0.35392072E+01</totfact>
</mgrwt>
</event>
<event>
12    1  0.1477245E-007  0.2023236E+04  0.7818608E-02  0.8595834E-01
         -2   -1    0    0    0  501 -0.00000000000E+00  0.00000000000E+00  0.72799753688E+03  0.72799753688E+03  0.00000000000E+00 0.  1.
          2   -1    0    0  501    0  0.00000000000E+00 -0.00000000000E+00 -0.14057337693E+04  0.14057337693E+04  0.00000000000E+00 0. -1.
         23    2    1    2    0    0 -0.80595667549E+03 -0.49247596360E+02 -0.32485611754E+03  0.87496756975E+03  0.89695387287E+02 0.  0.
        254    2    1    2    0    0  0.80595667549E+03  0.49247596360E+02 -0.35288011492E+03  0.12587637365E+04  0.89887167061E+03 0.  0.
        -24    2    4    4    0    0  0.85852048203E+02 -0.83079341070E+02  0.26253761405E+03  0.29914052287E+03  0.79286206506E+02 0.  0.
         24    2    4    4    0    0  0.72010462729E+03  0.13232693743E+03 -0.61541772896E+03  0.95962321359E+03  0.77952795545E+02 0.  0.
         13    1    3    3    0    0 -0.74604676138E+03 -0.32861220767E+02 -0.27673475715E+03  0.79639673267E+03  0.00000000000E+00 0. -1.
        -13    1    3    3    0    0 -0.59909914114E+02 -0.16386375593E+02 -0.48121360390E+02  0.78570837084E+02  0.00000000000E+00 0.  1.
          2    1    6    6  502    0  0.66951329144E+03  0.10347728020E+03 -0.55581594476E+03  0.87629159495E+03  0.00000000000E+00 0. -1.
          1    1    5    5  503    0  0.39588386463E+02 -0.49797524113E+02  0.21717224679E+03  0.22629807451E+03  0.00000000000E+00 0. -1.
         -2    1    5    5    0  503  0.46263661740E+02 -0.33281816957E+02  0.45365367261E+02  0.72842448368E+02  0.00000000000E+00 0.  1.
         -1    1    6    6    0  502  0.50591335850E+02  0.28849657235E+02 -0.59601784204E+02  0.83331618645E+02  0.00000000000E+00 0.  1.
<mgrwt>
<rscale>  0 0.20232357E+04</rscale>
<asrwt>0</asrwt>
<pdfrwt beam="1">  1        2 0.21626673E+00 0.20232357E+04</pdfrwt>
<pdfrwt beam="2">  1       -2 0.11199962E+00 0.20232357E+04</pdfrwt>
<totfact> 0.83769545E+00</totfact>
</mgrwt>
</event>
<event>
12    1  0.1477245E-007  0.2105000E+04  0.7818608E-02  0.8559044E-01
         -1   -1    0    0    0  501 -0.00000000000E+00  0.00000000000E+00  0.99030479354E+03  0.99030479354E+03  0.00000000000E+00 0.  1.
          1   -1    0    0  501    0  0.00000000000E+00 -0.00000000000E+00 -0.11186010924E+04  0.11186010924E+04  0.00000000000E+00 0. -1.
         23    2    1    2    0    0 -0.69846502130E+03 -0.19319574318E+03  0.40428193656E+03  0.83455558008E+03  0.88663131339E+02 0.  0.
        254    2    1    2    0    0  0.69846502130E+03  0.19319574318E+03 -0.53257823542E+03  0.12743503058E+04  0.90285721131E+03 0.  0.
        -24    2    4    4    0    0  0.17782530664E+03 -0.13361034853E+03  0.20329214880E+03  0.31238043226E+03  0.82342405704E+02 0.  0.
         24    2    4    4    0    0  0.52063971466E+03  0.32680609171E+03 -0.73587038422E+03  0.96196987359E+03  0.77542770607E+02 0.  0.
         13    1    3    3    0    0 -0.59159247671E+03 -0.18362110567E+03  0.37178475496E+03  0.72244188207E+03  0.00000000000E+00 0.  1.
        -13    1    3    3    0    0 -0.10687254458E+03 -0.95746375098E+01  0.32497181596E+02  0.11211369801E+03  0.00000000000E+00 0. -1.
          4    1    6    6  502    0  0.74458110252E+01 -0.36456654937E+01 -0.47671564842E+01  0.95633027590E+01  0.00000000000E+00 0. -1.
          3    1    5    5  503    0  0.10280104570E+03 -0.67554825151E+02  0.57938303049E+02  0.13597263092E+03  0.00000000000E+00 0. -1.
         -4    1    5    5    0  503  0.75024260938E+02 -0.66055523376E+02  0.14535384575E+03  0.17640780134E+03  0.00000000000E+00 0.  1.
         -3    1    6    6    0  502  0.51319390363E+03  0.33045175720E+03 -0.73110322774E+03  0.95240657083E+03  0.00000000000E+00 0.  1.
<mgrwt>
<rscale>  0 0.21049998E+04</rscale>
<asrwt>0</asrwt>
<pdfrwt beam="1">  1        1 0.17209248E+00 0.21049998E+04</pdfrwt>
<pdfrwt beam="2">  1       -1 0.15235458E+00 0.21049998E+04</pdfrwt>
<totfact> 0.37752648E+00</totfact>
</mgrwt>
</event>
<event>
12    1  0.1477245E-007  0.2701397E+04  0.7818608E-02  0.8334552E-01
         -2   -1    0    0    0  501 -0.00000000000E+00  0.00000000000E+00  0.10125175355E+04  0.10125175355E+04  0.00000000000E+00 0.  1.
          2   -1    0    0  501    0  0.00000000000E+00 -0.00000000000E+00 -0.18018321973E+04  0.18018321973E+04  0.00000000000E+00 0. -1.
         23    2    1    2    0    0  0.11117638333E+04 -0.42327416973E+01  0.11319110134E+03  0.11214690089E+04  0.94041349475E+02 0.  0.
        254    2    1    2    0    0 -0.11117638333E+04  0.42327416973E+01 -0.90250576309E+03  0.16928807238E+04  0.90293507825E+03 0.  0.
        -24    2    4    4    0    0 -0.11501043508E+04 -0.50574894562E+02 -0.46528060090E+03  0.12439972207E+04  0.75797161590E+02 0.  0.
         24    2    4    4    0    0  0.38340517513E+02  0.54807636259E+02 -0.43722516219E+03  0.44888350316E+03  0.76528979336E+02 0.  0.
         13    1    3    3    0    0  0.53668604945E+03 -0.20975812165E+02  0.11430998687E+02  0.53721743093E+03  0.00000000000E+00 0. -1.
        -13    1    3    3    0    0  0.57507778388E+03  0.16743070468E+02  0.10176010265E+03  0.58425157801E+03  0.00000000000E+00 0.  1.
          4    1    6    6  502    0  0.29933951857E+02  0.63111972394E+02 -0.20922058330E+03  0.22057292447E+03  0.00000000000E+00 0. -1.
          1    1    5    5  503    0 -0.10125189247E+04 -0.35898673274E+02 -0.43366280272E+03  0.11020647504E+04  0.00000000000E+00 0. -1.
         -2    1    5    5    0  503 -0.13758542611E+03 -0.14676221288E+02 -0.31617798176E+02  0.14193247025E+03  0.00000000000E+00 0.  1.
         -3    1    6    6    0  502  0.84065656561E+01 -0.83043361350E+01 -0.22800457889E+03  0.22831057869E+03  0.00000000000E+00 0.  1.
<mgrwt>
<rscale>  0 0.27013972E+04</rscale>
<asrwt>0</asrwt>
<pdfrwt beam="1">  1        2 0.27720495E+00 0.27013972E+04</pdfrwt>
<pdfrwt beam="2">  1       -2 0.15577193E+00 0.27013972E+04</pdfrwt>
<totfact> 0.20457771E+00</totfact>
</mgrwt>
</event>
<event>
12    1  0.1477245E-007  0.2034558E+04  0.7818608E-02  0.8590632E-01
         -4   -1    0    0    0  501 -0.00000000000E+00  0.00000000000E+00  0.15894514199E+04  0.15894514199E+04  0.00000000000E+00 0.  1.
          4   -1    0    0  501    0  0.00000000000E+00 -0.00000000000E+00 -0.65107795817E+03  0.65107795817E+03  0.00000000000E+00 0. -1.
         23    2    1    2    0    0  0.41052421183E+03 -0.34117027016E+03 -0.29896220260E+03  0.61813079956E+03  0.88204336832E+02 0.  0.
        254    2    1    2    0    0 -0.41052421183E+03  0.34117027016E+03  0.12373356643E+04  0.16223985785E+04  0.90346572684E+03 0.  0.
        -24    2    4    4    0    0 -0.27445918113E+03  0.29511265058E+03  0.38919851154E+02  0.41276155298E+03  0.80237311519E+02 0.  0.
         24    2    4    4    0    0 -0.13606503070E+03  0.46057619580E+02  0.11984158132E+04  0.12096370255E+04  0.79914175044E+02 0.  0.
         11    1    3    3    0    0  0.37586536564E+03 -0.28752253983E+03 -0.28606784950E+03  0.55297269238E+03  0.00000000000E+00 0. -1.
        -11    1    3    3    0    0  0.34658846193E+02 -0.53647730337E+02 -0.12894353097E+02  0.65158107182E+02  0.00000000000E+00 0.  1.
          4    1    6    6  502    0 -0.62089237743E+01 -0.88006914721E+01  0.19113083629E+02  0.21938843877E+02  0.00000000000E+00 0. -1.
          1    1    5    5  503    0 -0.11704699934E+03  0.18270863749E+03  0.10286101449E+02  0.21722856661E+03  0.00000000000E+00 0. -1.
         -2    1    5    5    0  503 -0.15741218179E+03  0.11240401309E+03  0.28633749705E+02  0.19553298637E+03  0.00000000000E+00 0.  1.
         -3    1    6    6    0  502 -0.12985610693E+03  0.54858311053E+02  0.11793027295E+04  0.11876981816E+04  0.00000000000E+00 0.  1.
<mgrwt>
<rscale>  0 0.20345582E+04</rscale>
<asrwt>0</asrwt>
<pdfrwt beam="1">  1        4 0.10016584E+00 0.20345582E+04</pdfrwt>
<pdfrwt beam="2">  1       -4 0.24453099E+00 0.20345582E+04</pdfrwt>
<totfact> 0.10412390E-01</totfact>
</mgrwt>
</event>
<event>
12    1  0.1477245E-007  0.1849801E+04  0.7818608E-02  0.8680255E-01
          2   -1    0    0  501    0  0.00000000000E+00  0.00000000000E+00  0.22561938110E+04  0.22561938110E+04  0.00000000000E+00 0. -1.
         -2   -1    0    0    0  501 -0.00000000000E+00 -0.00000000000E+00 -0.37915226893E+03  0.37915226893E+03  0.00000000000E+00 0.  1.
         23    2    1    2    0    0  0.50522489328E+03  0.28623690260E+03  0.14035791930E+03  0.60379785070E+03  0.87679768473E+02 0.  0.
        254    2    1    2    0    0 -0.50522489328E+03 -0.28623690260E+03  0.17366836227E+04  0.20315482292E+04  0.87973544027E+03 0.  0.
        -24    2    4    4    0    0 -0.52979053833E+03 -0.36943337964E+03  0.17871365314E+04  0.19019161200E+04  0.79176443884E+02 0.  0.
         24    2    4    4    0    0  0.24565645054E+02  0.83196477040E+02 -0.50452908616E+02  0.12963210921E+03  0.82060118459E+02 0.  0.
         11    1    3    3    0    0  0.14062657610E+03  0.47952543260E+02  0.89451522698E+01  0.14884655206E+03  0.00000000000E+00 0.  1.
        -11    1    3    3    0    0  0.36459831718E+03  0.23828435934E+03  0.13141276703E+03  0.45495129864E+03  0.00000000000E+00 0. -1.
          4    1    6    6  502    0  0.52014151545E+02  0.73563994442E+02 -0.34661464218E+02  0.96532638734E+02  0.00000000000E+00 0. -1.
          1    1    5    5  503    0 -0.48464005655E+03 -0.33191198739E+03  0.15486060102E+04  0.16562675287E+04  0.00000000000E+00 0. -1.
         -2    1    5    5    0  503 -0.45150481782E+02 -0.37521392242E+02  0.23853052111E+03  0.24564859124E+03  0.00000000000E+00 0.  1.
         -3    1    6    6    0  502 -0.27448506491E+02  0.96324825985E+01 -0.15791444397E+02  0.33099470476E+02  0.00000000000E+00 0.  1.
<mgrwt>
<rscale>  0 0.18498011E+04</rscale>
<asrwt>0</asrwt>
<pdfrwt beam="1">  1        2 0.34710673E+00 0.18498011E+04</pdfrwt>
<pdfrwt beam="2">  1       -2 0.58331119E-01 0.18498011E+04</pdfrwt>
<totfact> 0.12411616E+01</totfact>
</mgrwt>
</event>
<event>
12    1  0.1477245E-007  0.2124930E+04  0.7818608E-02  0.8550340E-01
          1   -1    0    0  501    0  0.00000000000E+00  0.00000000000E+00  0.50456443341E+03  0.50456443341E+03  0.00000000000E+00 0. -1.
         -1   -1    0    0    0  501 -0.00000000000E+00 -0.00000000000E+00 -0.22372412138E+04  0.22372412138E+04  0.00000000000E+00 0.  1.
         23    2    1    2    0    0  0.56647427176E+03  0.49008598438E+03 -0.12859291707E+04  0.14910164142E+04  0.91862629797E+02 0.  0.
        254    2    1    2    0    0 -0.56647427176E+03 -0.49008598438E+03 -0.44674760966E+03  0.12507892330E+04  0.89655613652E+03 0.  0.
        -24    2    4    4    0    0 -0.93476974445E+02 -0.26463649671E+03  0.24327367572E+03  0.38059609855E+03  0.83071588356E+02 0.  0.
         24    2    4    4    0    0 -0.47299729731E+03 -0.22544948767E+03 -0.69002128538E+03  0.87019313442E+03  0.80949380221E+02 0.  0.
         13    1    3    3    0    0  0.52072335078E+03  0.41926397872E+03 -0.11067897284E+04  0.12930269119E+04  0.00000000000E+00 0.  1.
        -13    1    3    3    0    0  0.45750920982E+02  0.70822005657E+02 -0.17913944231E+03  0.19798950236E+03  0.00000000000E+00 0. -1.
          2    1    6    6  502    0 -0.32081959795E+03 -0.19164220310E+03 -0.50555919014E+03  0.62868278422E+03  0.00000000000E+00 0. -1.
          1    1    5    5  503    0 -0.27485726884E+02 -0.15130616221E+03  0.17422297062E+03  0.23238473142E+03  0.00000000000E+00 0. -1.
         -2    1    5    5    0  503 -0.65991247561E+02 -0.11333033450E+03  0.69050705101E+02  0.14821136714E+03  0.00000000000E+00 0.  1.
         -1    1    6    6    0  502 -0.15217769937E+03 -0.33807284563E+02 -0.18446209524E+03  0.24151035020E+03  0.00000000000E+00 0.  1.
<mgrwt>
<rscale>  0 0.21249304E+04</rscale>
<asrwt>0</asrwt>
<pdfrwt beam="1">  1        1 0.77625298E-01 0.21249304E+04</pdfrwt>
<pdfrwt beam="2">  1       -1 0.34419095E+00 0.21249304E+04</pdfrwt>
<totfact> 0.68261053E-01</totfact>
</mgrwt>
</event>
<event>
12    1  0.1477245E-007  0.1372869E+04  0.7818608E-02  0.8973695E-01
         -2   -1    0    0    0  501 -0.00000000000E+00  0.00000000000E+00  0.11738367657E+04  0.11738367657E+04  0.00000000000E+00 0.  1.
          2   -1    0    0  501    0  0.00000000000E+00 -0.00000000000E+00 -0.40141219251E+03  0.40141219251E+03  0.00000000000E+00 0. -1.
         23    2    1    2    0    0 -0.19500996875E+03 -0.11981318700E+03 -0.18893851331E+03  0.31083365253E+03  0.92388906490E+02 0.  0.
        254    2    1    2    0    0  0.19500996875E+03  0.11981318700E+03  0.96136308652E+03  0.12644153057E+04  0.78876041577E+03 0.  0.
        -24    2    4    4    0    0  0.17301152645E+03  0.42727332986E+03  0.38447125387E+03  0.60577463221E+03  0.81543076289E+02 0.  0.
         24    2    4    4    0    0  0.21998442297E+02 -0.30746014286E+03  0.57689183266E+03  0.65864067349E+03  0.77380096184E+02 0.  0.
         13    1    3    3    0    0 -0.16353319279E+03 -0.10397423376E+03 -0.19518493414E+03  0.27504709586E+03  0.00000000000E+00 0. -1.
        -13    1    3    3    0    0 -0.31476775961E+02 -0.15838953241E+02  0.62464208300E+01  0.35786556664E+02  0.00000000000E+00 0.  1.
          4    1    6    6  502    0  0.41894776477E+02 -0.89607969468E+02  0.18856144540E+03  0.21293233475E+03  0.00000000000E+00 0. -1.
          1    1    5    5  503    0 -0.23905728566E+01  0.70600723350E+02  0.56063055980E+02  0.90184495463E+02  0.00000000000E+00 0. -1.
         -4    1    5    5    0  503  0.17540209931E+03  0.35667260651E+03  0.32840819789E+03  0.51559013675E+03  0.00000000000E+00 0.  1.
         -1    1    6    6    0  502 -0.19896334181E+02 -0.21785217339E+03  0.38833038725E+03  0.44570833875E+03  0.00000000000E+00 0.  1.
<mgrwt>
<rscale>  0 0.13728691E+04</rscale>
<asrwt>0</asrwt>
<pdfrwt beam="1">  1        2 0.61755722E-01 0.13728691E+04</pdfrwt>
<pdfrwt beam="2">  1       -2 0.18059027E+00 0.13728691E+04</pdfrwt>
<totfact> 0.13858256E+01</totfact>
</mgrwt>
</event>
<event>
12    1  0.1477245E-007  0.2010952E+04  0.7818608E-02  0.8601517E-01
         -2   -1    0    0    0  501 -0.00000000000E+00  0.00000000000E+00  0.86076135996E+03  0.86076135996E+03  0.00000000000E+00 0.  1.
          2   -1    0    0  501    0  0.00000000000E+00 -0.00000000000E+00 -0.11745207063E+04  0.11745207063E+04  0.00000000000E+00 0. -1.
         23    2    1    2    0    0  0.51065746289E+03  0.89276994818E+01 -0.74950371374E+03  0.91138421811E+03  0.89524454103E+02 0.  0.
        254    2    1    2    0    0 -0.51065746289E+03 -0.89276994818E+01  0.43574436737E+03  0.11238978482E+04  0.90134481263E+03 0.  0.
        -24    2    4    4    0    0 -0.76480322300E+03 -0.21427482435E+02  0.31156100546E+03  0.82995493652E+03  0.79823740956E+02 0.  0.
         24    2    4    4    0    0  0.25414576010E+03  0.12499782953E+02  0.12418336191E+03  0.29394291167E+03  0.78959584568E+02 0.  0.
         11    1    3    3    0    0  0.39418552518E+03 -0.13785550519E+01 -0.50741804582E+03  0.64253965006E+03  0.00000000000E+00 0. -1.
        -11    1    3    3    0    0  0.11647193771E+03  0.10306254534E+02 -0.24208566792E+03  0.26884456805E+03  0.00000000000E+00 0.  1.
          2    1    6    6  502    0  0.55548765779E+02  0.32923063229E+02  0.14605344080E+02  0.66203546337E+02  0.00000000000E+00 0. -1.
          1    1    5    5  503    0 -0.13878762755E+02 -0.16584492341E+01  0.19497403653E+02  0.23989982465E+02  0.00000000000E+00 0. -1.
         -2    1    5    5    0  503 -0.75092446024E+03 -0.19769033201E+02  0.29206360180E+03  0.80596495405E+03  0.00000000000E+00 0.  1.
         -1    1    6    6    0  502  0.19859699433E+03 -0.20423280276E+02  0.10957801783E+03  0.22773936534E+03  0.00000000000E+00 0.  1.
<mgrwt>
<rscale>  0 0.20109521E+04</rscale>
<asrwt>0</asrwt>
<pdfrwt beam="1">  1        2 0.18069549E+00 0.20109521E+04</pdfrwt>
<pdfrwt beam="2">  1       -2 0.13242483E+00 0.20109521E+04</pdfrwt>
<totfact> 0.75478260E+00</totfact>
</mgrwt>
</event>
<event>
12    1  0.1807960E-007  0.2669339E+04  0.7818608E-02  0.8345022E-01
         -2   -1    0    0    0  501 -0.00000000000E+00  0.00000000000E+00  0.10026234063E+04  0.10026234063E+04  0.00000000000E+00 0.  1.
          2   -1    0    0  501    0  0.00000000000E+00 -0.00000000000E+00 -0.17766817109E+04  0.17766817109E+04  0.00000000000E+00 0. -1.
         23    2    1    2    0    0 -0.23138600055E+03  0.54936471680E+03  0.71901859910E+03  0.93792940072E+03  0.85922881509E+02 0.  0.
        254    2    1    2    0    0  0.23138600055E+03 -0.54936471680E+03 -0.14930769038E+04  0.18413757165E+04  0.89779998630E+03 0.  0.
        -24    2    4    4    0    0 -0.22697124967E+02 -0.29005917533E+03  0.24554919716E+01  0.30030818830E+03  0.74360566492E+02 0.  0.
         24    2    4    4    0    0  0.25408312552E+03 -0.25930554147E+03 -0.14955323957E+04  0.15410675282E+04  0.80463539647E+02 0.  0.
         11    1    3    3    0    0 -0.22386418829E+03  0.50744241356E+03  0.63070691628E+03  0.83988343960E+03  0.00000000000E+00 0.  1.
        -11    1    3    3    0    0 -0.75218122647E+01  0.41922303242E+02  0.88311682822E+02  0.98045961119E+02  0.00000000000E+00 0. -1.
          2    1    6    6  502    0  0.99820545627E+01 -0.21621394773E+02 -0.43424344657E+02  0.49525749203E+02  0.00000000000E+00 0. -1.
          1    1    5    5  503    0 -0.14218156223E+02 -0.72422683597E+02 -0.30815618653E+02  0.79980018872E+02  0.00000000000E+00 0. -1.
         -2    1    5    5    0  503 -0.84789687438E+01 -0.21763649173E+03  0.33271110625E+02  0.22032816943E+03  0.00000000000E+00 0.  1.
         -1    1    6    6    0  502  0.24410107096E+03 -0.23768414670E+03 -0.14521080511E+04  0.14915417790E+04  0.00000000000E+00 0.  1.
<mgrwt>
<rscale>  0 0.26693390E+04</rscale>
<asrwt>0</asrwt>
<pdfrwt beam="1">  1        2 0.27333565E+00 0.26693390E+04</pdfrwt>
<pdfrwt beam="2">  1       -2 0.15424976E+00 0.26693390E+04</pdfrwt>
<totfact> 0.21748622E+00</totfact>
</mgrwt>
</event>
<event>
12    1  0.1477245E-007  0.2588950E+04  0.7818608E-02  0.8371964E-01
         -2   -1    0    0    0  501 -0.00000000000E+00  0.00000000000E+00  0.15604329386E+04  0.15604329386E+04  0.00000000000E+00 0.  1.
          2   -1    0    0  501    0  0.00000000000E+00 -0.00000000000E+00 -0.10738468265E+04  0.10738468265E+04  0.00000000000E+00 0. -1.
         23    2    1    2    0    0 -0.22791753186E+03 -0.68680563775E+03 -0.67932472360E+03  0.99677854592E+03  0.91853166300E+02 0.  0.
        254    2    1    2    0    0  0.22791753186E+03  0.68680563775E+03  0.11659108357E+04  0.16375012192E+04  0.89354002752E+03 0.  0.
        -24    2    4    4    0    0 -0.30737531255E+03  0.12990401526E+03  0.54070935826E+03  0.64057944679E+03  0.81368185424E+02 0.  0.
         24    2    4    4    0    0  0.53529284440E+03  0.55690162249E+03  0.62520147742E+03  0.99692177242E+03  0.79361744849E+02 0.  0.
         13    1    3    3    0    0 -0.13308218460E+02 -0.15738951115E+03 -0.15758210434E+03  0.22311585893E+03  0.00000000000E+00 0.  1.
        -13    1    3    3    0    0 -0.21460931340E+03 -0.52941612659E+03 -0.52174261926E+03  0.77366268699E+03  0.00000000000E+00 0. -1.
          4    1    6    6  502    0  0.39508423995E+03  0.45075586515E+03  0.50667165384E+03  0.78484939411E+03  0.00000000000E+00 0. -1.
          3    1    5    5  503    0 -0.29714420087E+03  0.10851096097E+03  0.52201015057E+03  0.61038012915E+03  0.00000000000E+00 0. -1.
         -4    1    5    5    0  503 -0.10231111680E+02  0.21393054289E+02  0.18699207692E+02  0.30199317647E+02  0.00000000000E+00 0.  1.
         -3    1    6    6    0  502  0.14020860445E+03  0.10614575734E+03  0.11852982358E+03  0.21207237831E+03  0.00000000000E+00 0.  1.
<mgrwt>
<rscale>  0 0.25889503E+04</rscale>
<asrwt>0</asrwt>
<pdfrwt beam="1">  1        2 0.16520720E+00 0.25889503E+04</pdfrwt>
<pdfrwt beam="2">  1       -2 0.24006661E+00 0.25889503E+04</pdfrwt>
<totfact> 0.14817219E+00</totfact>
</mgrwt>
</event>
<event>
12    1  0.1477245E-007  0.1564025E+04  0.7818608E-02  0.8842959E-01
          1   -1    0    0  501    0  0.00000000000E+00  0.00000000000E+00  0.48883523929E+03  0.48883523929E+03  0.00000000000E+00 0. -1.
         -1   -1    0    0    0  501 -0.00000000000E+00 -0.00000000000E+00 -0.12510225255E+04  0.12510225255E+04  0.00000000000E+00 0.  1.
         23    2    1    2    0    0  0.18039942434E+03 -0.42779424331E+03 -0.58719459192E+03  0.75401522686E+03  0.90496445463E+02 0.  0.
        254    2    1    2    0    0 -0.18039942434E+03  0.42779424331E+03 -0.17499269429E+03  0.98584253792E+03  0.85188684671E+03 0.  0.
        -24    2    4    4    0    0 -0.19200897796E+03  0.16349287022E+03  0.32178494245E+03  0.41648948931E+03  0.79502070977E+02 0.  0.
         24    2    4    4    0    0  0.11609553617E+02  0.26430137309E+03 -0.49677763674E+03  0.56935304861E+03  0.85935301479E+02 0.  0.
         13    1    3    3    0    0  0.12875491684E+03 -0.32073915838E+03 -0.36923650726E+03  0.50575392695E+03  0.00000000000E+00 0.  1.
        -13    1    3    3    0    0  0.51644507503E+02 -0.10705508493E+03 -0.21795808467E+03  0.24826129992E+03  0.00000000000E+00 0. -1.
          4    1    6    6  502    0  0.56208021630E+01  0.27287572576E+02 -0.13300890352E+02  0.30872620851E+02  0.00000000000E+00 0. -1.
          1    1    5    5  503    0 -0.11612468762E+02  0.48928991290E+02  0.52271836386E+02  0.72534409067E+02  0.00000000000E+00 0. -1.
         -2    1    5    5    0  503 -0.18039650920E+03  0.11456387893E+03  0.26951310606E+03  0.34395508025E+03  0.00000000000E+00 0.  1.
         -3    1    6    6    0  502  0.59887514535E+01  0.23701380052E+03 -0.48347674639E+03  0.53848042776E+03  0.00000000000E+00 0.  1.
<mgrwt>
<rscale>  0 0.15640254E+04</rscale>
<asrwt>0</asrwt>
<pdfrwt beam="1">  1        1 0.75205422E-01 0.15640254E+04</pdfrwt>
<pdfrwt beam="2">  1       -1 0.19246500E+00 0.15640254E+04</pdfrwt>
<totfact> 0.74707841E+00</totfact>
</mgrwt>
</event>
<event>
12    1  0.1477245E-007  0.1572341E+04  0.7818608E-02  0.8837722E-01
         -1   -1    0    0    0  501 -0.00000000000E+00  0.00000000000E+00  0.62655042708E+03  0.62655042708E+03  0.00000000000E+00 0.  1.
          1   -1    0    0  501    0  0.00000000000E+00 -0.00000000000E+00 -0.98645578731E+03  0.98645578731E+03  0.00000000000E+00 0. -1.
         23    2    1    2    0    0  0.50175231261E+03  0.36160656965E+02 -0.26072076507E+03  0.57372532597E+03  0.90124669175E+02 0.  0.
        254    2    1    2    0    0 -0.50175231261E+03 -0.36160656965E+02 -0.99184595165E+02  0.10392808884E+04  0.90399347608E+03 0.  0.
        -24    2    4    4    0    0 -0.52207582368E+03 -0.16723519061E+03 -0.41172523082E+03  0.69044626004E+03  0.81655358979E+02 0.  0.
         24    2    4    4    0    0  0.20323511071E+02  0.13107453365E+03  0.31254063566E+03  0.34883462838E+03  0.80064789690E+02 0.  0.
         13    1    3    3    0    0  0.48799946794E+03  0.43653566586E+02 -0.23448107740E+03  0.54316709238E+03  0.00000000000E+00 0. -1.
        -13    1    3    3    0    0  0.13752844674E+02 -0.74929096210E+01 -0.26239687665E+02  0.30558233587E+02  0.00000000000E+00 0.  1.
          4    1    6    6  502    0  0.40049880045E+02  0.29687458782E+02  0.12781525014E+03  0.13719357226E+03  0.00000000000E+00 0. -1.
          1    1    5    5  503    0 -0.44150727836E+03 -0.12421322109E+03 -0.30920373524E+03  0.55314062500E+03  0.00000000000E+00 0. -1.
         -4    1    5    5    0  503 -0.80568545328E+02 -0.43021969525E+02 -0.10252149558E+03  0.13730563504E+03  0.00000000000E+00 0.  1.
         -3    1    6    6    0  502 -0.19726368973E+02  0.10138707487E+03  0.18472538552E+03  0.21164105612E+03  0.00000000000E+00 0.  1.
<mgrwt>
<rscale>  0 0.15723413E+04</rscale>
<asrwt>0</asrwt>
<pdfrwt beam="1">  1        1 0.15176243E+00 0.15723413E+04</pdfrwt>
<pdfrwt beam="2">  1       -1 0.96392374E-01 0.15723413E+04</pdfrwt>
<totfact> 0.15455912E+01</totfact>
</mgrwt>
</event>
<event>
12    1  0.1477245E-007  0.1873356E+04  0.7818608E-02  0.8668234E-01
         -1   -1    0    0    0  501 -0.00000000000E+00  0.00000000000E+00  0.29376829781E+03  0.29376829781E+03  0.00000000000E+00 0.  1.
          1   -1    0    0  501    0  0.00000000000E+00 -0.00000000000E+00 -0.29865911754E+04  0.29865911754E+04  0.00000000000E+00 0. -1.
         23    2    1    2    0    0 -0.18861441119E+03  0.25187243732E+02 -0.22452181632E+04  0.22551063108E+04  0.91049871082E+02 0.  0.
        254    2    1    2    0    0  0.18861441119E+03 -0.25187243732E+02 -0.44760471432E+03  0.10252531624E+04  0.90254322521E+03 0.  0.
        -24    2    4    4    0    0 -0.12910958175E+03  0.33497440892E+03 -0.38800121381E+03  0.53468469187E+03  0.80409197667E+02 0.  0.
         24    2    4    4    0    0  0.31772399294E+03 -0.36016165265E+03 -0.59603500508E+02  0.49056847053E+03  0.80248958119E+02 0.  0.
         13    1    3    3    0    0 -0.15790661625E+03  0.26674439909E+02 -0.21247695928E+04  0.21307960596E+04  0.00000000000E+00 0. -1.
        -13    1    3    3    0    0 -0.30707794941E+02 -0.14871961766E+01 -0.12044857040E+03  0.12431025112E+03  0.00000000000E+00 0.  1.
          4    1    6    6  502    0  0.24177187955E+03 -0.30418701806E+03 -0.22602148919E+02  0.38922261090E+03  0.00000000000E+00 0. -1.
          3    1    5    5  503    0 -0.10036867935E+03  0.30778122286E+03 -0.31524437570E+03  0.45186521148E+03  0.00000000000E+00 0. -1.
         -4    1    5    5    0  503 -0.28740902398E+02  0.27193186055E+02 -0.72756838116E+02  0.82819480384E+02  0.00000000000E+00 0.  1.
         -3    1    6    6    0  502  0.75952113393E+02 -0.55974634587E+02 -0.37001351588E+02  0.10134585964E+03  0.00000000000E+00 0.  1.
<mgrwt>
<rscale>  0 0.18733561E+04</rscale>
<asrwt>0</asrwt>
<pdfrwt beam="1">  1        1 0.45947560E+00 0.18733561E+04</pdfrwt>
<pdfrwt beam="2">  1       -1 0.45195119E-01 0.18733561E+04</pdfrwt>
<totfact> 0.27921915E+00</totfact>
</mgrwt>
</event>
<event>
12    1  0.1477245E-007  0.2148427E+04  0.7818608E-02  0.8540206E-01
         -1   -1    0    0    0  501 -0.00000000000E+00  0.00000000000E+00  0.55527557306E+03  0.55527557306E+03  0.00000000000E+00 0.  1.
          1   -1    0    0  501    0  0.00000000000E+00 -0.00000000000E+00 -0.20781295301E+04  0.20781295301E+04  0.00000000000E+00 0. -1.
         23    2    1    2    0    0  0.56044982261E+03  0.68212072235E+03 -0.52089920600E+03  0.10297702803E+04  0.98479256312E+02 0.  0.
        254    2    1    2    0    0 -0.56044982261E+03 -0.68212072235E+03 -0.10019547510E+04  0.16036348228E+04  0.88788436088E+03 0.  0.
        -24    2    4    4    0    0  0.39876456428E+02  0.16901817091E+03 -0.73312986441E+02  0.20598813043E+03  0.83060472086E+02 0.  0.
         24    2    4    4    0    0 -0.60032627904E+03 -0.85113889325E+03 -0.92864176455E+03  0.13976466924E+04  0.78814293567E+02 0.  0.
         11    1    3    3    0    0  0.38646500467E+02  0.26244396965E+02 -0.86729143151E+01  0.47513575040E+02  0.00000000000E+00 0.  1.
        -11    1    3    3    0    0  0.52180332214E+03  0.65587632538E+03 -0.51222629169E+03  0.98225670529E+03  0.00000000000E+00 0. -1.
          4    1    6    6  502    0 -0.29457479146E+03 -0.48429996492E+03 -0.51484981438E+03  0.76576177441E+03  0.00000000000E+00 0. -1.
          1    1    5    5  503    0  0.34319227766E+02  0.16829275440E+03 -0.45589523492E+02  0.17770386948E+03  0.00000000000E+00 0. -1.
         -4    1    5    5    0  503  0.55572286620E+01  0.72541651186E+00 -0.27723462949E+02  0.28284260949E+02  0.00000000000E+00 0.  1.
         -3    1    6    6    0  502 -0.30575148757E+03 -0.36683892834E+03 -0.41379195017E+03  0.63188491794E+03  0.00000000000E+00 0.  1.
<mgrwt>
<rscale>  0 0.21484269E+04</rscale>
<asrwt>0</asrwt>
<pdfrwt beam="1">  1        1 0.31971223E+00 0.21484269E+04</pdfrwt>
<pdfrwt beam="2">  1       -1 0.85427012E-01 0.21484269E+04</pdfrwt>
<totfact> 0.32703790E+00</totfact>
</mgrwt>
</event>
<event>
12    1  0.1477245E-007  0.2755879E+04  0.7818608E-02  0.8317098E-01
          1   -1    0    0  501    0  0.00000000000E+00  0.00000000000E+00  0.17850592188E+04  0.17850592188E+04  0.00000000000E+00 0. -1.
         -1   -1    0    0    0  501 -0.00000000000E+00 -0.00000000000E+00 -0.10636720239E+04  0.10636720239E+04  0.00000000000E+00 0.  1.
         23    2    1    2    0    0  0.11301301715E+04 -0.20210393148E+03 -0.13602092153E+03  0.11597613177E+04  0.92219408448E+02 0.  0.
        254    2    1    2    0    0 -0.11301301715E+04  0.20210393148E+03  0.85740811644E+03  0.16889699251E+04  0.89410878871E+03 0.  0.
        -24    2    4    4    0    0 -0.10412301452E+04  0.41889454325E+03  0.44946382899E+03  0.12116613890E+04  0.80453306629E+02 0.  0.
         24    2    4    4    0    0 -0.88900026336E+02 -0.21679061177E+03  0.40794428745E+03  0.47730853605E+03  0.80644360535E+02 0.  0.
         11    1    3    3    0    0  0.19542298004E+03  0.79575882439E-02 -0.25966452324E+02  0.19714055351E+03  0.00000000000E+00 0. -1.
        -11    1    3    3    0    0  0.93470719146E+03 -0.20211188907E+03 -0.11005446921E+03  0.96262076419E+03  0.00000000000E+00 0.  1.
          2    1    6    6  502    0  0.24595162880E+01 -0.97291682468E+02  0.16523382657E+03  0.19176532048E+03  0.00000000000E+00 0. -1.
          1    1    5    5  503    0 -0.82514042594E+03  0.32224866654E+03  0.38809204113E+03  0.96711755128E+03  0.00000000000E+00 0. -1.
         -2    1    5    5    0  503 -0.21608971922E+03  0.96645876711E+02  0.61371787866E+02  0.24454383775E+03  0.00000000000E+00 0.  1.
         -1    1    6    6    0  502 -0.91359542624E+02 -0.11949892930E+03  0.24271046088E+03  0.28554321557E+03  0.00000000000E+00 0.  1.
<mgrwt>
<rscale>  0 0.27558792E+04</rscale>
<asrwt>0</asrwt>
<pdfrwt beam="1">  1        1 0.27462449E+00 0.27558792E+04</pdfrwt>
<pdfrwt beam="2">  1       -1 0.16364185E+00 0.27558792E+04</pdfrwt>
<totfact> 0.99421438E-01</totfact>
</mgrwt>
</event>
<event>
12    1  0.1477245E-007  0.3256176E+04  0.7818608E-02  0.8174137E-01
          2   -1    0    0  501    0  0.00000000000E+00  0.00000000000E+00  0.40180648868E+04  0.40180648868E+04  0.00000000000E+00 0. -1.
         -2   -1    0    0    0  501 -0.00000000000E+00 -0.00000000000E+00 -0.65968852399E+03  0.65968852399E+03  0.00000000000E+00 0.  1.
         23    2    1    2    0    0 -0.10549563831E+04 -0.49733937534E+03  0.22829561281E+03  0.11919963263E+04  0.91961572261E+02 0.  0.
        254    2    1    2    0    0  0.10549563831E+04  0.49733937534E+03  0.31300807500E+04  0.34857570844E+04  0.99640229116E+03 0.  0.
        -24    2    4    4    0    0  0.32389967844E+03 -0.22004446566E+03  0.38759411950E+03  0.55717439978E+03  0.82967112398E+02 0.  0.
         24    2    4    4    0    0  0.73105670461E+03  0.71738384100E+03  0.27424866305E+04  0.29285826846E+04  0.79247345473E+02 0.  0.
         11    1    3    3    0    0 -0.33112425286E+03 -0.12486001112E+03  0.10134669239E+03  0.36810928441E+03  0.00000000000E+00 0. -1.
        -11    1    3    3    0    0 -0.72383213019E+03 -0.37247936422E+03  0.12694892043E+03  0.82388704193E+03  0.00000000000E+00 0.  1.
          4    1    6    6  502    0  0.13848500094E+03  0.14443131487E+03  0.45248129509E+03  0.49475026286E+03  0.00000000000E+00 0. -1.
          1    1    5    5  503    0  0.13642847048E+03 -0.45853336562E+02  0.12719684709E+03  0.19207887427E+03  0.00000000000E+00 0. -1.
         -2    1    5    5    0  503  0.18747120797E+03 -0.17419112910E+03  0.26039727241E+03  0.36509552551E+03  0.00000000000E+00 0.  1.
         -3    1    6    6    0  502  0.59257170367E+03  0.57295252613E+03  0.22900053354E+04  0.24338324218E+04  0.00000000000E+00 0.  1.
<mgrwt>
<rscale>  0 0.32561765E+04</rscale>
<asrwt>0</asrwt>
<pdfrwt beam="1">  1        2 0.61816381E+00 0.32561765E+04</pdfrwt>
<pdfrwt beam="2">  1       -2 0.10149054E+00 0.32561765E+04</pdfrwt>
<totfact> 0.22063797E-01</totfact>
</mgrwt>
</event>
<event>
12    1  0.1477245E-007  0.2442208E+04  0.7818608E-02  0.8423869E-01
          2   -1    0    0  501    0  0.00000000000E+00  0.00000000000E+00  0.22293089597E+04  0.22293089597E+04  0.00000000000E+00 0. -1.
         -2   -1    0    0    0  501 -0.00000000000E+00 -0.00000000000E+00 -0.66885955872E+03  0.66885955872E+03  0.00000000000E+00 0.  1.
         23    2    1    2    0    0  0.24232416745E+03 -0.15563373641E+03  0.18758724954E+04  0.18998424859E+04  0.86953954176E+02 0.  0.
        254    2    1    2    0    0 -0.24232416745E+03  0.15563373641E+03 -0.31542309442E+03  0.99832603253E+03  0.90234155212E+03 0.  0.
        -24    2    4    4    0    0 -0.18742935343E+03 -0.23649335439E+03  0.17903679799E+03  0.35982180900E+03  0.79741394506E+02 0.  0.
         24    2    4    4    0    0 -0.54894814024E+02  0.39212709080E+03 -0.49445989241E+03  0.63850422353E+03  0.80124667359E+02 0.  0.
         11    1    3    3    0    0  0.13633564050E+03 -0.11629240189E+03  0.91842813151E+03  0.93574652677E+03  0.00000000000E+00 0.  1.
        -11    1    3    3    0    0  0.10598852695E+03 -0.39341334511E+02  0.95744436390E+03  0.96409595913E+03  0.00000000000E+00 0. -1.
          2    1    6    6  502    0 -0.21309875989E+02  0.34277036890E+03 -0.40581862189E+03  0.53163369954E+03  0.00000000000E+00 0. -1.
          3    1    5    5  503    0 -0.14681716911E+03 -0.22379438963E+03  0.16745673976E+03  0.31572293180E+03  0.00000000000E+00 0. -1.
         -4    1    5    5    0  503 -0.40612184323E+02 -0.12698964767E+02  0.11580058227E+02  0.44098877199E+02  0.00000000000E+00 0.  1.
         -1    1    6    6    0  502 -0.33584938035E+02  0.49356721900E+02 -0.88641270517E+02  0.10687052399E+03  0.00000000000E+00 0.  1.
<mgrwt>
<rscale>  0 0.24422077E+04</rscale>
<asrwt>0</asrwt>
<pdfrwt beam="1">  1        2 0.34297061E+00 0.24422077E+04</pdfrwt>
<pdfrwt beam="2">  1       -2 0.10290147E+00 0.24422077E+04</pdfrwt>
<totfact> 0.34365415E+00</totfact>
</mgrwt>
</event>
<event>
12    1  0.1477245E-007  0.1221150E+04  0.7818608E-02  0.9094543E-01
         -2   -1    0    0    0  501 -0.00000000000E+00  0.00000000000E+00  0.12867497981E+03  0.12867497981E+03  0.00000000000E+00 0.  1.
          2   -1    0    0  501    0  0.00000000000E+00 -0.00000000000E+00 -0.28972359483E+04  0.28972359483E+04  0.00000000000E+00 0. -1.
         23    2    1    2    0    0 -0.11644852595E+03  0.11697566025E+03 -0.11887790765E+03  0.22249827393E+03  0.90166294628E+02 0.  0.
        254    2    1    2    0    0  0.11644852595E+03 -0.11697566025E+03 -0.26496830608E+04  0.28034126541E+04  0.90058793155E+03 0.  0.
        -24    2    4    4    0    0  0.30751689228E+03  0.25723735101E+03 -0.18703644628E+04  0.19144764137E+04  0.78860770072E+02 0.  0.
         24    2    4    4    0    0 -0.19106836633E+03 -0.37421301126E+03 -0.77931859796E+03  0.88893624042E+03  0.79546615254E+02 0.  0.
         11    1    3    3    0    0 -0.26660029680E+02  0.33312472343E+02  0.10740104729E+02  0.43998043659E+02  0.00000000000E+00 0.  1.
        -11    1    3    3    0    0 -0.89788496274E+02  0.83663187905E+02 -0.12961801238E+03  0.17850023027E+03  0.00000000000E+00 0. -1.
          2    1    6    6  502    0 -0.15092937386E+03 -0.21155182863E+03 -0.45982991372E+03  0.52818311374E+03  0.00000000000E+00 0. -1.
          3    1    5    5  503    0  0.25475344012E+03  0.18574424402E+03 -0.15652767235E+04  0.15967127045E+04  0.00000000000E+00 0. -1.
         -4    1    5    5    0  503  0.52763452160E+02  0.71493106997E+02 -0.30508773929E+03  0.31776370922E+03  0.00000000000E+00 0.  1.
         -3    1    6    6    0  502 -0.40138992472E+02 -0.16266118263E+03 -0.31948868424E+03  0.36075312668E+03  0.00000000000E+00 0.  1.
<mgrwt>
<rscale>  0 0.12211499E+04</rscale>
<asrwt>0</asrwt>
<pdfrwt beam="1">  1        2 0.44572851E+00 0.12211499E+04</pdfrwt>
<pdfrwt beam="2">  1       -2 0.19796155E-01 0.12211499E+04</pdfrwt>
<totfact> 0.43774297E+01</totfact>
</mgrwt>
</event>
<event>
12    1  0.1477245E-007  0.1852580E+04  0.7818608E-02  0.8678827E-01
         -1   -1    0    0    0  501 -0.00000000000E+00  0.00000000000E+00  0.47421449475E+03  0.47421449475E+03  0.00000000000E+00 0.  1.
          1   -1    0    0  501    0  0.00000000000E+00 -0.00000000000E+00 -0.18093352533E+04  0.18093352533E+04  0.00000000000E+00 0. -1.
         23    2    1    2    0    0 -0.35941476324E+02  0.55222389121E+03  0.26334779721E+02  0.56105128327E+03  0.88555101978E+02 0.  0.
        254    2    1    2    0    0  0.35941476324E+02 -0.55222389121E+03 -0.13614555383E+04  0.17224984648E+04  0.89844129622E+03 0.  0.
        -24    2    4    4    0    0  0.14578655631E+03 -0.63187321598E+03 -0.43943774194E+03  0.78764002641E+03  0.82181513100E+02 0.  0.
         24    2    4    4    0    0 -0.10984507998E+03  0.79649324761E+02 -0.92201779632E+03  0.93485843837E+03  0.73712458429E+02 0.  0.
         11    1    3    3    0    0 -0.51519800203E+02  0.34355172176E+03 -0.15160031261E+02  0.34772388742E+03  0.00000000000E+00 0. -1.
        -11    1    3    3    0    0  0.15578323879E+02  0.20867216945E+03  0.41494810982E+02  0.21332739584E+03  0.00000000000E+00 0.  1.
          4    1    6    6  502    0 -0.10317375454E+03  0.36615880759E+02 -0.71261312091E+03  0.72097365169E+03  0.00000000000E+00 0. -1.
          1    1    5    5  503    0  0.11822218577E+03 -0.35658595810E+03 -0.22817432689E+03  0.43953788707E+03  0.00000000000E+00 0. -1.
         -2    1    5    5    0  503  0.27564370538E+02 -0.27528725787E+03 -0.21126341505E+03  0.34810213933E+03  0.00000000000E+00 0.  1.
         -3    1    6    6    0  502 -0.66713254442E+01  0.43033444002E+02 -0.20940467541E+03  0.21388478667E+03  0.00000000000E+00 0.  1.
<mgrwt>
<rscale>  0 0.18525798E+04</rscale>
<asrwt>0</asrwt>
<pdfrwt beam="1">  1        1 0.27835927E+00 0.18525798E+04</pdfrwt>
<pdfrwt beam="2">  1       -1 0.72956075E-01 0.18525798E+04</pdfrwt>
<totfact> 0.71430496E+00</totfact>
</mgrwt>
</event>
<event>
12    1  0.1477245E-007  0.1784614E+04  0.7818608E-02  0.8714524E-01
          2   -1    0    0  501    0  0.00000000000E+00  0.00000000000E+00  0.98093996460E+03  0.98093996460E+03  0.00000000000E+00 0. -1.
         -2   -1    0    0    0  501 -0.00000000000E+00 -0.00000000000E+00 -0.81168276734E+03  0.81168276734E+03  0.00000000000E+00 0.  1.
         23    2    1    2    0    0 -0.41876102520E+03 -0.45422262335E+02 -0.43794687444E+03  0.61450610874E+03  0.91631406754E+02 0.  0.
        254    2    1    2    0    0  0.41876102520E+03  0.45422262335E+02  0.60720407169E+03  0.11781166232E+04  0.91751731048E+03 0.  0.
        -24    2    4    4    0    0 -0.17129226592E+03  0.30510816314E+03  0.24150032280E+03  0.43252256502E+03  0.79506803231E+02 0.  0.
         24    2    4    4    0    0  0.59005329112E+03 -0.25968590080E+03  0.36570374889E+03  0.74559405819E+03  0.81065493336E+02 0.  0.
         11    1    3    3    0    0 -0.32873979039E+03  0.30981535872E+01 -0.33798426514E+03  0.47150059578E+03  0.00000000000E+00 0.  1.
        -11    1    3    3    0    0 -0.90021234818E+02 -0.48520415922E+02 -0.99962609302E+02  0.14300551296E+03  0.00000000000E+00 0. -1.
          2    1    6    6  502    0  0.14767103306E+02 -0.20419244681E+02  0.24863060036E+02  0.35400348130E+02  0.00000000000E+00 0. -1.
          1    1    5    5  503    0 -0.70248865631E+02  0.96729742203E+02  0.41548093510E+02  0.12656140890E+03  0.00000000000E+00 0. -1.
         -2    1    5    5    0  503 -0.10104340029E+03  0.20837842093E+03  0.19995222929E+03  0.30596115611E+03  0.00000000000E+00 0.  1.
         -1    1    6    6    0  502  0.57528618782E+03 -0.23926665612E+03  0.34084068885E+03  0.71019371006E+03  0.00000000000E+00 0.  1.
<mgrwt>
<rscale>  0 0.17846143E+04</rscale>
<asrwt>0</asrwt>
<pdfrwt beam="1">  1        2 0.15091384E+00 0.17846143E+04</pdfrwt>
<pdfrwt beam="2">  1       -2 0.12487427E+00 0.17846143E+04</pdfrwt>
<totfact> 0.11774372E+01</totfact>
</mgrwt>
</event>
<event>
12    1  0.1477245E-007  0.1585441E+04  0.7818608E-02  0.8829543E-01
          3   -1    0    0  501    0  0.00000000000E+00  0.00000000000E+00  0.57239741563E+03  0.57239741563E+03  0.00000000000E+00 0. -1.
         -3   -1    0    0    0  501 -0.00000000000E+00 -0.00000000000E+00 -0.10978480920E+04  0.10978480920E+04  0.00000000000E+00 0.  1.
         23    2    1    2    0    0  0.49262844453E+03  0.18862136146E+03 -0.12668609465E+03  0.55000170061E+03  0.90508020273E+02 0.  0.
        254    2    1    2    0    0 -0.49262844453E+03 -0.18862136146E+03 -0.39876458168E+03  0.11202438070E+04  0.90425228400E+03 0.  0.
        -24    2    4    4    0    0 -0.49724800163E+03 -0.50461251802E+03 -0.33931452826E+03  0.78885023082E+03  0.72532538322E+02 0.  0.
         24    2    4    4    0    0  0.46195570950E+01  0.31599115656E+03 -0.59450053419E+02  0.33139357616E+03  0.80097703684E+02 0.  0.
         11    1    3    3    0    0  0.43289773136E+03  0.15580842511E+03 -0.78979844751E+02  0.46681316073E+03  0.00000000000E+00 0.  1.
        -11    1    3    3    0    0  0.59730713168E+02  0.32812936348E+02 -0.47706249899E+02  0.83188539876E+02  0.00000000000E+00 0. -1.
          4    1    6    6  502    0 -0.33142507140E+02  0.75260030737E+02 -0.11302181678E+02  0.83007453380E+02  0.00000000000E+00 0. -1.
          3    1    5    5  503    0 -0.12254637300E+02 -0.37822381377E+01 -0.15581668432E+02  0.20180927922E+02  0.00000000000E+00 0. -1.
         -4    1    5    5    0  503 -0.48499336433E+03 -0.50083027988E+03 -0.32373285983E+03  0.76866930290E+03  0.00000000000E+00 0.  1.
         -3    1    6    6    0  502  0.37762064235E+02  0.24073112582E+03 -0.48147871741E+02  0.24838612278E+03  0.00000000000E+00 0.  1.
<mgrwt>
<rscale>  0 0.15854405E+04</rscale>
<asrwt>0</asrwt>
<pdfrwt beam="1">  1        3 0.88061141E-01 0.15854405E+04</pdfrwt>
<pdfrwt beam="2">  1       -3 0.16889971E+00 0.15854405E+04</pdfrwt>
<totfact> 0.69368336E-01</totfact>
</mgrwt>
</event>
<event>
12    1  0.1477245E-007  0.1572641E+04  0.7818608E-02  0.8837534E-01
         -2   -1    0    0    0  501 -0.00000000000E+00  0.00000000000E+00  0.40957188602E+03  0.40957188602E+03  0.00000000000E+00 0.  1.
          2   -1    0    0  501    0  0.00000000000E+00 -0.00000000000E+00 -0.15096254123E+04  0.15096254123E+04  0.00000000000E+00 0. -1.
         23    2    1    2    0    0  0.27489555011E+03  0.14244445702E+03 -0.87928645068E+03  0.93666094319E+03  0.91274713590E+02 0.  0.
        254    2    1    2    0    0 -0.27489555011E+03 -0.14244445702E+03 -0.22076707564E+03  0.98253635516E+03  0.90596997783E+03 0.  0.
        -24    2    4    4    0    0 -0.36599112030E+02 -0.26855621723E+03  0.28637677408E+03  0.40338345605E+03  0.85115328038E+02 0.  0.
         24    2    4    4    0    0 -0.23829643808E+03  0.12611176022E+03 -0.50714384971E+03  0.57915289911E+03  0.74389702096E+02 0.  0.
         11    1    3    3    0    0  0.28039951581E+03  0.13320200820E+03 -0.86307591181E+03  0.91720591636E+03  0.00000000000E+00 0. -1.
        -11    1    3    3    0    0 -0.55039656996E+01  0.92424488171E+01 -0.16210538872E+02  0.19455026833E+02  0.00000000000E+00 0.  1.
          4    1    6    6  502    0 -0.47390598613E+02  0.27468668918E+02 -0.17660789683E+03  0.18490739799E+03  0.00000000000E+00 0. -1.
          3    1    5    5  503    0 -0.64040660000E+02 -0.17848234673E+03  0.20003864939E+03  0.27563130352E+03  0.00000000000E+00 0. -1.
         -4    1    5    5    0  503  0.27441547971E+02 -0.90073870506E+02  0.86338124684E+02  0.12775215253E+03  0.00000000000E+00 0.  1.
         -3    1    6    6    0  502 -0.19090583947E+03  0.98643091300E+02 -0.33053595288E+03  0.39424550112E+03  0.00000000000E+00 0.  1.
<mgrwt>
<rscale>  0 0.15726413E+04</rscale>
<asrwt>0</asrwt>
<pdfrwt beam="1">  1        2 0.23225006E+00 0.15726413E+04</pdfrwt>
<pdfrwt beam="2">  1       -2 0.63011059E-01 0.15726413E+04</pdfrwt>
<totfact> 0.28108539E+01</totfact>
</mgrwt>
</event>
<event>
12    1  0.1477245E-007  0.1437974E+04  0.7818608E-02  0.8926781E-01
         -2   -1    0    0    0  501 -0.00000000000E+00  0.00000000000E+00  0.29220326888E+03  0.29220326888E+03  0.00000000000E+00 0. -1.
          2   -1    0    0  501    0  0.00000000000E+00 -0.00000000000E+00 -0.17691176489E+04  0.17691176489E+04  0.00000000000E+00 0.  1.
         23    2    1    2    0    0 -0.27727979566E+03 -0.56331389317E+02  0.10573489042E+02  0.29794463346E+03  0.92746403879E+02 0.  0.
        254    2    1    2    0    0  0.27727979566E+03  0.56331389317E+02 -0.14874878691E+04  0.17633762843E+04  0.90378008884E+03 0.  0.
        -24    2    4    4    0    0 -0.12048854882E+03  0.34865646432E+03 -0.98466409758E+03  0.10544702410E+04  0.79153544835E+02 0.  0.
         24    2    4    4    0    0  0.39776834448E+03 -0.29232507500E+03 -0.50282377151E+03  0.70890604330E+03  0.77733054065E+02 0.  0.
         11    1    3    3    0    0 -0.70431711009E+02 -0.33563361473E+02 -0.34033705258E+02  0.85120022572E+02  0.00000000000E+00 0.  1.
        -11    1    3    3    0    0 -0.20684808465E+03 -0.22768027844E+02  0.44607194300E+02  0.21282461089E+03  0.00000000000E+00 0. -1.
          4    1    6    6  502    0  0.35378194394E+03 -0.24432847514E+03 -0.40025362586E+03  0.58741895836E+03  0.00000000000E+00 0. -1.
          1    1    5    5  503    0 -0.12493953389E+03  0.27769804123E+03 -0.75654390766E+03  0.81552729780E+03  0.00000000000E+00 0. -1.
         -2    1    5    5    0  503  0.44509850742E+01  0.70958423091E+02 -0.22812018992E+03  0.23894294324E+03  0.00000000000E+00 0.  1.
         -3    1    6    6    0  502  0.43986400535E+02 -0.47996599860E+02 -0.10257014564E+03  0.12148708494E+03  0.00000000000E+00 0.  1.
<mgrwt>
<rscale>  0 0.14379735E+04</rscale>
<asrwt>0</asrwt>
<pdfrwt beam="1">  1        2 0.27217195E+00 0.14379735E+04</pdfrwt>
<pdfrwt beam="2">  1       -2 0.44954349E-01 0.14379735E+04</pdfrwt>
<totfact> 0.40884888E+01</totfact>
</mgrwt>
</event>
<event>
12    1  0.1590127E-007  0.1805869E+04  0.7818608E-02  0.8703185E-01
         -1   -1    0    0    0  501 -0.00000000000E+00  0.00000000000E+00  0.54257391452E+03  0.54257391452E+03  0.00000000000E+00 0.  1.
          1   -1    0    0  501    0  0.00000000000E+00 -0.00000000000E+00 -0.15026353446E+04  0.15026353446E+04  0.00000000000E+00 0. -1.
         23    2    1    2    0    0 -0.45288187307E+03  0.11619422445E+03  0.11677234261E+03  0.49026277113E+03  0.90103917841E+02 0.  0.
        254    2    1    2    0    0  0.45288187307E+03 -0.11619422445E+03 -0.10768337727E+04  0.15549464880E+04  0.10196492131E+04 0.  0.
        -24    2    4    4    0    0 -0.15457528734E+03 -0.26016662407E+00 -0.88582802102E+03  0.90271296356E+03  0.79409222462E+02 0.  0.
         24    2    4    4    0    0  0.60745716041E+03 -0.11593405783E+03 -0.19100575171E+03  0.65223352447E+03  0.80501340117E+02 0.  0.
         11    1    3    3    0    0 -0.33651098688E+03  0.75012133527E+02  0.12454369115E+03  0.36657549764E+03  0.00000000000E+00 0.  1.
        -11    1    3    3    0    0 -0.11637088619E+03  0.41182090928E+02 -0.77713485367E+01  0.12368727350E+03  0.00000000000E+00 0. -1.
          4    1    6    6  502    0  0.54355492572E+03 -0.78143701291E+02 -0.17424641575E+03  0.57612516759E+03  0.00000000000E+00 0. -1.
          3    1    5    5  503    0 -0.14696149597E+03 -0.91530345263E+01 -0.64472036193E+03  0.66132125660E+03  0.00000000000E+00 0. -1.
         -4    1    5    5    0  503 -0.76137913648E+01  0.88928679022E+01 -0.24110765910E+03  0.24139170697E+03  0.00000000000E+00 0.  1.
         -3    1    6    6    0  502  0.63902234685E+02 -0.37790356540E+02 -0.16759335959E+02  0.76108356880E+02  0.00000000000E+00 0.  1.
<mgrwt>
<rscale>  0 0.18058690E+04</rscale>
<asrwt>0</asrwt>
<pdfrwt beam="1">  1        1 0.23117466E+00 0.18058690E+04</pdfrwt>
<pdfrwt beam="2">  1       -1 0.83472912E-01 0.18058690E+04</pdfrwt>
<totfact> 0.87478259E+00</totfact>
</mgrwt>
</event>
<event>
12    1  0.1477245E-007  0.2030763E+04  0.7818608E-02  0.8592371E-01
         -2   -1    0    0    0  501 -0.00000000000E+00  0.00000000000E+00  0.58297278788E+03  0.58297278788E+03  0.00000000000E+00 0. -1.
          2   -1    0    0  501    0  0.00000000000E+00 -0.00000000000E+00 -0.17685217154E+04  0.17685217154E+04  0.00000000000E+00 0.  1.
         23    2    1    2    0    0 -0.78836937080E+03 -0.95771611234E+02 -0.26234165369E+03  0.84136513042E+03  0.91507776144E+02 0.  0.
        254    2    1    2    0    0  0.78836937080E+03  0.95771611234E+02 -0.92320727384E+03  0.15101293729E+04  0.89301768517E+03 0.  0.
        -24    2    4    4    0    0  0.95283147305E+03  0.12932949315E+03 -0.90687982418E+03  0.13242157721E+04  0.80637843862E+02 0.  0.
         24    2    4    4    0    0 -0.16446210225E+03 -0.33557881916E+02 -0.16327449664E+02  0.18591360074E+03  0.78251944461E+02 0.  0.
         13    1    3    3    0    0 -0.78801399355E+03 -0.89631126482E+02 -0.25872181254E+03  0.83422824763E+03  0.00000000000E+00 0. -1.
        -13    1    3    3    0    0 -0.35537724832E+00 -0.61404847520E+01 -0.36198411451E+01  0.71368827855E+01  0.00000000000E+00 0.  1.
          2    1    6    6  502    0 -0.17744069143E+02 -0.33860530161E+02 -0.72915456494E+01  0.38917272907E+02  0.00000000000E+00 0. -1.
          1    1    5    5  503    0  0.15161273999E+03  0.85144684033E+01 -0.18188977343E+03  0.23694473782E+03  0.00000000000E+00 0. -1.
         -2    1    5    5    0  503  0.80121873305E+03  0.12081502475E+03 -0.72499005074E+03  0.10872710343E+04  0.00000000000E+00 0.  1.
         -1    1    6    6    0  502 -0.14671803311E+03  0.30264824446E+00 -0.90359040151E+01  0.14699632783E+03  0.00000000000E+00 0.  1.
<mgrwt>
<rscale>  0 0.20307634E+04</rscale>
<asrwt>0</asrwt>
<pdfrwt beam="1">  1        2 0.27208027E+00 0.20307634E+04</pdfrwt>
<pdfrwt beam="2">  1       -2 0.89688121E-01 0.20307634E+04</pdfrwt>
<totfact> 0.88686910E+00</totfact>
</mgrwt>
</event>
<event>
12    1  0.1477245E-007  0.1536329E+04  0.7818608E-02  0.8860648E-01
         -2   -1    0    0    0  501 -0.00000000000E+00  0.00000000000E+00  0.31199195408E+03  0.31199195408E+03  0.00000000000E+00 0.  1.
          2   -1    0    0  501    0  0.00000000000E+00 -0.00000000000E+00 -0.18913203940E+04  0.18913203940E+04  0.00000000000E+00 0. -1.
         23    2    1    2    0    0  0.77213619786E+02  0.49512835697E+03 -0.54377369031E+03  0.74478381011E+03  0.88876681797E+02 0.  0.
        254    2    1    2    0    0 -0.77213619786E+02 -0.49512835697E+03 -0.10355547496E+04  0.14585285380E+04  0.89655887914E+03 0.  0.
        -24    2    4    4    0    0 -0.26820067217E+03  0.22487400942E+02 -0.80982107982E+03  0.85705903381E+03  0.79389686779E+02 0.  0.
         24    2    4    4    0    0  0.19098705238E+03 -0.51761575791E+03 -0.22573366983E+03  0.60146950421E+03  0.80048409055E+02 0.  0.
         11    1    3    3    0    0 -0.90348986908E+01  0.75044684808E+01 -0.43332343725E+01  0.12518920147E+02  0.00000000000E+00 0. -1.
        -11    1    3    3    0    0  0.86248518477E+02  0.48762388848E+03 -0.53944045594E+03  0.73226488996E+03  0.00000000000E+00 0.  1.
          4    1    6    6  502    0  0.16409084216E+03 -0.46301412350E+03 -0.22570688146E+03  0.54060288510E+03  0.00000000000E+00 0. -1.
          3    1    5    5  503    0 -0.26474423937E+03  0.20244515710E+02 -0.72421451885E+03  0.77135337039E+03  0.00000000000E+00 0. -1.
         -4    1    5    5    0  503 -0.34564327949E+01  0.22428852318E+01 -0.85606560966E+02  0.85705663420E+02  0.00000000000E+00 0.  1.
         -3    1    6    6    0  502  0.26896210221E+02 -0.54601634407E+02 -0.26788364160E-01  0.60866619110E+02  0.00000000000E+00 0.  1.
<mgrwt>
<rscale>  0 0.15363291E+04</rscale>
<asrwt>0</asrwt>
<pdfrwt beam="1">  1        2 0.29097237E+00 0.15363291E+04</pdfrwt>
<pdfrwt beam="2">  1       -2 0.47998762E-01 0.15363291E+04</pdfrwt>
<totfact> 0.30427024E+01</totfact>
</mgrwt>
</event>
<event>
12    1  0.1477245E-007  0.2081991E+04  0.7818608E-02  0.8569218E-01
          1   -1    0    0  501    0  0.00000000000E+00  0.00000000000E+00  0.71670126665E+03  0.71670126665E+03  0.00000000000E+00 0. -1.
         -1   -1    0    0    0  501 -0.00000000000E+00 -0.00000000000E+00 -0.15120269876E+04  0.15120269876E+04  0.00000000000E+00 0.  1.
         23    2    1    2    0    0 -0.36701111448E+03 -0.47105207992E+03  0.31641539034E+03  0.67948284806E+03  0.70647161333E+02 0.  0.
        254    2    1    2    0    0  0.36701111448E+03  0.47105207992E+03 -0.11117411113E+04  0.15492454062E+04  0.89866891006E+03 0.  0.
        -24    2    4    4    0    0  0.31817879453E+03 -0.32311408203E+02 -0.96007006302E+03  0.10151674037E+04  0.80923168579E+02 0.  0.
         24    2    4    4    0    0  0.48832319950E+02  0.50336348812E+03 -0.15167104825E+03  0.53407800249E+03  0.80472412750E+02 0.  0.
         13    1    3    3    0    0 -0.26772926798E+03 -0.28903373329E+03  0.20697661637E+03  0.44503795303E+03  0.00000000000E+00 0. -1.
        -13    1    3    3    0    0 -0.99281846500E+02 -0.18201834663E+03  0.10943877397E+03  0.23444489502E+03  0.00000000000E+00 0.  1.
          4    1    6    6  502    0  0.11013242566E+02  0.14258067260E+03 -0.81483711935E+02  0.16459081086E+03  0.00000000000E+00 0. -1.
          1    1    5    5  503    0  0.15430560515E+03 -0.55326419005E+02 -0.50538490606E+03  0.53130512485E+03  0.00000000000E+00 0. -1.
         -2    1    5    5    0  503  0.16387318938E+03  0.23015010802E+02 -0.45468515696E+03  0.48386227883E+03  0.00000000000E+00 0.  1.
         -3    1    6    6    0  502  0.37819077384E+02  0.36078281553E+03 -0.70187336316E+02  0.36948719162E+03  0.00000000000E+00 0.  1.
<mgrwt>
<rscale>  0 0.20819910E+04</rscale>
<asrwt>0</asrwt>
<pdfrwt beam="1">  1        1 0.11026174E+00 0.20819910E+04</pdfrwt>
<pdfrwt beam="2">  1       -1 0.23261953E+00 0.20819910E+04</pdfrwt>
<totfact> 0.21950527E+00</totfact>
</mgrwt>
</event>
<event>
12    1  0.1477245E-007  0.1532269E+04  0.7818608E-02  0.8863273E-01
         -2   -1    0    0    0  501 -0.00000000000E+00  0.00000000000E+00  0.37790182015E+03  0.37790182015E+03  0.00000000000E+00 0.  1.
          2   -1    0    0  501    0  0.00000000000E+00 -0.00000000000E+00 -0.15532137830E+04  0.15532137830E+04  0.00000000000E+00 0. -1.
         23    2    1    2    0    0  0.35359537994E+03  0.76992152642E+02 -0.90514500537E+03  0.97902948628E+03  0.90850261260E+02 0.  0.
        254    2    1    2    0    0 -0.35359537994E+03 -0.76992152642E+02 -0.27016695751E+03  0.95208611691E+03  0.83816484345E+03 0.  0.
        -24    2    4    4    0    0 -0.77800690277E+02 -0.29948907874E+03 -0.44562268496E+03  0.54859373937E+03  0.81417798018E+02 0.  0.
         24    2    4    4    0    0 -0.27579468966E+03  0.22249692610E+03  0.17545572745E+03  0.40349237753E+03  0.80335505640E+02 0.  0.
         11    1    3    3    0    0  0.34170746855E+03  0.91748225721E+02 -0.86772996447E+03  0.93708965538E+03  0.00000000000E+00 0. -1.
        -11    1    3    3    0    0  0.11887911385E+02 -0.14756073079E+02 -0.37415040906E+02  0.41939830899E+02  0.00000000000E+00 0.  1.
          2    1    6    6  502    0 -0.23647505127E+02  0.45036902710E+02  0.47714574585E+02  0.69743872364E+02  0.00000000000E+00 0. -1.
          1    1    5    5  503    0  0.10158373917E+02 -0.34509242327E+02 -0.86700105679E+02  0.93866866845E+02  0.00000000000E+00 0. -1.
         -2    1    5    5    0  503 -0.87959064194E+02 -0.26497983641E+03 -0.35892257928E+03  0.45472687253E+03  0.00000000000E+00 0.  1.
         -1    1    6    6    0  502 -0.25214718453E+03  0.17746002339E+03  0.12774115286E+03  0.33374850517E+03  0.00000000000E+00 0.  1.
<mgrwt>
<rscale>  0 0.15322693E+04</rscale>
<asrwt>0</asrwt>
<pdfrwt beam="1">  1        2 0.23895597E+00 0.15322693E+04</pdfrwt>
<pdfrwt beam="2">  1       -2 0.58138741E-01 0.15322693E+04</pdfrwt>
<totfact> 0.31602263E+01</totfact>
</mgrwt>
</event>
<event>
12    1  0.1477245E-007  0.1760648E+04  0.7818608E-02  0.8727511E-01
          2   -1    0    0  501    0  0.00000000000E+00  0.00000000000E+00  0.63822387444E+03  0.63822387444E+03  0.00000000000E+00 0. -1.
         -2   -1    0    0    0  501 -0.00000000000E+00 -0.00000000000E+00 -0.12142611754E+04  0.12142611754E+04  0.00000000000E+00 0.  1.
         23    2    1    2    0    0  0.45330677264E+03  0.93593417652E+02  0.26126596534E+03  0.53936894347E+03  0.91718016662E+02 0.  0.
        254    2    1    2    0    0 -0.45330677264E+03 -0.93593417652E+02 -0.83730326628E+03  0.13131161064E+04  0.89941669492E+03 0.  0.
        -24    2    4    4    0    0 -0.56892940367E+02 -0.37334419428E+03 -0.56222874059E+02  0.39007032979E+03  0.79819524881E+02 0.  0.
         24    2    4    4    0    0 -0.39641383227E+03  0.27975077662E+03 -0.78108039222E+03  0.92304577656E+03  0.80762015109E+02 0.  0.
         11    1    3    3    0    0  0.10486107311E+03 -0.60688689376E+01  0.90885134241E+02  0.13889846453E+03  0.00000000000E+00 0.  1.
        -11    1    3    3    0    0  0.34844569953E+03  0.99662286590E+02  0.17038083110E+03  0.40047047893E+03  0.00000000000E+00 0. -1.
          4    1    6    6  502    0 -0.39995904069E+03  0.27579681978E+03 -0.77684601983E+03  0.91625370862E+03  0.00000000000E+00 0. -1.
          3    1    5    5  503    0 -0.60528936957E+02 -0.35795776328E+03 -0.36612978889E+02  0.36488083359E+03  0.00000000000E+00 0. -1.
         -4    1    5    5    0  503  0.36359965902E+01 -0.15386430995E+02 -0.19609895171E+02  0.25189496195E+02  0.00000000000E+00 0.  1.
         -3    1    6    6    0  502  0.35452084177E+01  0.39539568398E+01 -0.42343723834E+01  0.67920679396E+01  0.00000000000E+00 0.  1.
<mgrwt>
<rscale>  0 0.17606481E+04</rscale>
<asrwt>0</asrwt>
<pdfrwt beam="1">  1        2 0.98188288E-01 0.17606481E+04</pdfrwt>
<pdfrwt beam="2">  1       -2 0.18680941E+00 0.17606481E+04</pdfrwt>
<totfact> 0.70879088E+00</totfact>
</mgrwt>
</event>
<event>
12    1  0.1477245E-007  0.1820565E+04  0.7818608E-02  0.8695439E-01
          2   -1    0    0  501    0  0.00000000000E+00  0.00000000000E+00  0.10560199896E+04  0.10560199896E+04  0.00000000000E+00 0.  1.
         -2   -1    0    0    0  501 -0.00000000000E+00 -0.00000000000E+00 -0.78465753474E+03  0.78465753474E+03  0.00000000000E+00 0. -1.
         23    2    1    2    0    0 -0.36967108095E+03 -0.43558106774E+03  0.49919978633E+03  0.76423408370E+03  0.92009419895E+02 0.  0.
        254    2    1    2    0    0  0.36967108095E+03  0.43558106774E+03 -0.22783733150E+03  0.10764434406E+04  0.88342122261E+03 0.  0.
        -24    2    4    4    0    0  0.12855455166E+03  0.67071843043E+03 -0.24525621757E+03  0.72995845397E+03  0.79367793104E+02 0.  0.
         24    2    4    4    0    0  0.24111652929E+03 -0.23513736269E+03  0.17418886075E+02  0.34648498665E+03  0.79508919952E+02 0.  0.
         11    1    3    3    0    0 -0.89954091148E+02 -0.88736872204E+02  0.65049585878E+02  0.14211762602E+03  0.00000000000E+00 0. -1.
        -11    1    3    3    0    0 -0.27971698981E+03 -0.34684419554E+03  0.43415020045E+03  0.62211645768E+03  0.00000000000E+00 0.  1.
          4    1    6    6  502    0  0.23476964488E+03 -0.20159002685E+03  0.28084529350E+02  0.31071540978E+03  0.00000000000E+00 0. -1.
          1    1    5    5  503    0  0.44059429481E+02  0.43278671240E+03 -0.15713104752E+03  0.46253187766E+03  0.00000000000E+00 0. -1.
         -2    1    5    5    0  503  0.84495122177E+02  0.23793171804E+03 -0.88125170051E+02  0.26742657631E+03  0.00000000000E+00 0.  1.
         -3    1    6    6    0  502  0.63468844158E+01 -0.33547335837E+02 -0.10665643275E+02  0.35769576877E+02  0.00000000000E+00 0.  1.
<mgrwt>
<rscale>  0 0.18205648E+04</rscale>
<asrwt>0</asrwt>
<pdfrwt beam="1">  1        2 0.16246462E+00 0.18205648E+04</pdfrwt>
<pdfrwt beam="2">  1       -2 0.12071654E+00 0.18205648E+04</pdfrwt>
<totfact> 0.11443927E+01</totfact>
</mgrwt>
</event>
<event>
12    1  0.1477245E-007  0.3870101E+04  0.7818608E-02  0.8031277E-01
          2   -1    0    0  501    0  0.00000000000E+00  0.00000000000E+00  0.38184765492E+04  0.38184765492E+04  0.00000000000E+00 0. -1.
         -2   -1    0    0    0  501 -0.00000000000E+00 -0.00000000000E+00 -0.98060577320E+03  0.98060577320E+03  0.00000000000E+00 0.  1.
         23    2    1    2    0    0 -0.93005974647E+03 -0.14398295095E+03  0.32858376947E+04  0.34191711439E+04  0.90883073319E+02 0.  0.
        254    2    1    2    0    0  0.93005974647E+03  0.14398295095E+03 -0.44796691870E+03  0.13799111785E+04  0.90428882453E+03 0.  0.
        -24    2    4    4    0    0  0.10069686038E+04  0.33188253538E+03 -0.46593257428E+03  0.11608317518E+04  0.79406586307E+02 0.  0.
         24    2    4    4    0    0 -0.76908857321E+02 -0.18789958443E+03  0.17965655579E+02  0.21907942670E+03  0.80323124047E+02 0.  0.
         11    1    3    3    0    0 -0.10787568046E+03 -0.31919489483E+02  0.49284405174E+03  0.50552079638E+03  0.00000000000E+00 0.  1.
        -11    1    3    3    0    0 -0.82218406601E+03 -0.11206346147E+03  0.27929936430E+04  0.29136503475E+04  0.00000000000E+00 0. -1.
          2    1    6    6  502    0  0.25441408562E+01 -0.60148873959E+01 -0.16393177780E+02  0.17646183746E+02  0.00000000000E+00 0. -1.
          1    1    5    5  503    0  0.21800774964E+03  0.96742708148E+02 -0.13037164663E+03  0.27181482065E+03  0.00000000000E+00 0. -1.
         -2    1    5    5    0  503  0.78896085415E+03  0.23513982724E+03 -0.33556092766E+03  0.88901693117E+03  0.00000000000E+00 0.  1.
         -1    1    6    6    0  502 -0.79452998177E+02 -0.18188469704E+03  0.34358833359E+02  0.20143324295E+03  0.00000000000E+00 0.  1.
<mgrwt>
<rscale>  0 0.38701009E+04</rscale>
<asrwt>0</asrwt>
<pdfrwt beam="1">  1        2 0.58745792E+00 0.38701009E+04</pdfrwt>
<pdfrwt beam="2">  1       -2 0.15086243E+00 0.38701009E+04</pdfrwt>
<totfact> 0.11153342E-01</totfact>
</mgrwt>
</event>
<event>
12    1  0.1477245E-007  0.3727746E+04  0.7818608E-02  0.8061841E-01
         -2   -1    0    0    0  501 -0.00000000000E+00  0.00000000000E+00  0.17426032737E+04  0.17426032737E+04  0.00000000000E+00 0.  1.
          2   -1    0    0  501    0  0.00000000000E+00 -0.00000000000E+00 -0.19935825545E+04  0.19935825545E+04  0.00000000000E+00 0. -1.
         23    2    1    2    0    0 -0.54456347188E+03  0.16329165735E+04 -0.44169879792E+03  0.17793976109E+04  0.90510321905E+02 0.  0.
        254    2    1    2    0    0  0.54456347188E+03 -0.16329165735E+04  0.19071951705E+03  0.19567882174E+04  0.91086787315E+03 0.  0.
        -24    2    4    4    0    0 -0.19423640092E+03 -0.49328709547E+03  0.25734219142E+03  0.59447976343E+03  0.78238402617E+02 0.  0.
         24    2    4    4    0    0  0.73879987280E+03 -0.11396294781E+04 -0.66622674367E+02  0.13623084539E+04  0.82856161843E+02 0.  0.
         13    1    3    3    0    0 -0.75952035075E+02  0.15488487350E+03 -0.59139848116E+02  0.18236106302E+03  0.00000000000E+00 0.  1.
        -13    1    3    3    0    0 -0.46861143680E+03  0.14780317000E+04 -0.38255894980E+03  0.15970365478E+04  0.00000000000E+00 0. -1.
          4    1    6    6  502    0  0.71993171653E+03 -0.10915739831E+04 -0.51955641572E+02  0.13086385390E+04  0.00000000000E+00 0. -1.
          1    1    5    5  503    0 -0.11897549662E+03 -0.28004490732E+03  0.18922085987E+03  0.35830832076E+03  0.00000000000E+00 0. -1.
         -2    1    5    5    0  503 -0.75260904305E+02 -0.21324218815E+03  0.68121331542E+02  0.23617144268E+03  0.00000000000E+00 0.  1.
         -3    1    6    6    0  502  0.18868156268E+02 -0.48055494927E+02 -0.14667032795E+02  0.53669914893E+02  0.00000000000E+00 0.  1.
<mgrwt>
<rscale>  0 0.37277465E+04</rscale>
<asrwt>0</asrwt>
<pdfrwt beam="1">  1        2 0.30670501E+00 0.37277465E+04</pdfrwt>
<pdfrwt beam="2">  1       -2 0.26809281E+00 0.37277465E+04</pdfrwt>
<totfact> 0.27051589E-01</totfact>
</mgrwt>
</event>
<event>
12    1  0.1477245E-007  0.1301967E+04  0.7818608E-02  0.9028007E-01
         -2   -1    0    0    0  501 -0.00000000000E+00  0.00000000000E+00  0.18822114597E+03  0.18822114597E+03  0.00000000000E+00 0.  1.
          2   -1    0    0  501    0  0.00000000000E+00 -0.00000000000E+00 -0.22514980339E+04  0.22514980339E+04  0.00000000000E+00 0. -1.
         23    2    1    2    0    0 -0.23709231497E+03 -0.55475395571E+02 -0.13660245442E+03  0.29284094057E+03  0.88347612228E+02 0.  0.
        254    2    1    2    0    0  0.23709231497E+03  0.55475395571E+02 -0.19266744335E+04  0.21468782393E+04  0.91527128018E+03 0.  0.
        -24    2    4    4    0    0 -0.15618141030E+03 -0.32031027738E+03 -0.51240647516E+03  0.62929954245E+03  0.80412757834E+02 0.  0.
         24    2    4    4    0    0  0.39327372527E+03  0.37578567295E+03 -0.14142679583E+04  0.15175786968E+04  0.83738570239E+02 0.  0.
         13    1    3    3    0    0 -0.12373659567E+03  0.58172652688E+01 -0.34952985949E+02  0.12871012746E+03  0.00000000000E+00 0.  1.
        -13    1    3    3    0    0 -0.11335571930E+03 -0.61292660840E+02 -0.10164946848E+03  0.16413081311E+03  0.00000000000E+00 0. -1.
          4    1    6    6  502    0  0.51558672098E+02  0.74722408612E+02 -0.31182645518E+03  0.32477295633E+03  0.00000000000E+00 0. -1.
          1    1    5    5  503    0 -0.24225592793E+02 -0.78376901513E+02 -0.68816484944E+02  0.10707719943E+03  0.00000000000E+00 0. -1.
         -2    1    5    5    0  503 -0.13195581751E+03 -0.24193337587E+03 -0.44358999022E+03  0.52222234303E+03  0.00000000000E+00 0.  1.
         -3    1    6    6    0  502  0.34171505317E+03  0.30106326434E+03 -0.11024415031E+04  0.11928057405E+04  0.00000000000E+00 0.  1.
<mgrwt>
<rscale>  0 0.13019670E+04</rscale>
<asrwt>0</asrwt>
<pdfrwt beam="1">  1        2 0.34638432E+00 0.13019670E+04</pdfrwt>
<pdfrwt beam="2">  1       -2 0.28957099E-01 0.13019670E+04</pdfrwt>
<totfact> 0.51973897E+01</totfact>
</mgrwt>
</event>
<event>
12    1  0.1477245E-007  0.1240765E+04  0.7818608E-02  0.9077905E-01
          1   -1    0    0  501    0  0.00000000000E+00  0.00000000000E+00  0.13436138439E+04  0.13436138439E+04  0.00000000000E+00 0. -1.
         -1   -1    0    0    0  501 -0.00000000000E+00 -0.00000000000E+00 -0.28644721956E+03  0.28644721956E+03  0.00000000000E+00 0.  1.
         23    2    1    2    0    0  0.90839753729E+02 -0.23263155456E+03  0.36343752080E+03  0.45230651756E+03  0.10062332368E+03 0.  0.
        254    2    1    2    0    0 -0.90839753729E+02  0.23263155456E+03  0.69372910356E+03  0.11777545459E+04  0.91840971263E+03 0.  0.
        -24    2    4    4    0    0  0.73389877965E+02  0.44547900685E+03  0.76193867709E+03  0.88917848192E+03  0.79058240140E+02 0.  0.
         24    2    4    4    0    0 -0.16422963169E+03 -0.21284745229E+03 -0.68209573528E+02  0.28857606399E+03  0.79675522699E+02 0.  0.
         11    1    3    3    0    0  0.29077565457E+02 -0.33041370472E+01  0.23045157158E+02  0.37249179897E+02  0.00000000000E+00 0.  1.
        -11    1    3    3    0    0  0.61762188271E+02 -0.22932741751E+03  0.34039236364E+03  0.41505733766E+03  0.00000000000E+00 0. -1.
          2    1    6    6  502    0 -0.16053927414E+03 -0.16415350257E+03 -0.68952956678E+02  0.23973681649E+03  0.00000000000E+00 0. -1.
          3    1    5    5  503    0  0.67348149677E+02  0.35291154799E+03  0.53963502469E+03  0.64829645521E+03  0.00000000000E+00 0. -1.
         -4    1    5    5    0  503  0.60417282876E+01  0.92567458859E+02  0.22230365240E+03  0.24088202671E+03  0.00000000000E+00 0.  1.
         -1    1    6    6    0  502 -0.36903575542E+01 -0.48693949718E+02  0.74338314943E+00  0.48839247502E+02  0.00000000000E+00 0.  1.
<mgrwt>
<rscale>  0 0.12407650E+04</rscale>
<asrwt>0</asrwt>
<pdfrwt beam="1">  1        1 0.20670982E+00 0.12407650E+04</pdfrwt>
<pdfrwt beam="2">  1       -1 0.44068804E-01 0.12407650E+04</pdfrwt>
<totfact> 0.42303467E+01</totfact>
</mgrwt>
</event>
<event>
12    1  0.1477245E-007  0.3285074E+04  0.7818608E-02  0.8166704E-01
         -1   -1    0    0    0  501 -0.00000000000E+00  0.00000000000E+00  0.11905176026E+04  0.11905176026E+04  0.00000000000E+00 0.  1.
          1   -1    0    0  501    0  0.00000000000E+00 -0.00000000000E+00 -0.22661799255E+04  0.22661799255E+04  0.00000000000E+00 0. -1.
         23    2    1    2    0    0 -0.11673574013E+04  0.71179531772E+01  0.54203543309E+03  0.12903195227E+04  0.91367895557E+02 0.  0.
        254    2    1    2    0    0  0.11673574013E+04 -0.71179531772E+01 -0.16176977560E+04  0.21663780054E+04  0.84467370315E+03 0.  0.
        -24    2    4    4    0    0  0.36857535936E+02 -0.11086513872E+03 -0.67285935053E+03  0.68741051721E+03  0.78383395227E+02 0.  0.
         24    2    4    4    0    0  0.11304998654E+04  0.10374718554E+03 -0.94483840546E+03  0.14789674882E+04  0.76366186830E+02 0.  0.
         11    1    3    3    0    0 -0.72761219050E+03 -0.39427008092E+02  0.33057999252E+03  0.80016068398E+03  0.00000000000E+00 0. -1.
        -11    1    3    3    0    0 -0.43974521080E+03  0.46544961269E+02  0.21145544057E+03  0.49015883874E+03  0.00000000000E+00 0.  1.
          2    1    6    6  502    0  0.10115162969E+04  0.11599589205E+03 -0.85005440882E+03  0.13263531821E+04  0.00000000000E+00 0. -1.
          3    1    5    5  503    0  0.30411543404E+02 -0.92550143592E+02 -0.65068390232E+03  0.65793611528E+03  0.00000000000E+00 0. -1.
         -4    1    5    5    0  503  0.64459925328E+01 -0.18314995126E+02 -0.22175448204E+02  0.29474401932E+02  0.00000000000E+00 0.  1.
         -1    1    6    6    0  502  0.11898356850E+03 -0.12248706509E+02 -0.94783996640E+02  0.15261430603E+03  0.00000000000E+00 0.  1.
<mgrwt>
<rscale>  0 0.32850736E+04</rscale>
<asrwt>0</asrwt>
<pdfrwt beam="1">  1        1 0.34864306E+00 0.32850736E+04</pdfrwt>
<pdfrwt beam="2">  1       -1 0.18315655E+00 0.32850736E+04</pdfrwt>
<totfact> 0.32212044E-01</totfact>
</mgrwt>
</event>
<event>
12    1  0.1477245E-007  0.1227688E+04  0.7818608E-02  0.9088961E-01
         -1   -1    0    0    0  501 -0.00000000000E+00  0.00000000000E+00  0.81652033361E+03  0.81652033361E+03  0.00000000000E+00 0.  1.
          1   -1    0    0  501    0  0.00000000000E+00 -0.00000000000E+00 -0.46147594802E+03  0.46147594802E+03  0.00000000000E+00 0. -1.
         23    2    1    2    0    0 -0.39027406058E+02 -0.27671807522E+03  0.20226246634E+03  0.35728672355E+03  0.92992827446E+02 0.  0.
        254    2    1    2    0    0  0.39027406058E+02  0.27671807522E+03  0.15278191924E+03  0.92070955808E+03  0.86386789726E+03 0.  0.
        -24    2    4    4    0    0 -0.18773200699E+03  0.19822781789E+02 -0.28981299198E+03  0.35515971393E+03  0.80688307414E+02 0.  0.
         24    2    4    4    0    0  0.22675941305E+03  0.25689529343E+03  0.44259491122E+03  0.56554984415E+03  0.80878597829E+02 0.  0.
         11    1    3    3    0    0 -0.66468756908E+02 -0.22924686863E+03  0.17555190012E+03  0.29629494100E+03  0.00000000000E+00 0.  1.
        -11    1    3    3    0    0  0.27441350849E+02 -0.47471206587E+02  0.26710566220E+02  0.60991782554E+02  0.00000000000E+00 0. -1.
          2    1    6    6  502    0  0.23557202268E+02  0.94812293961E+01  0.98339914445E+01  0.27231284899E+02  0.00000000000E+00 0. -1.
          3    1    5    5  503    0 -0.11806225969E+03  0.49156622990E+02 -0.15869606332E+03  0.20381244137E+03  0.00000000000E+00 0. -1.
         -4    1    5    5    0  503 -0.69669747305E+02 -0.29333841201E+02 -0.13111692866E+03  0.15134727256E+03  0.00000000000E+00 0.  1.
         -1    1    6    6    0  502  0.20320221078E+03  0.24741406404E+03  0.43276091977E+03  0.53831855925E+03  0.00000000000E+00 0.  1.
<mgrwt>
<rscale>  0 0.12276881E+04</rscale>
<asrwt>0</asrwt>
<pdfrwt beam="1">  1        1 0.70996300E-01 0.12276881E+04</pdfrwt>
<pdfrwt beam="2">  1       -1 0.12561851E+00 0.12276881E+04</pdfrwt>
<totfact> 0.27025839E+01</totfact>
</mgrwt>
</event>
<event>
12    1  0.1477245E-007  0.2022325E+04  0.7818608E-02  0.8596254E-01
         -1   -1    0    0    0  501 -0.00000000000E+00  0.00000000000E+00  0.79729640862E+03  0.79729640862E+03  0.00000000000E+00 0. -1.
          1   -1    0    0  501    0  0.00000000000E+00 -0.00000000000E+00 -0.12823958377E+04  0.12823958377E+04  0.00000000000E+00 0.  1.
         23    2    1    2    0    0  0.26401824533E+03 -0.75849131045E+03 -0.10485084941E+03  0.81469489260E+03  0.87859919859E+02 0.  0.
        254    2    1    2    0    0 -0.26401824533E+03  0.75849131045E+03 -0.38024857967E+03  0.12649973537E+04  0.90034139120E+03 0.  0.
        -24    2    4    4    0    0  0.12543644037E+03  0.78771471686E+03 -0.31382185271E+03  0.86097315735E+03  0.81005226451E+02 0.  0.
         24    2    4    4    0    0 -0.38945468570E+03 -0.29223406411E+02 -0.66426726959E+02  0.40402419637E+03  0.79335247582E+02 0.  0.
         11    1    3    3    0    0  0.13576549185E+02 -0.12733537006E+03 -0.30248819834E+02  0.13158119264E+03  0.00000000000E+00 0. -1.
        -11    1    3    3    0    0  0.25044169614E+03 -0.63115594039E+03 -0.74602029580E+02  0.68311369996E+03  0.00000000000E+00 0.  1.
          4    1    6    6  502    0 -0.10752669193E+03 -0.11869289742E+02  0.16982839582E+02  0.10950473212E+03  0.00000000000E+00 0. -1.
          3    1    5    5  503    0  0.39728073117E+02  0.25390042386E+03 -0.61004163898E+02  0.26413112850E+03  0.00000000000E+00 0. -1.
         -4    1    5    5    0  503  0.85708367253E+02  0.53381429300E+03 -0.25281768881E+03  0.59684202885E+03  0.00000000000E+00 0.  1.
         -3    1    6    6    0  502 -0.28192799377E+03 -0.17354116669E+02 -0.83409566541E+02  0.29451946426E+03  0.00000000000E+00 0.  1.
<mgrwt>
<rscale>  0 0.20223250E+04</rscale>
<asrwt>0</asrwt>
<pdfrwt beam="1">  1        1 0.19729167E+00 0.20223250E+04</pdfrwt>
<pdfrwt beam="2">  1       -1 0.12266099E+00 0.20223250E+04</pdfrwt>
<totfact> 0.50572534E+00</totfact>
</mgrwt>
</event>
<event>
12    1  0.1477245E-007  0.2268048E+04  0.7818608E-02  0.8490627E-01
          2   -1    0    0  501    0  0.00000000000E+00  0.00000000000E+00  0.10269584364E+04  0.10269584364E+04  0.00000000000E+00 0. -1.
         -2   -1    0    0    0  501 -0.00000000000E+00 -0.00000000000E+00 -0.12522516595E+04  0.12522516595E+04  0.00000000000E+00 0.  1.
         23    2    1    2    0    0  0.72617049162E+03  0.47403589641E+03 -0.49921205408E+03  0.10048315559E+04  0.91870379991E+02 0.  0.
        254    2    1    2    0    0 -0.72617049162E+03 -0.47403589641E+03  0.27391883096E+03  0.12743785400E+04  0.89273485608E+03 0.  0.
        -24    2    4    4    0    0  0.19403840391E+03 -0.63213478006E+02  0.12653939930E+03  0.25243907167E+03  0.77887221918E+02 0.  0.
         24    2    4    4    0    0 -0.92020889553E+03 -0.41082241841E+03  0.14737943166E+03  0.10219394683E+04  0.84143384486E+02 0.  0.
         11    1    3    3    0    0  0.19840069319E+03  0.95943340175E+02 -0.94475328306E+02  0.23977812086E+03  0.00000000000E+00 0. -1.
        -11    1    3    3    0    0  0.52776979842E+03  0.37809255624E+03 -0.40473672577E+03  0.76505343500E+03  0.00000000000E+00 0.  1.
          2    1    6    6  502    0 -0.63315330337E+03 -0.25412865237E+03  0.69684560111E+02  0.68579910721E+03  0.00000000000E+00 0. -1.
          3    1    5    5  503    0  0.28021172766E+02 -0.31976391089E+02  0.53650253617E+02  0.68454550056E+02  0.00000000000E+00 0. -1.
         -4    1    5    5    0  503  0.16601723115E+03 -0.31237086917E+02  0.72889145682E+02  0.18398452162E+03  0.00000000000E+00 0.  1.
         -1    1    6    6    0  502 -0.28705559216E+03 -0.15669376604E+03  0.77694871551E+02  0.33614036111E+03  0.00000000000E+00 0.  1.
<mgrwt>
<rscale>  0 0.22680480E+04</rscale>
<asrwt>0</asrwt>
<pdfrwt beam="1">  1        2 0.15799361E+00 0.22680480E+04</pdfrwt>
<pdfrwt beam="2">  1       -2 0.19265410E+00 0.22680480E+04</pdfrwt>
<totfact> 0.32732447E+00</totfact>
</mgrwt>
</event>
<event>
12    1  0.1477245E-007  0.1768306E+04  0.7818608E-02  0.8723338E-01
         -2   -1    0    0    0  501 -0.00000000000E+00  0.00000000000E+00  0.50268254418E+03  0.50268254418E+03  0.00000000000E+00 0.  1.
          2   -1    0    0  501    0  0.00000000000E+00 -0.00000000000E+00 -0.15551091548E+04  0.15551091548E+04  0.00000000000E+00 0. -1.
         23    2    1    2    0    0 -0.32125027405E+03  0.18639486609E+03 -0.10133388801E+04  0.10832025507E+04  0.92343355258E+02 0.  0.
        254    2    1    2    0    0  0.32125027405E+03 -0.18639486609E+03 -0.39087730541E+02  0.97458914830E+03  0.90019518584E+03 0.  0.
        -24    2    4    4    0    0 -0.86959927863E+02 -0.46099845272E+03 -0.14199068464E+02  0.47623138163E+03  0.80703858857E+02 0.  0.
         24    2    4    4    0    0  0.40821020191E+03  0.27460358664E+03 -0.24888662076E+02  0.49835776667E+03  0.75487213225E+02 0.  0.
         13    1    3    3    0    0 -0.29422111563E+03  0.16253769381E+03 -0.97132554347E+03  0.10278413682E+04  0.00000000000E+00 0. -1.
        -13    1    3    3    0    0 -0.27029158415E+02  0.23857172282E+02 -0.42013336642E+02  0.55361182518E+02  0.00000000000E+00 0.  1.
          2    1    6    6  502    0  0.38047250730E+03  0.23573882616E+03 -0.36958588593E+02  0.44910807189E+03  0.00000000000E+00 0. -1.
          3    1    5    5  503    0 -0.15198865535E+02 -0.65401952546E+02  0.26369715876E+02  0.72137249918E+02  0.00000000000E+00 0. -1.
         -2    1    5    5    0  503 -0.71761062328E+02 -0.39559650018E+03 -0.40568784340E+02  0.40409413171E+03  0.00000000000E+00 0.  1.
         -1    1    6    6    0  502  0.27737694613E+02  0.38864760474E+02  0.12069926517E+02  0.49249694774E+02  0.00000000000E+00 0.  1.
<mgrwt>
<rscale>  0 0.17683057E+04</rscale>
<asrwt>0</asrwt>
<pdfrwt beam="1">  1        2 0.23924757E+00 0.17683057E+04</pdfrwt>
<pdfrwt beam="2">  1       -2 0.77335775E-01 0.17683057E+04</pdfrwt>
<totfact> 0.16680221E+01</totfact>
</mgrwt>
</event>
<event>
12    1  0.2601965E-007  0.1746625E+04  0.7818608E-02  0.8735210E-01
          1   -1    0    0  501    0  0.00000000000E+00  0.00000000000E+00  0.14083797677E+04  0.14083797677E+04  0.00000000000E+00 0. -1.
         -1   -1    0    0    0  501 -0.00000000000E+00 -0.00000000000E+00 -0.54152614212E+03  0.54152614212E+03  0.00000000000E+00 0.  1.
         23    2    1    2    0    0 -0.40691730157E+02 -0.60080275758E+02  0.10100307985E+04  0.10170527459E+04  0.94702784672E+02 0.  0.
        254    2    1    2    0    0  0.40691730157E+02  0.60080275758E+02 -0.14317717292E+03  0.93285316399E+03  0.91893953353E+03 0.  0.
        -24    2    4    4    0    0 -0.22995985831E+02 -0.35027766446E+03 -0.31465042198E+03  0.47743023766E+03  0.75574375221E+02 0.  0.
         24    2    4    4    0    0  0.63687715988E+02  0.41035794022E+03  0.17147324906E+03  0.45542292634E+03  0.74546645945E+02 0.  0.
         11    1    3    3    0    0 -0.24151674037E+02 -0.85052929047E+02  0.69506703987E+03  0.70066789138E+03  0.00000000000E+00 0. -1.
        -11    1    3    3    0    0 -0.16540056120E+02  0.24972653288E+02  0.31496375867E+03  0.31638485448E+03  0.00000000000E+00 0.  1.
          4    1    6    6  502    0 -0.11462687662E+02  0.55830976652E+02  0.69358250323E+01  0.57415998043E+02  0.00000000000E+00 0. -1.
          3    1    5    5  503    0  0.99094183885E+01 -0.51237532251E+01 -0.17733718366E+02  0.20950756239E+02  0.00000000000E+00 0. -1.
         -4    1    5    5    0  503 -0.32905404219E+02 -0.34515391124E+03 -0.29691670361E+03  0.45647948142E+03  0.00000000000E+00 0.  1.
         -3    1    6    6    0  502  0.75150403650E+02  0.35452696357E+03  0.16453742402E+03  0.39800692829E+03  0.00000000000E+00 0.  1.
<mgrwt>
<rscale>  0 0.17466247E+04</rscale>
<asrwt>0</asrwt>
<pdfrwt beam="1">  1        1 0.21667381E+00 0.17466247E+04</pdfrwt>
<pdfrwt beam="2">  1       -1 0.83311715E-01 0.17466247E+04</pdfrwt>
<totfact> 0.10272740E+01</totfact>
</mgrwt>
</event>
<event>
12    1  0.1477245E-007  0.2200933E+04  0.7818608E-02  0.8518040E-01
          1   -1    0    0  501    0  0.00000000000E+00  0.00000000000E+00  0.12386675136E+04  0.12386675136E+04  0.00000000000E+00 0. -1.
         -1   -1    0    0    0  501 -0.00000000000E+00 -0.00000000000E+00 -0.97768486569E+03  0.97768486569E+03  0.00000000000E+00 0.  1.
         23    2    1    2    0    0 -0.23136271374E+03  0.93070224356E+02 -0.77339322313E+03  0.81744028136E+03  0.88773667513E+02 0.  0.
        254    2    1    2    0    0  0.23136271374E+03 -0.93070224356E+02  0.10343758710E+04  0.13989120979E+04  0.90820198369E+03 0.  0.
        -24    2    4    4    0    0  0.95004718655E+01 -0.47481621273E+03  0.64114993637E+03  0.80203674318E+03  0.81541410725E+02 0.  0.
         24    2    4    4    0    0  0.22186224188E+03  0.38174598838E+03  0.39322593466E+03  0.59687535475E+03  0.81735545533E+02 0.  0.
         11    1    3    3    0    0 -0.66094498545E+02  0.37885805330E+02 -0.37423454725E+03  0.38191008541E+03  0.00000000000E+00 0. -1.
        -11    1    3    3    0    0 -0.16526821520E+03  0.55184419026E+02 -0.39915867588E+03  0.43553019595E+03  0.00000000000E+00 0.  1.
          2    1    6    6  502    0  0.12568351097E+03  0.16135445787E+03  0.14118155360E+03  0.24852331296E+03  0.00000000000E+00 0. -1.
          3    1    5    5  503    0 -0.42270633266E+01 -0.24264310703E+03  0.39334454976E+03  0.46218338382E+03  0.00000000000E+00 0. -1.
         -4    1    5    5    0  503  0.13727535192E+02 -0.23217310571E+03  0.24780538660E+03  0.33985335936E+03  0.00000000000E+00 0.  1.
         -1    1    6    6    0  502  0.96178730900E+02  0.22039153050E+03  0.25204438106E+03  0.34835204179E+03  0.00000000000E+00 0.  1.
<mgrwt>
<rscale>  0 0.22009330E+04</rscale>
<asrwt>0</asrwt>
<pdfrwt beam="1">  1        1 0.19056423E+00 0.22009330E+04</pdfrwt>
<pdfrwt beam="2">  1       -1 0.15041306E+00 0.22009330E+04</pdfrwt>
<totfact> 0.31619871E+00</totfact>
</mgrwt>
</event>
<event>
12    1  0.1477245E-007  0.1362422E+04  0.7818608E-02  0.8981478E-01
          1   -1    0    0  501    0  0.00000000000E+00  0.00000000000E+00  0.31291495823E+04  0.31291495823E+04  0.00000000000E+00 0. -1.
         -1   -1    0    0    0  501 -0.00000000000E+00 -0.00000000000E+00 -0.14829858729E+03  0.14829858729E+03  0.00000000000E+00 0.  1.
         23    2    1    2    0    0  0.20514079346E+03 -0.23454521921E+03  0.33447162949E+03  0.46604175943E+03  0.90716291826E+02 0.  0.
        254    2    1    2    0    0 -0.20514079346E+03  0.23454521921E+03  0.26463793655E+04  0.28114064102E+04  0.89643072899E+03 0.  0.
        -24    2    4    4    0    0 -0.25951089260E+03  0.35618318116E+03  0.26156167883E+04  0.26537047758E+04  0.80532551778E+02 0.  0.
         24    2    4    4    0    0  0.54370099138E+02 -0.12163796195E+03  0.30762577190E+02  0.15770163435E+03  0.78559326963E+02 0.  0.
         13    1    3    3    0    0  0.10136106343E+03 -0.95831087718E+02  0.21241939810E+03  0.25412529044E+03  0.00000000000E+00 0. -1.
        -13    1    3    3    0    0  0.10377973003E+03 -0.13871413150E+03  0.12205223139E+03  0.21191646899E+03  0.00000000000E+00 0.  1.
          4    1    6    6  502    0  0.27539904183E+02 -0.12367436933E+03  0.18192686510E+02  0.12800300697E+03  0.00000000000E+00 0. -1.
          1    1    5    5  503    0 -0.24507557050E+03  0.35721235612E+03  0.25114677322E+04  0.25485550558E+04  0.00000000000E+00 0. -1.
         -2    1    5    5    0  503 -0.14435322103E+02 -0.10291749529E+01  0.10414905614E+03  0.10514972002E+03  0.00000000000E+00 0.  1.
         -3    1    6    6    0  502  0.26830194955E+02  0.20364073787E+01  0.12569890680E+02  0.29698627376E+02  0.00000000000E+00 0.  1.
<mgrwt>
<rscale>  0 0.13624221E+04</rscale>
<asrwt>0</asrwt>
<pdfrwt beam="1">  1        1 0.48140758E+00 0.13624221E+04</pdfrwt>
<pdfrwt beam="2">  1       -1 0.22815170E-01 0.13624221E+04</pdfrwt>
<totfact> 0.77689927E+00</totfact>
</mgrwt>
</event>
<event>
12    1  0.1477245E-007  0.1041704E+04  0.7818608E-02  0.9263952E-01
         -2   -1    0    0    0  501 -0.00000000000E+00  0.00000000000E+00  0.43401106471E+03  0.43401106471E+03  0.00000000000E+00 0. -1.
          2   -1    0    0  501    0  0.00000000000E+00 -0.00000000000E+00 -0.62506848347E+03  0.62506848347E+03  0.00000000000E+00 0.  1.
         23    2    1    2    0    0 -0.61362427438E+02 -0.17724841753E+02  0.44821582360E+02  0.12038399351E+03  0.91672319336E+02 0.  0.
        254    2    1    2    0    0  0.61362427438E+02  0.17724841753E+02 -0.23587900113E+03  0.93869555467E+03  0.90632826485E+03 0.  0.
        -24    2    4    4    0    0  0.42390194603E+03 -0.19437673569E+03 -0.64941704977E+02  0.47769220943E+03  0.80605500294E+02 0.  0.
         24    2    4    4    0    0 -0.36253951859E+03  0.21210157745E+03 -0.17093729615E+03  0.46100334524E+03  0.82961095774E+02 0.  0.
         13    1    3    3    0    0  0.86309110562E+01  0.62001417553E+01  0.45180737979E+02  0.46413720685E+02  0.00000000000E+00 0. -1.
        -13    1    3    3    0    0 -0.69993338494E+02 -0.23924983508E+02 -0.35915561860E+00  0.73970272828E+02  0.00000000000E+00 0.  1.
          4    1    6    6  502    0 -0.26999854041E+03  0.14693522830E+03 -0.16200213002E+03  0.34746778739E+03  0.00000000000E+00 0. -1.
          1    1    5    5  503    0  0.35611604859E+03 -0.15289275000E+03 -0.23995914459E+02  0.38829194812E+03  0.00000000000E+00 0. -1.
         -2    1    5    5    0  503  0.67785897441E+02 -0.41483985690E+02 -0.40945790518E+02  0.89400261307E+02  0.00000000000E+00 0.  1.
         -3    1    6    6    0  502 -0.92540978179E+02  0.65166349148E+02 -0.89351661304E+01  0.11353555785E+03  0.00000000000E+00 0.  1.
<mgrwt>
<rscale>  0 0.10417037E+04</rscale>
<asrwt>0</asrwt>
<pdfrwt beam="1">  1        2 0.96164382E-01 0.10417037E+04</pdfrwt>
<pdfrwt beam="2">  1       -2 0.66770933E-01 0.10417037E+04</pdfrwt>
<totfact> 0.96893427E+01</totfact>
</mgrwt>
</event>
<event>
12    1  0.1477245E-007  0.1385907E+04  0.7818608E-02  0.8964083E-01
          2   -1    0    0  501    0  0.00000000000E+00  0.00000000000E+00  0.25174699411E+04  0.25174699411E+04  0.00000000000E+00 0. -1.
         -2   -1    0    0    0  501 -0.00000000000E+00 -0.00000000000E+00 -0.19074092577E+03  0.19074092577E+03  0.00000000000E+00 0.  1.
         23    2    1    2    0    0  0.14756208295E+02 -0.37267873296E+03  0.91590993956E+03  0.99313657518E+03  0.91225302927E+02 0.  0.
        254    2    1    2    0    0 -0.14756208295E+02  0.37267873296E+03  0.14108190757E+04  0.17150742916E+04  0.90108943935E+03 0.  0.
        -24    2    4    4    0    0 -0.33710040324E+03  0.71643960166E+02  0.16300434648E+03  0.38935550211E+03  0.79105948980E+02 0.  0.
         24    2    4    4    0    0  0.32234419494E+03  0.30103477280E+03  0.12478147292E+04  0.13257187895E+04  0.77207486226E+02 0.  0.
         11    1    3    3    0    0  0.10321724958E+02 -0.94660473832E+00  0.12579173083E+02  0.16299376125E+02  0.00000000000E+00 0.  1.
        -11    1    3    3    0    0  0.44344833372E+01 -0.37173212822E+03  0.90333076648E+03  0.97683719906E+03  0.00000000000E+00 0. -1.
          4    1    6    6  502    0  0.23425972809E+03  0.25302141646E+03  0.10226238139E+04  0.10791927178E+04  0.00000000000E+00 0. -1.
          3    1    5    5  503    0 -0.30678697240E+03  0.51295583619E+02  0.12112833628E+03  0.33379867763E+03  0.00000000000E+00 0. -1.
         -4    1    5    5    0  503 -0.30313430835E+02  0.20348376547E+02  0.41876010198E+02  0.55556824488E+02  0.00000000000E+00 0.  1.
         -3    1    6    6    0  502  0.88084466848E+02  0.48013356340E+02  0.22519091537E+03  0.24652607175E+03  0.00000000000E+00 0.  1.
<mgrwt>
<rscale>  0 0.13859070E+04</rscale>
<asrwt>0</asrwt>
<pdfrwt beam="1">  1        2 0.38730304E+00 0.13859070E+04</pdfrwt>
<pdfrwt beam="2">  1       -2 0.29344760E-01 0.13859070E+04</pdfrwt>
<totfact> 0.35545618E+01</totfact>
</mgrwt>
</event>
<event>
12    1  0.1770364E-007  0.2191862E+04  0.7818608E-02  0.8521823E-01
         -2   -1    0    0    0  501 -0.00000000000E+00  0.00000000000E+00  0.10610850879E+04  0.10610850879E+04  0.00000000000E+00 0.  1.
          2   -1    0    0  501    0  0.00000000000E+00 -0.00000000000E+00 -0.11319212375E+04  0.11319212375E+04  0.00000000000E+00 0. -1.
         23    2    1    2    0    0  0.77291773683E+02 -0.54697104952E+03 -0.75233687667E+03  0.93763417586E+03  0.89418814792E+02 0.  0.
        254    2    1    2    0    0 -0.77291773683E+02  0.54697104952E+03  0.68150072708E+03  0.12553721496E+04  0.89797808757E+03 0.  0.
        -24    2    4    4    0    0 -0.73084567327E+02  0.72101194129E+03  0.75798925118E+03  0.10514796002E+04  0.76564163853E+02 0.  0.
         24    2    4    4    0    0 -0.42072063563E+01 -0.17404089177E+03 -0.76488524104E+02  0.20389254946E+03  0.73578154455E+02 0.  0.
         13    1    3    3    0    0  0.96279565368E+02 -0.48409646247E+03 -0.67414001575E+03  0.83551415339E+03  0.00000000000E+00 0. -1.
        -13    1    3    3    0    0 -0.18987791684E+02 -0.62874587049E+02 -0.78196860921E+02  0.10212002246E+03  0.00000000000E+00 0.  1.
          2    1    6    6  502    0 -0.15339018960E+02 -0.63032612300E+02  0.59929298457E+01  0.65148376221E+02  0.00000000000E+00 0. -1.
          1    1    5    5  503    0 -0.23824970628E+02  0.36764209940E+03  0.33326255262E+03  0.49678191539E+03  0.00000000000E+00 0. -1.
         -2    1    5    5    0  503 -0.49259596700E+02  0.35336984189E+03  0.42472669856E+03  0.55469768478E+03  0.00000000000E+00 0.  1.
         -1    1    6    6    0  502  0.11131812604E+02 -0.11100827947E+03 -0.82481453950E+02  0.13874417324E+03  0.00000000000E+00 0.  1.
<mgrwt>
<rscale>  0 0.21918620E+04</rscale>
<asrwt>0</asrwt>
<pdfrwt beam="1">  1        2 0.17414173E+00 0.21918620E+04</pdfrwt>
<pdfrwt beam="2">  1       -2 0.16324386E+00 0.21918620E+04</pdfrwt>
<totfact> 0.45413286E+00</totfact>
</mgrwt>
</event>
<event>
12    1  0.1477245E-007  0.2529568E+04  0.7818608E-02  0.8392527E-01
          2   -1    0    0  501    0  0.00000000000E+00  0.00000000000E+00  0.21170504980E+04  0.21170504980E+04  0.00000000000E+00 0. -1.
         -2   -1    0    0    0  501 -0.00000000000E+00 -0.00000000000E+00 -0.75561680933E+03  0.75561680933E+03  0.00000000000E+00 0.  1.
         23    2    1    2    0    0  0.91667215735E+03  0.20728986642E+03 -0.57155532855E+02  0.94597749079E+03  0.91376831677E+02 0.  0.
        254    2    1    2    0    0 -0.91667215735E+03 -0.20728986642E+03  0.14185892215E+04  0.19266898166E+04  0.90359356847E+03 0.  0.
        -24    2    4    4    0    0 -0.10327881194E+04  0.14486785281E+02  0.10828329734E+04  0.14985767183E+04  0.79647762158E+02 0.  0.
         24    2    4    4    0    0  0.11611596202E+03 -0.22177665170E+03  0.33575624816E+03  0.42811309823E+03  0.88773683163E+02 0.  0.
         11    1    3    3    0    0  0.35858723629E+02  0.24795581947E+02  0.70752807245E+01  0.44167052672E+02  0.00000000000E+00 0. -1.
        -11    1    3    3    0    0  0.88081343372E+03  0.18249428448E+03 -0.64230813580E+02  0.90181043812E+03  0.00000000000E+00 0.  1.
          4    1    6    6  502    0  0.12152893331E+02  0.20442269139E+01  0.11992645706E+01  0.12381838131E+02  0.00000000000E+00 0. -1.
          3    1    5    5  503    0 -0.47592654438E+02 -0.11279214125E+02  0.35333592659E+02  0.60338579681E+02  0.00000000000E+00 0. -1.
         -4    1    5    5    0  503 -0.98519546493E+03  0.25765999406E+02  0.10474993807E+04  0.14382381386E+04  0.00000000000E+00 0.  1.
         -3    1    6    6    0  502  0.10396306869E+03 -0.22382087862E+03  0.33455698359E+03  0.41573126010E+03  0.00000000000E+00 0.  1.
<mgrwt>
<rscale>  0 0.25295683E+04</rscale>
<asrwt>0</asrwt>
<pdfrwt beam="1">  1        2 0.32570007E+00 0.25295683E+04</pdfrwt>
<pdfrwt beam="2">  1       -2 0.11624874E+00 0.25295683E+04</pdfrwt>
<totfact> 0.29367900E+00</totfact>
</mgrwt>
</event>
<event>
12    1  0.1477245E-007  0.2159587E+04  0.7818608E-02  0.8535440E-01
          2   -1    0    0  501    0  0.00000000000E+00  0.00000000000E+00  0.25376904065E+04  0.25376904065E+04  0.00000000000E+00 0.  1.
         -2   -1    0    0    0  501 -0.00000000000E+00 -0.00000000000E+00 -0.45945480124E+03  0.45945480124E+03  0.00000000000E+00 0. -1.
         23    2    1    2    0    0 -0.85034560933E+03  0.25885663129E+03  0.78841339321E+03  0.11917083851E+04  0.92080321793E+02 0.  0.
        254    2    1    2    0    0  0.85034560933E+03 -0.25885663129E+03  0.12898222121E+04  0.18054368226E+04  0.89770060206E+03 0.  0.
        -24    2    4    4    0    0  0.75012809149E+03 -0.50483668465E+03  0.12180000140E+04  0.15190782842E+04  0.80762415024E+02 0.  0.
         24    2    4    4    0    0  0.10021751784E+03  0.24598005336E+03  0.71822198108E+02  0.28635853845E+03  0.79328726630E+02 0.  0.
         13    1    3    3    0    0 -0.54760830640E+03  0.15684552664E+03  0.56158649758E+03  0.79990922655E+03  0.00000000000E+00 0. -1.
        -13    1    3    3    0    0 -0.30273730293E+03  0.10201110465E+03  0.22682689564E+03  0.39179915856E+03  0.00000000000E+00 0.  1.
          4    1    6    6  502    0  0.69518203793E+02  0.10167591895E+03  0.21191178564E+01  0.12318792072E+03  0.00000000000E+00 0. -1.
          1    1    5    5  503    0  0.74394717155E+03 -0.50785595624E+03  0.12109309639E+04  0.15092146519E+04  0.00000000000E+00 0. -1.
         -2    1    5    5    0  503  0.61809199427E+01  0.30192715840E+01  0.70690500975E+01  0.98636322679E+01  0.00000000000E+00 0.  1.
         -3    1    6    6    0  502  0.30699314048E+02  0.14430413442E+03  0.69703080251E+02  0.16317061773E+03  0.00000000000E+00 0.  1.
<mgrwt>
<rscale>  0 0.21595870E+04</rscale>
<asrwt>0</asrwt>
<pdfrwt beam="1">  1        2 0.39041390E+00 0.21595870E+04</pdfrwt>
<pdfrwt beam="2">  1       -2 0.70685355E-01 0.21595870E+04</pdfrwt>
<totfact> 0.55246956E+00</totfact>
</mgrwt>
</event>
<event>
12    1  0.1477245E-007  0.1527451E+04  0.7818608E-02  0.8866401E-01
          1   -1    0    0  501    0  0.00000000000E+00  0.00000000000E+00  0.13144094557E+04  0.13144094557E+04  0.00000000000E+00 0. -1.
         -1   -1    0    0    0  501 -0.00000000000E+00 -0.00000000000E+00 -0.44375557531E+03  0.44375557531E+03  0.00000000000E+00 0.  1.
         23    2    1    2    0    0 -0.31867693296E+03  0.27796476760E+03  0.59124392792E+03  0.73279294475E+03  0.92718487623E+02 0.  0.
        254    2    1    2    0    0  0.31867693296E+03 -0.27796476760E+03  0.27940995248E+03  0.10253720863E+04  0.89134650620E+03 0.  0.
        -24    2    4    4    0    0  0.32634882053E+03 -0.18219682610E+03  0.58186312382E+03  0.69682512570E+03  0.85447790097E+02 0.  0.
         24    2    4    4    0    0 -0.76718875715E+01 -0.95767941491E+02 -0.30245317135E+03  0.32854696057E+03  0.85057791915E+02 0.  0.
         13    1    3    3    0    0  0.20492382054E+01  0.21905012869E+02  0.22850828954E+02  0.31720487857E+02  0.00000000000E+00 0.  1.
        -13    1    3    3    0    0 -0.32072617116E+03  0.25605975473E+03  0.56839309896E+03  0.70107245689E+03  0.00000000000E+00 0. -1.
          2    1    6    6  502    0  0.26590256487E+02 -0.12919357455E+02 -0.31742264244E+02  0.43376524485E+02  0.00000000000E+00 0. -1.
          3    1    5    5  503    0 -0.47126082805E+01 -0.43337996746E+01  0.41477955380E+01  0.76285453561E+01  0.00000000000E+00 0. -1.
         -4    1    5    5    0  503  0.33106142881E+03 -0.17786302643E+03  0.57771532828E+03  0.68919658034E+03  0.00000000000E+00 0.  1.
         -1    1    6    6    0  502 -0.34262144058E+02 -0.82848584037E+02 -0.27071090710E+03  0.28517043608E+03  0.00000000000E+00 0.  1.
<mgrwt>
<rscale>  0 0.15274508E+04</rscale>
<asrwt>0</asrwt>
<pdfrwt beam="1">  1        1 0.20221684E+00 0.15274508E+04</pdfrwt>
<pdfrwt beam="2">  1       -1 0.68270089E-01 0.15274508E+04</pdfrwt>
<totfact> 0.18517841E+01</totfact>
</mgrwt>
</event>
<event>
12    1  0.1477245E-007  0.3422790E+04  0.7818608E-02  0.8132335E-01
          2   -1    0    0  501    0  0.00000000000E+00  0.00000000000E+00  0.18792239078E+04  0.18792239078E+04  0.00000000000E+00 0. -1.
         -2   -1    0    0    0  501 -0.00000000000E+00 -0.00000000000E+00 -0.15585545399E+04  0.15585545399E+04  0.00000000000E+00 0.  1.
         23    2    1    2    0    0 -0.15835841203E+04  0.14816953559E+03  0.12591613988E+03  0.15979535014E+04  0.88924917423E+02 0.  0.
        254    2    1    2    0    0  0.15835841203E+04 -0.14816953559E+03  0.19475322803E+03  0.18398249463E+04  0.90406533836E+03 0.  0.
        -24    2    4    4    0    0  0.11438062316E+04 -0.50002245166E+03  0.44541825760E+02  0.12515740061E+04  0.78347756562E+02 0.  0.
         24    2    4    4    0    0  0.43977788868E+03  0.35185291607E+03  0.15021140227E+03  0.58825094020E+03  0.79187356034E+02 0.  0.
         13    1    3    3    0    0 -0.29857206423E+03  0.16102303851E+02 -0.90368747068E+01  0.29914248584E+03  0.00000000000E+00 0.  1.
        -13    1    3    3    0    0 -0.12850120561E+04  0.13206723174E+03  0.13495301459E+03  0.12988110155E+04  0.00000000000E+00 0. -1.
          4    1    6    6  502    0  0.11690104489E+03  0.63473231669E+02  0.10859856000E+02  0.13346400978E+03  0.00000000000E+00 0. -1.
          3    1    5    5  503    0  0.10109672955E+03 -0.46951228016E+02  0.26349929896E+02  0.11453944885E+03  0.00000000000E+00 0. -1.
         -4    1    5    5    0  503  0.10427095021E+04 -0.45307122365E+03  0.18191895864E+02  0.11370345573E+04  0.00000000000E+00 0.  1.
         -3    1    6    6    0  502  0.32287684379E+03  0.28837968440E+03  0.13935154627E+03  0.45478693042E+03  0.00000000000E+00 0.  1.
<mgrwt>
<rscale>  0 0.34227901E+04</rscale>
<asrwt>0</asrwt>
<pdfrwt beam="1">  1        2 0.28911137E+00 0.34227901E+04</pdfrwt>
<pdfrwt beam="2">  1       -2 0.23977762E+00 0.34227901E+04</pdfrwt>
<totfact> 0.47918921E-01</totfact>
</mgrwt>
</event>
<event>
12    1  0.1477245E-007  0.3055479E+04  0.7818608E-02  0.8228063E-01
          2   -1    0    0  501    0  0.00000000000E+00  0.00000000000E+00  0.24377837869E+04  0.24377837869E+04  0.00000000000E+00 0. -1.
         -2   -1    0    0    0  501 -0.00000000000E+00 -0.00000000000E+00 -0.95742233901E+03  0.95742233901E+03  0.00000000000E+00 0.  1.
         23    2    1    2    0    0 -0.63157077512E+03  0.54833263439E+03 -0.55927981075E+03  0.10103548707E+04  0.92047466738E+02 0.  0.
        254    2    1    2    0    0  0.63157077512E+03 -0.54833263439E+03  0.20396412587E+04  0.23848512552E+04  0.90985093480E+03 0.  0.
        -24    2    4    4    0    0  0.69807665292E+03 -0.28490248083E+03  0.19427346367E+04  0.20856242958E+04  0.84441682813E+02 0.  0.
         24    2    4    4    0    0 -0.66505877794E+02 -0.26343015356E+03  0.96906622000E+02  0.29922695942E+03  0.79544970133E+02 0.  0.
         13    1    3    3    0    0 -0.50440835583E+03  0.39560091883E+03 -0.39931497678E+03  0.75523527929E+03  0.00000000000E+00 0.  1.
        -13    1    3    3    0    0 -0.12716241929E+03  0.15273171555E+03 -0.15996483397E+03  0.25511959142E+03  0.00000000000E+00 0. -1.
          4    1    6    6  502    0 -0.30123539687E+02 -0.29855987636E+02 -0.31578211254E+01  0.42529748121E+02  0.00000000000E+00 0. -1.
          3    1    5    5  503    0  0.25006355477E+03 -0.76824226557E+02  0.58519722625E+03  0.64100665895E+03  0.00000000000E+00 0. -1.
         -4    1    5    5    0  503  0.44801309815E+03 -0.20807825427E+03  0.13575374104E+04  0.14446176368E+04  0.00000000000E+00 0.  1.
         -3    1    6    6    0  502 -0.36382338107E+02 -0.23357416592E+03  0.10006444313E+03  0.25669721130E+03  0.00000000000E+00 0.  1.
<mgrwt>
<rscale>  0 0.30554794E+04</rscale>
<asrwt>0</asrwt>
<pdfrwt beam="1">  1        2 0.37504366E+00 0.30554794E+04</pdfrwt>
<pdfrwt beam="2">  1       -2 0.14729575E+00 0.30554794E+04</pdfrwt>
<totfact> 0.10129562E+00</totfact>
</mgrwt>
</event>
<event>
12    1  0.1477245E-007  0.1978580E+04  0.7818608E-02  0.8616701E-01
          1   -1    0    0  501    0  0.00000000000E+00  0.00000000000E+00  0.11600014168E+04  0.11600014168E+04  0.00000000000E+00 0. -1.
         -1   -1    0    0    0  501 -0.00000000000E+00 -0.00000000000E+00 -0.84370130122E+03  0.84370130122E+03  0.00000000000E+00 0.  1.
         23    2    1    2    0    0  0.43832608700E+03  0.33065850086E+03 -0.42678704592E+03  0.70093710456E+03  0.87754425834E+02 0.  0.
        254    2    1    2    0    0 -0.43832608700E+03 -0.33065850086E+03  0.74308716148E+03  0.13027656134E+04  0.91845245455E+03 0.  0.
        -24    2    4    4    0    0 -0.66601876244E+03 -0.37059246295E+03  0.35636325218E+03  0.84511210663E+03  0.79372159796E+02 0.  0.
         24    2    4    4    0    0  0.22769267543E+03  0.39933962090E+02  0.38672390929E+03  0.45765350681E+03  0.80328541008E+02 0.  0.
         13    1    3    3    0    0  0.71881276085E+02  0.98702848765E+02 -0.10231257114E+03  0.15930170250E+03  0.00000000000E+00 0. -1.
        -13    1    3    3    0    0  0.36644481092E+03  0.23195565209E+03 -0.32447447478E+03  0.54163540206E+03  0.00000000000E+00 0.  1.
          4    1    6    6  502    0  0.83539592009E+02 -0.23049807700E+02  0.15489539825E+03  0.17749011653E+03  0.00000000000E+00 0. -1.
          3    1    5    5  503    0 -0.16677284154E+03 -0.71834019567E+02  0.11683098077E+03  0.21592310000E+03  0.00000000000E+00 0. -1.
         -4    1    5    5    0  503 -0.49924592089E+03 -0.29875844338E+03  0.23953227142E+03  0.62918900663E+03  0.00000000000E+00 0.  1.
         -3    1    6    6    0  502  0.14415308342E+03  0.62983769790E+02  0.23182851105E+03  0.28016339028E+03  0.00000000000E+00 0.  1.
<mgrwt>
<rscale>  0 0.19785800E+04</rscale>
<asrwt>0</asrwt>
<pdfrwt beam="1">  1        1 0.17846176E+00 0.19785800E+04</pdfrwt>
<pdfrwt beam="2">  1       -1 0.12980020E+00 0.19785800E+04</pdfrwt>
<totfact> 0.54112616E+00</totfact>
</mgrwt>
</event>
<event>
12    1  0.1477245E-007  0.3252925E+04  0.7818608E-02  0.8174978E-01
          1   -1    0    0  501    0  0.00000000000E+00  0.00000000000E+00  0.41048334428E+04  0.41048334428E+04  0.00000000000E+00 0. -1.
         -1   -1    0    0    0  501 -0.00000000000E+00 -0.00000000000E+00 -0.64445505788E+03  0.64445505788E+03  0.00000000000E+00 0.  1.
         23    2    1    2    0    0 -0.28201495450E+03  0.37654781117E+03 -0.48158691689E+03  0.67892426207E+03  0.87701233990E+02 0.  0.
        254    2    1    2    0    0  0.28201495450E+03 -0.37654781117E+03  0.39419653019E+04  0.40703642387E+04  0.89858438982E+03 0.  0.
        -24    2    4    4    0    0  0.36966840636E+03 -0.33933224376E+03  0.96508231543E+03  0.10908787750E+04  0.82653033324E+02 0.  0.
         24    2    4    4    0    0 -0.87653451856E+02 -0.37215567418E+02  0.29768829864E+04  0.29794854636E+04  0.80207151002E+02 0.  0.
         13    1    3    3    0    0 -0.22320340119E+03  0.31719007504E+03 -0.43671174282E+03  0.58407743350E+03  0.00000000000E+00 0.  1.
        -13    1    3    3    0    0 -0.58811553313E+02  0.59357736137E+02 -0.44875174074E+02  0.94846828574E+02  0.00000000000E+00 0. -1.
          4    1    6    6  502    0 -0.43019864498E+02 -0.33197269875E+02  0.68079062015E+03  0.68295580819E+03  0.00000000000E+00 0. -1.
          1    1    5    5  503    0  0.64540284507E+02 -0.93745565800E+02  0.27052606867E+03  0.29349281638E+03  0.00000000000E+00 0. -1.
         -4    1    5    5    0  503  0.30512812185E+03 -0.24558667796E+03  0.69455624675E+03  0.79738595864E+03  0.00000000000E+00 0.  1.
         -3    1    6    6    0  502 -0.44633587358E+02 -0.40182975426E+01  0.22960923663E+04  0.22965296554E+04  0.00000000000E+00 0.  1.
<mgrwt>
<rscale>  0 0.32529253E+04</rscale>
<asrwt>0</asrwt>
<pdfrwt beam="1">  1        1 0.63151282E+00 0.32529253E+04</pdfrwt>
<pdfrwt beam="2">  1       -1 0.99146935E-01 0.32529253E+04</pdfrwt>
<totfact> 0.62492492E-02</totfact>
</mgrwt>
</event>
<event>
12    1  0.1477245E-007  0.2511638E+04  0.7818608E-02  0.8398851E-01
          2   -1    0    0  501    0  0.00000000000E+00  0.00000000000E+00  0.15364919121E+04  0.15364919121E+04  0.00000000000E+00 0. -1.
         -2   -1    0    0    0  501 -0.00000000000E+00 -0.00000000000E+00 -0.10264171296E+04  0.10264171296E+04  0.00000000000E+00 0.  1.
         23    2    1    2    0    0 -0.31350559935E+03  0.53759889737E+03  0.11299703092E+04  0.12931825061E+04  0.90497288369E+02 0.  0.
        254    2    1    2    0    0  0.31350559935E+03 -0.53759889737E+03 -0.61989552665E+03  0.12697265355E+04  0.91686240834E+03 0.  0.
        -24    2    4    4    0    0  0.35264510062E+03 -0.68952002214E+03 -0.18454487042E+03  0.80014013124E+03  0.79818497234E+02 0.  0.
         24    2    4    4    0    0 -0.39139501268E+02  0.15192112477E+03 -0.43535065623E+03  0.46958640431E+03  0.79807697127E+02 0.  0.
         11    1    3    3    0    0 -0.21739593844E+03  0.39784490519E+03  0.89637206081E+03  0.10045020826E+04  0.00000000000E+00 0. -1.
        -11    1    3    3    0    0 -0.96109660914E+02  0.13975399218E+03  0.23359824838E+03  0.28868042347E+03  0.00000000000E+00 0.  1.
          2    1    6    6  502    0 -0.28927793581E+02  0.39315853021E+02 -0.23042126883E+03  0.23553452967E+03  0.00000000000E+00 0. -1.
          3    1    5    5  503    0  0.27246113466E+03 -0.48154819155E+03 -0.10295141000E+03  0.56278123948E+03  0.00000000000E+00 0. -1.
         -4    1    5    5    0  503  0.80183965953E+02 -0.20797183059E+03 -0.81593460420E+02  0.23735889176E+03  0.00000000000E+00 0.  1.
         -1    1    6    6    0  502 -0.10211707687E+02  0.11260527174E+03 -0.20492938740E+03  0.23405187464E+03  0.00000000000E+00 0.  1.
<mgrwt>
<rscale>  0 0.25116382E+04</rscale>
<asrwt>0</asrwt>
<pdfrwt beam="1">  1        2 0.23638337E+00 0.25116382E+04</pdfrwt>
<pdfrwt beam="2">  1       -2 0.15791033E+00 0.25116382E+04</pdfrwt>
<totfact> 0.28164907E+00</totfact>
</mgrwt>
</event>
<event>
12    1  0.1477245E-007  0.2045632E+04  0.7818608E-02  0.8585578E-01
          2   -1    0    0  501    0  0.00000000000E+00  0.00000000000E+00  0.87408017446E+03  0.87408017446E+03  0.00000000000E+00 0. -1.
         -2   -1    0    0    0  501 -0.00000000000E+00 -0.00000000000E+00 -0.11968610687E+04  0.11968610687E+04  0.00000000000E+00 0.  1.
         23    2    1    2    0    0  0.36903280007E+03  0.22710461981E+03  0.56330259533E+03  0.71666666617E+03  0.92409851411E+02 0.  0.
        254    2    1    2    0    0 -0.36903280007E+03 -0.22710461981E+03 -0.88608348952E+03  0.13542745769E+04  0.92798381640E+03 0.  0.
        -24    2    4    4    0    0  0.99244504549E+02 -0.52441573003E+02 -0.83420068731E+03  0.84524804666E+03  0.77161411411E+02 0.  0.
         24    2    4    4    0    0 -0.46827730462E+03 -0.17466304680E+03 -0.51882802207E+02  0.50902653029E+03  0.81396372357E+02 0.  0.
         11    1    3    3    0    0  0.22770434568E+03  0.10427565178E+03  0.26629304881E+03  0.36556075890E+03  0.00000000000E+00 0. -1.
        -11    1    3    3    0    0  0.14132845438E+03  0.12282896803E+03  0.29700954651E+03  0.35110590728E+03  0.00000000000E+00 0.  1.
          4    1    6    6  502    0 -0.46189303103E+03 -0.17740092987E+03 -0.59919144550E+02  0.49840401876E+03  0.00000000000E+00 0. -1.
          3    1    5    5  503    0  0.20061384746E+02 -0.53753925325E+00 -0.34115952084E+02  0.39580882923E+02  0.00000000000E+00 0. -1.
         -4    1    5    5    0  503  0.79183119803E+02 -0.51904033750E+02 -0.80008473523E+03  0.80566716374E+03  0.00000000000E+00 0.  1.
         -3    1    6    6    0  502 -0.63842735882E+01  0.27378830645E+01  0.80363423426E+01  0.10622511528E+02  0.00000000000E+00 0.  1.
<mgrwt>
<rscale>  0 0.20456320E+04</rscale>
<asrwt>0</asrwt>
<pdfrwt beam="1">  1        2 0.13447387E+00 0.20456320E+04</pdfrwt>
<pdfrwt beam="2">  1       -2 0.18413247E+00 0.20456320E+04</pdfrwt>
<totfact> 0.47997739E+00</totfact>
</mgrwt>
</event>
<event>
12    1  0.1477245E-007  0.2048647E+04  0.7818608E-02  0.8584208E-01
          1   -1    0    0  501    0  0.00000000000E+00  0.00000000000E+00  0.14007239489E+04  0.14007239489E+04  0.00000000000E+00 0. -1.
         -1   -1    0    0    0  501 -0.00000000000E+00 -0.00000000000E+00 -0.74906906364E+03  0.74906906364E+03  0.00000000000E+00 0.  1.
         23    2    1    2    0    0  0.54980238456E+03  0.13575631728E+02  0.89716985557E+03  0.10559092997E+04  0.86969762499E+02 0.  0.
        254    2    1    2    0    0 -0.54980238456E+03 -0.13575631728E+02 -0.24551497035E+03  0.10938837128E+04  0.91314676620E+03 0.  0.
        -24    2    4    4    0    0 -0.60911771329E+03 -0.30222081026E+03 -0.35285440130E+03  0.77012902608E+03  0.78934666019E+02 0.  0.
         24    2    4    4    0    0  0.59315328726E+02  0.28864517854E+03  0.10733943095E+03  0.32375468672E+03  0.80380323605E+02 0.  0.
         13    1    3    3    0    0  0.49440194009E+03  0.41815659001E+01  0.84615495875E+03  0.98001478462E+03  0.00000000000E+00 0. -1.
        -13    1    3    3    0    0  0.55400444470E+02  0.93940658282E+01  0.51014896814E+02  0.75894515067E+02  0.00000000000E+00 0.  1.
          4    1    6    6  502    0  0.73281339612E+02  0.25476921088E+03  0.76648076771E+02  0.27595730325E+03  0.00000000000E+00 0. -1.
          3    1    5    5  503    0 -0.27764128983E+03 -0.12240264600E+03 -0.11620427289E+03  0.32491618397E+03  0.00000000000E+00 0. -1.
         -4    1    5    5    0  503 -0.33147642346E+03 -0.17981816427E+03 -0.23665012840E+03  0.44521284211E+03  0.00000000000E+00 0.  1.
         -3    1    6    6    0  502 -0.13966010886E+02  0.33875967660E+02  0.30691354182E+02  0.47797383469E+02  0.00000000000E+00 0.  1.
<mgrwt>
<rscale>  0 0.20486473E+04</rscale>
<asrwt>0</asrwt>
<pdfrwt beam="1">  1        1 0.21549599E+00 0.20486473E+04</pdfrwt>
<pdfrwt beam="2">  1       -1 0.11524139E+00 0.20486473E+04</pdfrwt>
<totfact> 0.48414753E+00</totfact>
</mgrwt>
</event>
<event>
12    1  0.1477245E-007  0.1485727E+04  0.7818608E-02  0.8894000E-01
          1   -1    0    0  501    0  0.00000000000E+00  0.00000000000E+00  0.12391211168E+04  0.12391211168E+04  0.00000000000E+00 0. -1.
         -1   -1    0    0    0  501 -0.00000000000E+00 -0.00000000000E+00 -0.44535289319E+03  0.44535289319E+03  0.00000000000E+00 0.  1.
         23    2    1    2    0    0  0.75465953102E+02  0.10448513995E+03  0.72255568514E+03  0.74017945177E+03  0.95742614019E+02 0.  0.
        254    2    1    2    0    0 -0.75465953102E+02 -0.10448513995E+03  0.71212538496E+02  0.94429455824E+03  0.93274258643E+03 0.  0.
        -24    2    4    4    0    0  0.13019412511E+03 -0.20428521451E+03 -0.36622338750E+03  0.44496826429E+03  0.72070989948E+02 0.  0.
         24    2    4    4    0    0 -0.20566007821E+03  0.99800074561E+02  0.43743592600E+03  0.49932629395E+03  0.75633562808E+02 0.  0.
         11    1    3    3    0    0  0.62132210195E+02  0.76292997974E+02  0.28485613302E+03  0.30137028653E+03  0.00000000000E+00 0. -1.
        -11    1    3    3    0    0  0.13333742907E+02  0.28192141978E+02  0.43769955212E+03  0.43880916524E+03  0.00000000000E+00 0.  1.
          4    1    6    6  502    0 -0.16033641637E+03  0.90447617881E+02  0.27891924376E+03  0.33419228378E+03  0.00000000000E+00 0. -1.
          1    1    5    5  503    0  0.33044203623E+02 -0.87526497337E+01 -0.43471275215E+02  0.55301718230E+02  0.00000000000E+00 0. -1.
         -2    1    5    5    0  503  0.97149921490E+02 -0.19553256478E+03 -0.32275211229E+03  0.38966654606E+03  0.00000000000E+00 0.  1.
         -3    1    6    6    0  502 -0.45323661842E+02  0.93524566798E+01  0.15851668224E+03  0.16513401017E+03  0.00000000000E+00 0.  1.
<mgrwt>
<rscale>  0 0.14857270E+04</rscale>
<asrwt>0</asrwt>
<pdfrwt beam="1">  1        1 0.19063402E+00 0.14857270E+04</pdfrwt>
<pdfrwt beam="2">  1       -1 0.68515831E-01 0.14857270E+04</pdfrwt>
<totfact> 0.20894472E+01</totfact>
</mgrwt>
</event>
<event>
12    1  0.1477245E-007  0.1610910E+04  0.7818608E-02  0.8813873E-01
         -1   -1    0    0    0  501 -0.00000000000E+00  0.00000000000E+00  0.68292708862E+03  0.68292708862E+03  0.00000000000E+00 0.  1.
          1   -1    0    0  501    0  0.00000000000E+00 -0.00000000000E+00 -0.94996652810E+03  0.94996652810E+03  0.00000000000E+00 0. -1.
         23    2    1    2    0    0 -0.19038374106E+03  0.15569672740E+03 -0.59748666264E+03  0.65251097118E+03  0.91064898283E+02 0.  0.
        254    2    1    2    0    0  0.19038374106E+03 -0.15569672740E+03  0.33044722316E+03  0.98038264553E+03  0.88964449336E+03 0.  0.
        -24    2    4    4    0    0  0.38062674990E+03 -0.27991840432E+02 -0.16939437937E+03  0.42496189594E+03  0.78980322680E+02 0.  0.
         24    2    4    4    0    0 -0.19024300884E+03 -0.12770488697E+03  0.49984160253E+03  0.55542074958E+03  0.78419645983E+02 0.  0.
         11    1    3    3    0    0 -0.19030048382E+03  0.11671071822E+03 -0.50481973793E+03  0.55197702279E+03  0.00000000000E+00 0. -1.
        -11    1    3    3    0    0 -0.83257244010E-01  0.38986009186E+02 -0.92666924714E+02  0.10053394840E+03  0.00000000000E+00 0.  1.
          2    1    6    6  502    0 -0.56120834059E+02 -0.82416281149E+02  0.18323802194E+03  0.20861007669E+03  0.00000000000E+00 0. -1.
          3    1    5    5  503    0  0.15826369230E+03  0.25813209902E+02 -0.81511960485E+02  0.17988306704E+03  0.00000000000E+00 0. -1.
         -4    1    5    5    0  503  0.22236305760E+03 -0.53805050335E+02 -0.87882418888E+02  0.24507882890E+03  0.00000000000E+00 0.  1.
         -1    1    6    6    0  502 -0.13412217478E+03 -0.45288605821E+02  0.31660358059E+03  0.34681067289E+03  0.00000000000E+00 0.  1.
<mgrwt>
<rscale>  0 0.16109101E+04</rscale>
<asrwt>0</asrwt>
<pdfrwt beam="1">  1        1 0.14614870E+00 0.16109101E+04</pdfrwt>
<pdfrwt beam="2">  1       -1 0.10506571E+00 0.16109101E+04</pdfrwt>
<totfact> 0.13512497E+01</totfact>
</mgrwt>
</event>
<event>
12    1  0.1477245E-007  0.1637964E+04  0.7818608E-02  0.8797559E-01
          2   -1    0    0  501    0  0.00000000000E+00  0.00000000000E+00  0.41029824286E+04  0.41029824286E+04  0.00000000000E+00 0. -1.
         -2   -1    0    0    0  501 -0.00000000000E+00 -0.00000000000E+00 -0.16347423764E+03  0.16347423764E+03  0.00000000000E+00 0.  1.
         23    2    1    2    0    0 -0.49146209295E+03  0.30668669665E+03  0.10429128493E+04  0.11965498549E+04  0.92046864439E+02 0.  0.
        254    2    1    2    0    0  0.49146209295E+03 -0.30668669665E+03  0.28965953417E+04  0.30699068114E+04  0.83574609690E+03 0.  0.
        -24    2    4    4    0    0  0.40325102271E+01  0.44449265969E+02 -0.18228833261E+02  0.92754937458E+02  0.79241338182E+02 0.  0.
         24    2    4    4    0    0  0.48742958272E+03 -0.35113596262E+03  0.29148241749E+04  0.29771518739E+04  0.79682164190E+02 0.  0.
         13    1    3    3    0    0 -0.30505028604E+03  0.24126391437E+03  0.68195989396E+03  0.78506894624E+03  0.00000000000E+00 0.  1.
        -13    1    3    3    0    0 -0.18641180691E+03  0.65422782289E+02  0.36095295534E+03  0.41148090863E+03  0.00000000000E+00 0. -1.
          2    1    6    6  502    0  0.10952441372E+03 -0.99174359006E+02  0.57720591715E+03  0.59581693621E+03  0.00000000000E+00 0. -1.
          3    1    5    5  503    0 -0.30826288120E+02  0.23015149587E+02  0.13715008957E+02  0.40841873371E+02  0.00000000000E+00 0. -1.
         -4    1    5    5    0  503  0.34858798347E+02  0.21434116382E+02 -0.31943842217E+02  0.51913064087E+02  0.00000000000E+00 0.  1.
         -1    1    6    6    0  502  0.37790516900E+03 -0.25196160362E+03  0.23376182578E+04  0.23813349377E+04  0.00000000000E+00 0.  1.
<mgrwt>
<rscale>  0 0.16379645E+04</rscale>
<asrwt>0</asrwt>
<pdfrwt beam="1">  1        2 0.63122799E+00 0.16379645E+04</pdfrwt>
<pdfrwt beam="2">  1       -2 0.25149886E-01 0.16379645E+04</pdfrwt>
<totfact> 0.38986981E+00</totfact>
</mgrwt>
</event>
<event>
12    1  0.1477245E-007  0.1029540E+04  0.7818608E-02  0.9276726E-01
          2   -1    0    0  501    0  0.00000000000E+00  0.00000000000E+00  0.15968892832E+04  0.15968892832E+04  0.00000000000E+00 0. -1.
         -2   -1    0    0    0  501 -0.00000000000E+00 -0.00000000000E+00 -0.16594029291E+03  0.16594029291E+03  0.00000000000E+00 0.  1.
         23    2    1    2    0    0  0.52326129590E+02 -0.14228756734E+01  0.75765754907E+02  0.12927634319E+03  0.90729680255E+02 0.  0.
        254    2    1    2    0    0 -0.52326129590E+02  0.14228756734E+01  0.13551832354E+04  0.16335532329E+04  0.91062314647E+03 0.  0.
        -24    2    4    4    0    0 -0.32696453708E+03 -0.88925014493E+01  0.12987797096E+04  0.13416610289E+04  0.78998084915E+02 0.  0.
         24    2    4    4    0    0  0.27463840749E+03  0.10315377123E+02  0.56403525783E+02  0.29189220397E+03  0.80542157559E+02 0.  0.
         11    1    3    3    0    0 -0.24390592935E+02 -0.88053757343E+01  0.29948012494E+02  0.39614632624E+02  0.00000000000E+00 0. -1.
        -11    1    3    3    0    0  0.76716722525E+02  0.73825000609E+01  0.45817742412E+02  0.89661710567E+02  0.00000000000E+00 0.  1.
          2    1    6    6  502    0  0.97701916234E+02 -0.31631003943E+02  0.36399245285E+02  0.10895453136E+03  0.00000000000E+00 0. -1.
          3    1    5    5  503    0 -0.10934776907E+03  0.34341385583E+02  0.43838744557E+03  0.45312229894E+03  0.00000000000E+00 0. -1.
         -4    1    5    5    0  503 -0.21761676801E+03 -0.43233887032E+02  0.86039226403E+03  0.88853873000E+03  0.00000000000E+00 0.  1.
         -3    1    6    6    0  502  0.17693649126E+03  0.41946381066E+02  0.20004280498E+02  0.18293767261E+03  0.00000000000E+00 0.  1.
<mgrwt>
<rscale>  0 0.10295402E+04</rscale>
<asrwt>0</asrwt>
<pdfrwt beam="1">  1        2 0.24567526E+00 0.10295402E+04</pdfrwt>
<pdfrwt beam="2">  1       -2 0.25529277E-01 0.10295402E+04</pdfrwt>
<totfact> 0.15407101E+02</totfact>
</mgrwt>
</event>
<event>
12    1  0.1477245E-007  0.1345777E+04  0.7818608E-02  0.8994031E-01
          2   -1    0    0  501    0  0.00000000000E+00  0.00000000000E+00  0.29979888049E+04  0.29979888049E+04  0.00000000000E+00 0.  1.
         -2   -1    0    0    0  501 -0.00000000000E+00 -0.00000000000E+00 -0.15102766709E+03  0.15102766709E+03  0.00000000000E+00 0. -1.
         23    2    1    2    0    0  0.29868243454E+03  0.20724632789E+03  0.88630420473E+03  0.96228326494E+03  0.91058780738E+02 0.  0.
        254    2    1    2    0    0 -0.29868243454E+03 -0.20724632789E+03  0.19606569331E+04  0.21867332071E+04  0.89747661386E+03 0.  0.
        -24    2    4    4    0    0  0.22895116619E+03  0.16029572711E+03  0.38107119182E+03  0.47938182102E+03  0.80488014360E+02 0.  0.
         24    2    4    4    0    0 -0.52763360072E+03 -0.36754205500E+03  0.15795857413E+04  0.17073513860E+04  0.80456588230E+02 0.  0.
         11    1    3    3    0    0  0.16647218111E+03  0.78309289704E+02  0.52898255669E+03  0.56006060138E+03  0.00000000000E+00 0. -1.
        -11    1    3    3    0    0  0.13221025343E+03  0.12893703819E+03  0.35732164804E+03  0.40222266357E+03  0.00000000000E+00 0.  1.
          4    1    6    6  502    0 -0.51373839021E+03 -0.33869100708E+03  0.15170123877E+04  0.16370599611E+04  0.00000000000E+00 0. -1.
          3    1    5    5  503    0  0.69017582193E+02  0.81342263204E+01  0.78525160834E+02  0.10486082764E+03  0.00000000000E+00 0. -1.
         -4    1    5    5    0  503  0.15993358399E+03  0.15216150079E+03  0.30254603099E+03  0.37452099337E+03  0.00000000000E+00 0.  1.
         -3    1    6    6    0  502 -0.13895210516E+02 -0.28851047917E+02  0.62573353569E+02  0.70291424925E+02  0.00000000000E+00 0.  1.
<mgrwt>
<rscale>  0 0.13457775E+04</rscale>
<asrwt>0</asrwt>
<pdfrwt beam="1">  1        2 0.46122900E+00 0.13457775E+04</pdfrwt>
<pdfrwt beam="2">  1       -2 0.23235028E-01 0.13457775E+04</pdfrwt>
<totfact> 0.28226135E+01</totfact>
</mgrwt>
</event>
<event>
12    1  0.1477245E-007  0.1370809E+04  0.7818608E-02  0.8975224E-01
          2   -1    0    0  501    0  0.00000000000E+00  0.00000000000E+00  0.70404826217E+03  0.70404826217E+03  0.00000000000E+00 0. -1.
         -2   -1    0    0    0  501 -0.00000000000E+00 -0.00000000000E+00 -0.66725415888E+03  0.66725415888E+03  0.00000000000E+00 0.  1.
         23    2    1    2    0    0  0.13064974649E+03 -0.65899075783E+01 -0.35152611110E+03  0.38544925323E+03  0.88812932013E+02 0.  0.
        254    2    1    2    0    0 -0.13064974649E+03  0.65899075783E+01  0.38832021439E+03  0.98585316781E+03  0.89666108226E+03 0.  0.
        -24    2    4    4    0    0 -0.27031567947E+03  0.12143218304E+03 -0.19828943478E+03  0.36700342737E+03  0.86927982349E+02 0.  0.
         24    2    4    4    0    0  0.13966593298E+03 -0.11484227546E+03  0.58660964917E+03  0.61884974044E+03  0.78541706588E+02 0.  0.
         13    1    3    3    0    0 -0.83358240182E+01 -0.97592676440E+01 -0.86939595979E+01  0.15502070846E+02  0.00000000000E+00 0. -1.
        -13    1    3    3    0    0  0.13898557051E+03  0.31693600657E+01 -0.34283215150E+03  0.36994718239E+03  0.00000000000E+00 0.  1.
          2    1    6    6  502    0  0.61156982679E+02 -0.94216965795E+02  0.28034414962E+03  0.30200969421E+03  0.00000000000E+00 0. -1.
          1    1    5    5  503    0 -0.74063610087E+02  0.73920479916E+02 -0.89187501352E+02  0.13749205827E+03  0.00000000000E+00 0. -1.
         -2    1    5    5    0  503 -0.19625206938E+03  0.47511703123E+02 -0.10910193342E+03  0.22951136910E+03  0.00000000000E+00 0.  1.
         -1    1    6    6    0  502  0.78508950298E+02 -0.20625309665E+02  0.30626549955E+03  0.31684004622E+03  0.00000000000E+00 0.  1.
<mgrwt>
<rscale>  0 0.13708087E+04</rscale>
<asrwt>0</asrwt>
<pdfrwt beam="1">  1        2 0.10831512E+00 0.13708087E+04</pdfrwt>
<pdfrwt beam="2">  1       -2 0.10265449E+00 0.13708087E+04</pdfrwt>
<totfact> 0.30790277E+01</totfact>
</mgrwt>
</event>
<event>
12    1  0.1477245E-007  0.1476456E+04  0.7818608E-02  0.8900262E-01
         -2   -1    0    0    0  501 -0.00000000000E+00  0.00000000000E+00  0.88447850636E+03  0.88447850636E+03  0.00000000000E+00 0. -1.
          2   -1    0    0  501    0  0.00000000000E+00 -0.00000000000E+00 -0.61616016092E+03  0.61616016092E+03  0.00000000000E+00 0.  1.
         23    2    1    2    0    0  0.24199141746E+03 -0.31142512419E+03 -0.14487885740E+03  0.42998209055E+03  0.91374289437E+02 0.  0.
        254    2    1    2    0    0 -0.24199141746E+03  0.31142512419E+03  0.41319720283E+03  0.10706565767E+04  0.90555404189E+03 0.  0.
        -24    2    4    4    0    0 -0.18911234191E+03  0.20284190112E+03 -0.25589471947E+03  0.38619229103E+03  0.82183109471E+02 0.  0.
         24    2    4    4    0    0 -0.52879075551E+02  0.10858322307E+03  0.66909192230E+03  0.68446428571E+03  0.78872333303E+02 0.  0.
         11    1    3    3    0    0  0.30997009451E+02 -0.30490294348E+01 -0.12817957825E+02  0.33681021632E+02  0.00000000000E+00 0. -1.
        -11    1    3    3    0    0  0.21099440801E+03 -0.30837609476E+03 -0.13206089957E+03  0.39630106891E+03  0.00000000000E+00 0.  1.
          4    1    6    6  502    0 -0.30063691685E+02  0.89764849796E+02  0.61974616328E+03  0.62693449476E+03  0.00000000000E+00 0. -1.
          3    1    5    5  503    0 -0.18801406933E+03  0.19739628494E+03 -0.22121579951E+03  0.35107123711E+03  0.00000000000E+00 0. -1.
         -4    1    5    5    0  503 -0.10982725744E+01  0.54456161827E+01 -0.34678919964E+02  0.35121053916E+02  0.00000000000E+00 0.  1.
         -3    1    6    6    0  502 -0.22815383867E+02  0.18818373275E+02  0.49345759022E+02  0.57529790953E+02  0.00000000000E+00 0.  1.
<mgrwt>
<rscale>  0 0.14764558E+04</rscale>
<asrwt>0</asrwt>
<pdfrwt beam="1">  1        2 0.94793870E-01 0.14764558E+04</pdfrwt>
<pdfrwt beam="2">  1       -2 0.13607362E+00 0.14764558E+04</pdfrwt>
<totfact> 0.17958456E+01</totfact>
</mgrwt>
</event>
<event>
12    1  0.1477245E-007  0.1243041E+04  0.7818608E-02  0.9075995E-01
         -1   -1    0    0    0  501 -0.00000000000E+00  0.00000000000E+00  0.12209043653E+03  0.12209043653E+03  0.00000000000E+00 0.  1.
          1   -1    0    0  501    0  0.00000000000E+00 -0.00000000000E+00 -0.31639491239E+04  0.31639491239E+04  0.00000000000E+00 0. -1.
         23    2    1    2    0    0 -0.75349666859E+02  0.98409199380E+02 -0.14167639358E+04  0.14251315069E+04  0.91748674329E+02 0.  0.
        254    2    1    2    0    0  0.75349666859E+02 -0.98409199380E+02 -0.16250947515E+04  0.18609080535E+04  0.89815582693E+03 0.  0.
        -24    2    4    4    0    0  0.12151942280E+03  0.68015535058E+02 -0.16602171808E+04  0.16678752564E+04  0.78062156579E+02 0.  0.
         24    2    4    4    0    0 -0.46169755944E+02 -0.16642473444E+03  0.35122429328E+02  0.19303279710E+03  0.78735234285E+02 0.  0.
         11    1    3    3    0    0 -0.54309764705E+02  0.56472391822E+02 -0.12325043514E+04  0.12349921691E+04  0.00000000000E+00 0. -1.
        -11    1    3    3    0    0 -0.21039902153E+02  0.41936807558E+02 -0.18425958440E+03  0.19013933774E+03  0.00000000000E+00 0.  1.
          4    1    6    6  502    0  0.87384808050E+01 -0.41157386924E+01  0.18517105658E+02  0.20885007870E+02  0.00000000000E+00 0. -1.
          1    1    5    5  503    0 -0.10174040374E+02 -0.10839406063E+01 -0.15175573784E+03  0.15210026296E+03  0.00000000000E+00 0. -1.
         -2    1    5    5    0  503  0.13169346318E+03  0.69099475664E+02 -0.15084614430E+04  0.15157749935E+04  0.00000000000E+00 0.  1.
         -3    1    6    6    0  502 -0.54908236749E+02 -0.16230899575E+03  0.16605323669E+02  0.17214778923E+03  0.00000000000E+00 0.  1.
<mgrwt>
<rscale>  0 0.12430413E+04</rscale>
<asrwt>0</asrwt>
<pdfrwt beam="1">  1        1 0.48676139E+00 0.12430413E+04</pdfrwt>
<pdfrwt beam="2">  1       -1 0.18783145E-01 0.12430413E+04</pdfrwt>
<totfact> 0.10284078E+01</totfact>
</mgrwt>
</event>
<event>
12    1  0.1477245E-007  0.2153291E+04  0.7818608E-02  0.8538125E-01
         -2   -1    0    0    0  501 -0.00000000000E+00  0.00000000000E+00  0.49217238582E+03  0.49217238582E+03  0.00000000000E+00 0.  1.
          2   -1    0    0  501    0  0.00000000000E+00 -0.00000000000E+00 -0.23552013964E+04  0.23552013964E+04  0.00000000000E+00 0. -1.
         23    2    1    2    0    0 -0.75503627119E+03 -0.40593999869E+02 -0.13882910090E+04  0.15833299032E+04  0.88622870188E+02 0.  0.
        254    2    1    2    0    0  0.75503627119E+03  0.40593999869E+02 -0.47473800159E+03  0.12640438790E+04  0.89482015751E+03 0.  0.
        -24    2    4    4    0    0  0.34687065055E+03  0.61694567090E+02  0.24129465608E+03  0.43595477264E+03  0.87795130360E+02 0.  0.
         24    2    4    4    0    0  0.40816562063E+03 -0.21100567221E+02 -0.71603265766E+03  0.82808910637E+03  0.77358861446E+02 0.  0.
         13    1    3    3    0    0 -0.31541157982E+03  0.26650594492E+02 -0.57040837610E+03  0.65234993247E+03  0.00000000000E+00 0.  1.
        -13    1    3    3    0    0 -0.43962469137E+03 -0.67244594361E+02 -0.81788263291E+03  0.93097997076E+03  0.00000000000E+00 0. -1.
          2    1    6    6  502    0  0.38737524940E+03 -0.20851542968E+02 -0.63235827405E+03  0.74187017560E+03  0.00000000000E+00 0. -1.
          3    1    5    5  503    0  0.11788342666E+03 -0.20592227436E+02  0.84305352409E+02  0.14638283559E+03  0.00000000000E+00 0. -1.
         -4    1    5    5    0  503  0.22898722390E+03  0.82286794526E+02  0.15698930367E+03  0.28957193705E+03  0.00000000000E+00 0.  1.
         -1    1    6    6    0  502  0.20790371231E+02 -0.24902425227E+00 -0.83674383616E+02  0.86218930766E+02  0.00000000000E+00 0.  1.
<mgrwt>
<rscale>  0 0.21532906E+04</rscale>
<asrwt>0</asrwt>
<pdfrwt beam="1">  1        2 0.36233867E+00 0.21532906E+04</pdfrwt>
<pdfrwt beam="2">  1       -2 0.75718830E-01 0.21532906E+04</pdfrwt>
<totfact> 0.60492607E+00</totfact>
</mgrwt>
</event>
<event>
12    1  0.1477245E-007  0.2912243E+04  0.7818608E-02  0.8269244E-01
         -1   -1    0    0    0  501 -0.00000000000E+00  0.00000000000E+00  0.12233294917E+04  0.12233294917E+04  0.00000000000E+00 0.  1.
          1   -1    0    0  501    0  0.00000000000E+00 -0.00000000000E+00 -0.17332118344E+04  0.17332118344E+04  0.00000000000E+00 0. -1.
         23    2    1    2    0    0 -0.37141818683E+03 -0.19477646132E+03 -0.15038176400E+04  0.15638402124E+04  0.90771008035E+02 0.  0.
        254    2    1    2    0    0  0.37141818683E+03  0.19477646132E+03  0.99393529733E+03  0.13927011138E+04  0.88080626574E+03 0.  0.
        -24    2    4    4    0    0 -0.17554133591E+03  0.12367188575E+03 -0.26295798195E+02  0.23047634499E+03  0.79488242265E+02 0.  0.
         24    2    4    4    0    0  0.54695952274E+03  0.71104575568E+02  0.10202310955E+04  0.11622247688E+04  0.75328247164E+02 0.  0.
         11    1    3    3    0    0 -0.35431556930E+03 -0.20292629680E+03 -0.14008137591E+04  0.14591085609E+04  0.00000000000E+00 0. -1.
        -11    1    3    3    0    0 -0.17102617527E+02  0.81498354827E+01 -0.10300388089E+03  0.10473165149E+03  0.00000000000E+00 0.  1.
          2    1    6    6  502    0  0.49426301174E+03  0.40980758014E+02  0.90558012541E+03  0.10324973176E+04  0.00000000000E+00 0. -1.
          1    1    5    5  503    0 -0.99231265018E+02  0.39768769123E+02 -0.44155492538E+02  0.11566376475E+03  0.00000000000E+00 0. -1.
         -2    1    5    5    0  503 -0.76310070894E+02  0.83903116628E+02  0.17859694342E+02  0.11481258024E+03  0.00000000000E+00 0.  1.
         -1    1    6    6    0  502  0.52696511001E+02  0.30123817554E+02  0.11465097012E+03  0.12972745124E+03  0.00000000000E+00 0.  1.
<mgrwt>
<rscale>  0 0.29122425E+04</rscale>
<asrwt>0</asrwt>
<pdfrwt beam="1">  1        1 0.26664797E+00 0.29122425E+04</pdfrwt>
<pdfrwt beam="2">  1       -1 0.18820454E+00 0.29122425E+04</pdfrwt>
<totfact> 0.70567384E-01</totfact>
</mgrwt>
</event>
<event>
12    1  0.1477245E-007  0.1834514E+04  0.7818608E-02  0.8688158E-01
         -2   -1    0    0    0  501 -0.00000000000E+00  0.00000000000E+00  0.40825763285E+03  0.40825763285E+03  0.00000000000E+00 0. -1.
          2   -1    0    0  501    0  0.00000000000E+00 -0.00000000000E+00 -0.20608570972E+04  0.20608570972E+04  0.00000000000E+00 0.  1.
         23    2    1    2    0    0  0.35060995482E+03  0.20822636459E+03 -0.13714848862E+04  0.14338339978E+04  0.92863237618E+02 0.  0.
        254    2    1    2    0    0 -0.35060995482E+03 -0.20822636459E+03 -0.28111457814E+03  0.10352807322E+04  0.90911783018E+03 0.  0.
        -24    2    4    4    0    0 -0.17298134861E+03 -0.13468163723E+03  0.32130489613E+03  0.39786831661E+03  0.83670010786E+02 0.  0.
         24    2    4    4    0    0 -0.17762860621E+03 -0.73544727353E+02 -0.60241947428E+03  0.63741241562E+03  0.80153701967E+02 0.  0.
         11    1    3    3    0    0  0.21009982998E+03  0.12497554781E+03 -0.97162313517E+03  0.10019043582E+04  0.00000000000E+00 0.  1.
        -11    1    3    3    0    0  0.14051012484E+03  0.83250816781E+02 -0.39986175101E+03  0.43192963964E+03  0.00000000000E+00 0. -1.
          4    1    6    6  502    0 -0.18559906428E+03 -0.73904261248E+02 -0.56888770458E+03  0.60294450235E+03  0.00000000000E+00 0. -1.
          1    1    5    5  503    0 -0.17442146296E+03 -0.10552169588E+03  0.26392278176E+03  0.33348599637E+03  0.00000000000E+00 0. -1.
         -2    1    5    5    0  503  0.14401143511E+01 -0.29159941355E+02  0.57382114367E+02  0.64382320231E+02  0.00000000000E+00 0.  1.
         -3    1    6    6    0  502  0.79704580710E+01  0.35953389551E+00 -0.33531769692E+02  0.34467913270E+02  0.00000000000E+00 0.  1.
<mgrwt>
<rscale>  0 0.18345143E+04</rscale>
<asrwt>0</asrwt>
<pdfrwt beam="1">  1        2 0.31705494E+00 0.18345143E+04</pdfrwt>
<pdfrwt beam="2">  1       -2 0.62808867E-01 0.18345143E+04</pdfrwt>
<totfact> 0.13670345E+01</totfact>
</mgrwt>
</event>
<event>
12    1  0.1477245E-007  0.1682414E+04  0.7818608E-02  0.8771459E-01
         -2   -1    0    0    0  501 -0.00000000000E+00  0.00000000000E+00  0.45491013421E+03  0.45491013421E+03  0.00000000000E+00 0.  1.
          2   -1    0    0  501    0  0.00000000000E+00 -0.00000000000E+00 -0.15555356707E+04  0.15555356707E+04  0.00000000000E+00 0. -1.
         23    2    1    2    0    0  0.44988049449E+03 -0.39601431879E+03 -0.41252047548E+03  0.73338470986E+03  0.91979290917E+02 0.  0.
        254    2    1    2    0    0 -0.44988049449E+03  0.39601431879E+03 -0.68810506103E+03  0.12770610951E+04  0.89340733460E+03 0.  0.
        -24    2    4    4    0    0 -0.20290340459E+03  0.30596709781E+03 -0.87003034943E+03  0.94787736157E+03  0.82055024917E+02 0.  0.
         24    2    4    4    0    0 -0.24697708990E+03  0.90047220980E+02  0.18192528841E+03  0.32918373349E+03  0.78478881835E+02 0.  0.
         11    1    3    3    0    0  0.17596207601E+03 -0.11089375006E+03 -0.17745829009E+03  0.27340724335E+03  0.00000000000E+00 0. -1.
        -11    1    3    3    0    0  0.27391841848E+03 -0.28512056872E+03 -0.23506218539E+03  0.45997746651E+03  0.00000000000E+00 0.  1.
          4    1    6    6  502    0 -0.15856403886E+03  0.19158806671E+02  0.90469011732E+02  0.18355995309E+03  0.00000000000E+00 0. -1.
          1    1    5    5  503    0 -0.44720783109E+02  0.10844344613E+03 -0.20294623605E+03  0.23440798659E+03  0.00000000000E+00 0. -1.
         -2    1    5    5    0  503 -0.15818262148E+03  0.19752365168E+03 -0.66708411338E+03  0.71346937498E+03  0.00000000000E+00 0.  1.
         -3    1    6    6    0  502 -0.88413051035E+02  0.70888414309E+02  0.91456276675E+02  0.14562378041E+03  0.00000000000E+00 0.  1.
<mgrwt>
<rscale>  0 0.16824137E+04</rscale>
<asrwt>0</asrwt>
<pdfrwt beam="1">  1        2 0.23931318E+00 0.16824137E+04</pdfrwt>
<pdfrwt beam="2">  1       -2 0.69986175E-01 0.16824137E+04</pdfrwt>
<totfact> 0.20928260E+01</totfact>
</mgrwt>
</event>
<event>
12    1  0.1477245E-007  0.2673739E+04  0.7818608E-02  0.8343576E-01
         -1   -1    0    0    0  501 -0.00000000000E+00  0.00000000000E+00  0.20772656205E+04  0.20772656205E+04  0.00000000000E+00 0.  1.
          1   -1    0    0  501    0  0.00000000000E+00 -0.00000000000E+00 -0.86037126390E+03  0.86037126390E+03  0.00000000000E+00 0. -1.
         23    2    1    2    0    0 -0.43205615862E+03 -0.70640424907E+03  0.14720762231E+04  0.16912811460E+04  0.88000119192E+02 0.  0.
        254    2    1    2    0    0  0.43205615862E+03  0.70640424907E+03 -0.25518186655E+03  0.12463557383E+04  0.89588244438E+03 0.  0.
        -24    2    4    4    0    0  0.46189350053E+03  0.92050915913E+02  0.15466361192E+03  0.50217279166E+03  0.80235296941E+02 0.  0.
         24    2    4    4    0    0 -0.29837341908E+02  0.61435333316E+03 -0.40984547848E+03  0.74418294667E+03  0.86687121054E+02 0.  0.
         11    1    3    3    0    0 -0.20427094430E+02 -0.10531848884E+02  0.58032047864E+02  0.62417181986E+02  0.00000000000E+00 0. -1.
        -11    1    3    3    0    0 -0.41162906419E+03 -0.69587240019E+03  0.14140441752E+04  0.16288639640E+04  0.00000000000E+00 0.  1.
          4    1    6    6  502    0  0.16241061297E+02  0.32303080073E+03 -0.24936549575E+03  0.40840644065E+03  0.00000000000E+00 0. -1.
          1    1    5    5  503    0  0.21432630136E+02 -0.91084564270E+01  0.19754582353E+02  0.30537929481E+02  0.00000000000E+00 0. -1.
         -2    1    5    5    0  503  0.44046087039E+03  0.10115937234E+03  0.13490902957E+03  0.47163486218E+03  0.00000000000E+00 0.  1.
         -3    1    6    6    0  502 -0.46078403205E+02  0.29132253242E+03 -0.16047998272E+03  0.33577650602E+03  0.00000000000E+00 0.  1.
<mgrwt>
<rscale>  0 0.26737387E+04</rscale>
<asrwt>0</asrwt>
<pdfrwt beam="1">  1        1 0.13236481E+00 0.26737387E+04</pdfrwt>
<pdfrwt beam="2">  1       -1 0.31957933E+00 0.26737387E+04</pdfrwt>
<totfact> 0.42310180E-01</totfact>
</mgrwt>
</event>
<event>
12    1  0.1477245E-007  0.1598947E+04  0.7818608E-02  0.8821195E-01
          1   -1    0    0  501    0  0.00000000000E+00  0.00000000000E+00  0.24819579497E+04  0.24819579497E+04  0.00000000000E+00 0. -1.
         -1   -1    0    0    0  501 -0.00000000000E+00 -0.00000000000E+00 -0.25752148274E+03  0.25752148274E+03  0.00000000000E+00 0.  1.
         23    2    1    2    0    0 -0.23222848484E+03 -0.77650410270E+02 -0.62717218104E+02  0.26889824054E+03  0.91723273685E+02 0.  0.
        254    2    1    2    0    0  0.23222848484E+03  0.77650410270E+02  0.22871536851E+04  0.24705811919E+04  0.90152082131E+03 0.  0.
        -24    2    4    4    0    0  0.72232028818E+02 -0.20426897166E+03  0.87471549086E+02  0.24576061041E+03  0.76182195804E+02 0.  0.
         24    2    4    4    0    0  0.15999645602E+03  0.28191938193E+03  0.21996821360E+04  0.22248205815E+04  0.78407375914E+02 0.  0.
         13    1    3    3    0    0 -0.88173300304E+02 -0.22629310545E+02 -0.69523252861E+02  0.11454300184E+03  0.00000000000E+00 0.  1.
        -13    1    3    3    0    0 -0.14405518453E+03 -0.55021099724E+02  0.68060347567E+01  0.15435523870E+03  0.00000000000E+00 0. -1.
          4    1    6    6  502    0  0.13632360344E+03  0.25870165412E+03  0.20861588375E+04  0.21065539077E+04  0.00000000000E+00 0. -1.
          3    1    5    5  503    0  0.52807849099E+02 -0.19713411847E+03  0.93097999348E+02  0.22431622116E+03  0.00000000000E+00 0. -1.
         -4    1    5    5    0  503  0.19424179719E+02 -0.71348531934E+01 -0.56264502621E+01  0.21444389252E+02  0.00000000000E+00 0.  1.
         -3    1    6    6    0  502  0.23672852575E+02  0.23217727817E+02  0.11352329848E+03  0.11826667380E+03  0.00000000000E+00 0.  1.
<mgrwt>
<rscale>  0 0.15989465E+04</rscale>
<asrwt>0</asrwt>
<pdfrwt beam="1">  1        1 0.38183967E+00 0.15989465E+04</pdfrwt>
<pdfrwt beam="2">  1       -1 0.39618691E-01 0.15989465E+04</pdfrwt>
<totfact> 0.83104419E+00</totfact>
</mgrwt>
</event>
<event>
12    1  0.1477245E-007  0.3232122E+04  0.7818608E-02  0.8180385E-01
          2   -1    0    0  501    0  0.00000000000E+00  0.00000000000E+00  0.33173991325E+04  0.33173991325E+04  0.00000000000E+00 0.  1.
         -2   -1    0    0    0  501 -0.00000000000E+00 -0.00000000000E+00 -0.78725937127E+03  0.78725937127E+03  0.00000000000E+00 0. -1.
         23    2    1    2    0    0 -0.12643829237E+04 -0.12746221544E+03  0.19596855697E+03  0.12890713639E+04  0.91599736942E+02 0.  0.
        254    2    1    2    0    0  0.12643829237E+04  0.12746221544E+03  0.23341712043E+04  0.28155871398E+04  0.92965850562E+03 0.  0.
        -24    2    4    4    0    0  0.24442724442E+03  0.39962110420E+03  0.10411867829E+04  0.11445005809E+04  0.79812016993E+02 0.  0.
         24    2    4    4    0    0  0.10199556793E+04 -0.27215888876E+03  0.12929844214E+04  0.16710865590E+04  0.79633693448E+02 0.  0.
         13    1    3    3    0    0 -0.42682530533E+03 -0.57407699958E+02  0.25122204801E+02  0.43140075390E+03  0.00000000000E+00 0. -1.
        -13    1    3    3    0    0 -0.83755761839E+03 -0.70054515481E+02  0.17084635217E+03  0.85767061003E+03  0.00000000000E+00 0.  1.
          4    1    6    6  502    0  0.14498197968E+03 -0.66437510316E+02  0.21003448133E+03  0.26371992825E+03  0.00000000000E+00 0. -1.
          3    1    5    5  503    0  0.64807664089E+02  0.50481452240E+02  0.19880923271E+03  0.21511281077E+03  0.00000000000E+00 0. -1.
         -2    1    5    5    0  503  0.17961958033E+03  0.34913965196E+03  0.84237755017E+03  0.92938777012E+03  0.00000000000E+00 0.  1.
         -3    1    6    6    0  502  0.87497369962E+03 -0.20572137844E+03  0.10829499400E+04  0.14073666307E+04  0.00000000000E+00 0.  1.
<mgrwt>
<rscale>  0 0.32321222E+04</rscale>
<asrwt>0</asrwt>
<pdfrwt beam="1">  1        2 0.51036909E+00 0.32321222E+04</pdfrwt>
<pdfrwt beam="2">  1       -2 0.12111683E+00 0.32321222E+04</pdfrwt>
<totfact> 0.47203330E-01</totfact>
</mgrwt>
</event>
<event>
12    1  0.1477245E-007  0.1447332E+04  0.7818608E-02  0.8920252E-01
          2   -1    0    0  501    0  0.00000000000E+00  0.00000000000E+00  0.15744928349E+04  0.15744928349E+04  0.00000000000E+00 0.  1.
         -2   -1    0    0    0  501 -0.00000000000E+00 -0.00000000000E+00 -0.33261030341E+03  0.33261030341E+03  0.00000000000E+00 0. -1.
         23    2    1    2    0    0 -0.43254146178E+03 -0.15150770463E+03  0.41654100474E+03  0.62594927968E+03  0.90881193760E+02 0.  0.
        254    2    1    2    0    0  0.43254146178E+03  0.15150770463E+03  0.82534152673E+03  0.12811538586E+04  0.86609460971E+03 0.  0.
        -24    2    4    4    0    0 -0.35209404751E+02  0.38063504044E+03  0.58133769250E+03  0.70037290518E+03  0.80286719941E+02 0.  0.
         24    2    4    4    0    0  0.46775086653E+03 -0.22912733581E+03  0.24400383423E+03  0.58078095343E+03  0.80488729613E+02 0.  0.
         13    1    3    3    0    0 -0.38331894322E+03 -0.14231862865E+03  0.40293724602E+03  0.57406134561E+03  0.00000000000E+00 0.  1.
        -13    1    3    3    0    0 -0.49222518557E+02 -0.91890759763E+01  0.13603758720E+02  0.51887934067E+02  0.00000000000E+00 0. -1.
          4    1    6    6  502    0  0.37722018458E+03 -0.21716450288E+03  0.19241026084E+03  0.47589620448E+03  0.00000000000E+00 0. -1.
          3    1    5    5  503    0 -0.61286101487E+02  0.27021422698E+03  0.40659763052E+03  0.49202982414E+03  0.00000000000E+00 0. -1.
         -4    1    5    5    0  503  0.26076696736E+02  0.11042081345E+03  0.17474006198E+03  0.20834308104E+03  0.00000000000E+00 0.  1.
         -3    1    6    6    0  502  0.90530681953E+02 -0.11962832923E+02  0.51593573393E+02  0.10488474895E+03  0.00000000000E+00 0.  1.
<mgrwt>
<rscale>  0 0.14473321E+04</rscale>
<asrwt>0</asrwt>
<pdfrwt beam="1">  1        2 0.24222966E+00 0.14473321E+04</pdfrwt>
<pdfrwt beam="2">  1       -2 0.51170817E-01 0.14473321E+04</pdfrwt>
<totfact> 0.40338261E+01</totfact>
</mgrwt>
</event>
<event>
12    1  0.1477245E-007  0.1609098E+04  0.7818608E-02  0.8814978E-01
         -2   -1    0    0    0  501 -0.00000000000E+00  0.00000000000E+00  0.18175833983E+03  0.18175833983E+03  0.00000000000E+00 0. -1.
          2   -1    0    0  501    0  0.00000000000E+00 -0.00000000000E+00 -0.35613173436E+04  0.35613173436E+04  0.00000000000E+00 0.  1.
         23    2    1    2    0    0 -0.47062978575E+02  0.19501835643E+03 -0.23317526821E+04  0.23420876002E+04  0.89758972755E+02 0.  0.
        254    2    1    2    0    0  0.47062978575E+02 -0.19501835643E+03 -0.10478063217E+04  0.14009880833E+04  0.90808724162E+03 0.  0.
        -24    2    4    4    0    0  0.15218537809E+03 -0.44197278304E+03 -0.10128553024E+04  0.11181932288E+04  0.77329832797E+02 0.  0.
         24    2    4    4    0    0 -0.10512239952E+03  0.24695442661E+03 -0.34951019307E+02  0.28279485450E+03  0.81939906505E+02 0.  0.
         11    1    3    3    0    0 -0.61301794577E+02  0.86340314698E+02 -0.13766190024E+04  0.13806854956E+04  0.00000000000E+00 0. -1.
        -11    1    3    3    0    0  0.14238816002E+02  0.10867804173E+03 -0.95513367968E+03  0.96140210458E+03  0.00000000000E+00 0.  1.
          2    1    6    6  502    0 -0.98637582857E+01  0.12313850040E+03 -0.26521962566E+02  0.12634792641E+03  0.00000000000E+00 0. -1.
          3    1    5    5  503    0  0.12829525149E+03 -0.38843846733E+03 -0.93635114008E+03  0.10218109277E+04  0.00000000000E+00 0. -1.
         -4    1    5    5    0  503  0.23890126601E+02 -0.53534315712E+02 -0.76504162314E+02  0.96382301068E+02  0.00000000000E+00 0.  1.
         -1    1    6    6    0  502 -0.95258641232E+02  0.12381592621E+03 -0.84290567417E+01  0.15644692809E+03  0.00000000000E+00 0.  1.
<mgrwt>
<rscale>  0 0.16090980E+04</rscale>
<asrwt>0</asrwt>
<pdfrwt beam="1">  1        2 0.54789502E+00 0.16090980E+04</pdfrwt>
<pdfrwt beam="2">  1       -2 0.27962819E-01 0.16090980E+04</pdfrwt>
<totfact> 0.83440473E+00</totfact>
</mgrwt>
</event>
<event>
12    1  0.1477245E-007  0.1288686E+04  0.7818608E-02  0.9038586E-01
         -2   -1    0    0    0  501 -0.00000000000E+00  0.00000000000E+00  0.41272398269E+03  0.41272398269E+03  0.00000000000E+00 0.  1.
          2   -1    0    0  501    0  0.00000000000E+00 -0.00000000000E+00 -0.10059456428E+04  0.10059456428E+04  0.00000000000E+00 0. -1.
         23    2    1    2    0    0  0.19531305422E+01 -0.12253582088E+03 -0.48285197621E+03  0.50638375470E+03  0.90882528448E+02 0.  0.
        254    2    1    2    0    0 -0.19531305422E+01  0.12253582088E+03 -0.11036968390E+03  0.91228587079E+03  0.89725425650E+03 0.  0.
        -24    2    4    4    0    0 -0.13379773383E+03 -0.21592648549E+03  0.27043485626E+03  0.37988154338E+03  0.81540755486E+02 0.  0.
         24    2    4    4    0    0  0.13184460329E+03  0.33846230637E+03 -0.38080454015E+03  0.53240432741E+03  0.80638314700E+02 0.  0.
         13    1    3    3    0    0  0.35418137551E+02 -0.10033284469E+03 -0.27871926748E+03  0.29833798662E+03  0.00000000000E+00 0. -1.
        -13    1    3    3    0    0 -0.33465007009E+02 -0.22202976187E+02 -0.20413270873E+03  0.20804576809E+03  0.00000000000E+00 0.  1.
          2    1    6    6  502    0  0.75930574476E+02  0.91800472038E+02 -0.11906341813E+03  0.16843062769E+03  0.00000000000E+00 0. -1.
          3    1    5    5  503    0 -0.15127769937E+02 -0.74879045076E+02  0.44924362925E+02  0.88622340292E+02  0.00000000000E+00 0. -1.
         -2    1    5    5    0  503 -0.11866996390E+03 -0.14104744041E+03  0.22551049333E+03  0.29125920308E+03  0.00000000000E+00 0.  1.
         -1    1    6    6    0  502  0.55914028817E+02  0.24666183433E+03 -0.26174112203E+03  0.36397369973E+03  0.00000000000E+00 0.  1.
<mgrwt>
<rscale>  0 0.12886860E+04</rscale>
<asrwt>0</asrwt>
<pdfrwt beam="1">  1        2 0.15476087E+00 0.12886860E+04</pdfrwt>
<pdfrwt beam="2">  1       -2 0.63495997E-01 0.12886860E+04</pdfrwt>
<totfact> 0.56235310E+01</totfact>
</mgrwt>
</event>
<event>
12    1  0.1477245E-007  0.1258819E+04  0.7818608E-02  0.9062875E-01
         -1   -1    0    0    0  501 -0.00000000000E+00  0.00000000000E+00  0.97797765290E+03  0.97797765290E+03  0.00000000000E+00 0.  1.
          1   -1    0    0  501    0  0.00000000000E+00 -0.00000000000E+00 -0.40507715366E+03  0.40507715366E+03  0.00000000000E+00 0. -1.
         23    2    1    2    0    0  0.60918290571E+02  0.50012621479E+02  0.39408925925E+03  0.41278689098E+03  0.94203888822E+02 0.  0.
        254    2    1    2    0    0 -0.60918290571E+02 -0.50012621479E+02  0.17881123999E+03  0.97026791559E+03  0.95038627307E+03 0.  0.
        -24    2    4    4    0    0  0.22472981795E+03 -0.39530006938E+03 -0.44068363601E+02  0.46410860848E+03  0.81787186436E+02 0.  0.
         24    2    4    4    0    0 -0.28564810852E+03  0.34528744790E+03  0.22287960360E+03  0.50615930711E+03  0.75522598564E+02 0.  0.
         11    1    3    3    0    0  0.32185260981E+02  0.75797821562E+02  0.23259169063E+03  0.24673892139E+03  0.00000000000E+00 0. -1.
        -11    1    3    3    0    0  0.28733029591E+02 -0.25785200082E+02  0.16149756862E+03  0.16604796959E+03  0.00000000000E+00 0.  1.
          2    1    6    6  502    0 -0.22070618371E+03  0.23896357975E+03  0.19227082052E+03  0.37786622024E+03  0.00000000000E+00 0. -1.
          1    1    5    5  503    0  0.17368880883E+03 -0.30451544797E+03  0.11440625534E+01  0.35056920750E+03  0.00000000000E+00 0. -1.
         -4    1    5    5    0  503  0.51041009115E+02 -0.90784621412E+02 -0.45212426155E+02  0.11353940098E+03  0.00000000000E+00 0.  1.
         -1    1    6    6    0  502 -0.64941924809E+02  0.10632386815E+03  0.30608783073E+02  0.12829308687E+03  0.00000000000E+00 0.  1.
<mgrwt>
<rscale>  0 0.12588191E+04</rscale>
<asrwt>0</asrwt>
<pdfrwt beam="1">  1        1 0.62319562E-01 0.12588191E+04</pdfrwt>
<pdfrwt beam="2">  1       -1 0.15045810E+00 0.12588191E+04</pdfrwt>
<totfact> 0.20119887E+01</totfact>
</mgrwt>
</event>
<event>
12    1  0.1751319E-007  0.1802448E+04  0.7818608E-02  0.8704999E-01
         -1   -1    0    0    0  501 -0.00000000000E+00  0.00000000000E+00  0.86739432332E+03  0.86739432332E+03  0.00000000000E+00 0.  1.
          1   -1    0    0  501    0  0.00000000000E+00 -0.00000000000E+00 -0.93637330394E+03  0.93637330394E+03  0.00000000000E+00 0. -1.
         23    2    1    2    0    0 -0.28458952444E+03 -0.20439862384E+03  0.53944001088E+03  0.64988983125E+03  0.92689117865E+02 0.  0.
        254    2    1    2    0    0  0.28458952444E+03  0.20439862384E+03 -0.60841899150E+03  0.11538777960E+04  0.91569116193E+03 0.  0.
        -24    2    4    4    0    0  0.10866096730E+03  0.48396265256E+03 -0.63854615348E+03  0.81254985397E+03  0.80430219328E+02 0.  0.
         24    2    4    4    0    0  0.17592855714E+03 -0.27956402871E+03  0.30127161976E+02  0.34132794204E+03  0.80561869125E+02 0.  0.
         13    1    3    3    0    0 -0.11013470774E+02 -0.18878215482E+02  0.86146983598E+02  0.88876241714E+02  0.00000000000E+00 0. -1.
        -13    1    3    3    0    0 -0.27357605366E+03 -0.18552040836E+03  0.45329302728E+03  0.56101358953E+03  0.00000000000E+00 0.  1.
          2    1    6    6  502    0  0.18139348511E+03 -0.25425166622E+03  0.37068947427E+02  0.31451806479E+03  0.00000000000E+00 0. -1.
          3    1    5    5  503    0  0.10821166166E+03  0.41773831700E+03 -0.58740782130E+03  0.72887791415E+03  0.00000000000E+00 0. -1.
         -4    1    5    5    0  503  0.44930563684E+00  0.66224335554E+02 -0.51138332175E+02  0.83671939817E+02  0.00000000000E+00 0.  1.
         -1    1    6    6    0  502 -0.54649279674E+01 -0.25312362493E+02 -0.69417854509E+01  0.26809877246E+02  0.00000000000E+00 0.  1.
<mgrwt>
<rscale>  0 0.18024482E+04</rscale>
<asrwt>0</asrwt>
<pdfrwt beam="1">  1        1 0.14405743E+00 0.18024482E+04</pdfrwt>
<pdfrwt beam="2">  1       -1 0.13344528E+00 0.18024482E+04</pdfrwt>
<totfact> 0.76104576E+00</totfact>
</mgrwt>
</event>
<event>
12    1  0.1477245E-007  0.1998621E+04  0.7818608E-02  0.8607266E-01
          2   -1    0    0  501    0  0.00000000000E+00  0.00000000000E+00  0.17909182675E+04  0.17909182675E+04  0.00000000000E+00 0. -1.
         -2   -1    0    0    0  501 -0.00000000000E+00 -0.00000000000E+00 -0.55760300736E+03  0.55760300736E+03  0.00000000000E+00 0.  1.
         23    2    1    2    0    0 -0.24898965312E+03  0.22327784275E+03  0.13359806955E+04  0.13801767598E+04  0.90524180426E+02 0.  0.
        254    2    1    2    0    0  0.24898965312E+03 -0.22327784275E+03 -0.10266543529E+03  0.96834451508E+03  0.90294078757E+03 0.  0.
        -24    2    4    4    0    0  0.25404449200E+03  0.19449287929E+03 -0.34620589320E+03  0.47832268919E+03  0.81043139713E+02 0.  0.
         24    2    4    4    0    0 -0.50548388795E+01 -0.41777072203E+03  0.24354045791E+03  0.49002182590E+03  0.79066476033E+02 0.  0.
         11    1    3    3    0    0 -0.20463410842E+03  0.22112364551E+03  0.11932366911E+04  0.12306846005E+04  0.00000000000E+00 0. -1.
        -11    1    3    3    0    0 -0.44355544705E+02  0.21541972376E+01  0.14274400436E+03  0.14949215930E+03  0.00000000000E+00 0.  1.
          4    1    6    6  502    0 -0.22057491141E+02 -0.16135754313E+03  0.13305509396E+03  0.21030085037E+03  0.00000000000E+00 0. -1.
          1    1    5    5  503    0 -0.17807088337E+01 -0.17447727565E+01  0.24090431880E+01  0.34667917451E+01  0.00000000000E+00 0. -1.
         -2    1    5    5    0  503  0.25582520083E+03  0.19623765204E+03 -0.34861493639E+03  0.47485589744E+03  0.00000000000E+00 0.  1.
         -3    1    6    6    0  502  0.17002652261E+02 -0.25641317891E+03  0.11048536395E+03  0.27972097552E+03  0.00000000000E+00 0.  1.
<mgrwt>
<rscale>  0 0.19986209E+04</rscale>
<asrwt>0</asrwt>
<pdfrwt beam="1">  1        2 0.27552588E+00 0.19986209E+04</pdfrwt>
<pdfrwt beam="2">  1       -2 0.85785079E-01 0.19986209E+04</pdfrwt>
<totfact> 0.95698681E+00</totfact>
</mgrwt>
</event>
<event>
12    1  0.1477245E-007  0.1552691E+04  0.7818608E-02  0.8850151E-01
         -2   -1    0    0    0  501 -0.00000000000E+00  0.00000000000E+00  0.28331755250E+03  0.28331755250E+03  0.00000000000E+00 0. -1.
          2   -1    0    0  501    0  0.00000000000E+00 -0.00000000000E+00 -0.21273375739E+04  0.21273375739E+04  0.00000000000E+00 0.  1.
         23    2    1    2    0    0  0.12632773566E+03  0.41710298216E+03 -0.21868519300E+03  0.49623361999E+03  0.92146608449E+02 0.  0.
        254    2    1    2    0    0 -0.12632773566E+03 -0.41710298216E+03 -0.16253348284E+04  0.19144215065E+04  0.91288707148E+03 0.  0.
        -24    2    4    4    0    0 -0.24601503450E+03 -0.55895746260E+03 -0.15949623628E+04  0.17097614383E+04  0.80139845128E+02 0.  0.
         24    2    4    4    0    0  0.11968729884E+03  0.14185448044E+03 -0.30372465599E+02  0.20466006816E+03  0.80718732062E+02 0.  0.
         11    1    3    3    0    0  0.10663214655E+03  0.33442882819E+03 -0.13249807149E+03  0.37519167735E+03  0.00000000000E+00 0. -1.
        -11    1    3    3    0    0  0.19695589105E+02  0.82674153976E+02 -0.86187121509E+02  0.12104194265E+03  0.00000000000E+00 0.  1.
          4    1    6    6  502    0  0.73047658388E+02  0.30147183347E+02 -0.27171519376E+02  0.83564971877E+02  0.00000000000E+00 0. -1.
          3    1    5    5  503    0 -0.16732948388E+03 -0.28090739795E+03 -0.84581390537E+03  0.90681270663E+03  0.00000000000E+00 0. -1.
         -4    1    5    5    0  503 -0.78685550613E+02 -0.27805006465E+03 -0.74914845748E+03  0.80294873166E+03  0.00000000000E+00 0.  1.
         -3    1    6    6    0  502  0.46639640453E+02  0.11170729709E+03 -0.32009462229E+01  0.12109509628E+03  0.00000000000E+00 0.  1.
<mgrwt>
<rscale>  0 0.15526907E+04</rscale>
<asrwt>0</asrwt>
<pdfrwt beam="1">  1        2 0.32728271E+00 0.15526907E+04</pdfrwt>
<pdfrwt beam="2">  1       -2 0.43587315E-01 0.15526907E+04</pdfrwt>
<totfact> 0.27264811E+01</totfact>
</mgrwt>
</event>
<event>
12    1  0.1477245E-007  0.2500062E+04  0.7818608E-02  0.8402964E-01
          1   -1    0    0  501    0  0.00000000000E+00  0.00000000000E+00  0.81539227719E+03  0.81539227719E+03  0.00000000000E+00 0. -1.
         -1   -1    0    0    0  501 -0.00000000000E+00 -0.00000000000E+00 -0.19163501314E+04  0.19163501314E+04  0.00000000000E+00 0.  1.
         23    2    1    2    0    0 -0.87398116528E+03  0.35310607715E+03 -0.10652815462E+04  0.14256059593E+04  0.94871490562E+02 0.  0.
        254    2    1    2    0    0  0.87398116528E+03 -0.35310607715E+03 -0.35676308059E+02  0.13061364493E+04  0.90343380840E+03 0.  0.
        -24    2    4    4    0    0  0.54386585849E+03  0.84304344223E+02 -0.36172115255E+03  0.66340066982E+03  0.79755639478E+02 0.  0.
         24    2    4    4    0    0  0.33011530679E+03 -0.43741042137E+03  0.32604484449E+03  0.64273577944E+03  0.80622881720E+02 0.  0.
         13    1    3    3    0    0 -0.73063636979E+03  0.33184388106E+03 -0.90319425332E+03  0.12081844749E+04  0.00000000000E+00 0.  1.
        -13    1    3    3    0    0 -0.14334479549E+03  0.21262196089E+02 -0.16208729286E+03  0.21742148441E+03  0.00000000000E+00 0. -1.
          2    1    6    6  502    0  0.23995401317E+02 -0.65429795669E+02  0.22059401851E+02  0.73098937446E+02  0.00000000000E+00 0. -1.
          3    1    5    5  503    0  0.19281871291E+02 -0.93088602826E+01 -0.25616070665E+02  0.33386052725E+02  0.00000000000E+00 0. -1.
         -4    1    5    5    0  503  0.52458398720E+03  0.93613204506E+02 -0.33610508189E+03  0.63001461710E+03  0.00000000000E+00 0.  1.
         -1    1    6    6    0  502  0.30611990547E+03 -0.37198062570E+03  0.30398544264E+03  0.56963684200E+03  0.00000000000E+00 0.  1.
<mgrwt>
<rscale>  0 0.25000617E+04</rscale>
<asrwt>0</asrwt>
<pdfrwt beam="1">  1        1 0.12544497E+00 0.25000617E+04</pdfrwt>
<pdfrwt beam="2">  1       -1 0.29482309E+00 0.25000617E+04</pdfrwt>
<totfact> 0.67959295E-01</totfact>
</mgrwt>
</event>
<event>
12    1  0.1477245E-007  0.1688547E+04  0.7818608E-02  0.8767923E-01
          2   -1    0    0  501    0  0.00000000000E+00  0.00000000000E+00  0.12807861825E+04  0.12807861825E+04  0.00000000000E+00 0.  1.
         -2   -1    0    0    0  501 -0.00000000000E+00 -0.00000000000E+00 -0.55653172089E+03  0.55653172089E+03  0.00000000000E+00 0. -1.
         23    2    1    2    0    0  0.54051891120E+03 -0.22530688390E+03  0.12091748388E+03  0.60478016849E+03  0.90631832090E+02 0.  0.
        254    2    1    2    0    0 -0.54051891120E+03  0.22530688390E+03  0.60333697773E+03  0.12325377349E+04  0.90122687152E+03 0.  0.
        -24    2    4    4    0    0 -0.28368080665E+03 -0.14614015918E+03  0.69142630113E+03  0.76575994041E+03  0.80537011686E+02 0.  0.
         24    2    4    4    0    0 -0.25683810456E+03  0.37144704309E+03 -0.88089323401E+02  0.46677779449E+03  0.78632453624E+02 0.  0.
         13    1    3    3    0    0  0.47879635075E+03 -0.22826879626E+03  0.10189728124E+03  0.54012558240E+03  0.00000000000E+00 0. -1.
        -13    1    3    3    0    0  0.61722560451E+02  0.29619123619E+01  0.19020202649E+02  0.64654586089E+02  0.00000000000E+00 0.  1.
          2    1    6    6  502    0 -0.24572157883E+03  0.31413695893E+03 -0.65429989163E+02  0.40415616629E+03  0.00000000000E+00 0. -1.
          1    1    5    5  503    0 -0.17038274167E+03 -0.11445317648E+03  0.36461406655E+03  0.41841752567E+03  0.00000000000E+00 0. -1.
         -2    1    5    5    0  503 -0.11329806498E+03 -0.31686982701E+02  0.32681223459E+03  0.34734241474E+03  0.00000000000E+00 0.  1.
         -1    1    6    6    0  502 -0.11116525724E+02  0.57310084160E+02 -0.22659334238E+02  0.62621628203E+02  0.00000000000E+00 0.  1.
<mgrwt>
<rscale>  0 0.16885475E+04</rscale>
<asrwt>0</asrwt>
<pdfrwt beam="1">  1        2 0.19704403E+00 0.16885475E+04</pdfrwt>
<pdfrwt beam="2">  1       -2 0.85620265E-01 0.16885475E+04</pdfrwt>
<totfact> 0.19150154E+01</totfact>
</mgrwt>
</event>
<event>
12    1  0.1477245E-007  0.1227932E+04  0.7818608E-02  0.9088753E-01
         -1   -1    0    0    0  501 -0.00000000000E+00  0.00000000000E+00  0.58419989494E+03  0.58419989494E+03  0.00000000000E+00 0.  1.
          1   -1    0    0  501    0  0.00000000000E+00 -0.00000000000E+00 -0.64524907355E+03  0.64524907355E+03  0.00000000000E+00 0. -1.
         23    2    1    2    0    0 -0.10914534205E+03 -0.16640844675E+03  0.19474032097E+03  0.29300958975E+03  0.91248836898E+02 0.  0.
        254    2    1    2    0    0  0.10914534205E+03  0.16640844675E+03 -0.25578949958E+03  0.93643937873E+03  0.87857040987E+03 0.  0.
        -24    2    4    4    0    0 -0.36322624719E+03  0.18718620556E+03 -0.16803996123E+03  0.44893231540E+03  0.79566406507E+02 0.  0.
         24    2    4    4    0    0  0.47237158924E+03 -0.20777758810E+02 -0.87749538349E+02  0.48750706333E+03  0.79978257895E+02 0.  0.
         13    1    3    3    0    0 -0.87037380506E+02 -0.13954042911E+03  0.19876664533E+03  0.25798297668E+03  0.00000000000E+00 0.  1.
        -13    1    3    3    0    0 -0.22107961545E+02 -0.26868017645E+02 -0.40263243575E+01  0.35026613077E+02  0.00000000000E+00 0. -1.
          4    1    6    6  502    0  0.47372957028E+03 -0.15873198103E+02 -0.88971420301E+02  0.48227334345E+03  0.00000000000E+00 0. -1.
          3    1    5    5  503    0 -0.29638896050E+03  0.15030358830E+03 -0.16848641814E+03  0.37259261622E+03  0.00000000000E+00 0. -1.
         -4    1    5    5    0  503 -0.66837286688E+02  0.36882617259E+02  0.44645691222E+00  0.76339699184E+02  0.00000000000E+00 0.  1.
         -3    1    6    6    0  502 -0.13579810420E+01 -0.49045607069E+01  0.12218819522E+01  0.52337198762E+01  0.00000000000E+00 0.  1.
<mgrwt>
<rscale>  0 0.12279323E+04</rscale>
<asrwt>0</asrwt>
<pdfrwt beam="1">  1        1 0.99269087E-01 0.12279323E+04</pdfrwt>
<pdfrwt beam="2">  1       -1 0.89876908E-01 0.12279323E+04</pdfrwt>
<totfact> 0.36867691E+01</totfact>
</mgrwt>
</event>
<event>
12    1  0.1477245E-007  0.2743335E+04  0.7818608E-02  0.8321080E-01
         -1   -1    0    0    0  501 -0.00000000000E+00  0.00000000000E+00  0.65145520680E+03  0.65145520680E+03  0.00000000000E+00 0.  1.
          1   -1    0    0  501    0  0.00000000000E+00 -0.00000000000E+00 -0.28881057518E+04  0.28881057518E+04  0.00000000000E+00 0. -1.
         23    2    1    2    0    0  0.21005094228E+03  0.73620999541E+03  0.23021833697E+03  0.80455515327E+03  0.90454166799E+02 0.  0.
        254    2    1    2    0    0 -0.21005094228E+03 -0.73620999541E+03 -0.24668688820E+04  0.27350058054E+04  0.89927088173E+03 0.  0.
        -24    2    4    4    0    0 -0.51829603289E+03 -0.67144651951E+03 -0.18822668323E+04  0.20663052373E+04  0.84957044829E+02 0.  0.
         24    2    4    4    0    0  0.30824509061E+03 -0.64763475894E+02 -0.58460204965E+03  0.66870056802E+03  0.78686399836E+02 0.  0.
         13    1    3    3    0    0 -0.70036231390E+01  0.60723635024E+02  0.12416835856E+02  0.62374581364E+02  0.00000000000E+00 0. -1.
        -13    1    3    3    0    0  0.21705456542E+03  0.67548636038E+03  0.21780150111E+03  0.74218057191E+03  0.00000000000E+00 0.  1.
          2    1    6    6  502    0  0.29201600327E+03 -0.78808113289E+02 -0.53351197175E+03  0.61328548726E+03  0.00000000000E+00 0. -1.
          3    1    5    5  503    0 -0.40515602723E+03 -0.57428553429E+03 -0.15791411901E+04  0.17284797308E+04  0.00000000000E+00 0. -1.
         -4    1    5    5    0  503 -0.11314000566E+03 -0.97160985227E+02 -0.30312564221E+03  0.33782550658E+03  0.00000000000E+00 0.  1.
         -1    1    6    6    0  502  0.16229087339E+02  0.14044637395E+02 -0.51090077901E+02  0.55415080757E+02  0.00000000000E+00 0.  1.
<mgrwt>
<rscale>  0 0.27433349E+04</rscale>
<asrwt>0</asrwt>
<pdfrwt beam="1">  1        1 0.44432396E+00 0.27433349E+04</pdfrwt>
<pdfrwt beam="2">  1       -1 0.10022388E+00 0.27433349E+04</pdfrwt>
<totfact> 0.59409012E-01</totfact>
</mgrwt>
</event>
<event>
12    1  0.1477245E-007  0.1419603E+04  0.7818608E-02  0.8939750E-01
          2   -1    0    0  501    0  0.00000000000E+00  0.00000000000E+00  0.15661833117E+04  0.15661833117E+04  0.00000000000E+00 0.  1.
         -2   -1    0    0    0  501 -0.00000000000E+00 -0.00000000000E+00 -0.32168530105E+03  0.32168530105E+03  0.00000000000E+00 0. -1.
         23    2    1    2    0    0 -0.17864828276E+03 -0.30477904970E+03  0.76315370955E+02  0.37360772930E+03  0.94621464153E+02 0.  0.
        254    2    1    2    0    0  0.17864828276E+03  0.30477904970E+03  0.11681826397E+04  0.15142608835E+04  0.89639827388E+03 0.  0.
        -24    2    4    4    0    0  0.41083876760E+03  0.23490833696E+03  0.11631531462E+04  0.12579104511E+04  0.73776972561E+02 0.  0.
         24    2    4    4    0    0 -0.23219048484E+03  0.69870712746E+02  0.50294935479E+01  0.25635043243E+03  0.83041619988E+02 0.  0.
         13    1    3    3    0    0 -0.60690594276E+02 -0.55080068828E+02  0.50448276437E+02  0.96240276450E+02  0.00000000000E+00 0.  1.
        -13    1    3    3    0    0 -0.11795768849E+03 -0.24969898088E+03  0.25867094518E+02  0.27736745285E+03  0.00000000000E+00 0. -1.
          2    1    6    6  502    0 -0.64750046087E+02  0.49603426789E+02 -0.24404078323E+02  0.85138871594E+02  0.00000000000E+00 0. -1.
          1    1    5    5  503    0  0.33706979149E+03  0.18485397392E+03  0.86197562690E+03  0.94381619894E+03  0.00000000000E+00 0. -1.
         -2    1    5    5    0  503  0.73768976107E+02  0.50054363034E+02  0.30117751927E+03  0.31409425211E+03  0.00000000000E+00 0.  1.
         -1    1    6    6    0  502 -0.16744043875E+03  0.20267285957E+02  0.29433571871E+02  0.17121156083E+03  0.00000000000E+00 0.  1.
<mgrwt>
<rscale>  0 0.14196030E+04</rscale>
<asrwt>0</asrwt>
<pdfrwt beam="1">  1        2 0.24095127E+00 0.14196030E+04</pdfrwt>
<pdfrwt beam="2">  1       -2 0.49490047E-01 0.14196030E+04</pdfrwt>
<totfact> 0.43744500E+01</totfact>
</mgrwt>
</event>
<event>
12    1  0.1477245E-007  0.1663146E+04  0.7818608E-02  0.8782667E-01
          2   -1    0    0  501    0  0.00000000000E+00  0.00000000000E+00  0.19054981189E+04  0.19054981189E+04  0.00000000000E+00 0. -1.
         -2   -1    0    0    0  501 -0.00000000000E+00 -0.00000000000E+00 -0.36290430142E+03  0.36290430142E+03  0.00000000000E+00 0.  1.
         23    2    1    2    0    0 -0.12330828599E+03 -0.36280351502E+03  0.11425451764E+04  0.12084463569E+04  0.90009963209E+02 0.  0.
        254    2    1    2    0    0  0.12330828599E+03  0.36280351502E+03  0.40004864107E+03  0.10599560634E+04  0.90367948812E+03 0.  0.
        -24    2    4    4    0    0 -0.13710065234E+03  0.58301045009E+03  0.36868249305E+03  0.70786066131E+03  0.80263075992E+02 0.  0.
         24    2    4    4    0    0  0.26040893833E+03 -0.22020693506E+03  0.31366148020E+02  0.35209540211E+03  0.81752232592E+02 0.  0.
         11    1    3    3    0    0 -0.43949869572E+02 -0.64935633684E+02  0.15182494710E+03  0.17087727210E+03  0.00000000000E+00 0.  1.
        -11    1    3    3    0    0 -0.79358416416E+02 -0.29786788134E+03  0.99072022930E+03  0.10375690848E+04  0.00000000000E+00 0. -1.
          2    1    6    6  502    0  0.20641506088E+03 -0.21016361213E+03  0.36978270770E+02  0.29688939646E+03  0.00000000000E+00 0. -1.
          3    1    5    5  503    0 -0.64473843662E+02  0.36311392251E+03  0.26500348994E+03  0.45413153041E+03  0.00000000000E+00 0. -1.
         -4    1    5    5    0  503 -0.72626808681E+02  0.21989652758E+03  0.10367900311E+03  0.25372913090E+03  0.00000000000E+00 0.  1.
         -1    1    6    6    0  502  0.53993877455E+02 -0.10043322927E+02 -0.56121227492E+01  0.55206005649E+02  0.00000000000E+00 0.  1.
<mgrwt>
<rscale>  0 0.16631458E+04</rscale>
<asrwt>0</asrwt>
<pdfrwt beam="1">  1        2 0.29315355E+00 0.16631458E+04</pdfrwt>
<pdfrwt beam="2">  1       -2 0.55831432E-01 0.16631458E+04</pdfrwt>
<totfact> 0.21682191E+01</totfact>
</mgrwt>
</event>
<event>
12    1  0.1626506E-007  0.2888319E+04  0.7818608E-02  0.8276361E-01
          2   -1    0    0  501    0  0.00000000000E+00  0.00000000000E+00  0.14807457392E+04  0.14807457392E+04  0.00000000000E+00 0. -1.
         -2   -1    0    0    0  501 -0.00000000000E+00 -0.00000000000E+00 -0.14084775054E+04  0.14084775054E+04  0.00000000000E+00 0.  1.
         23    2    1    2    0    0  0.66092265195E+03 -0.10670368923E+04  0.37365381719E+03  0.13125761608E+04  0.88614453558E+02 0.  0.
        254    2    1    2    0    0 -0.66092265195E+03  0.10670368923E+04 -0.30138558345E+03  0.15766470838E+04  0.90531556673E+03 0.  0.
        -24    2    4    4    0    0 -0.85250053241E+03  0.67029384863E+03 -0.12068072995E+03  0.10940455973E+04  0.79504270739E+02 0.  0.
         24    2    4    4    0    0  0.19157788046E+03  0.39674304370E+03 -0.18070485350E+03  0.48260148649E+03  0.78376167794E+02 0.  0.
         11    1    3    3    0    0  0.10638530109E+01 -0.74879334738E+01  0.98489854926E+01  0.12417868020E+02  0.00000000000E+00 0.  1.
        -11    1    3    3    0    0  0.65985879894E+03 -0.10595489589E+04  0.36380483170E+03  0.13001582928E+04  0.00000000000E+00 0. -1.
          2    1    6    6  502    0  0.86490250865E+01  0.58963635517E+02 -0.46884635093E+02  0.75826677074E+02  0.00000000000E+00 0. -1.
          1    1    5    5  503    0 -0.60836007025E+02  0.44534172049E+02  0.11665399892E+02  0.76291505329E+02  0.00000000000E+00 0. -1.
         -2    1    5    5    0  503 -0.79166452538E+03  0.62575967658E+03 -0.13234612985E+03  0.10177540919E+04  0.00000000000E+00 0.  1.
         -1    1    6    6    0  502  0.18292885537E+03  0.33777940818E+03 -0.13382021841E+03  0.40677480941E+03  0.00000000000E+00 0.  1.
<mgrwt>
<rscale>  0 0.28883193E+04</rscale>
<asrwt>0</asrwt>
<pdfrwt beam="1">  1        2 0.22780704E+00 0.28883193E+04</pdfrwt>
<pdfrwt beam="2">  1       -2 0.21668885E+00 0.28883193E+04</pdfrwt>
<totfact> 0.11666449E+00</totfact>
</mgrwt>
</event>
<event>
12    1  0.1477245E-007  0.1730780E+04  0.7818608E-02  0.8744002E-01
         -2   -1    0    0    0  501 -0.00000000000E+00  0.00000000000E+00  0.89007045478E+03  0.89007045478E+03  0.00000000000E+00 0. -1.
          2   -1    0    0  501    0  0.00000000000E+00 -0.00000000000E+00 -0.84139377904E+03  0.84139377904E+03  0.00000000000E+00 0.  1.
         23    2    1    2    0    0  0.31073860172E+03 -0.50872204957E+03 -0.15759884332E+03  0.62316210183E+03  0.90205362508E+02 0.  0.
        254    2    1    2    0    0 -0.31073860172E+03  0.50872204957E+03  0.20627551906E+03  0.11083021320E+04  0.91127790695E+03 0.  0.
        -24    2    4    4    0    0 -0.21089647691E+03 -0.11092193765E+02 -0.29668509855E+03  0.37389665901E+03  0.84713063809E+02 0.  0.
         24    2    4    4    0    0 -0.99842124810E+02  0.51981424333E+03  0.50296061761E+03  0.73440547298E+03  0.78782729188E+02 0.  0.
         13    1    3    3    0    0  0.26866614081E+03 -0.40555718664E+03 -0.96012177732E+02  0.49585931990E+03  0.00000000000E+00 0.  1.
        -13    1    3    3    0    0  0.42072460909E+02 -0.10316486292E+03 -0.61586665591E+02  0.12730278193E+03  0.00000000000E+00 0. -1.
          4    1    6    6  502    0  0.13249933308E+02  0.40194906703E+02  0.42584977731E+02  0.60038917261E+02  0.00000000000E+00 0. -1.
          1    1    5    5  503    0 -0.47532296710E+02  0.22523636928E+02 -0.33655785987E+02  0.62444738621E+02  0.00000000000E+00 0. -1.
         -2    1    5    5    0  503 -0.16336418020E+03 -0.33615830692E+02 -0.26302931256E+03  0.31145192039E+03  0.00000000000E+00 0.  1.
         -3    1    6    6    0  502 -0.11309205812E+03  0.47961933663E+03  0.46037563988E+03  0.67436655572E+03  0.00000000000E+00 0.  1.
<mgrwt>
<rscale>  0 0.17307799E+04</rscale>
<asrwt>0</asrwt>
<pdfrwt beam="1">  1        2 0.12944520E+00 0.17307799E+04</pdfrwt>
<pdfrwt beam="2">  1       -2 0.13693392E+00 0.17307799E+04</pdfrwt>
<totfact> 0.11618028E+01</totfact>
</mgrwt>
</event>
<event>
12    1  0.1477245E-007  0.2789946E+04  0.7818608E-02  0.8306397E-01
          1   -1    0    0  501    0  0.00000000000E+00  0.00000000000E+00  0.14633450333E+04  0.14633450333E+04  0.00000000000E+00 0. -1.
         -1   -1    0    0    0  501 -0.00000000000E+00 -0.00000000000E+00 -0.13297955174E+04  0.13297955174E+04  0.00000000000E+00 0.  1.
         23    2    1    2    0    0  0.11206873345E+02  0.11200610831E+04  0.61195294391E+03  0.12796912089E+04  0.91982393503E+02 0.  0.
        254    2    1    2    0    0 -0.11206873345E+02 -0.11200610831E+04 -0.47840342800E+03  0.15134493419E+04  0.89832992087E+03 0.  0.
        -24    2    4    4    0    0 -0.31627849605E+03 -0.99932245147E+03 -0.18718684086E+03  0.10677073042E+04  0.79262379981E+02 0.  0.
         24    2    4    4    0    0  0.30507162270E+03 -0.12073863161E+03 -0.29121658713E+03  0.44574203774E+03  0.78945243342E+02 0.  0.
         13    1    3    3    0    0 -0.18193527941E+01  0.47613180793E+03  0.31164271517E+03  0.56905710652E+03  0.00000000000E+00 0. -1.
        -13    1    3    3    0    0  0.13026226139E+02  0.64392927514E+03  0.30031022874E+03  0.71063410236E+03  0.00000000000E+00 0.  1.
          2    1    6    6  502    0  0.74678828653E+02  0.30258166590E+01 -0.49731726284E+02  0.89773757940E+02  0.00000000000E+00 0. -1.
          1    1    5    5  503    0 -0.27859710207E+02 -0.44464450156E+02  0.17686535287E+01  0.52501227755E+02  0.00000000000E+00 0. -1.
         -2    1    5    5    0  503 -0.28841878584E+03 -0.95485800131E+03 -0.18895549439E+03  0.10152060764E+04  0.00000000000E+00 0.  1.
         -1    1    6    6    0  502  0.23039279405E+03 -0.12376444826E+03 -0.24148486085E+03  0.35596827980E+03  0.00000000000E+00 0.  1.
<mgrwt>
<rscale>  0 0.27899460E+04</rscale>
<asrwt>0</asrwt>
<pdfrwt beam="1">  1        1 0.22513000E+00 0.27899460E+04</pdfrwt>
<pdfrwt beam="2">  1       -1 0.20458393E+00 0.27899460E+04</pdfrwt>
<totfact> 0.84136060E-01</totfact>
</mgrwt>
</event>
<event>
12    1  0.1477245E-007  0.2254425E+04  0.7818608E-02  0.8496111E-01
          2   -1    0    0  501    0  0.00000000000E+00  0.00000000000E+00  0.15859071964E+04  0.15859071964E+04  0.00000000000E+00 0. -1.
         -2   -1    0    0    0  501 -0.00000000000E+00 -0.00000000000E+00 -0.80118652555E+03  0.80118652555E+03  0.00000000000E+00 0.  1.
         23    2    1    2    0    0  0.79611633044E+02  0.61806049314E+02 -0.65980363765E+03  0.67281827982E+03  0.84767904019E+02 0.  0.
        254    2    1    2    0    0 -0.79611633044E+02 -0.61806049314E+02  0.14445243085E+04  0.17142754422E+04  0.91756842459E+03 0.  0.
        -24    2    4    4    0    0 -0.25713613192E+03  0.19772100012E+03  0.13303289887E+04  0.13716630368E+04  0.80446778368E+02 0.  0.
         24    2    4    4    0    0  0.17752449887E+03 -0.25952704943E+03  0.11419531984E+03  0.34261240536E+03  0.73982782766E+02 0.  0.
         11    1    3    3    0    0  0.97546650356E+02  0.55172239310E+02 -0.54101022778E+03  0.55249560320E+03  0.00000000000E+00 0.  1.
        -11    1    3    3    0    0 -0.17935017312E+02  0.66338100034E+01 -0.11879340987E+03  0.12032267662E+03  0.00000000000E+00 0. -1.
          4    1    6    6  502    0  0.11474390977E+03 -0.11880141365E+03  0.32984727087E+02  0.16842782709E+03  0.00000000000E+00 0. -1.
          3    1    5    5  503    0 -0.14511724216E+03  0.13670140410E+03  0.66605087757E+03  0.69524819983E+03  0.00000000000E+00 0. -1.
         -4    1    5    5    0  503 -0.11201888976E+03  0.61019596021E+02  0.66427811112E+03  0.67641483697E+03  0.00000000000E+00 0.  1.
         -3    1    6    6    0  502  0.62780589100E+02 -0.14072563578E+03  0.81210592748E+02  0.17418457827E+03  0.00000000000E+00 0.  1.
<mgrwt>
<rscale>  0 0.22544245E+04</rscale>
<asrwt>0</asrwt>
<pdfrwt beam="1">  1        2 0.24398572E+00 0.22544245E+04</pdfrwt>
<pdfrwt beam="2">  1       -2 0.12325947E+00 0.22544245E+04</pdfrwt>
<totfact> 0.51332405E+00</totfact>
</mgrwt>
</event>
<event>
12    1  0.1477245E-007  0.1343610E+04  0.7818608E-02  0.8995679E-01
          2   -1    0    0  501    0  0.00000000000E+00  0.00000000000E+00  0.19181064735E+04  0.19181064735E+04  0.00000000000E+00 0. -1.
         -2   -1    0    0    0  501 -0.00000000000E+00 -0.00000000000E+00 -0.23529573787E+03  0.23529573787E+03  0.00000000000E+00 0.  1.
         23    2    1    2    0    0  0.32896521790E+03  0.70730898800E+02  0.55529013242E+03  0.65640270598E+03  0.96417875016E+02 0.  0.
        254    2    1    2    0    0 -0.32896521790E+03 -0.70730898800E+02  0.11275206032E+04  0.14969995054E+04  0.92546411806E+03 0.  0.
        -24    2    4    4    0    0  0.26164567172E+03 -0.33482730109E+02  0.75010838482E+02  0.28696256661E+03  0.84506437654E+02 0.  0.
         24    2    4    4    0    0 -0.59061088962E+03 -0.37248168690E+02  0.10525097647E+04  0.12100369388E+04  0.78765089529E+02 0.  0.
         11    1    3    3    0    0  0.26625401343E+03  0.94742424322E+02  0.43834079750E+03  0.52154576154E+03  0.00000000000E+00 0.  1.
        -11    1    3    3    0    0  0.62711204479E+02 -0.24011525522E+02  0.11694933492E+03  0.13485694444E+03  0.00000000000E+00 0. -1.
          2    1    6    6  502    0 -0.56511602376E+03 -0.38243579687E+02  0.96565829748E+03  0.11195153591E+04  0.00000000000E+00 0. -1.
          3    1    5    5  503    0  0.90867953593E+02  0.26390801047E+02  0.39529935134E+02  0.10254791632E+03  0.00000000000E+00 0. -1.
         -4    1    5    5    0  503  0.17077771812E+03 -0.59873531157E+02  0.35480903348E+02  0.18441465029E+03  0.00000000000E+00 0.  1.
         -1    1    6    6    0  502 -0.25494865856E+02  0.99541099652E+00  0.86851467244E+02  0.90521579695E+02  0.00000000000E+00 0.  1.
<mgrwt>
<rscale>  0 0.13436105E+04</rscale>
<asrwt>0</asrwt>
<pdfrwt beam="1">  1        2 0.29509329E+00 0.13436105E+04</pdfrwt>
<pdfrwt beam="2">  1       -2 0.36199346E-01 0.13436105E+04</pdfrwt>
<totfact> 0.52086347E+01</totfact>
</mgrwt>
</event>
<event>
12    1  0.1477245E-007  0.2059918E+04  0.7818608E-02  0.8579108E-01
          1   -1    0    0  501    0  0.00000000000E+00  0.00000000000E+00  0.16435878353E+04  0.16435878353E+04  0.00000000000E+00 0. -1.
         -1   -1    0    0    0  501 -0.00000000000E+00 -0.00000000000E+00 -0.64542683031E+03  0.64542683031E+03  0.00000000000E+00 0.  1.
         23    2    1    2    0    0 -0.48564048857E+03 -0.57816398297E+03  0.78880820491E+03  0.10960978348E+04  0.95350951531E+02 0.  0.
        254    2    1    2    0    0  0.48564048857E+03  0.57816398297E+03  0.20935280004E+03  0.11929168308E+04  0.89950080319E+03 0.  0.
        -24    2    4    4    0    0  0.38954225550E+03  0.64065478529E+03 -0.18338310269E+03  0.77602636602E+03  0.80036464598E+02 0.  0.
         24    2    4    4    0    0  0.96098233074E+02 -0.62490802319E+02  0.39273590274E+03  0.41689046477E+03  0.80101183163E+02 0.  0.
         11    1    3    3    0    0 -0.12646946027E+03 -0.18413379210E+03  0.18038029644E+03  0.28711814488E+03  0.00000000000E+00 0.  1.
        -11    1    3    3    0    0 -0.35917102830E+03 -0.39403019087E+03  0.60842790847E+03  0.80897968991E+03  0.00000000000E+00 0. -1.
          2    1    6    6  502    0  0.75775993997E+02 -0.53017984020E+02  0.38002565820E+03  0.39111687356E+03  0.00000000000E+00 0. -1.
          1    1    5    5  503    0  0.34237827146E+03  0.58113357797E+03 -0.14105023567E+03  0.68908220496E+03  0.00000000000E+00 0. -1.
         -2    1    5    5    0  503  0.47163984040E+02  0.59521207318E+02 -0.42332867020E+02  0.86944161053E+02  0.00000000000E+00 0.  1.
         -1    1    6    6    0  502  0.20322239076E+02 -0.94728182996E+01  0.12710244540E+02  0.25773591210E+02  0.00000000000E+00 0.  1.
<mgrwt>
<rscale>  0 0.20599181E+04</rscale>
<asrwt>0</asrwt>
<pdfrwt beam="1">  1        1 0.25285967E+00 0.20599181E+04</pdfrwt>
<pdfrwt beam="2">  1       -1 0.99296436E-01 0.20599181E+04</pdfrwt>
<totfact> 0.46558742E+00</totfact>
</mgrwt>
</event>
<event>
12    1  0.1477245E-007  0.1412247E+04  0.7818608E-02  0.8945001E-01
          1   -1    0    0  501    0  0.00000000000E+00  0.00000000000E+00  0.64629697537E+03  0.64629697537E+03  0.00000000000E+00 0.  1.
         -1   -1    0    0    0  501 -0.00000000000E+00 -0.00000000000E+00 -0.77148837839E+03  0.77148837839E+03  0.00000000000E+00 0. -1.
         23    2    1    2    0    0  0.31855392593E+03 -0.56773353137E+02  0.14029767990E+03  0.36440349720E+03  0.91687798722E+02 0.  0.
        254    2    1    2    0    0 -0.31855392593E+03  0.56773353137E+02 -0.26548908292E+03  0.10533818566E+04  0.96665871186E+03 0.  0.
        -24    2    4    4    0    0  0.14162248977E+03 -0.26713320675E+03  0.15259725306E+03  0.34799234081E+03  0.79972919543E+02 0.  0.
         24    2    4    4    0    0 -0.46017641570E+03  0.32390655989E+03 -0.41808633598E+03  0.70538951575E+03  0.78105002959E+02 0.  0.
         13    1    3    3    0    0  0.16498600060E+03 -0.38552915883E+02  0.12177636068E+03  0.20865327636E+03  0.00000000000E+00 0.  1.
        -13    1    3    3    0    0  0.15356792534E+03 -0.18220437254E+02  0.18521319215E+02  0.15575022084E+03  0.00000000000E+00 0. -1.
          2    1    6    6  502    0 -0.44480294955E+03  0.31863723396E+03 -0.41892937539E+03  0.68911622559E+03  0.00000000000E+00 0. -1.
          3    1    5    5  503    0  0.10322523206E+03 -0.16446378322E+03  0.13614921580E+03  0.23715057134E+03  0.00000000000E+00 0. -1.
         -4    1    5    5    0  503  0.38397257708E+02 -0.10266942353E+03  0.16448037258E+02  0.11084176946E+03  0.00000000000E+00 0.  1.
         -1    1    6    6    0  502 -0.15373466151E+02  0.52693259266E+01  0.84303941770E+00  0.16273290161E+02  0.00000000000E+00 0.  1.
<mgrwt>
<rscale>  0 0.14122473E+04</rscale>
<asrwt>0</asrwt>
<pdfrwt beam="1">  1        1 0.99430304E-01 0.14122473E+04</pdfrwt>
<pdfrwt beam="2">  1       -1 0.11869052E+00 0.14122473E+04</pdfrwt>
<totfact> 0.19034929E+01</totfact>
</mgrwt>
</event>
<event>
12    1  0.1477245E-007  0.1924251E+04  0.7818608E-02  0.8642879E-01
          1   -1    0    0  501    0  0.00000000000E+00  0.00000000000E+00  0.97967977561E+03  0.97967977561E+03  0.00000000000E+00 0. -1.
         -1   -1    0    0    0  501 -0.00000000000E+00 -0.00000000000E+00 -0.94488549640E+03  0.94488549640E+03  0.00000000000E+00 0.  1.
         23    2    1    2    0    0 -0.36395593033E+03 -0.64268307057E+03  0.25376394986E+02  0.74457449267E+03  0.90784168739E+02 0.  0.
        254    2    1    2    0    0  0.36395593033E+03  0.64268307057E+03  0.94178842235E+01  0.11799907793E+04  0.92020872326E+03 0.  0.
        -24    2    4    4    0    0  0.35608007264E+02 -0.22075042998E+03 -0.72170984802E+02  0.24922500545E+03  0.83100961340E+02 0.  0.
         24    2    4    4    0    0  0.32834792307E+03  0.86343350055E+03  0.81588869025E+02  0.93076577388E+03  0.79614155959E+02 0.  0.
         11    1    3    3    0    0 -0.26174922137E+03 -0.41274571376E+03  0.52174834902E+02  0.49152201631E+03  0.00000000000E+00 0. -1.
        -11    1    3    3    0    0 -0.10220670896E+03 -0.22993735680E+03 -0.26798439916E+02  0.25305247636E+03  0.00000000000E+00 0.  1.
          4    1    6    6  502    0  0.26278715531E+03  0.68624163524E+03  0.32470101891E+02  0.73555351842E+03  0.00000000000E+00 0. -1.
          1    1    5    5  503    0 -0.21512293656E+02 -0.11113426394E+03 -0.19498658804E+02  0.11486427250E+03  0.00000000000E+00 0. -1.
         -2    1    5    5    0  503  0.57120300920E+02 -0.10961616604E+03 -0.52672325997E+02  0.13436073296E+03  0.00000000000E+00 0.  1.
         -3    1    6    6    0  502  0.65560767757E+02  0.17719186531E+03  0.49118767135E+02  0.19521225547E+03  0.00000000000E+00 0.  1.
<mgrwt>
<rscale>  0 0.19242507E+04</rscale>
<asrwt>0</asrwt>
<pdfrwt beam="1">  1        1 0.15071997E+00 0.19242507E+04</pdfrwt>
<pdfrwt beam="2">  1       -1 0.14536700E+00 0.19242507E+04</pdfrwt>
<totfact> 0.55631696E+00</totfact>
</mgrwt>
</event>
<event>
12    1  0.1565487E-007  0.2563099E+04  0.7818608E-02  0.8380845E-01
          2   -1    0    0  501    0  0.00000000000E+00  0.00000000000E+00  0.17805420956E+04  0.17805420956E+04  0.00000000000E+00 0. -1.
         -2   -1    0    0    0  501 -0.00000000000E+00 -0.00000000000E+00 -0.92239852350E+03  0.92239852350E+03  0.00000000000E+00 0.  1.
         23    2    1    2    0    0  0.10374929966E+04  0.14164979639E+02 -0.65542168247E+02  0.10437141651E+04  0.91929961949E+02 0.  0.
        254    2    1    2    0    0 -0.10374929966E+04 -0.14164979639E+02  0.92368574035E+03  0.16592264540E+04  0.90732833856E+03 0.  0.
        -24    2    4    4    0    0 -0.43436630720E+03 -0.40950620826E+03  0.64414771175E+03  0.88192429703E+03  0.80590121568E+02 0.  0.
         24    2    4    4    0    0 -0.60312668944E+03  0.39534122862E+03  0.27953802859E+03  0.77730215696E+03  0.77463818777E+02 0.  0.
         11    1    3    3    0    0  0.73237609406E+03  0.32244941541E+01 -0.47017275920E+01  0.73239828424E+03  0.00000000000E+00 0. -1.
        -11    1    3    3    0    0  0.30511690258E+03  0.10940485485E+02 -0.60840440655E+02  0.31131588087E+03  0.00000000000E+00 0.  1.
          4    1    6    6  502    0 -0.24265086766E+02  0.94755022735E+01 -0.34282436698E+01  0.26274178079E+02  0.00000000000E+00 0. -1.
          1    1    5    5  503    0 -0.10051438020E+03 -0.60330973898E+02  0.15605190349E+03  0.19517982381E+03  0.00000000000E+00 0. -1.
         -2    1    5    5    0  503 -0.33385192700E+03 -0.34917523436E+03  0.48809580826E+03  0.68674447322E+03  0.00000000000E+00 0.  1.
         -3    1    6    6    0  502 -0.57886160268E+03  0.38586572635E+03  0.28296627226E+03  0.75102797888E+03  0.00000000000E+00 0.  1.
<mgrwt>
<rscale>  0 0.25630992E+04</rscale>
<asrwt>0</asrwt>
<pdfrwt beam="1">  1        2 0.27392955E+00 0.25630992E+04</pdfrwt>
<pdfrwt beam="2">  1       -2 0.14190746E+00 0.25630992E+04</pdfrwt>
<totfact> 0.27216639E+00</totfact>
</mgrwt>
</event>
<event>
12    1  0.1477245E-007  0.1698984E+04  0.7818608E-02  0.8761944E-01
         -3   -1    0    0    0  501 -0.00000000000E+00  0.00000000000E+00  0.60104504921E+03  0.60104504921E+03  0.00000000000E+00 0.  1.
          3   -1    0    0  501    0  0.00000000000E+00 -0.00000000000E+00 -0.12006360937E+04  0.12006360937E+04  0.00000000000E+00 0. -1.
         23    2    1    2    0    0 -0.35344063270E+02 -0.11689909098E+03  0.42021190901E+03  0.44762820167E+03  0.94225040064E+02 0.  0.
        254    2    1    2    0    0  0.35344063270E+02  0.11689909098E+03 -0.10198029535E+04  0.13540529412E+04  0.88235293587E+03 0.  0.
        -24    2    4    4    0    0  0.32146027157E+03  0.17557759825E+03 -0.97899674306E+03  0.10483319676E+04  0.80006825211E+02 0.  0.
         24    2    4    4    0    0 -0.28611620830E+03 -0.58678507266E+02 -0.40806210406E+02  0.30572097366E+03  0.80588554124E+02 0.  0.
         11    1    3    3    0    0 -0.36361694075E+02 -0.73288237378E+02  0.37860941941E+03  0.38734794565E+03  0.00000000000E+00 0.  1.
        -11    1    3    3    0    0  0.10176308054E+01 -0.43610853605E+02  0.41602489596E+02  0.60280256015E+02  0.00000000000E+00 0. -1.
          2    1    6    6  502    0 -0.21105703580E+03 -0.16139790160E+02 -0.53974970041E+02  0.21844647532E+03  0.00000000000E+00 0. -1.
          3    1    5    5  503    0  0.13016952071E+03  0.11493837441E+03 -0.48375788322E+03  0.51398115102E+03  0.00000000000E+00 0. -1.
         -4    1    5    5    0  503  0.19129075086E+03  0.60639223835E+02 -0.49523885984E+03  0.53435081653E+03  0.00000000000E+00 0.  1.
         -1    1    6    6    0  502 -0.75059172502E+02 -0.42538717105E+02  0.13168759636E+02  0.87274498337E+02  0.00000000000E+00 0.  1.
<mgrwt>
<rscale>  0 0.16989837E+04</rscale>
<asrwt>0</asrwt>
<pdfrwt beam="1">  1        3 0.18471325E+00 0.16989837E+04</pdfrwt>
<pdfrwt beam="2">  1       -3 0.92468469E-01 0.16989837E+04</pdfrwt>
<totfact> 0.48218916E-01</totfact>
</mgrwt>
</event>
<event>
12    1  0.1477245E-007  0.2481209E+04  0.7818608E-02  0.8409710E-01
          2   -1    0    0  501    0  0.00000000000E+00  0.00000000000E+00  0.15387005308E+04  0.15387005308E+04  0.00000000000E+00 0. -1.
         -2   -1    0    0    0  501 -0.00000000000E+00 -0.00000000000E+00 -0.10002596896E+04  0.10002596896E+04  0.00000000000E+00 0.  1.
         23    2    1    2    0    0 -0.10189520833E+04 -0.41934927676E+02  0.58656119563E+03  0.11801538366E+04  0.93204911961E+02 0.  0.
        254    2    1    2    0    0  0.10189520833E+04  0.41934927676E+02 -0.48120354408E+02  0.13588063839E+04  0.89667013672E+03 0.  0.
        -24    2    4    4    0    0  0.79963986021E+03  0.35616515636E+03  0.19045905207E+03  0.90036507676E+03  0.90028308257E+02 0.  0.
         24    2    4    4    0    0  0.21931222310E+03 -0.31423022869E+03 -0.23857940648E+03  0.45844130711E+03  0.80061295538E+02 0.  0.
         11    1    3    3    0    0 -0.52618627719E+02  0.72399544507E+01  0.53766422820E+02  0.75577543929E+02  0.00000000000E+00 0. -1.
        -11    1    3    3    0    0 -0.96633345559E+03 -0.49174882127E+02  0.53279477281E+03  0.11045762927E+04  0.00000000000E+00 0.  1.
          2    1    6    6  502    0  0.14053244588E+03 -0.25717669965E+03 -0.19386069872E+03  0.35138468051E+03  0.00000000000E+00 0. -1.
          1    1    5    5  503    0  0.61658301309E+03  0.28976515217E+03  0.18330479042E+03  0.70550627328E+03  0.00000000000E+00 0. -1.
         -2    1    5    5    0  503  0.18305684712E+03  0.66400004189E+02  0.71542616512E+01  0.19485880348E+03  0.00000000000E+00 0.  1.
         -1    1    6    6    0  502  0.78779777223E+02 -0.57053529034E+02 -0.44718707757E+02  0.10705662660E+03  0.00000000000E+00 0.  1.
<mgrwt>
<rscale>  0 0.24812095E+04</rscale>
<asrwt>0</asrwt>
<pdfrwt beam="1">  1        2 0.23672316E+00 0.24812095E+04</pdfrwt>
<pdfrwt beam="2">  1       -2 0.15388611E+00 0.24812095E+04</pdfrwt>
<totfact> 0.30184459E+00</totfact>
</mgrwt>
</event>
<event>
12    1  0.1477245E-007  0.1783412E+04  0.7818608E-02  0.8715171E-01
         -2   -1    0    0    0  501 -0.00000000000E+00  0.00000000000E+00  0.91004425786E+03  0.91004425786E+03  0.00000000000E+00 0.  1.
          2   -1    0    0  501    0  0.00000000000E+00 -0.00000000000E+00 -0.87373679201E+03  0.87373679201E+03  0.00000000000E+00 0. -1.
         23    2    1    2    0    0 -0.62586614555E+03  0.25969012373E+03 -0.10642806808E+03  0.69195833601E+03  0.91279858597E+02 0.  0.
        254    2    1    2    0    0  0.62586614555E+03 -0.25969012373E+03  0.14273553392E+03  0.10918227139E+04  0.84413032960E+03 0.  0.
        -24    2    4    4    0    0  0.34889484901E+03 -0.19071949748E+03 -0.33758684601E+03  0.52726591149E+03  0.77090339459E+02 0.  0.
         24    2    4    4    0    0  0.27697129654E+03 -0.68970626247E+02  0.48032237993E+03  0.56455680237E+03  0.80899617075E+02 0.  0.
         11    1    3    3    0    0 -0.86110215488E+02  0.34486794752E+02  0.16789098535E+02  0.94266547902E+02  0.00000000000E+00 0.  1.
        -11    1    3    3    0    0 -0.53975593006E+03  0.22520332897E+03 -0.12321716661E+03  0.59769178810E+03  0.00000000000E+00 0. -1.
          4    1    6    6  502    0  0.61858211024E+02 -0.25987862768E+02  0.18415464615E+03  0.19599678819E+03  0.00000000000E+00 0. -1.
          3    1    5    5  503    0  0.18556274051E+03 -0.11019717217E+03 -0.13360504582E+03  0.25382524636E+03  0.00000000000E+00 0. -1.
         -4    1    5    5    0  503  0.16333210850E+03 -0.80522325306E+02 -0.20398180019E+03  0.27344066513E+03  0.00000000000E+00 0.  1.
         -3    1    6    6    0  502  0.21511308552E+03 -0.42982763480E+02  0.29616773379E+03  0.36856001418E+03  0.00000000000E+00 0.  1.
<mgrwt>
<rscale>  0 0.17834115E+04</rscale>
<asrwt>0</asrwt>
<pdfrwt beam="1">  1        2 0.13442104E+00 0.17834115E+04</pdfrwt>
<pdfrwt beam="2">  1       -2 0.14000681E+00 0.17834115E+04</pdfrwt>
<totfact> 0.10371646E+01</totfact>
</mgrwt>
</event>
<event>
12    1  0.1477245E-007  0.2663362E+04  0.7818608E-02  0.8346992E-01
          2   -1    0    0  501    0  0.00000000000E+00  0.00000000000E+00  0.14209317762E+04  0.14209317762E+04  0.00000000000E+00 0. -1.
         -2   -1    0    0    0  501 -0.00000000000E+00 -0.00000000000E+00 -0.12480360013E+04  0.12480360013E+04  0.00000000000E+00 0.  1.
         23    2    1    2    0    0  0.19516518561E+02  0.12217638629E+03 -0.10987458024E+04  0.11096653325E+04  0.93844809023E+02 0.  0.
        254    2    1    2    0    0 -0.19516518561E+02 -0.12217638629E+03  0.12716415773E+04  0.15593024450E+04  0.89389252717E+03 0.  0.
        -24    2    4    4    0    0 -0.19282735024E+03  0.13862183963E+03  0.12032386258E+04  0.12289698198E+04  0.78646208066E+02 0.  0.
         24    2    4    4    0    0  0.17331083168E+03 -0.26079822592E+03  0.68402951492E+02  0.33033262520E+03  0.79926969650E+02 0.  0.
         11    1    3    3    0    0 -0.33722632992E+01  0.12981572128E+03 -0.97275572270E+03  0.98138534211E+03  0.00000000000E+00 0.  1.
        -11    1    3    3    0    0  0.22888781861E+02 -0.76393349932E+01 -0.12599007966E+03  0.12827999044E+03  0.00000000000E+00 0. -1.
          2    1    6    6  502    0  0.30422674222E+02 -0.53987404105E+02  0.47526011317E+02  0.78095458642E+02  0.00000000000E+00 0. -1.
          1    1    5    5  503    0 -0.41778780001E+01  0.34373998639E+02  0.16442946851E+03  0.16803593830E+03  0.00000000000E+00 0. -1.
         -2    1    5    5    0  503 -0.18864947224E+03  0.10424784099E+03  0.10388091573E+04  0.10609338815E+04  0.00000000000E+00 0.  1.
         -1    1    6    6    0  502  0.14288815746E+03 -0.20681082181E+03  0.20876940174E+02  0.25223716655E+03  0.00000000000E+00 0.  1.
<mgrwt>
<rscale>  0 0.26633618E+04</rscale>
<asrwt>0</asrwt>
<pdfrwt beam="1">  1        2 0.21860489E+00 0.26633618E+04</pdfrwt>
<pdfrwt beam="2">  1       -2 0.19200554E+00 0.26633618E+04</pdfrwt>
<totfact> 0.18616933E+00</totfact>
</mgrwt>
</event>
<event>
12    1  0.1477245E-007  0.1238155E+04  0.7818608E-02  0.9080100E-01
          2   -1    0    0  501    0  0.00000000000E+00  0.00000000000E+00  0.17447012413E+04  0.17447012413E+04  0.00000000000E+00 0. -1.
         -2   -1    0    0    0  501 -0.00000000000E+00 -0.00000000000E+00 -0.21966919248E+03  0.21966919248E+03  0.00000000000E+00 0.  1.
         23    2    1    2    0    0 -0.73763189124E+02  0.21999180037E+03  0.60503038456E+03  0.65446286236E+03  0.91774025020E+02 0.  0.
        254    2    1    2    0    0  0.73763189124E+02 -0.21999180037E+03  0.92000166421E+03  0.13099075714E+04  0.90311537641E+03 0.  0.
        -24    2    4    4    0    0 -0.38719360209E+03 -0.23920883614E+03  0.41422282589E+03  0.62046858298E+03  0.79126229465E+02 0.  0.
         24    2    4    4    0    0  0.46095679121E+03  0.19217035764E+02  0.50577883833E+03  0.68943898841E+03  0.81629820575E+02 0.  0.
         11    1    3    3    0    0 -0.82057349241E+02  0.17263134236E+03  0.54502667683E+03  0.57757169891E+03  0.00000000000E+00 0. -1.
        -11    1    3    3    0    0  0.82941601172E+01  0.47360458010E+02  0.60003707734E+02  0.76891163451E+02  0.00000000000E+00 0.  1.
          4    1    6    6  502    0  0.30990547413E+03 -0.24660519562E+02  0.34818816229E+03  0.46678104126E+03  0.00000000000E+00 0. -1.
          3    1    5    5  503    0 -0.28047182443E+03 -0.12982789214E+03  0.27202399401E+03  0.41172415425E+03  0.00000000000E+00 0. -1.
         -4    1    5    5    0  503 -0.10672177766E+03 -0.10938094400E+03  0.14219883188E+03  0.20874442872E+03  0.00000000000E+00 0.  1.
         -3    1    6    6    0  502  0.15105131708E+03  0.43877555326E+02  0.15759067604E+03  0.22265794714E+03  0.00000000000E+00 0.  1.
<mgrwt>
<rscale>  0 0.12381553E+04</rscale>
<asrwt>0</asrwt>
<pdfrwt beam="1">  1        2 0.26841557E+00 0.12381553E+04</pdfrwt>
<pdfrwt beam="2">  1       -2 0.33795262E-01 0.12381553E+04</pdfrwt>
<totfact> 0.74662362E+01</totfact>
</mgrwt>
</event>
<event>
12    1  0.1477245E-007  0.1557408E+04  0.7818608E-02  0.8847150E-01
         -1   -1    0    0    0  501 -0.00000000000E+00  0.00000000000E+00  0.39565416266E+03  0.39565416266E+03  0.00000000000E+00 0.  1.
          1   -1    0    0  501    0  0.00000000000E+00 -0.00000000000E+00 -0.15326007023E+04  0.15326007023E+04  0.00000000000E+00 0. -1.
         23    2    1    2    0    0 -0.42907672846E+02 -0.37707049914E+03 -0.80828550874E+03  0.89753715799E+03  0.90687687251E+02 0.  0.
        254    2    1    2    0    0  0.42907672846E+02  0.37707049914E+03 -0.32866103086E+03  0.10307177069E+04  0.90018758515E+03 0.  0.
        -24    2    4    4    0    0  0.28499670430E+03 -0.14410142442E+03 -0.30577335263E+03  0.44996268308E+03  0.83550769008E+02 0.  0.
         24    2    4    4    0    0 -0.24208903145E+03  0.52117192356E+03 -0.22887678231E+02  0.58075502386E+03  0.80779198198E+02 0.  0.
         13    1    3    3    0    0  0.15272304571E+02 -0.28531562366E+02 -0.11395797423E+03  0.11846397439E+03  0.00000000000E+00 0. -1.
        -13    1    3    3    0    0 -0.58179977417E+02 -0.34853893678E+03 -0.69432753451E+03  0.77907318360E+03  0.00000000000E+00 0.  1.
          4    1    6    6  502    0 -0.14369168795E+03  0.31189137470E+03 -0.53278291681E+02  0.34750842746E+03  0.00000000000E+00 0. -1.
          3    1    5    5  503    0  0.11287194671E+03 -0.61657493489E+02 -0.69348637309E+02  0.14611966450E+03  0.00000000000E+00 0. -1.
         -2    1    5    5    0  503  0.17212475759E+03 -0.82443930929E+02 -0.23642471532E+03  0.30384301858E+03  0.00000000000E+00 0.  1.
         -3    1    6    6    0  502 -0.98397343506E+02  0.20928054886E+03  0.30390613450E+02  0.23324659639E+03  0.00000000000E+00 0.  1.
<mgrwt>
<rscale>  0 0.15574079E+04</rscale>
<asrwt>0</asrwt>
<pdfrwt beam="1">  1        1 0.23578472E+00 0.15574079E+04</pdfrwt>
<pdfrwt beam="2">  1       -1 0.60869871E-01 0.15574079E+04</pdfrwt>
<totfact> 0.16366318E+01</totfact>
</mgrwt>
</event>
<event>
12    1  0.1477245E-007  0.1087615E+04  0.7818608E-02  0.9217348E-01
         -1   -1    0    0    0  501 -0.00000000000E+00  0.00000000000E+00  0.25722472899E+03  0.25722472899E+03  0.00000000000E+00 0.  1.
          1   -1    0    0  501    0  0.00000000000E+00 -0.00000000000E+00 -0.11496821898E+04  0.11496821898E+04  0.00000000000E+00 0. -1.
         23    2    1    2    0    0 -0.14670983548E+03 -0.27495680386E+02 -0.23605901971E+03  0.29356305808E+03  0.90419135224E+02 0.  0.
        254    2    1    2    0    0  0.14670983548E+03  0.27495680386E+02 -0.65639844114E+03  0.11133438608E+04  0.88678963147E+03 0.  0.
        -24    2    4    4    0    0 -0.20931527080E+03 -0.19568391152E+03  0.35852856441E+02  0.29962879494E+03  0.79918155785E+02 0.  0.
         24    2    4    4    0    0  0.35602510628E+03  0.22317959191E+03 -0.69225129758E+03  0.81371506582E+03  0.79732946722E+02 0.  0.
         11    1    3    3    0    0 -0.15924120965E+03 -0.28729236379E+02 -0.22159926843E+03  0.27438908076E+03  0.00000000000E+00 0. -1.
        -11    1    3    3    0    0  0.12531374169E+02  0.12335559926E+01 -0.14459751278E+02  0.19173977312E+02  0.00000000000E+00 0.  1.
          4    1    6    6  502    0  0.14151117937E+03  0.61955096047E+02 -0.19603003834E+03  0.24958289954E+03  0.00000000000E+00 0. -1.
          3    1    5    5  503    0 -0.50409335789E+02 -0.73728843011E+01  0.95178504163E+01  0.51827116784E+02  0.00000000000E+00 0. -1.
         -4    1    5    5    0  503 -0.15890593501E+03 -0.18831102722E+03  0.26335006025E+02  0.24780167815E+03  0.00000000000E+00 0.  1.
         -3    1    6    6    0  502  0.21451392691E+03  0.16122449586E+03 -0.49622125925E+03  0.56413216628E+03  0.00000000000E+00 0.  1.
<mgrwt>
<rscale>  0 0.10876152E+04</rscale>
<asrwt>0</asrwt>
<pdfrwt beam="1">  1        1 0.17687418E+00 0.10876152E+04</pdfrwt>
<pdfrwt beam="2">  1       -1 0.39573035E-01 0.10876152E+04</pdfrwt>
<totfact> 0.72046398E+01</totfact>
</mgrwt>
</event>
<event>
12    1  0.1477245E-007  0.2229169E+04  0.7818608E-02  0.8506384E-01
          1   -1    0    0  501    0  0.00000000000E+00  0.00000000000E+00  0.71698034953E+03  0.71698034953E+03  0.00000000000E+00 0. -1.
         -1   -1    0    0    0  501 -0.00000000000E+00 -0.00000000000E+00 -0.17326818625E+04  0.17326818625E+04  0.00000000000E+00 0.  1.
         23    2    1    2    0    0 -0.31194457687E+03 -0.55331840716E+03  0.32061413348E+03  0.71736683139E+03  0.91384186021E+02 0.  0.
        254    2    1    2    0    0  0.31194457687E+03  0.55331840716E+03 -0.13363156465E+04  0.17322953807E+04  0.90090904097E+03 0.  0.
        -24    2    4    4    0    0  0.56399549833E+03  0.49986683350E+03 -0.12253680198E+04  0.14408620006E+04  0.81232674459E+02 0.  0.
         24    2    4    4    0    0 -0.25205092146E+03  0.53451573666E+02 -0.11094762670E+03  0.29143338010E+03  0.78976587842E+02 0.  0.
         11    1    3    3    0    0 -0.18361025877E+03 -0.39895371803E+03  0.19469334855E+03  0.48039806018E+03  0.00000000000E+00 0.  1.
        -11    1    3    3    0    0 -0.12833431809E+03 -0.15436468913E+03  0.12592078494E+03  0.23696877121E+03  0.00000000000E+00 0. -1.
          4    1    6    6  502    0 -0.24542117598E+03  0.54509137781E+02 -0.86165456103E+02  0.26575794541E+03  0.00000000000E+00 0. -1.
          3    1    5    5  503    0  0.51980944222E+03  0.44936945134E+03 -0.10700411720E+04  0.12716614604E+04  0.00000000000E+00 0. -1.
         -4    1    5    5    0  503  0.44186056108E+02  0.50497382155E+02 -0.15532684780E+03  0.16920054021E+03  0.00000000000E+00 0.  1.
         -3    1    6    6    0  502 -0.66297454791E+01 -0.10575641147E+01 -0.24782170595E+02  0.25675434688E+02  0.00000000000E+00 0.  1.
<mgrwt>
<rscale>  0 0.22291692E+04</rscale>
<asrwt>0</asrwt>
<pdfrwt beam="1">  1        1 0.11030467E+00 0.22291692E+04</pdfrwt>
<pdfrwt beam="2">  1       -1 0.26656644E+00 0.22291692E+04</pdfrwt>
<totfact> 0.12990805E+00</totfact>
</mgrwt>
</event>
<event>
12    1  0.1477245E-007  0.2952263E+04  0.7818608E-02  0.8257495E-01
          1   -1    0    0  501    0  0.00000000000E+00  0.00000000000E+00  0.11525233730E+04  0.11525233730E+04  0.00000000000E+00 0. -1.
         -1   -1    0    0    0  501 -0.00000000000E+00 -0.00000000000E+00 -0.18906035212E+04  0.18906035212E+04  0.00000000000E+00 0.  1.
         23    2    1    2    0    0 -0.55480552012E+03  0.11861851612E+04 -0.64098766978E+03  0.14608361656E+04  0.91283668660E+02 0.  0.
        254    2    1    2    0    0  0.55480552012E+03 -0.11861851612E+04 -0.97092478419E+02  0.15822907285E+04  0.88282081898E+03 0.  0.
        -24    2    4    4    0    0  0.69587164476E+03 -0.10231346608E+04 -0.29949688065E+03  0.12759157020E+04  0.84974213033E+02 0.  0.
         24    2    4    4    0    0 -0.14106612464E+03 -0.16305050036E+03  0.20240440223E+03  0.30637502654E+03  0.80081194150E+02 0.  0.
         13    1    3    3    0    0 -0.46863912346E+03  0.99362953935E+03 -0.57390471219E+03  0.12394712212E+04  0.00000000000E+00 0.  1.
        -13    1    3    3    0    0 -0.86166396663E+02  0.19255562184E+03 -0.67082957589E+02  0.22136494441E+03  0.00000000000E+00 0. -1.
          2    1    6    6  502    0 -0.57174914036E+02 -0.12556071326E+03  0.12676504666E+03  0.18736018938E+03  0.00000000000E+00 0. -1.
          3    1    5    5  503    0  0.61618072256E+03 -0.86147096682E+03 -0.27268061129E+03  0.10936935701E+04  0.00000000000E+00 0. -1.
         -2    1    5    5    0  503  0.79690922200E+02 -0.16166369402E+03 -0.26816269356E+02  0.18222213188E+03  0.00000000000E+00 0.  1.
         -1    1    6    6    0  502 -0.83891210603E+02 -0.37489787100E+02  0.75639355567E+02  0.11901483716E+03  0.00000000000E+00 0.  1.
<mgrwt>
<rscale>  0 0.29522634E+04</rscale>
<asrwt>0</asrwt>
<pdfrwt beam="1">  1        1 0.17731129E+00 0.29522634E+04</pdfrwt>
<pdfrwt beam="2">  1       -1 0.29086208E+00 0.29522634E+04</pdfrwt>
<totfact> 0.37458750E-01</totfact>
</mgrwt>
</event>
<event>
12    1  0.1477245E-007  0.1817489E+04  0.7818608E-02  0.8697054E-01
         -2   -1    0    0    0  501 -0.00000000000E+00  0.00000000000E+00  0.43343553827E+03  0.43343553827E+03  0.00000000000E+00 0.  1.
          2   -1    0    0  501    0  0.00000000000E+00 -0.00000000000E+00 -0.19052801874E+04  0.19052801874E+04  0.00000000000E+00 0. -1.
         23    2    1    2    0    0  0.29200379959E+03  0.60872307408E+03 -0.46735590610E+03  0.82601817372E+03  0.89858112884E+02 0.  0.
        254    2    1    2    0    0 -0.29200379959E+03 -0.60872307408E+03 -0.10044887430E+04  0.15126975519E+04  0.90743939131E+03 0.  0.
        -24    2    4    4    0    0 -0.60209818672E+03 -0.28599311710E+03 -0.66603467332E+03  0.94592490378E+03  0.82809709931E+02 0.  0.
         24    2    4    4    0    0  0.31009438713E+03 -0.32272995698E+03 -0.33845406969E+03  0.56677264815E+03  0.79793003053E+02 0.  0.
         11    1    3    3    0    0  0.53184174442E+02  0.55564463788E+02 -0.72143023264E+02  0.10545416944E+03  0.00000000000E+00 0.  1.
        -11    1    3    3    0    0  0.23881962515E+03  0.55315861029E+03 -0.39521288283E+03  0.72056400427E+03  0.00000000000E+00 0. -1.
          2    1    6    6  502    0  0.25065070199E+03 -0.25039604630E+03 -0.30454567994E+03  0.46719591777E+03  0.00000000000E+00 0. -1.
          1    1    5    5  503    0 -0.37926808044E+03 -0.13529467203E+03 -0.40203192563E+03  0.56901546055E+03  0.00000000000E+00 0. -1.
         -2    1    5    5    0  503 -0.22283010627E+03 -0.15069844508E+03 -0.26400274769E+03  0.37690944323E+03  0.00000000000E+00 0.  1.
         -1    1    6    6    0  502  0.59443685140E+02 -0.72333910677E+02 -0.33908389750E+02  0.99576730375E+02  0.00000000000E+00 0.  1.
<mgrwt>
<rscale>  0 0.18174885E+04</rscale>
<asrwt>0</asrwt>
<pdfrwt beam="1">  1        2 0.29312003E+00 0.18174885E+04</pdfrwt>
<pdfrwt beam="2">  1       -2 0.66682391E-01 0.18174885E+04</pdfrwt>
<totfact> 0.14689276E+01</totfact>
</mgrwt>
</event>
<event>
12    1  0.1477245E-007  0.1765765E+04  0.7818608E-02  0.8724720E-01
          1   -1    0    0  501    0  0.00000000000E+00  0.00000000000E+00  0.13497131488E+04  0.13497131488E+04  0.00000000000E+00 0. -1.
         -1   -1    0    0    0  501 -0.00000000000E+00 -0.00000000000E+00 -0.57751662773E+03  0.57751662773E+03  0.00000000000E+00 0.  1.
         23    2    1    2    0    0 -0.41772194768E+03 -0.41647538366E+03 -0.18946594718E+02  0.59649923827E+03  0.86654469213E+02 0.  0.
        254    2    1    2    0    0  0.41772194768E+03  0.41647538366E+03  0.79114311583E+03  0.13307305383E+04  0.89274462477E+03 0.  0.
        -24    2    4    4    0    0  0.68332114589E+03  0.38209311678E+03  0.62975360100E+03  0.10077290162E+04  0.77493443490E+02 0.  0.
         24    2    4    4    0    0 -0.26559919820E+03  0.34382266880E+02  0.16138951483E+03  0.32300152211E+03  0.80983537993E+02 0.  0.
         11    1    3    3    0    0 -0.86736641659E+02 -0.59361207796E+02  0.23638375504E+02  0.10773008305E+03  0.00000000000E+00 0. -1.
        -11    1    3    3    0    0 -0.33098530603E+03 -0.35711417586E+03 -0.42584970222E+02  0.48876915522E+03  0.00000000000E+00 0.  1.
          4    1    6    6  502    0 -0.22789767479E+03  0.22117448657E+02  0.16639024631E+03  0.28304106730E+03  0.00000000000E+00 0. -1.
          3    1    5    5  503    0  0.60573360867E+03  0.36383949462E+03  0.55585690523E+03  0.89903797562E+03  0.00000000000E+00 0. -1.
         -4    1    5    5    0  503  0.77587537217E+02  0.18253622162E+02  0.73896695774E+02  0.10869104057E+03  0.00000000000E+00 0.  1.
         -3    1    6    6    0  502 -0.37701523415E+02  0.12264818223E+02 -0.50007314746E+01  0.39960454816E+02  0.00000000000E+00 0.  1.
<mgrwt>
<rscale>  0 0.17657653E+04</rscale>
<asrwt>0</asrwt>
<pdfrwt beam="1">  1        1 0.20764818E+00 0.17657653E+04</pdfrwt>
<pdfrwt beam="2">  1       -1 0.88848712E-01 0.17657653E+04</pdfrwt>
<totfact> 0.98055782E+00</totfact>
</mgrwt>
</event>
<event>
12    1  0.1477245E-007  0.1715702E+04  0.7818608E-02  0.8752459E-01
          2   -1    0    0  501    0  0.00000000000E+00  0.00000000000E+00  0.17335860202E+04  0.17335860202E+04  0.00000000000E+00 0. -1.
         -2   -1    0    0    0  501 -0.00000000000E+00 -0.00000000000E+00 -0.42450070044E+03  0.42450070044E+03  0.00000000000E+00 0.  1.
         23    2    1    2    0    0 -0.23269991258E+03 -0.47905318477E+03  0.88269994500E+03  0.10349285045E+04  0.90975894724E+02 0.  0.
        254    2    1    2    0    0  0.23269991258E+03  0.47905318477E+03  0.42638537476E+03  0.11231582161E+04  0.89221000190E+03 0.  0.
        -24    2    4    4    0    0  0.31013118327E+03  0.64774104096E+03  0.52874104058E+03  0.89620881542E+03  0.88731876242E+02 0.  0.
         24    2    4    4    0    0 -0.77431270690E+02 -0.16868785619E+03 -0.10235566582E+03  0.22694940070E+03  0.81105817594E+02 0.  0.
         11    1    3    3    0    0 -0.21599420914E+03 -0.46017601404E+03  0.79461137485E+03  0.94330413935E+03  0.00000000000E+00 0. -1.
        -11    1    3    3    0    0 -0.16705703442E+02 -0.18877170734E+02  0.88088570147E+02  0.91624365171E+02  0.00000000000E+00 0.  1.
          2    1    6    6  502    0 -0.17735009870E+02 -0.27151380976E+02  0.12905856882E+02  0.34903999854E+02  0.00000000000E+00 0. -1.
          3    1    5    5  503    0  0.27119482436E+02  0.12443012769E+03  0.73129099283E+02  0.14685430932E+03  0.00000000000E+00 0. -1.
         -4    1    5    5    0  503  0.28301170083E+03  0.52331091327E+03  0.45561194129E+03  0.74935450610E+03  0.00000000000E+00 0.  1.
         -1    1    6    6    0  502 -0.59696260820E+02 -0.14153647522E+03 -0.11526152270E+03  0.19204540085E+03  0.00000000000E+00 0.  1.
<mgrwt>
<rscale>  0 0.17157022E+04</rscale>
<asrwt>0</asrwt>
<pdfrwt beam="1">  1        2 0.26670554E+00 0.17157022E+04</pdfrwt>
<pdfrwt beam="2">  1       -2 0.65307801E-01 0.17157022E+04</pdfrwt>
<totfact> 0.19291346E+01</totfact>
</mgrwt>
</event>
<event>
12    1  0.1477245E-007  0.1541885E+04  0.7818608E-02  0.8857068E-01
          1   -1    0    0  501    0  0.00000000000E+00  0.00000000000E+00  0.17404047136E+04  0.17404047136E+04  0.00000000000E+00 0. -1.
         -1   -1    0    0    0  501 -0.00000000000E+00 -0.00000000000E+00 -0.34150219195E+03  0.34150219195E+03  0.00000000000E+00 0.  1.
         23    2    1    2    0    0 -0.18916041744E+03 -0.31499636908E+02 -0.16921753383E+03  0.27136037703E+03  0.90708267626E+02 0.  0.
        254    2    1    2    0    0  0.18916041744E+03  0.31499636908E+02  0.15681200555E+04  0.18105465285E+04  0.88447969614E+03 0.  0.
        -24    2    4    4    0    0  0.52635608940E+03  0.12072581773E+03  0.97950703510E+03  0.11214775773E+04  0.81562667676E+02 0.  0.
         24    2    4    4    0    0 -0.33719567195E+03 -0.89226180827E+02  0.58861302037E+03  0.68906895117E+03  0.81783245163E+02 0.  0.
         13    1    3    3    0    0 -0.24409840816E+01  0.14517385847E+02  0.70401611303E+00  0.14737996262E+02  0.00000000000E+00 0. -1.
        -13    1    3    3    0    0 -0.18671943336E+03 -0.46017022755E+02 -0.16992154994E+03  0.25662238077E+03  0.00000000000E+00 0.  1.
          2    1    6    6  502    0 -0.11145072423E+03  0.94558959025E+01  0.17915908706E+03  0.21120761439E+03  0.00000000000E+00 0. -1.
          3    1    5    5  503    0  0.12101665989E+03  0.62432097615E+02  0.26491243766E+03  0.29786137448E+03  0.00000000000E+00 0. -1.
         -4    1    5    5    0  503  0.40533942950E+03  0.58293720120E+02  0.71459459744E+03  0.82361620286E+03  0.00000000000E+00 0.  1.
         -1    1    6    6    0  502 -0.22574494773E+03 -0.98682076729E+02  0.40945393331E+03  0.47786133678E+03  0.00000000000E+00 0.  1.
<mgrwt>
<rscale>  0 0.15418846E+04</rscale>
<asrwt>0</asrwt>
<pdfrwt beam="1">  1        1 0.26775457E+00 0.15418846E+04</pdfrwt>
<pdfrwt beam="2">  1       -1 0.52538800E-01 0.15418846E+04</pdfrwt>
<totfact> 0.15743057E+01</totfact>
</mgrwt>
</event>
<event>
12    1  0.1477245E-007  0.1983075E+04  0.7818608E-02  0.8614575E-01
         -1   -1    0    0    0  501 -0.00000000000E+00  0.00000000000E+00  0.69677223141E+03  0.69677223141E+03  0.00000000000E+00 0.  1.
          1   -1    0    0  501    0  0.00000000000E+00 -0.00000000000E+00 -0.14110009130E+04  0.14110009130E+04  0.00000000000E+00 0. -1.
         23    2    1    2    0    0 -0.54782314547E+03  0.44630918606E+03  0.52132147897E+02  0.71442894262E+03  0.91590747018E+02 0.  0.
        254    2    1    2    0    0  0.54782314547E+03 -0.44630918606E+03 -0.76636082954E+03  0.13933442018E+04  0.92455235410E+03 0.  0.
        -24    2    4    4    0    0  0.17570922110E+03  0.87564545428E+02  0.15437217538E+03  0.26307105491E+03  0.82670015149E+02 0.  0.
         24    2    4    4    0    0  0.37211392437E+03 -0.53387373148E+03 -0.92073300491E+03  0.11302731469E+04  0.79235007716E+02 0.  0.
         13    1    3    3    0    0 -0.53685489960E+03  0.41327226789E+03  0.45794005238E+02  0.67904656803E+03  0.00000000000E+00 0. -1.
        -13    1    3    3    0    0 -0.10968245864E+02  0.33036918168E+02  0.63381426591E+01  0.35382374592E+02  0.00000000000E+00 0.  1.
          4    1    6    6  502    0  0.36584757801E+02 -0.53454719275E+02 -0.13844914544E+03  0.15285292732E+03  0.00000000000E+00 0. -1.
          1    1    5    5  503    0  0.91171088026E+02  0.18459816933E+00  0.59710986766E+02  0.10898441773E+03  0.00000000000E+00 0. -1.
         -2    1    5    5    0  503  0.84538133076E+02  0.87379947259E+02  0.94661188611E+02  0.15408663718E+03  0.00000000000E+00 0.  1.
         -3    1    6    6    0  502  0.33552916656E+03 -0.48041901221E+03 -0.78228385947E+03  0.97742021961E+03  0.00000000000E+00 0.  1.
<mgrwt>
<rscale>  0 0.19830746E+04</rscale>
<asrwt>0</asrwt>
<pdfrwt beam="1">  1        1 0.21707706E+00 0.19830746E+04</pdfrwt>
<pdfrwt beam="2">  1       -1 0.10719573E+00 0.19830746E+04</pdfrwt>
<totfact> 0.56870383E+00</totfact>
</mgrwt>
</event>
<event>
12    1  0.1477245E-007  0.1972455E+04  0.7818608E-02  0.8619608E-01
          1   -1    0    0  501    0  0.00000000000E+00  0.00000000000E+00  0.11927893305E+04  0.11927893305E+04  0.00000000000E+00 0. -1.
         -1   -1    0    0    0  501 -0.00000000000E+00 -0.00000000000E+00 -0.81543730918E+03  0.81543730918E+03  0.00000000000E+00 0.  1.
         23    2    1    2    0    0 -0.22852276054E+03  0.71766014946E+03  0.28945966961E+03  0.81363181254E+03  0.10464742638E+03 0.  0.
        254    2    1    2    0    0  0.22852276054E+03 -0.71766014946E+03  0.87892351728E+02  0.11945948272E+04  0.92307799961E+03 0.  0.
        -24    2    4    4    0    0  0.27364160560E+03  0.14437271643E+03 -0.24192266909E+02  0.32036541339E+03  0.79533155067E+02 0.  0.
         24    2    4    4    0    0 -0.45118845060E+02 -0.86203286588E+03  0.11208461864E+03  0.87422941376E+03  0.81103231169E+02 0.  0.
         11    1    3    3    0    0 -0.16006533791E+03  0.36569484133E+03  0.18631454226E+03  0.44053006485E+03  0.00000000000E+00 0. -1.
        -11    1    3    3    0    0 -0.68457422631E+02  0.35196530813E+03  0.10314512735E+03  0.37310174770E+03  0.00000000000E+00 0.  1.
          4    1    6    6  502    0 -0.56270388521E+02 -0.35502533685E+03  0.60023110589E+02  0.36443397239E+03  0.00000000000E+00 0. -1.
          1    1    5    5  503    0  0.19553426040E+02  0.11505160047E+01 -0.20941087680E+02  0.28673843659E+02  0.00000000000E+00 0. -1.
         -2    1    5    5    0  503  0.25408817956E+03  0.14322220042E+03 -0.32511792286E+01  0.29169156974E+03  0.00000000000E+00 0.  1.
         -1    1    6    6    0  502  0.11151543461E+02 -0.50700752903E+03  0.52061508048E+02  0.50979544136E+03  0.00000000000E+00 0.  1.
<mgrwt>
<rscale>  0 0.19724552E+04</rscale>
<asrwt>0</asrwt>
<pdfrwt beam="1">  1        1 0.18350605E+00 0.19724552E+04</pdfrwt>
<pdfrwt beam="2">  1       -1 0.12545189E+00 0.19724552E+04</pdfrwt>
<totfact> 0.55786757E+00</totfact>
</mgrwt>
</event>
<event>
12    1  0.1477245E-007  0.1665342E+04  0.7818608E-02  0.8781382E-01
         -2   -1    0    0    0  501 -0.00000000000E+00  0.00000000000E+00  0.12939680451E+04  0.12939680451E+04  0.00000000000E+00 0.  1.
          2   -1    0    0  501    0  0.00000000000E+00 -0.00000000000E+00 -0.53582559228E+03  0.53582559228E+03  0.00000000000E+00 0. -1.
         23    2    1    2    0    0  0.69279899828E+01  0.47244054851E+03 -0.12538002749E+03  0.49731804012E+03  0.91416698776E+02 0.  0.
        254    2    1    2    0    0 -0.69279899828E+01 -0.47244054851E+03  0.88352248030E+03  0.13324755972E+04  0.87842539532E+03 0.  0.
        -24    2    4    4    0    0  0.18851596844E+03 -0.20736875583E+03 -0.87549042228E+02  0.30408187249E+03  0.79125717241E+02 0.  0.
         24    2    4    4    0    0 -0.19544395843E+03 -0.26507179268E+03  0.97107152253E+03  0.10283937248E+04  0.78436949768E+02 0.  0.
         13    1    3    3    0    0 -0.26445157032E+01  0.10092787895E+03 -0.66882937939E+02  0.12110638960E+03  0.00000000000E+00 0. -1.
        -13    1    3    3    0    0  0.95725056860E+01  0.37151266956E+03 -0.58497089554E+02  0.37621165053E+03  0.00000000000E+00 0.  1.
          4    1    6    6  502    0 -0.12383549177E+03 -0.15579511912E+03  0.46641717310E+03  0.50710189068E+03  0.00000000000E+00 0. -1.
          3    1    5    5  503    0  0.12599601369E+02  0.17588333404E-01  0.90216023218E+01  0.15496437412E+02  0.00000000000E+00 0. -1.
         -4    1    5    5    0  503  0.17591636708E+03 -0.20738634416E+03 -0.96570644550E+02  0.28858543508E+03  0.00000000000E+00 0.  1.
         -3    1    6    6    0  502 -0.71608466655E+02 -0.10927667356E+03  0.50465434943E+03  0.52129183408E+03  0.00000000000E+00 0.  1.
<mgrwt>
<rscale>  0 0.16653422E+04</rscale>
<asrwt>0</asrwt>
<pdfrwt beam="1">  1        2 0.82434707E-01 0.16653422E+04</pdfrwt>
<pdfrwt beam="2">  1       -2 0.19907201E+00 0.16653422E+04</pdfrwt>
<totfact> 0.73003607E+00</totfact>
</mgrwt>
</event>
<event>
12    1  0.1477245E-007  0.3599979E+04  0.7818608E-02  0.8090496E-01
          2   -1    0    0  501    0  0.00000000000E+00  0.00000000000E+00  0.19585759466E+04  0.19585759466E+04  0.00000000000E+00 0. -1.
         -2   -1    0    0    0  501 -0.00000000000E+00 -0.00000000000E+00 -0.16542438626E+04  0.16542438626E+04  0.00000000000E+00 0.  1.
         23    2    1    2    0    0  0.13461243865E+04 -0.74949033331E+03  0.83428477491E+03  0.17544475776E+04  0.90931805908E+02 0.  0.
        254    2    1    2    0    0 -0.13461243865E+04  0.74949033331E+03 -0.52995269096E+03  0.18583722316E+04  0.89381814303E+03 0.  0.
        -24    2    4    4    0    0 -0.18678791862E+03 -0.87342516678E+02 -0.35115792300E+03  0.41530672340E+03  0.81543521208E+02 0.  0.
         24    2    4    4    0    0 -0.11593364679E+04  0.83683284999E+03 -0.17879476796E+03  0.14430655082E+04  0.78231881493E+02 0.  0.
         11    1    3    3    0    0  0.13459945220E+04 -0.74484955714E+03  0.83380351975E+03  0.17497801078E+04  0.00000000000E+00 0. -1.
        -11    1    3    3    0    0  0.12986449699E+00 -0.46407761667E+01  0.48125516564E+00  0.46674698447E+01  0.00000000000E+00 0.  1.
          2    1    6    6  502    0 -0.84934667838E+03  0.57770449934E+03 -0.10769969927E+03  0.10328269428E+04  0.00000000000E+00 0. -1.
          1    1    5    5  503    0 -0.12957639794E+03 -0.16868601372E+02 -0.21766783124E+03  0.25387768191E+03  0.00000000000E+00 0. -1.
         -2    1    5    5    0  503 -0.57211520677E+02 -0.70473915306E+02 -0.13349009176E+03  0.16142904149E+03  0.00000000000E+00 0.  1.
         -1    1    6    6    0  502 -0.30998978953E+03  0.25912835065E+03 -0.71095068691E+02  0.41023856537E+03  0.00000000000E+00 0.  1.
<mgrwt>
<rscale>  0 0.35999790E+04</rscale>
<asrwt>0</asrwt>
<pdfrwt beam="1">  1        2 0.30131938E+00 0.35999790E+04</pdfrwt>
<pdfrwt beam="2">  1       -2 0.25449906E+00 0.35999790E+04</pdfrwt>
<totfact> 0.34625532E-01</totfact>
</mgrwt>
</event>
<event>
12    1  0.1477245E-007  0.2156821E+04  0.7818608E-02  0.8536618E-01
          1   -1    0    0  501    0  0.00000000000E+00  0.00000000000E+00  0.31806161915E+04  0.31806161915E+04  0.00000000000E+00 0. -1.
         -1   -1    0    0    0  501 -0.00000000000E+00 -0.00000000000E+00 -0.36564282955E+03  0.36564282955E+03  0.00000000000E+00 0.  1.
         23    2    1    2    0    0  0.29501973527E+03  0.15949972532E+03 -0.17720328753E+03  0.39002067756E+03  0.90765176354E+02 0.  0.
        254    2    1    2    0    0 -0.29501973527E+03 -0.15949972532E+03  0.29921766495E+04  0.31562383435E+04  0.94670088869E+03 0.  0.
        -24    2    4    4    0    0  0.33735551968E+03 -0.10069341378E+03  0.11961231059E+04  0.12493725220E+04  0.79204191992E+02 0.  0.
         24    2    4    4    0    0 -0.63237525495E+03 -0.58806311538E+02  0.17960535436E+04  0.19068658215E+04  0.83500205980E+02 0.  0.
         13    1    3    3    0    0  0.29861979782E+03  0.16431115402E+03 -0.17687897423E+03  0.38400274805E+03  0.00000000000E+00 0.  1.
        -13    1    3    3    0    0 -0.36000625446E+01 -0.48114287054E+01 -0.32431329933E+00  0.60179295134E+01  0.00000000000E+00 0. -1.
          2    1    6    6  502    0 -0.34942011934E+03  0.60557959749E+00  0.10576741528E+04  0.11138982898E+04  0.00000000000E+00 0. -1.
          1    1    5    5  503    0  0.24802621198E+03 -0.10899327482E+03  0.91745647102E+03  0.95662056846E+03  0.00000000000E+00 0. -1.
         -2    1    5    5    0  503  0.89329307701E+02  0.82998610370E+01  0.27866663490E+03  0.29275195356E+03  0.00000000000E+00 0.  1.
         -1    1    6    6    0  502 -0.28295513561E+03 -0.59411891136E+02  0.73837939083E+03  0.79296753174E+03  0.00000000000E+00 0.  1.
<mgrwt>
<rscale>  0 0.21568213E+04</rscale>
<asrwt>0</asrwt>
<pdfrwt beam="1">  1        1 0.48932555E+00 0.21568213E+04</pdfrwt>
<pdfrwt beam="2">  1       -1 0.56252745E-01 0.21568213E+04</pdfrwt>
<totfact> 0.12884346E+00</totfact>
</mgrwt>
</event>
<event>
12    1  0.1477245E-007  0.2616608E+04  0.7818608E-02  0.8362582E-01
          2   -1    0    0  501    0  0.00000000000E+00  0.00000000000E+00  0.83276168882E+03  0.83276168882E+03  0.00000000000E+00 0.  1.
         -2   -1    0    0    0  501 -0.00000000000E+00 -0.00000000000E+00 -0.20554017388E+04  0.20554017388E+04  0.00000000000E+00 0. -1.
         23    2    1    2    0    0  0.48297200148E+03 -0.35252780290E+03 -0.16284026055E+04  0.17371629045E+04  0.92206860731E+02 0.  0.
        254    2    1    2    0    0 -0.48297200148E+03  0.35252780290E+03  0.40576255554E+03  0.11510005231E+04  0.89589125827E+03 0.  0.
        -24    2    4    4    0    0 -0.37171382005E+02 -0.77242101013E+02  0.50494962377E+03  0.51874765887E+03  0.82322276601E+02 0.  0.
         24    2    4    4    0    0 -0.44580061947E+03  0.42976990391E+03 -0.99187068236E+02  0.63225286422E+03  0.80406760776E+02 0.  0.
         11    1    3    3    0    0  0.24896991326E+03 -0.23621345229E+03 -0.88927009617E+03  0.95319678802E+03  0.00000000000E+00 0. -1.
        -11    1    3    3    0    0  0.23400208822E+03 -0.11631435060E+03 -0.73913250934E+03  0.78396611650E+03  0.00000000000E+00 0.  1.
          4    1    6    6  502    0 -0.19510679372E+03  0.15029866356E+03 -0.68132681477E+02  0.25553553864E+03  0.00000000000E+00 0. -1.
          1    1    5    5  503    0 -0.53020851294E+01 -0.70013849077E+01  0.29412617008E+03  0.29425726061E+03  0.00000000000E+00 0. -1.
         -2    1    5    5    0  503 -0.31869296875E+02 -0.70240716105E+02  0.21082345369E+03  0.22449039826E+03  0.00000000000E+00 0.  1.
         -3    1    6    6    0  502 -0.25069382575E+03  0.27947124035E+03 -0.31054386758E+02  0.37671732558E+03  0.00000000000E+00 0.  1.
<mgrwt>
<rscale>  0 0.26166084E+04</rscale>
<asrwt>0</asrwt>
<pdfrwt beam="1">  1        2 0.12811718E+00 0.26166084E+04</pdfrwt>
<pdfrwt beam="2">  1       -2 0.31621565E+00 0.26166084E+04</pdfrwt>
<totfact> 0.72856019E-01</totfact>
</mgrwt>
</event>
<event>
12    1  0.1477245E-007  0.1578352E+04  0.7818608E-02  0.8833958E-01
         -1   -1    0    0    0  501 -0.00000000000E+00  0.00000000000E+00  0.65301429025E+03  0.65301429025E+03  0.00000000000E+00 0.  1.
          1   -1    0    0  501    0  0.00000000000E+00 -0.00000000000E+00 -0.95372960282E+03  0.95372960282E+03  0.00000000000E+00 0. -1.
         23    2    1    2    0    0 -0.14943255770E+03 -0.21739322734E+03 -0.57190190510E+03  0.63495792958E+03  0.80683819192E+02 0.  0.
        254    2    1    2    0    0  0.14943255770E+03  0.21739322734E+03  0.27118659253E+03  0.97178596349E+03  0.89511780581E+03 0.  0.
        -24    2    4    4    0    0  0.48267835685E+03  0.14156751445E+03  0.34123838636E+03  0.61410805527E+03  0.87551755597E+02 0.  0.
         24    2    4    4    0    0 -0.33324579915E+03  0.75825712892E+02 -0.70051793826E+02  0.35767790822E+03  0.78891893285E+02 0.  0.
         13    1    3    3    0    0 -0.10683702004E+03 -0.86461040991E+02 -0.26252670005E+03  0.29632740120E+03  0.00000000000E+00 0.  1.
        -13    1    3    3    0    0 -0.42595537658E+02 -0.13093218635E+03 -0.30937520505E+03  0.33863052838E+03  0.00000000000E+00 0. -1.
          2    1    6    6  502    0 -0.28130423576E+03  0.85574956238E+02 -0.39609445743E+02  0.29668848036E+03  0.00000000000E+00 0. -1.
          1    1    5    5  503    0  0.47616882455E+03  0.12929441907E+03  0.31791761290E+03  0.58696286498E+03  0.00000000000E+00 0. -1.
         -2    1    5    5    0  503  0.65095322950E+01  0.12273095383E+02  0.23320773463E+02  0.27145190291E+02  0.00000000000E+00 0.  1.
         -1    1    6    6    0  502 -0.51941563394E+02 -0.97492433462E+01 -0.30442348084E+02  0.60989427858E+02  0.00000000000E+00 0.  1.
<mgrwt>
<rscale>  0 0.15783524E+04</rscale>
<asrwt>0</asrwt>
<pdfrwt beam="1">  1        1 0.14672763E+00 0.15783524E+04</pdfrwt>
<pdfrwt beam="2">  1       -1 0.10046374E+00 0.15783524E+04</pdfrwt>
<totfact> 0.14925963E+01</totfact>
</mgrwt>
</event>
<event>
12    1  0.1477245E-007  0.1927711E+04  0.7818608E-02  0.8641184E-01
         -2   -1    0    0    0  501 -0.00000000000E+00  0.00000000000E+00  0.28315582055E+03  0.28315582055E+03  0.00000000000E+00 0.  1.
          2   -1    0    0  501    0  0.00000000000E+00 -0.00000000000E+00 -0.32809418543E+04  0.32809418543E+04  0.00000000000E+00 0. -1.
         23    2    1    2    0    0 -0.16197196660E+03 -0.14540573890E+03  0.15202350595E+03  0.28069947382E+03  0.91122452612E+02 0.  0.
        254    2    1    2    0    0  0.16197196660E+03  0.14540573890E+03 -0.31498095397E+04  0.32833982010E+04  0.90112477677E+03 0.  0.
        -24    2    4    4    0    0  0.61784256470E+02  0.20684372275E+03 -0.13982494963E+03  0.27005827654E+03  0.82333688139E+02 0.  0.
         24    2    4    4    0    0  0.10018771013E+03 -0.61437983844E+02 -0.30099845901E+04  0.30133399245E+04  0.79987905204E+02 0.  0.
         11    1    3    3    0    0 -0.16707579876E+03 -0.13096704889E+03  0.11681926670E+03  0.24230854607E+03  0.00000000000E+00 0.  1.
        -11    1    3    3    0    0  0.51038321664E+01 -0.14438690017E+02  0.35204239244E+02  0.38390927743E+02  0.00000000000E+00 0. -1.
          4    1    6    6  502    0  0.72827483474E+02 -0.26396602547E+02 -0.25583464696E+04  0.25595189551E+04  0.00000000000E+00 0. -1.
          3    1    5    5  503    0  0.69727533125E+02  0.21066468846E+03 -0.13706204130E+03  0.26082090216E+03  0.00000000000E+00 0. -1.
         -4    1    5    5    0  503 -0.79432766555E+01 -0.38209657126E+01 -0.27629083328E+01  0.92373743812E+01  0.00000000000E+00 0.  1.
         -3    1    6    6    0  502  0.27360226655E+02 -0.35041381296E+02 -0.45163812044E+03  0.45382096937E+03  0.00000000000E+00 0.  1.
<mgrwt>
<rscale>  0 0.19277114E+04</rscale>
<asrwt>0</asrwt>
<pdfrwt beam="1">  1        2 0.50476028E+00 0.19277114E+04</pdfrwt>
<pdfrwt beam="2">  1       -2 0.43562435E-01 0.19277114E+04</pdfrwt>
<totfact> 0.53807526E+00</totfact>
</mgrwt>
</event>
<event>
12    1  0.1477245E-007  0.1924640E+04  0.7818608E-02  0.8642688E-01
         -2   -1    0    0    0  501 -0.00000000000E+00  0.00000000000E+00  0.89845859683E+03  0.89845859683E+03  0.00000000000E+00 0.  1.
          2   -1    0    0  501    0  0.00000000000E+00 -0.00000000000E+00 -0.10307203225E+04  0.10307203225E+04  0.00000000000E+00 0. -1.
         23    2    1    2    0    0 -0.40936992426E+03 -0.55724970603E+03  0.22911696765E+03  0.73405071311E+03  0.90691205706E+02 0.  0.
        254    2    1    2    0    0  0.40936992426E+03  0.55724970603E+03 -0.36137869330E+03  0.11951282062E+04  0.90533192782E+03 0.  0.
        -24    2    4    4    0    0 -0.17171593775E+03  0.15032531538E+03  0.17740268654E+03  0.30071224220E+03  0.82897983673E+02 0.  0.
         24    2    4    4    0    0  0.58108586201E+03  0.40692439064E+03 -0.53878137984E+03  0.89441596400E+03  0.80288870072E+02 0.  0.
         11    1    3    3    0    0 -0.20154170252E+01 -0.32157068225E+02  0.44434476699E+01  0.32525115984E+02  0.00000000000E+00 0. -1.
        -11    1    3    3    0    0 -0.40735450724E+03 -0.52509263780E+03  0.22467351998E+03  0.70152559712E+03  0.00000000000E+00 0.  1.
          4    1    6    6  502    0  0.55094061568E+03  0.40475150445E+03 -0.51342441966E+03  0.85496431333E+03  0.00000000000E+00 0. -1.
          3    1    5    5  503    0 -0.16507776519E+03  0.15744731080E+03  0.18005643012E+03  0.29062113183E+03  0.00000000000E+00 0. -1.
         -4    1    5    5    0  503 -0.66381725637E+01 -0.71219954170E+01 -0.26537435761E+01  0.10091110379E+02  0.00000000000E+00 0.  1.
         -3    1    6    6    0  502  0.30145246328E+02  0.21728861909E+01 -0.25356960184E+02  0.39451650667E+02  0.00000000000E+00 0.  1.
<mgrwt>
<rscale>  0 0.19246397E+04</rscale>
<asrwt>0</asrwt>
<pdfrwt beam="1">  1        2 0.15857236E+00 0.19246397E+04</pdfrwt>
<pdfrwt beam="2">  1       -2 0.13822440E+00 0.19246397E+04</pdfrwt>
<totfact> 0.83544592E+00</totfact>
</mgrwt>
</event>
<event>
12    1  0.1477245E-007  0.1951647E+04  0.7818608E-02  0.8629567E-01
          2   -1    0    0  501    0  0.00000000000E+00  0.00000000000E+00  0.26599519678E+04  0.26599519678E+04  0.00000000000E+00 0. -1.
         -2   -1    0    0    0  501 -0.00000000000E+00 -0.00000000000E+00 -0.35798821975E+03  0.35798821975E+03  0.00000000000E+00 0.  1.
         23    2    1    2    0    0  0.11700477805E+03 -0.51298093427E+03  0.54743243244E+02  0.53841571011E+03  0.10027510754E+03 0.  0.
        254    2    1    2    0    0 -0.11700477805E+03  0.51298093427E+03  0.22472205048E+04  0.24795244774E+04  0.90620200836E+03 0.  0.
        -24    2    4    4    0    0  0.41150221302E+02  0.58801261213E+03  0.22007932114E+04  0.22796995848E+04  0.78020924203E+02 0.  0.
         24    2    4    4    0    0 -0.15815499936E+03 -0.75031677853E+02  0.46427293318E+02  0.19982489261E+03  0.84449615971E+02 0.  0.
         13    1    3    3    0    0 -0.12250259180E+02 -0.80022793146E+02  0.28459004261E+02  0.85811602924E+02  0.00000000000E+00 0. -1.
        -13    1    3    3    0    0  0.12925503723E+03 -0.43295814113E+03  0.26284238982E+02  0.45260410718E+03  0.00000000000E+00 0.  1.
          4    1    6    6  502    0 -0.14616896440E+03 -0.89245348504E+02  0.54258838932E+02  0.17964999301E+03  0.00000000000E+00 0. -1.
          1    1    5    5  503    0  0.40260856230E+02  0.23229644834E+03  0.76543005331E+03  0.80091556544E+03  0.00000000000E+00 0. -1.
         -2    1    5    5    0  503  0.88936507161E+00  0.35571616379E+03  0.14353631581E+04  0.14787840193E+04  0.00000000000E+00 0.  1.
         -3    1    6    6    0  502 -0.11986034952E+02  0.14213670650E+02 -0.78315456138E+01  0.20174899601E+02  0.00000000000E+00 0.  1.
<mgrwt>
<rscale>  0 0.19516470E+04</rscale>
<asrwt>0</asrwt>
<pdfrwt beam="1">  1        2 0.40922337E+00 0.19516470E+04</pdfrwt>
<pdfrwt beam="2">  1       -2 0.55075112E-01 0.19516470E+04</pdfrwt>
<totfact> 0.81206482E+00</totfact>
</mgrwt>
</event>
<event>
12    1  0.1477245E-007  0.2171375E+04  0.7818608E-02  0.8530438E-01
         -1   -1    0    0    0  501 -0.00000000000E+00  0.00000000000E+00  0.90739817449E+03  0.90739817449E+03  0.00000000000E+00 0.  1.
          1   -1    0    0  501    0  0.00000000000E+00 -0.00000000000E+00 -0.12990080128E+04  0.12990080128E+04  0.00000000000E+00 0. -1.
         23    2    1    2    0    0  0.79000204731E+03 -0.34127054961E+03  0.85425398684E+02  0.87170535453E+03  0.10956232740E+03 0.  0.
        254    2    1    2    0    0 -0.79000204731E+03  0.34127054961E+03 -0.47703523703E+03  0.13347008328E+04  0.90182862725E+03 0.  0.
        -24    2    4    4    0    0  0.32495706064E+02 -0.69811669028E+02 -0.39298586554E+03  0.40834723547E+03  0.79874490019E+02 0.  0.
         24    2    4    4    0    0 -0.82249775337E+03  0.41108221864E+03 -0.84049371497E+02  0.92635359734E+03  0.74669576560E+02 0.  0.
         13    1    3    3    0    0  0.54198671255E+03 -0.19691620272E+03  0.18035692145E+02  0.57693229557E+03  0.00000000000E+00 0.  1.
        -13    1    3    3    0    0  0.24801533476E+03 -0.14435434689E+03  0.67389706539E+02  0.29477305896E+03  0.00000000000E+00 0. -1.
          2    1    6    6  502    0 -0.62861806005E+03  0.28148475317E+03 -0.76849328614E+02  0.69303690450E+03  0.00000000000E+00 0. -1.
          3    1    5    5  503    0 -0.67947284359E+01 -0.59300296535E+02 -0.31271412136E+03  0.31835956905E+03  0.00000000000E+00 0. -1.
         -4    1    5    5    0  503  0.39290434500E+02 -0.10511372494E+02 -0.80271744174E+02  0.89987666420E+02  0.00000000000E+00 0.  1.
         -1    1    6    6    0  502 -0.19387969332E+03  0.12959746547E+03 -0.72000428835E+01  0.23331669284E+03  0.00000000000E+00 0.  1.
<mgrwt>
<rscale>  0 0.21713751E+04</rscale>
<asrwt>0</asrwt>
<pdfrwt beam="1">  1        1 0.19984739E+00 0.21713751E+04</pdfrwt>
<pdfrwt beam="2">  1       -1 0.13959972E+00 0.21713751E+04</pdfrwt>
<totfact> 0.34975247E+00</totfact>
</mgrwt>
</event>
<event>
12    1  0.1477245E-007  0.3497492E+04  0.7818608E-02  0.8114384E-01
         -2   -1    0    0    0  501 -0.00000000000E+00  0.00000000000E+00  0.12403896768E+04  0.12403896768E+04  0.00000000000E+00 0. -1.
          2   -1    0    0  501    0  0.00000000000E+00 -0.00000000000E+00 -0.24654455906E+04  0.24654455906E+04  0.00000000000E+00 0.  1.
         23    2    1    2    0    0  0.43722780672E+03 -0.93292180994E+03 -0.19144356581E+04  0.21759261350E+04  0.89885468773E+02 0.  0.
        254    2    1    2    0    0 -0.43722780672E+03  0.93292180994E+03  0.68937974437E+03  0.15299091324E+04  0.89658589278E+03 0.  0.
        -24    2    4    4    0    0  0.10704605752E+03  0.20666113610E+02 -0.12908290966E+03  0.18652076662E+03  0.79004127316E+02 0.  0.
         24    2    4    4    0    0 -0.54427386424E+03  0.91225569633E+03  0.81846265403E+03  0.13433883658E+04  0.79791544662E+02 0.  0.
         13    1    3    3    0    0  0.14290367720E+03 -0.30786405592E+03 -0.54425047561E+03  0.64141275173E+03  0.00000000000E+00 0. -1.
        -13    1    3    3    0    0  0.29432412952E+03 -0.62505775402E+03 -0.13701851825E+04  0.15345133832E+04  0.00000000000E+00 0.  1.
          2    1    6    6  502    0 -0.36327079206E+03  0.64377675527E+03  0.60893306676E+03  0.95771272247E+03  0.00000000000E+00 0. -1.
          3    1    5    5  503    0  0.46683769057E+02  0.45679248382E+02 -0.87050993161E+02  0.10882942358E+03  0.00000000000E+00 0. -1.
         -4    1    5    5    0  503  0.60362288458E+02 -0.25013134772E+02 -0.42031916498E+02  0.77691343041E+02  0.00000000000E+00 0.  1.
         -1    1    6    6    0  502 -0.18100307218E+03  0.26847894106E+03  0.20952958727E+03  0.38567564335E+03  0.00000000000E+00 0.  1.
<mgrwt>
<rscale>  0 0.34974924E+04</rscale>
<asrwt>0</asrwt>
<pdfrwt beam="1">  1        2 0.37929931E+00 0.34974924E+04</pdfrwt>
<pdfrwt beam="2">  1       -2 0.19082918E+00 0.34974924E+04</pdfrwt>
<totfact> 0.45841881E-01</totfact>
</mgrwt>
</event>
<event>
12    1  0.1477245E-007  0.1125258E+04  0.7818608E-02  0.9180917E-01
          2   -1    0    0  501    0  0.00000000000E+00  0.00000000000E+00  0.20136552932E+04  0.20136552932E+04  0.00000000000E+00 0. -1.
         -2   -1    0    0    0  501 -0.00000000000E+00 -0.00000000000E+00 -0.15720245531E+03  0.15720245531E+03  0.00000000000E+00 0.  1.
         23    2    1    2    0    0 -0.12688238651E+03  0.12999212488E+03  0.49038243144E+03  0.53066944993E+03  0.90211105166E+02 0.  0.
        254    2    1    2    0    0  0.12688238651E+03 -0.12999212488E+03  0.13660704064E+04  0.16401882985E+04  0.88942240068E+03 0.  0.
        -24    2    4    4    0    0  0.25956526658E+03 -0.20375674224E+03  0.14208654199E+04  0.14607904173E+04  0.78480341705E+02 0.  0.
         24    2    4    4    0    0 -0.13268288007E+03  0.73764617361E+02 -0.54795013508E+02  0.17939788126E+03  0.78327139980E+02 0.  0.
         13    1    3    3    0    0 -0.72783390435E+02  0.56662869061E+02  0.35979744070E+03  0.37143276779E+03  0.00000000000E+00 0. -1.
        -13    1    3    3    0    0 -0.54098996072E+02  0.73329255819E+02  0.13058499074E+03  0.15923668215E+03  0.00000000000E+00 0.  1.
          4    1    6    6  502    0 -0.66496624319E+01  0.21121735439E+02 -0.34955104357E+02  0.41378799391E+02  0.00000000000E+00 0. -1.
          3    1    5    5  503    0  0.88305567899E+02 -0.11843189389E+03  0.63863024972E+03  0.65549415151E+03  0.00000000000E+00 0. -1.
         -4    1    5    5    0  503  0.17125969868E+03 -0.85324848348E+02  0.78223517022E+03  0.80529626577E+03  0.00000000000E+00 0.  1.
         -3    1    6    6    0  502 -0.12603321764E+03  0.52642881922E+02 -0.19839909152E+02  0.13801908187E+03  0.00000000000E+00 0.  1.
<mgrwt>
<rscale>  0 0.11252583E+04</rscale>
<asrwt>0</asrwt>
<pdfrwt beam="1">  1        2 0.30979310E+00 0.11252583E+04</pdfrwt>
<pdfrwt beam="2">  1       -2 0.24184994E-01 0.11252583E+04</pdfrwt>
<totfact> 0.99354312E+01</totfact>
</mgrwt>
</event>
<event>
12    1  0.1477245E-007  0.1347370E+04  0.7818608E-02  0.8992821E-01
         -1   -1    0    0    0  501 -0.00000000000E+00  0.00000000000E+00  0.20909718223E+03  0.20909718223E+03  0.00000000000E+00 0.  1.
          1   -1    0    0  501    0  0.00000000000E+00 -0.00000000000E+00 -0.21705297733E+04  0.21705297733E+04  0.00000000000E+00 0. -1.
         23    2    1    2    0    0 -0.40550385133E+02 -0.94340383365E+01  0.96342737379E+02  0.13961529377E+03  0.92071561269E+02 0.  0.
        254    2    1    2    0    0  0.40550385133E+02  0.94340383365E+01 -0.20577753284E+04  0.22400116617E+04  0.88401335262E+03 0.  0.
        -24    2    4    4    0    0 -0.25942949641E+03 -0.32673757955E+03 -0.10721289357E+04  0.11532098276E+04  0.79820687210E+02 0.  0.
         24    2    4    4    0    0  0.29997988154E+03  0.33617161788E+03 -0.98564639269E+03  0.10868018341E+04  0.81486988423E+02 0.  0.
         11    1    3    3    0    0 -0.42714469714E+01 -0.20833919431E+02 -0.12259413953E+02  0.24547722676E+02  0.00000000000E+00 0. -1.
        -11    1    3    3    0    0 -0.36278938161E+02  0.11399881095E+02  0.10860215133E+03  0.11506757109E+03  0.00000000000E+00 0.  1.
          4    1    6    6  502    0  0.20984782232E+03  0.20288809285E+03 -0.55493765063E+03  0.62702111834E+03  0.00000000000E+00 0. -1.
          1    1    5    5  503    0 -0.59234760381E+02 -0.29748969302E+02 -0.18440197769E+03  0.19595368685E+03  0.00000000000E+00 0. -1.
         -2    1    5    5    0  503 -0.20019473603E+03 -0.29698861025E+03 -0.88772695804E+03  0.95725614074E+03  0.00000000000E+00 0.  1.
         -3    1    6    6    0  502  0.90132059224E+02  0.13328352503E+03 -0.43070874206E+03  0.45978071581E+03  0.00000000000E+00 0.  1.
<mgrwt>
<rscale>  0 0.13473703E+04</rscale>
<asrwt>0</asrwt>
<pdfrwt beam="1">  1        1 0.33392766E+00 0.13473703E+04</pdfrwt>
<pdfrwt beam="2">  1       -1 0.32168797E-01 0.13473703E+04</pdfrwt>
<totfact> 0.20188995E+01</totfact>
</mgrwt>
</event>
<event>
12    1  0.1994866E-007  0.1834533E+04  0.7818608E-02  0.8688148E-01
         -2   -1    0    0    0  501 -0.00000000000E+00  0.00000000000E+00  0.59436049182E+03  0.59436049182E+03  0.00000000000E+00 0.  1.
          2   -1    0    0  501    0  0.00000000000E+00 -0.00000000000E+00 -0.14156013856E+04  0.14156013856E+04  0.00000000000E+00 0. -1.
         23    2    1    2    0    0  0.30384255214E+03  0.17367646445E+03  0.34087929499E+03  0.49669192110E+03  0.89556462265E+02 0.  0.
        254    2    1    2    0    0 -0.30384255214E+03 -0.17367646445E+03 -0.11621201888E+04  0.15132699563E+04  0.90386880507E+03 0.  0.
        -24    2    4    4    0    0 -0.14712569143E+03  0.22687566774E+03 -0.11209557952E+02  0.28199537641E+03  0.79228785381E+02 0.  0.
         24    2    4    4    0    0 -0.15671686071E+03 -0.40055213219E+03 -0.11509106308E+04  0.12312745799E+04  0.80247280276E+02 0.  0.
         13    1    3    3    0    0  0.11685989346E+03  0.24909254622E+02  0.14377067747E+03  0.18694040057E+03  0.00000000000E+00 0. -1.
        -13    1    3    3    0    0  0.18698265868E+03  0.14876720982E+03  0.19710861752E+03  0.30975152052E+03  0.00000000000E+00 0.  1.
          4    1    6    6  502    0 -0.15165147964E+01 -0.23152300726E+02 -0.27125234454E+02  0.35694638116E+02  0.00000000000E+00 0. -1.
          3    1    5    5  503    0 -0.50573270199E+02  0.38589811675E+02 -0.28468379915E+02  0.69694173922E+02  0.00000000000E+00 0. -1.
         -4    1    5    5    0  503 -0.96552421228E+02  0.18828585607E+03  0.17258821963E+02  0.21230120248E+03  0.00000000000E+00 0.  1.
         -3    1    6    6    0  502 -0.15520034592E+03 -0.37739983146E+03 -0.11237853964E+04  0.11955799418E+04  0.00000000000E+00 0.  1.
<mgrwt>
<rscale>  0 0.18345327E+04</rscale>
<asrwt>0</asrwt>
<pdfrwt beam="1">  1        2 0.21778483E+00 0.18345327E+04</pdfrwt>
<pdfrwt beam="2">  1       -2 0.91440076E-01 0.18345327E+04</pdfrwt>
<totfact> 0.13597099E+01</totfact>
</mgrwt>
</event>
<event>
12    1  0.1477245E-007  0.2216180E+04  0.7818608E-02  0.8511724E-01
         -2   -1    0    0    0  501 -0.00000000000E+00  0.00000000000E+00  0.97659201817E+03  0.97659201817E+03  0.00000000000E+00 0. -1.
          2   -1    0    0  501    0  0.00000000000E+00 -0.00000000000E+00 -0.12572945784E+04  0.12572945784E+04  0.00000000000E+00 0.  1.
         23    2    1    2    0    0 -0.44036424140E+03 -0.80678095684E+03 -0.13912167955E+03  0.93407396143E+03  0.91231279066E+02 0.  0.
        254    2    1    2    0    0  0.44036424140E+03  0.80678095684E+03 -0.14158088073E+03  0.12998126352E+04  0.90810327792E+03 0.  0.
        -24    2    4    4    0    0 -0.21826549826E+03 -0.58405054901E+01 -0.90095766543E+02  0.24950654837E+03  0.80388626639E+02 0.  0.
         24    2    4    4    0    0  0.65862973966E+03  0.81262146233E+03 -0.51485114187E+02  0.10503060868E+04  0.79657918678E+02 0.  0.
         11    1    3    3    0    0 -0.43787728229E+02 -0.12867299309E+03  0.20275345786E+01  0.13593459894E+03  0.00000000000E+00 0. -1.
        -11    1    3    3    0    0 -0.39657651317E+03 -0.67810796376E+03 -0.14114921413E+03  0.79813936249E+03  0.00000000000E+00 0.  1.
          2    1    6    6  502    0  0.64340721639E+03  0.77782332356E+03 -0.38551154379E+02  0.10101822411E+04  0.00000000000E+00 0. -1.
          1    1    5    5  503    0 -0.15207613477E+03  0.22654281689E+02 -0.32252043437E+02  0.15710048234E+03  0.00000000000E+00 0. -1.
         -2    1    5    5    0  503 -0.66189363494E+02 -0.28494787179E+02 -0.57843723106E+02  0.92406066029E+02  0.00000000000E+00 0.  1.
         -1    1    6    6    0  502  0.15222523270E+02  0.34798138770E+02 -0.12933959808E+02  0.40123845689E+02  0.00000000000E+00 0.  1.
<mgrwt>
<rscale>  0 0.22161804E+04</rscale>
<asrwt>0</asrwt>
<pdfrwt beam="1">  1        2 0.19342994E+00 0.22161804E+04</pdfrwt>
<pdfrwt beam="2">  1       -2 0.15024493E+00 0.22161804E+04</pdfrwt>
<totfact> 0.47697171E+00</totfact>
</mgrwt>
</event>
<event>
12    1  0.1477245E-007  0.2137014E+04  0.7818608E-02  0.8545111E-01
          1   -1    0    0  501    0  0.00000000000E+00  0.00000000000E+00  0.23670075357E+04  0.23670075357E+04  0.00000000000E+00 0. -1.
         -1   -1    0    0    0  501 -0.00000000000E+00 -0.00000000000E+00 -0.48234211704E+03  0.48234211704E+03  0.00000000000E+00 0.  1.
         23    2    1    2    0    0  0.19462607742E+03  0.65049299334E+03  0.58524143264E+02  0.68815354205E+03  0.95445155465E+02 0.  0.
        254    2    1    2    0    0 -0.19462607742E+03 -0.65049299334E+03  0.18261412754E+04  0.21611961107E+04  0.93539094861E+03 0.  0.
        -24    2    4    4    0    0 -0.34695423465E+03 -0.16476387943E+03  0.14997173574E+04  0.15501980455E+04  0.80233729696E+02 0.  0.
         24    2    4    4    0    0  0.15232815724E+03 -0.48572911391E+03  0.32642391803E+03  0.61099806518E+03  0.87346561468E+02 0.  0.
         13    1    3    3    0    0  0.94797154501E+02  0.33442057429E+03 -0.17670904803E+02  0.34804580429E+03  0.00000000000E+00 0.  1.
        -13    1    3    3    0    0  0.99828922915E+02  0.31607241905E+03  0.76195048067E+02  0.34010773776E+03  0.00000000000E+00 0. -1.
          4    1    6    6  502    0  0.16667839650E+02 -0.19321631533E+03  0.12899805123E+03  0.23291813714E+03  0.00000000000E+00 0. -1.
          1    1    5    5  503    0 -0.36516914904E+02 -0.21317955541E+01  0.23468458033E+03  0.23751817166E+03  0.00000000000E+00 0. -1.
         -2    1    5    5    0  503 -0.31043731975E+03 -0.16263208387E+03  0.12650327771E+04  0.13126798739E+04  0.00000000000E+00 0.  1.
         -3    1    6    6    0  502  0.13566031759E+03 -0.29251279858E+03  0.19742586680E+03  0.37807992803E+03  0.00000000000E+00 0.  1.
<mgrwt>
<rscale>  0 0.21370142E+04</rscale>
<asrwt>0</asrwt>
<pdfrwt beam="1">  1        1 0.36415500E+00 0.21370142E+04</pdfrwt>
<pdfrwt beam="2">  1       -1 0.74206481E-01 0.21370142E+04</pdfrwt>
<totfact> 0.28055886E+00</totfact>
</mgrwt>
</event>
<event>
12    1  0.1477245E-007  0.2062375E+04  0.7818608E-02  0.8578001E-01
         -1   -1    0    0    0  501 -0.00000000000E+00  0.00000000000E+00  0.13467762552E+04  0.13467762552E+04  0.00000000000E+00 0.  1.
          1   -1    0    0  501    0  0.00000000000E+00 -0.00000000000E+00 -0.78954999672E+03  0.78954999672E+03  0.00000000000E+00 0. -1.
         23    2    1    2    0    0  0.52146895156E+03 -0.18114028437E+03  0.87670974468E+03  0.10403064856E+04  0.94212193609E+02 0.  0.
        254    2    1    2    0    0 -0.52146895156E+03  0.18114028437E+03 -0.31948348625E+03  0.10960197663E+04  0.89131810264E+03 0.  0.
        -24    2    4    4    0    0 -0.12693931233E+03  0.48918710084E+03 -0.30727992601E+02  0.51255636148E+03  0.79700724726E+02 0.  0.
         24    2    4    4    0    0 -0.39452963923E+03 -0.30804681647E+03 -0.28875549365E+03  0.58346340483E+03  0.80643240829E+02 0.  0.
         13    1    3    3    0    0  0.49523955008E+03 -0.14629639419E+03  0.80980565839E+03  0.96044263299E+03  0.00000000000E+00 0.  1.
        -13    1    3    3    0    0  0.26229401485E+02 -0.34843890175E+02  0.66904086294E+02  0.79863852572E+02  0.00000000000E+00 0. -1.
          2    1    6    6  502    0 -0.10495542870E+03 -0.12715603077E+03 -0.10847157692E+03  0.19735850925E+03  0.00000000000E+00 0. -1.
          3    1    5    5  503    0 -0.18700624658E+02  0.31139290879E+02 -0.20656502879E+02  0.41785881709E+02  0.00000000000E+00 0. -1.
         -4    1    5    5    0  503 -0.10823868767E+03  0.45804780996E+03 -0.10071489722E+02  0.47077047977E+03  0.00000000000E+00 0.  1.
         -1    1    6    6    0  502 -0.28957421054E+03 -0.18089078570E+03 -0.18028391673E+03  0.38610489558E+03  0.00000000000E+00 0.  1.
<mgrwt>
<rscale>  0 0.20623745E+04</rscale>
<asrwt>0</asrwt>
<pdfrwt beam="1">  1        1 0.12146923E+00 0.20623745E+04</pdfrwt>
<pdfrwt beam="2">  1       -1 0.20719635E+00 0.20623745E+04</pdfrwt>
<totfact> 0.27984478E+00</totfact>
</mgrwt>
</event>
<event>
12    1  0.1477245E-007  0.1538019E+04  0.7818608E-02  0.8859557E-01
         -2   -1    0    0    0  501 -0.00000000000E+00  0.00000000000E+00  0.31306398608E+03  0.31306398608E+03  0.00000000000E+00 0. -1.
          2   -1    0    0  501    0  0.00000000000E+00 -0.00000000000E+00 -0.18889918094E+04  0.18889918094E+04  0.00000000000E+00 0.  1.
         23    2    1    2    0    0  0.48356497252E+03 -0.35505907711E+02 -0.67496415228E+03  0.83664352422E+03  0.96436650916E+02 0.  0.
        254    2    1    2    0    0 -0.48356497252E+03  0.35505907711E+02 -0.90096367101E+03  0.13654122712E+04  0.90416778409E+03 0.  0.
        -24    2    4    4    0    0 -0.66011342233E+03 -0.19579510208E+03 -0.77042057463E+03  0.10362850286E+04  0.79078102458E+02 0.  0.
         24    2    4    4    0    0  0.17654844981E+03  0.23130100980E+03 -0.13054309638E+03  0.32912724265E+03  0.81324839862E+02 0.  0.
         11    1    3    3    0    0  0.39647678188E+03 -0.16165256295E+02 -0.48399167847E+03  0.62586188485E+03  0.00000000000E+00 0. -1.
        -11    1    3    3    0    0  0.87088190640E+02 -0.19340651416E+02 -0.19097247380E+03  0.21078163937E+03  0.00000000000E+00 0.  1.
          2    1    6    6  502    0  0.73027015536E+02  0.86805941488E+02 -0.94760932537E+02  0.14781018507E+03  0.00000000000E+00 0. -1.
          3    1    5    5  503    0 -0.32230925848E+03 -0.99319268017E+02 -0.31858756633E+03  0.46394569997E+03  0.00000000000E+00 0. -1.
         -4    1    5    5    0  503 -0.33780416384E+03 -0.96475834067E+02 -0.45183300830E+03  0.57233932859E+03  0.00000000000E+00 0.  1.
         -1    1    6    6    0  502  0.10352143427E+03  0.14449506831E+03 -0.35782163845E+02  0.18131705758E+03  0.00000000000E+00 0.  1.
<mgrwt>
<rscale>  0 0.15380186E+04</rscale>
<asrwt>0</asrwt>
<pdfrwt beam="1">  1        2 0.29061412E+00 0.15380186E+04</pdfrwt>
<pdfrwt beam="2">  1       -2 0.48163692E-01 0.15380186E+04</pdfrwt>
<totfact> 0.30302185E+01</totfact>
</mgrwt>
</event>
<event>
12    1  0.1477245E-007  0.3030866E+04  0.7818608E-02  0.8234971E-01
          1   -1    0    0  501    0  0.00000000000E+00  0.00000000000E+00  0.24532433763E+04  0.24532433763E+04  0.00000000000E+00 0. -1.
         -1   -1    0    0    0  501 -0.00000000000E+00 -0.00000000000E+00 -0.93612289051E+03  0.93612289051E+03  0.00000000000E+00 0.  1.
         23    2    1    2    0    0 -0.73493244701E+02  0.13108104316E+04  0.20602323699E+03  0.13321762174E+04  0.92858254162E+02 0.  0.
        254    2    1    2    0    0  0.73493244701E+02 -0.13108104316E+04  0.13110972488E+04  0.20571900495E+04  0.88849854194E+03 0.  0.
        -24    2    4    4    0    0  0.20657115834E+03  0.33981478459E+02  0.25738058436E+03  0.34163543755E+03  0.81508420696E+02 0.  0.
         24    2    4    4    0    0 -0.13307791364E+03 -0.13447919101E+04  0.10537166645E+04  0.17155546119E+04  0.81448173474E+02 0.  0.
         13    1    3    3    0    0 -0.39645402982E+02  0.51512727722E+03  0.36554244365E+02  0.51794216134E+03  0.00000000000E+00 0. -1.
        -13    1    3    3    0    0 -0.33847841718E+02  0.79568315439E+03  0.16946899262E+03  0.81423405605E+03  0.00000000000E+00 0.  1.
          2    1    6    6  502    0 -0.75392363522E+02 -0.10852747475E+04  0.83975403220E+03  0.13742969551E+04  0.00000000000E+00 0. -1.
          1    1    5    5  503    0  0.13331508824E+03  0.31045418449E+02  0.10493424634E+03  0.17247587314E+03  0.00000000000E+00 0. -1.
         -2    1    5    5    0  503  0.73256070099E+02  0.29360600098E+01  0.15244633802E+03  0.16915956441E+03  0.00000000000E+00 0.  1.
         -1    1    6    6    0  502 -0.57685550121E+02 -0.25951716256E+03  0.21396263227E+03  0.34125765686E+03  0.00000000000E+00 0.  1.
<mgrwt>
<rscale>  0 0.30308661E+04</rscale>
<asrwt>0</asrwt>
<pdfrwt beam="1">  1        1 0.37742206E+00 0.30308661E+04</pdfrwt>
<pdfrwt beam="2">  1       -1 0.14401891E+00 0.30308661E+04</pdfrwt>
<totfact> 0.48185274E-01</totfact>
</mgrwt>
</event>
<event>
12    1  0.1477245E-007  0.1210128E+04  0.7818608E-02  0.9104037E-01
          1   -1    0    0  501    0  0.00000000000E+00  0.00000000000E+00  0.15189787508E+04  0.15189787508E+04  0.00000000000E+00 0.  1.
         -1   -1    0    0    0  501 -0.00000000000E+00 -0.00000000000E+00 -0.24101888210E+03  0.24101888210E+03  0.00000000000E+00 0. -1.
         23    2    1    2    0    0  0.20197389105E+03  0.12948051083E+03  0.13952060897E+03  0.29248374965E+03  0.92315156560E+02 0.  0.
        254    2    1    2    0    0 -0.20197389105E+03 -0.12948051083E+03  0.11384392598E+04  0.14675138833E+04  0.89442405719E+03 0.  0.
        -24    2    4    4    0    0  0.70214122912E+02 -0.46514866746E+03  0.48856682461E+03  0.68288089999E+03  0.79595700690E+02 0.  0.
         24    2    4    4    0    0 -0.27218801396E+03  0.33566815662E+03  0.64987243514E+03  0.78463298328E+03  0.80964869983E+02 0.  0.
         13    1    3    3    0    0  0.97590140274E+02  0.11626609660E+03  0.79557025982E+02  0.17137958187E+03  0.00000000000E+00 0. -1.
        -13    1    3    3    0    0  0.10438375078E+03  0.13214414230E+02  0.59963582988E+02  0.12110416778E+03  0.00000000000E+00 0.  1.
          4    1    6    6  502    0 -0.18712523794E+03  0.23098970280E+03  0.37576230939E+03  0.47913402158E+03  0.00000000000E+00 0. -1.
          3    1    5    5  503    0  0.67956222816E+02 -0.37703518027E+03  0.43536128341E+03  0.57992501452E+03  0.00000000000E+00 0. -1.
         -4    1    5    5    0  503  0.22579000958E+01 -0.88113487192E+02  0.53205541201E+02  0.10295588547E+03  0.00000000000E+00 0.  1.
         -3    1    6    6    0  502 -0.85062776016E+02  0.10467845382E+03  0.27411012575E+03  0.30549896170E+03  0.00000000000E+00 0.  1.
<mgrwt>
<rscale>  0 0.12101282E+04</rscale>
<asrwt>0</asrwt>
<pdfrwt beam="1">  1        1 0.23368903E+00 0.12101282E+04</pdfrwt>
<pdfrwt beam="2">  1       -1 0.37079829E-01 0.12101282E+04</pdfrwt>
<totfact> 0.43883770E+01</totfact>
</mgrwt>
</event>
<event>
12    1  0.1477245E-007  0.3086113E+04  0.7818608E-02  0.8219559E-01
          1   -1    0    0  501    0  0.00000000000E+00  0.00000000000E+00  0.18929126342E+04  0.18929126342E+04  0.00000000000E+00 0.  1.
         -1   -1    0    0    0  501 -0.00000000000E+00 -0.00000000000E+00 -0.12578623986E+04  0.12578623986E+04  0.00000000000E+00 0. -1.
         23    2    1    2    0    0  0.44435691965E+03 -0.13386769472E+04  0.23349468792E+03  0.14326138791E+04  0.91398666972E+02 0.  0.
        254    2    1    2    0    0 -0.44435691965E+03  0.13386769472E+04  0.40155554765E+03  0.17181611536E+04  0.89516582309E+03 0.  0.
        -24    2    4    4    0    0 -0.23525409509E+03  0.11696278302E+04  0.63434447765E+03  0.13536428890E+04  0.81132017652E+02 0.  0.
         24    2    4    4    0    0 -0.20910282456E+03  0.16904911701E+03 -0.23278893000E+03  0.36451826455E+03  0.79882939749E+02 0.  0.
         11    1    3    3    0    0  0.21113603912E+02 -0.59431575915E+02 -0.84083870396E+01  0.63628589945E+02  0.00000000000E+00 0. -1.
        -11    1    3    3    0    0  0.42324331574E+03 -0.12792453713E+04  0.24190307496E+03  0.13689852892E+04  0.00000000000E+00 0.  1.
          4    1    6    6  502    0 -0.41903818793E+02  0.75999212042E+01 -0.12742277182E+02  0.44452834100E+02  0.00000000000E+00 0. -1.
          3    1    5    5  503    0 -0.68282403870E+02  0.25165780296E+03  0.10664865144E+03  0.28172339506E+03  0.00000000000E+00 0. -1.
         -4    1    5    5    0  503 -0.16697169122E+03  0.91797002725E+03  0.52769582621E+03  0.10719194940E+04  0.00000000000E+00 0.  1.
         -3    1    6    6    0  502 -0.16719900576E+03  0.16144919581E+03 -0.22004665282E+03  0.32006543045E+03  0.00000000000E+00 0.  1.
<mgrwt>
<rscale>  0 0.30861132E+04</rscale>
<asrwt>0</asrwt>
<pdfrwt beam="1">  1        1 0.29121733E+00 0.30861132E+04</pdfrwt>
<pdfrwt beam="2">  1       -1 0.19351729E+00 0.30861132E+04</pdfrwt>
<totfact> 0.49690509E-01</totfact>
</mgrwt>
</event>
<event>
12    1  0.1477245E-007  0.1306751E+04  0.7818608E-02  0.9024229E-01
          1   -1    0    0  501    0  0.00000000000E+00  0.00000000000E+00  0.99450595971E+03  0.99450595971E+03  0.00000000000E+00 0. -1.
         -1   -1    0    0    0  501 -0.00000000000E+00 -0.00000000000E+00 -0.42925786699E+03  0.42925786699E+03  0.00000000000E+00 0.  1.
         23    2    1    2    0    0  0.40013691821E+02 -0.56616591603E+02  0.50468925752E+03  0.51727916130E+03  0.89777224730E+02 0.  0.
        254    2    1    2    0    0 -0.40013691821E+02  0.56616591603E+02  0.60558835204E+02  0.90648466540E+03  0.90179850416E+03 0.  0.
        -24    2    4    4    0    0  0.17468366706E+03  0.41138954361E+02 -0.36978224705E+03  0.41874212589E+03  0.79995379011E+02 0.  0.
         24    2    4    4    0    0 -0.21469735888E+03  0.15477637242E+02  0.43034108225E+03  0.48774253950E+03  0.79779850875E+02 0.  0.
         11    1    3    3    0    0  0.15841647378E+02 -0.28724476411E+02  0.42835931601E+02  0.53953409279E+02  0.00000000000E+00 0.  1.
        -11    1    3    3    0    0  0.24172044443E+02 -0.27892115192E+02  0.46185332591E+03  0.46332575202E+03  0.00000000000E+00 0. -1.
          4    1    6    6  502    0 -0.17545567194E+03  0.70434057388E+01  0.26718578288E+03  0.31972260626E+03  0.00000000000E+00 0. -1.
          1    1    5    5  503    0  0.13347721900E+03  0.19291785710E+02 -0.18993407456E+03  0.23294482967E+03  0.00000000000E+00 0. -1.
         -2    1    5    5    0  503  0.41206448060E+02  0.21847168652E+02 -0.17984817248E+03  0.18579729623E+03  0.00000000000E+00 0.  1.
         -3    1    6    6    0  502 -0.39241686938E+02  0.84342315029E+01  0.16315529937E+03  0.16801993324E+03  0.00000000000E+00 0.  1.
<mgrwt>
<rscale>  0 0.13067509E+04</rscale>
<asrwt>0</asrwt>
<pdfrwt beam="1">  1        1 0.15300092E+00 0.13067509E+04</pdfrwt>
<pdfrwt beam="2">  1       -1 0.66039672E-01 0.13067509E+04</pdfrwt>
<totfact> 0.34878627E+01</totfact>
</mgrwt>
</event>
<event>
12    1  0.1477245E-007  0.1987524E+04  0.7818608E-02  0.8612476E-01
         -2   -1    0    0    0  501 -0.00000000000E+00  0.00000000000E+00  0.49891223553E+03  0.49891223553E+03  0.00000000000E+00 0.  1.
          2   -1    0    0  501    0  0.00000000000E+00 -0.00000000000E+00 -0.19794326261E+04  0.19794326261E+04  0.00000000000E+00 0. -1.
         23    2    1    2    0    0  0.19401557854E+03  0.66405873498E+03 -0.17797856705E+03  0.72015996397E+03  0.91312404196E+02 0.  0.
        254    2    1    2    0    0 -0.19401557854E+03 -0.66405873498E+03 -0.13025418236E+04  0.17581848977E+04  0.95706994736E+03 0.  0.
        -24    2    4    4    0    0 -0.13338878612E+03 -0.80778973979E+03 -0.13462430652E+04  0.15775872672E+04  0.78066401966E+02 0.  0.
         24    2    4    4    0    0 -0.60626792413E+02  0.14373100481E+03  0.43701241634E+02  0.18059763049E+03  0.79821650670E+02 0.  0.
         13    1    3    3    0    0  0.19420814950E+03  0.61729745114E+03 -0.18457689543E+03  0.67293504801E+03  0.00000000000E+00 0.  1.
        -13    1    3    3    0    0 -0.19257096694E+00  0.46761283839E+02  0.65983283784E+01  0.47224915958E+02  0.00000000000E+00 0. -1.
          2    1    6    6  502    0 -0.12961415752E+02  0.84722240092E+02  0.57889910554E+02  0.10342677607E+03  0.00000000000E+00 0. -1.
          3    1    5    5  503    0 -0.88665304015E+02 -0.31062336548E+03 -0.54754439242E+03  0.63573050343E+03  0.00000000000E+00 0. -1.
         -4    1    5    5    0  503 -0.44723482110E+02 -0.49716637431E+03 -0.79869867277E+03  0.94185676378E+03  0.00000000000E+00 0.  1.
         -1    1    6    6    0  502 -0.47665376661E+02  0.59008764715E+02 -0.14188668920E+02  0.77170854415E+02  0.00000000000E+00 0.  1.
<mgrwt>
<rscale>  0 0.19875242E+04</rscale>
<asrwt>0</asrwt>
<pdfrwt beam="1">  1        2 0.30452809E+00 0.19875242E+04</pdfrwt>
<pdfrwt beam="2">  1       -2 0.76755729E-01 0.19875242E+04</pdfrwt>
<totfact> 0.96746686E+00</totfact>
</mgrwt>
</event>
<event>
12    1  0.1477245E-007  0.2840281E+04  0.7818608E-02  0.8290871E-01
          1   -1    0    0  501    0  0.00000000000E+00  0.00000000000E+00  0.23299348112E+04  0.23299348112E+04  0.00000000000E+00 0. -1.
         -1   -1    0    0    0  501 -0.00000000000E+00 -0.00000000000E+00 -0.86560292716E+03  0.86560292716E+03  0.00000000000E+00 0.  1.
         23    2    1    2    0    0 -0.12925052164E+03 -0.61596997770E+03  0.19056056875E+04  0.20090254797E+04  0.93411087062E+02 0.  0.
        254    2    1    2    0    0  0.12925052164E+03  0.61596997770E+03 -0.44127380346E+03  0.11865122586E+04  0.90386064163E+03 0.  0.
        -24    2    4    4    0    0 -0.21707231258E+03  0.53705948277E+03  0.36655797503E+02  0.58582441961E+03  0.79330487246E+02 0.  0.
         24    2    4    4    0    0  0.34632283423E+03  0.78910494933E+02 -0.47792960096E+03  0.60068783901E+03  0.79011421626E+02 0.  0.
         11    1    3    3    0    0 -0.13059786253E+03 -0.60477066928E+03  0.18114846840E+04  0.19142309486E+04  0.00000000000E+00 0. -1.
        -11    1    3    3    0    0  0.13473408812E+01 -0.11199308416E+02  0.94121003459E+02  0.94794531111E+02  0.00000000000E+00 0.  1.
          4    1    6    6  502    0  0.36367747676E+02  0.25814486208E+02 -0.31422950992E+02  0.54556416838E+02  0.00000000000E+00 0. -1.
          3    1    5    5  503    0 -0.17943323344E+03  0.36234227962E+03  0.53141909600E+01  0.40437167741E+03  0.00000000000E+00 0. -1.
         -4    1    5    5    0  503 -0.37639079140E+02  0.17471720314E+03  0.31341606543E+02  0.18145274220E+03  0.00000000000E+00 0.  1.
         -3    1    6    6    0  502  0.30995508655E+03  0.53096008725E+02 -0.44650664997E+03  0.54613142217E+03  0.00000000000E+00 0.  1.
<mgrwt>
<rscale>  0 0.28402805E+04</rscale>
<asrwt>0</asrwt>
<pdfrwt beam="1">  1        1 0.35845151E+00 0.28402805E+04</pdfrwt>
<pdfrwt beam="2">  1       -1 0.13316968E+00 0.28402805E+04</pdfrwt>
<totfact> 0.73036476E-01</totfact>
</mgrwt>
</event>
<event>
12    1  0.1477245E-007  0.1650778E+04  0.7818608E-02  0.8789947E-01
         -2   -1    0    0    0  501 -0.00000000000E+00  0.00000000000E+00  0.73850397525E+03  0.73850397525E+03  0.00000000000E+00 0.  1.
          2   -1    0    0  501    0  0.00000000000E+00 -0.00000000000E+00 -0.92249564849E+03  0.92249564849E+03  0.00000000000E+00 0. -1.
         23    2    1    2    0    0 -0.22115928066E+03 -0.31232464668E+03 -0.51990842785E+03  0.65186110844E+03  0.90332823521E+02 0.  0.
        254    2    1    2    0    0  0.22115928066E+03  0.31232464668E+03  0.33591675461E+03  0.10091385153E+04  0.87124185200E+03 0.  0.
        -24    2    4    4    0    0 -0.18852000656E+03  0.45834217621E+03  0.24007616896E+03  0.55652486101E+03  0.80411508215E+02 0.  0.
         24    2    4    4    0    0  0.40967928722E+03 -0.14601752953E+03  0.95840585645E+02  0.45261365428E+03  0.80718429616E+02 0.  0.
         13    1    3    3    0    0 -0.99614001425E+02 -0.13611706614E+03 -0.15650132390E+03  0.23009447920E+03  0.00000000000E+00 0. -1.
        -13    1    3    3    0    0 -0.12154527923E+03 -0.17620758054E+03 -0.36340710395E+03  0.42176662924E+03  0.00000000000E+00 0.  1.
          4    1    6    6  502    0  0.35494600245E+03 -0.13236673968E+03  0.10996649748E+03  0.39446197409E+03  0.00000000000E+00 0. -1.
          3    1    5    5  503    0 -0.93825052931E+02  0.25396788803E+03  0.17380649487E+03  0.32173207233E+03  0.00000000000E+00 0. -1.
         -4    1    5    5    0  503 -0.94694953629E+02  0.20437428818E+03  0.66269674095E+02  0.23479278868E+03  0.00000000000E+00 0.  1.
         -3    1    6    6    0  502  0.54733284765E+02 -0.13650789848E+02 -0.14125911832E+02  0.58151680197E+02  0.00000000000E+00 0.  1.
<mgrwt>
<rscale>  0 0.16507776E+04</rscale>
<asrwt>0</asrwt>
<pdfrwt beam="1">  1        2 0.14192241E+00 0.16507776E+04</pdfrwt>
<pdfrwt beam="2">  1       -2 0.11361600E+00 0.16507776E+04</pdfrwt>
<totfact> 0.16428429E+01</totfact>
</mgrwt>
</event>
<event>
12    1  0.1477245E-007  0.1982708E+04  0.7818608E-02  0.8614748E-01
          1   -1    0    0  501    0  0.00000000000E+00  0.00000000000E+00  0.20764368405E+04  0.20764368405E+04  0.00000000000E+00 0. -1.
         -1   -1    0    0    0  501 -0.00000000000E+00 -0.00000000000E+00 -0.47330260985E+03  0.47330260985E+03  0.00000000000E+00 0.  1.
         23    2    1    2    0    0 -0.56952727096E+03  0.52907531566E+03  0.76822263855E+03  0.10967958917E+04  0.92267023366E+02 0.  0.
        254    2    1    2    0    0  0.56952727096E+03 -0.52907531566E+03  0.83491159210E+03  0.14529435587E+04  0.89982532529E+03 0.  0.
        -24    2    4    4    0    0  0.61434307558E+03 -0.30653798497E+03  0.95881692486E+03  0.11819252718E+04  0.78958863241E+02 0.  0.
         24    2    4    4    0    0 -0.44815804617E+02 -0.22253733069E+03 -0.12390533276E+03  0.27101828682E+03  0.81037401322E+02 0.  0.
         11    1    3    3    0    0 -0.52078957271E+03  0.45285735337E+03  0.65113976136E+03  0.94883325741E+03  0.00000000000E+00 0.  1.
        -11    1    3    3    0    0 -0.48737698247E+02  0.76217962291E+02  0.11708287719E+03  0.14796263426E+03  0.00000000000E+00 0. -1.
          2    1    6    6  502    0 -0.66885868414E+02 -0.14590667368E+03 -0.92929868909E+02  0.18546815725E+03  0.00000000000E+00 0. -1.
          1    1    5    5  503    0  0.59550427330E+03 -0.30065013952E+03  0.94865616525E+03  0.11597259874E+04  0.00000000000E+00 0. -1.
         -2    1    5    5    0  503  0.18838802279E+02 -0.58878454514E+01  0.10160759609E+02  0.22199284475E+02  0.00000000000E+00 0.  1.
         -1    1    6    6    0  502  0.22070063797E+02 -0.76630657006E+02 -0.30975463851E+02  0.85550129573E+02  0.00000000000E+00 0.  1.
<mgrwt>
<rscale>  0 0.19827082E+04</rscale>
<asrwt>0</asrwt>
<pdfrwt beam="1">  1        1 0.31945182E+00 0.19827082E+04</pdfrwt>
<pdfrwt beam="2">  1       -1 0.72815788E-01 0.19827082E+04</pdfrwt>
<totfact> 0.46714195E+00</totfact>
</mgrwt>
</event>
<event>
12    1  0.1477245E-007  0.1614540E+04  0.7818608E-02  0.8811665E-01
          1   -1    0    0  501    0  0.00000000000E+00  0.00000000000E+00  0.13754132173E+04  0.13754132173E+04  0.00000000000E+00 0. -1.
         -1   -1    0    0    0  501 -0.00000000000E+00 -0.00000000000E+00 -0.47381018655E+03  0.47381018655E+03  0.00000000000E+00 0.  1.
         23    2    1    2    0    0 -0.41413777696E+03 -0.20711999423E+03  0.64359574285E+03  0.79814605257E+03  0.91721593482E+02 0.  0.
        254    2    1    2    0    0  0.41413777696E+03  0.20711999423E+03  0.25800728792E+03  0.10510773513E+04  0.90762715224E+03 0.  0.
        -24    2    4    4    0    0  0.55662283166E+03 -0.13339918985E+03  0.33189067437E+03  0.66644829049E+03  0.79859774520E+02 0.  0.
         24    2    4    4    0    0 -0.14248505470E+03  0.34051918408E+03 -0.73883386453E+02  0.38462906081E+03  0.78901546771E+02 0.  0.
         11    1    3    3    0    0 -0.16445401659E+03 -0.13314938883E+03  0.28397738422E+03  0.35414268038E+03  0.00000000000E+00 0.  1.
        -11    1    3    3    0    0 -0.24968376037E+03 -0.73970605396E+02  0.35961835863E+03  0.44400337219E+03  0.00000000000E+00 0. -1.
          4    1    6    6  502    0 -0.88425892100E+02  0.29081812954E+03 -0.62382023380E+02  0.31029959669E+03  0.00000000000E+00 0. -1.
          3    1    5    5  503    0  0.52648646264E+03 -0.11862913458E+03  0.33053033059E+03  0.63285951550E+03  0.00000000000E+00 0. -1.
         -4    1    5    5    0  503  0.30136369020E+02 -0.14770055270E+02  0.13603437791E+01  0.33588774994E+02  0.00000000000E+00 0.  1.
         -3    1    6    6    0  502 -0.54059162604E+02  0.49701054538E+02 -0.11501363073E+02  0.74329464119E+02  0.00000000000E+00 0.  1.
<mgrwt>
<rscale>  0 0.16145399E+04</rscale>
<asrwt>0</asrwt>
<pdfrwt beam="1">  1        1 0.21160203E+00 0.16145399E+04</pdfrwt>
<pdfrwt beam="2">  1       -1 0.72893876E-01 0.16145399E+04</pdfrwt>
<totfact> 0.14539316E+01</totfact>
</mgrwt>
</event>
<event>
12    1  0.1477245E-007  0.1239101E+04  0.7818608E-02  0.9079304E-01
         -2   -1    0    0    0  501 -0.00000000000E+00  0.00000000000E+00  0.22656659793E+03  0.22656659793E+03  0.00000000000E+00 0.  1.
          2   -1    0    0  501    0  0.00000000000E+00 -0.00000000000E+00 -0.16941714873E+04  0.16941714873E+04  0.00000000000E+00 0. -1.
         23    2    1    2    0    0  0.97261465537E+00 -0.27200646991E+03 -0.45523326796E+03  0.53769276578E+03  0.88812817016E+02 0.  0.
        254    2    1    2    0    0 -0.97261465537E+00  0.27200646991E+03 -0.10123716214E+04  0.13830453195E+04  0.90218046432E+03 0.  0.
        -24    2    4    4    0    0 -0.38903820055E+03  0.18785362071E+03 -0.21506442261E+03  0.48908215995E+03  0.79428892744E+02 0.  0.
         24    2    4    4    0    0  0.38806558590E+03  0.84152849195E+02 -0.79730719882E+03  0.89396315952E+03  0.76123323080E+02 0.  0.
         11    1    3    3    0    0 -0.13351967929E+02 -0.16246574164E+02 -0.84445294211E+02  0.87024329552E+02  0.00000000000E+00 0. -1.
        -11    1    3    3    0    0  0.14324582585E+02 -0.25575989575E+03 -0.37078797375E+03  0.45066843623E+03  0.00000000000E+00 0.  1.
          4    1    6    6  502    0  0.17371290865E+03  0.22839124791E+02 -0.42947273323E+03  0.46383685585E+03  0.00000000000E+00 0. -1.
          1    1    5    5  503    0 -0.56664549458E+02 -0.15910964938E+01 -0.27834325051E+02  0.63151820278E+02  0.00000000000E+00 0. -1.
         -2    1    5    5    0  503 -0.33237365109E+03  0.18944471721E+03 -0.18723009756E+03  0.42593033967E+03  0.00000000000E+00 0.  1.
         -3    1    6    6    0  502  0.21435267724E+03  0.61313724404E+02 -0.36783446559E+03  0.43012630368E+03  0.00000000000E+00 0.  1.
<mgrwt>
<rscale>  0 0.12391008E+04</rscale>
<asrwt>0</asrwt>
<pdfrwt beam="1">  1        2 0.26064176E+00 0.12391008E+04</pdfrwt>
<pdfrwt beam="2">  1       -2 0.34856400E-01 0.12391008E+04</pdfrwt>
<totfact> 0.75072827E+01</totfact>
</mgrwt>
</event>
<event>
12    1  0.1477245E-007  0.1566403E+04  0.7818608E-02  0.8841458E-01
         -1   -1    0    0    0  501 -0.00000000000E+00  0.00000000000E+00  0.28456090512E+03  0.28456090512E+03  0.00000000000E+00 0.  1.
          1   -1    0    0  501    0  0.00000000000E+00 -0.00000000000E+00 -0.21556183542E+04  0.21556183542E+04  0.00000000000E+00 0. -1.
         23    2    1    2    0    0  0.15213020518E+03 -0.12568542700E+03  0.12289513415E+03  0.24817151609E+03  0.86864615994E+02 0.  0.
        254    2    1    2    0    0 -0.15213020518E+03  0.12568542700E+03 -0.19939525832E+04  0.21920077432E+04  0.88888166607E+03 0.  0.
        -24    2    4    4    0    0 -0.40777885060E+03 -0.21962112592E+03 -0.11284041442E+04  0.12224649490E+04  0.81287200780E+02 0.  0.
         24    2    4    4    0    0  0.25564864542E+03  0.34530655292E+03 -0.86554843904E+03  0.96954279420E+03  0.79033436391E+02 0.  0.
         13    1    3    3    0    0  0.29694482065E+02 -0.66370454906E+02  0.14312730406E+02  0.74105693446E+02  0.00000000000E+00 0. -1.
        -13    1    3    3    0    0  0.12243572312E+03 -0.59314972097E+02  0.10858240375E+03  0.17406582265E+03  0.00000000000E+00 0.  1.
          4    1    6    6  502    0  0.25308035395E+03  0.30627250686E+03 -0.79953087678E+03  0.89280576663E+03  0.00000000000E+00 0. -1.
          3    1    5    5  503    0 -0.29113550631E+03 -0.13745481316E+03 -0.68972525178E+03  0.76116662542E+03  0.00000000000E+00 0. -1.
         -4    1    5    5    0  503 -0.11664334428E+03 -0.82166312757E+02 -0.43867889238E+03  0.46129832358E+03  0.00000000000E+00 0.  1.
         -3    1    6    6    0  502  0.25682914725E+01  0.39034046060E+02 -0.66017562267E+02  0.76737027572E+02  0.00000000000E+00 0.  1.
<mgrwt>
<rscale>  0 0.15664032E+04</rscale>
<asrwt>0</asrwt>
<pdfrwt beam="1">  1        1 0.33163359E+00 0.15664032E+04</pdfrwt>
<pdfrwt beam="2">  1       -1 0.43778601E-01 0.15664032E+04</pdfrwt>
<totfact> 0.11596413E+01</totfact>
</mgrwt>
</event>
<event>
12    1  0.1477245E-007  0.1299089E+04  0.7818608E-02  0.9030288E-01
         -2   -1    0    0    0  501 -0.00000000000E+00  0.00000000000E+00  0.88222197222E+03  0.88222197222E+03  0.00000000000E+00 0.  1.
          2   -1    0    0  501    0  0.00000000000E+00 -0.00000000000E+00 -0.47823313727E+03  0.47823313727E+03  0.00000000000E+00 0. -1.
         23    2    1    2    0    0 -0.28263709309E+03 -0.16408296216E+03  0.13024773985E+03  0.36367324479E+03  0.92123886039E+02 0.  0.
        254    2    1    2    0    0  0.28263709309E+03  0.16408296216E+03  0.27374109509E+03  0.99678186470E+03  0.90101773223E+03 0.  0.
        -24    2    4    4    0    0 -0.14145460285E+03  0.25498511658E+03 -0.19052010648E+03  0.35714274658E+03  0.78906375640E+02 0.  0.
         24    2    4    4    0    0  0.42409169594E+03 -0.90902154420E+02  0.46426120157E+03  0.63963911812E+03  0.74045728388E+02 0.  0.
         13    1    3    3    0    0 -0.27766491206E+03 -0.13723154810E+03  0.10662455708E+03  0.32756540928E+03  0.00000000000E+00 0.  1.
        -13    1    3    3    0    0 -0.49721810287E+01 -0.26851414061E+02  0.23623182765E+02  0.36107835510E+02  0.00000000000E+00 0. -1.
          4    1    6    6  502    0  0.76285659098E+02 -0.18202506739E+02  0.12986669629E+03  0.15171088241E+03  0.00000000000E+00 0. -1.
          3    1    5    5  503    0 -0.69500889916E+02  0.16031465159E+03 -0.15356170301E+03  0.23262063074E+03  0.00000000000E+00 0. -1.
         -4    1    5    5    0  503 -0.71953712938E+02  0.94670464990E+02 -0.36958403468E+02  0.12452211584E+03  0.00000000000E+00 0.  1.
         -3    1    6    6    0  502  0.34780603685E+03 -0.72699647681E+02  0.33439450528E+03  0.48792823571E+03  0.00000000000E+00 0.  1.
<mgrwt>
<rscale>  0 0.12990886E+04</rscale>
<asrwt>0</asrwt>
<pdfrwt beam="1">  1        2 0.73574329E-01 0.12990886E+04</pdfrwt>
<pdfrwt beam="2">  1       -2 0.13572646E+00 0.12990886E+04</pdfrwt>
<totfact> 0.24717296E+01</totfact>
</mgrwt>
</event>
<event>
12    1  0.1477245E-007  0.1319337E+04  0.7818608E-02  0.9014369E-01
          2   -1    0    0  501    0  0.00000000000E+00  0.00000000000E+00  0.32685382724E+04  0.32685382724E+04  0.00000000000E+00 0. -1.
         -2   -1    0    0    0  501 -0.00000000000E+00 -0.00000000000E+00 -0.13313683547E+03  0.13313683547E+03  0.00000000000E+00 0.  1.
         23    2    1    2    0    0 -0.33646028946E+03  0.38788169607E+02  0.84884601429E+03  0.91873654901E+03  0.93953403504E+02 0.  0.
        254    2    1    2    0    0  0.33646028946E+03 -0.38788169607E+02  0.22865554226E+04  0.24829385588E+04  0.90660803974E+03 0.  0.
        -24    2    4    4    0    0  0.38497835890E+03  0.33326299477E+03  0.83307478747E+03  0.97964633150E+03  0.80129724747E+02 0.  0.
         24    2    4    4    0    0 -0.48518069439E+02 -0.37205116438E+03  0.14534806351E+04  0.15032922273E+04  0.80656630406E+02 0.  0.
         11    1    3    3    0    0 -0.32206670209E+03  0.53071752557E+02  0.82618592921E+03  0.88832807067E+03  0.00000000000E+00 0. -1.
        -11    1    3    3    0    0 -0.14393587373E+02 -0.14283582950E+02  0.22660085078E+02  0.30408478342E+02  0.00000000000E+00 0.  1.
          2    1    6    6  502    0 -0.11719776932E+02 -0.31611780997E+03  0.12271113267E+04  0.12672292732E+04  0.00000000000E+00 0. -1.
          1    1    5    5  503    0  0.37870290971E+03  0.31417804316E+03  0.81774880680E+03  0.95437772797E+03  0.00000000000E+00 0. -1.
         -2    1    5    5    0  503  0.62754491933E+01  0.19084951612E+02  0.15325980674E+02  0.25268603527E+02  0.00000000000E+00 0.  1.
         -1    1    6    6    0  502 -0.36798292507E+02 -0.55933354409E+02  0.22636930847E+03  0.23606295407E+03  0.00000000000E+00 0.  1.
<mgrwt>
<rscale>  0 0.13193375E+04</rscale>
<asrwt>0</asrwt>
<pdfrwt beam="1">  1        2 0.50285198E+00 0.13193375E+04</pdfrwt>
<pdfrwt beam="2">  1       -2 0.20482593E-01 0.13193375E+04</pdfrwt>
<totfact> 0.23816959E+01</totfact>
</mgrwt>
</event>
<event>
12    1  0.1477245E-007  0.1069891E+04  0.7818608E-02  0.9235045E-01
         -1   -1    0    0    0  501 -0.00000000000E+00  0.00000000000E+00  0.18659760762E+03  0.18659760762E+03  0.00000000000E+00 0.  1.
          1   -1    0    0  501    0  0.00000000000E+00 -0.00000000000E+00 -0.15336036878E+04  0.15336036878E+04  0.00000000000E+00 0. -1.
         23    2    1    2    0    0 -0.54553666931E+02  0.10164524041E+03 -0.28816674700E+03  0.32365708455E+03  0.91684114391E+02 0.  0.
        254    2    1    2    0    0  0.54553666931E+02 -0.10164524041E+03 -0.10588393332E+04  0.13965442109E+04  0.90326471310E+03 0.  0.
        -24    2    4    4    0    0 -0.10717081382E+03  0.23985473331E+03 -0.95670273418E+03  0.99530414987E+03  0.79588647020E+02 0.  0.
         24    2    4    4    0    0  0.16172448075E+03 -0.34149997371E+03 -0.10213659900E+03  0.40124006099E+03  0.88230731430E+02 0.  0.
         13    1    3    3    0    0  0.17033993310E+02  0.24327682330E+02 -0.20748689602E+02  0.36228458094E+02  0.00000000000E+00 0.  1.
        -13    1    3    3    0    0 -0.71587660241E+02  0.77317558079E+02 -0.26741805739E+03  0.28742862646E+03  0.00000000000E+00 0. -1.
          2    1    6    6  502    0  0.45708629809E+02 -0.12988432748E+03  0.36507709909E+01  0.13774086355E+03  0.00000000000E+00 0. -1.
          3    1    5    5  503    0 -0.29089599271E+02  0.14724772317E+03 -0.60443911364E+03  0.62279590466E+03  0.00000000000E+00 0. -1.
         -4    1    5    5    0  503 -0.78081214550E+02  0.92607010134E+02 -0.35226362053E+03  0.37250824520E+03  0.00000000000E+00 0.  1.
         -1    1    6    6    0  502  0.11601585094E+03 -0.21161564624E+03 -0.10578736999E+03  0.26349919744E+03  0.00000000000E+00 0.  1.
<mgrwt>
<rscale>  0 0.10698912E+04</rscale>
<asrwt>0</asrwt>
<pdfrwt beam="1">  1        1 0.23593903E+00 0.10698912E+04</pdfrwt>
<pdfrwt beam="2">  1       -1 0.28707324E-01 0.10698912E+04</pdfrwt>
<totfact> 0.68230274E+01</totfact>
</mgrwt>
</event>
<event>
12    1  0.1477245E-007  0.1344144E+04  0.7818608E-02  0.8995273E-01
         -2   -1    0    0    0  501 -0.00000000000E+00  0.00000000000E+00  0.18812430902E+03  0.18812430902E+03  0.00000000000E+00 0.  1.
          2   -1    0    0  501    0  0.00000000000E+00 -0.00000000000E+00 -0.24009684796E+04  0.24009684796E+04  0.00000000000E+00 0. -1.
         23    2    1    2    0    0  0.32534638071E+03 -0.15255892017E+03 -0.57204895801E+03  0.68176897512E+03  0.91893598897E+02 0.  0.
        254    2    1    2    0    0 -0.32534638071E+03  0.15255892017E+03 -0.16407952125E+04  0.19073238134E+04  0.90363195403E+03 0.  0.
        -24    2    4    4    0    0 -0.34564837979E+01  0.21537250279E+03 -0.15377188782E+04  0.15546822877E+04  0.77848603293E+02 0.  0.
         24    2    4    4    0    0 -0.32188989691E+03 -0.62813582619E+02 -0.10307633432E+03  0.35264152576E+03  0.78566297456E+02 0.  0.
         13    1    3    3    0    0  0.30753514816E+03 -0.11358742617E+03 -0.51305999529E+03  0.60886002456E+03  0.00000000000E+00 0. -1.
        -13    1    3    3    0    0  0.17811232544E+02 -0.38971494006E+02 -0.58988962722E+02  0.72908950567E+02  0.00000000000E+00 0.  1.
          4    1    6    6  502    0 -0.41635125462E+02 -0.27303307647E+02 -0.38296297057E+02  0.62813697941E+02  0.00000000000E+00 0. -1.
          1    1    5    5  503    0  0.36682202356E+02  0.96706537296E+02 -0.65375609592E+03  0.66188727989E+03  0.00000000000E+00 0. -1.
         -2    1    5    5    0  503 -0.40138686154E+02  0.11866596549E+03 -0.88396278228E+03  0.89279500780E+03  0.00000000000E+00 0.  1.
         -3    1    6    6    0  502 -0.28025477145E+03 -0.35510274972E+02 -0.64780037262E+02  0.28982782781E+03  0.00000000000E+00 0.  1.
<mgrwt>
<rscale>  0 0.13441436E+04</rscale>
<asrwt>0</asrwt>
<pdfrwt beam="1">  1        2 0.36937975E+00 0.13441436E+04</pdfrwt>
<pdfrwt beam="2">  1       -2 0.28942202E-01 0.13441436E+04</pdfrwt>
<totfact> 0.42679884E+01</totfact>
</mgrwt>
</event>
<event>
12    1  0.1477245E-007  0.1360391E+04  0.7818608E-02  0.8983000E-01
          2   -1    0    0  501    0  0.00000000000E+00  0.00000000000E+00  0.10096993734E+04  0.10096993734E+04  0.00000000000E+00 0.  1.
         -2   -1    0    0    0  501 -0.00000000000E+00 -0.00000000000E+00 -0.45822130066E+03  0.45822130066E+03  0.00000000000E+00 0. -1.
         23    2    1    2    0    0  0.21070335469E+03  0.24221335331E+03 -0.53424778967E+01  0.34069382640E+03  0.11393212486E+03 0.  0.
        254    2    1    2    0    0 -0.21070335469E+03 -0.24221335331E+03  0.55682055062E+03  0.11272268476E+04  0.92602809259E+03 0.  0.
        -24    2    4    4    0    0 -0.30088091815E+03 -0.10098542426E+03  0.77474834565E+03  0.84106039456E+03  0.80126184131E+02 0.  0.
         24    2    4    4    0    0  0.90177563456E+02 -0.14122792905E+03 -0.21792779503E+03  0.28616645309E+03  0.79507195464E+02 0.  0.
         11    1    3    3    0    0  0.15211110299E+02  0.12358200807E+02 -0.32263186773E+02  0.37749387074E+02  0.00000000000E+00 0. -1.
        -11    1    3    3    0    0  0.19549224439E+03  0.22985515250E+03  0.26920708876E+02  0.30294443932E+03  0.00000000000E+00 0.  1.
          4    1    6    6  502    0  0.95059911340E+01 -0.18519854781E+02  0.28486143217E+01  0.21011032628E+02  0.00000000000E+00 0. -1.
          1    1    5    5  503    0 -0.94275087103E+01  0.11461690347E+02  0.31015865650E+02  0.34383603478E+02  0.00000000000E+00 0. -1.
         -2    1    5    5    0  503 -0.29145340944E+03 -0.11244711461E+03  0.74373248000E+03  0.80667679108E+03  0.00000000000E+00 0.  1.
         -3    1    6    6    0  502  0.80671572322E+02 -0.12270807427E+03 -0.22077640936E+03  0.26515542046E+03  0.00000000000E+00 0.  1.
<mgrwt>
<rscale>  0 0.13603908E+04</rscale>
<asrwt>0</asrwt>
<pdfrwt beam="1">  1        2 0.15533836E+00 0.13603908E+04</pdfrwt>
<pdfrwt beam="2">  1       -2 0.70495585E-01 0.13603908E+04</pdfrwt>
<totfact> 0.44371683E+01</totfact>
</mgrwt>
</event>
<event>
12    1  0.1477245E-007  0.1346045E+04  0.7818608E-02  0.8993827E-01
         -2   -1    0    0    0  501 -0.00000000000E+00  0.00000000000E+00  0.10788906148E+04  0.10788906148E+04  0.00000000000E+00 0.  1.
          2   -1    0    0  501    0  0.00000000000E+00 -0.00000000000E+00 -0.41983815247E+03  0.41983815247E+03  0.00000000000E+00 0. -1.
         23    2    1    2    0    0  0.36211193997E+02  0.36092757208E+03  0.24518866910E+03  0.44499076708E+03  0.79494254356E+02 0.  0.
        254    2    1    2    0    0 -0.36211193997E+02 -0.36092757208E+03  0.41386379326E+03  0.10537380002E+04  0.89861035544E+03 0.  0.
        -24    2    4    4    0    0 -0.32035693784E+03  0.10394884166E+03 -0.29761596350E+02  0.34739744928E+03  0.79782866870E+02 0.  0.
         24    2    4    4    0    0  0.28414574384E+03 -0.46487641374E+03  0.44362538961E+03  0.70634055094E+03  0.72557589580E+02 0.  0.
         11    1    3    3    0    0 -0.17659841188E+02  0.33967590249E+02  0.39321266140E+02  0.54880134374E+02  0.00000000000E+00 0.  1.
        -11    1    3    3    0    0  0.53871035185E+02  0.32695998183E+03  0.20586740296E+03  0.39011063270E+03  0.00000000000E+00 0. -1.
          2    1    6    6  502    0  0.56065976807E+02 -0.13497825813E+03  0.90043512776E+02  0.17166932782E+03  0.00000000000E+00 0. -1.
          3    1    5    5  503    0 -0.55766021151E+01 -0.97964441682E+01 -0.27838052829E+01  0.11611131786E+02  0.00000000000E+00 0. -1.
         -4    1    5    5    0  503 -0.31478033573E+03  0.11374528583E+03 -0.26977791067E+02  0.33578631750E+03  0.00000000000E+00 0.  1.
         -1    1    6    6    0  502  0.22807976704E+03 -0.32989815561E+03  0.35358187683E+03  0.53467122312E+03  0.00000000000E+00 0.  1.
<mgrwt>
<rscale>  0 0.13460452E+04</rscale>
<asrwt>0</asrwt>
<pdfrwt beam="1">  1        2 0.64590485E-01 0.13460452E+04</pdfrwt>
<pdfrwt beam="2">  1       -2 0.16598317E+00 0.13460452E+04</pdfrwt>
<totfact> 0.16731394E+01</totfact>
</mgrwt>
</event>
<event>
12    1  0.1477245E-007  0.1541878E+04  0.7818608E-02  0.8857072E-01
         -2   -1    0    0    0  501 -0.00000000000E+00  0.00000000000E+00  0.18626167671E+03  0.18626167671E+03  0.00000000000E+00 0.  1.
          2   -1    0    0  501    0  0.00000000000E+00 -0.00000000000E+00 -0.31909261203E+04  0.31909261203E+04  0.00000000000E+00 0. -1.
         23    2    1    2    0    0  0.15545424625E+02 -0.84348826450E+02  0.87301313208E+02  0.15262157411E+03  0.91189039069E+02 0.  0.
        254    2    1    2    0    0 -0.15545424625E+02  0.84348826450E+02 -0.30919657568E+04  0.32245662229E+04  0.91116337720E+03 0.  0.
        -24    2    4    4    0    0  0.18735413252E+03  0.40025556186E+03 -0.23091900433E+04  0.23524409561E+04  0.79458859628E+02 0.  0.
         24    2    4    4    0    0 -0.20289955714E+03 -0.31590673541E+03 -0.78277571357E+03  0.87212526682E+03  0.83062431342E+02 0.  0.
         11    1    3    3    0    0  0.29961333908E+02 -0.56959286628E+02  0.48372715809E+01  0.64540228223E+02  0.00000000000E+00 0. -1.
        -11    1    3    3    0    0 -0.14415909284E+02 -0.27389539822E+02  0.82464041627E+02  0.88081345889E+02  0.00000000000E+00 0.  1.
          4    1    6    6  502    0 -0.15373290991E+03 -0.23627287048E+03 -0.49648583106E+03  0.57092631517E+03  0.00000000000E+00 0. -1.
          3    1    5    5  503    0  0.14012553854E+03  0.27059776094E+03 -0.17596549156E+04  0.17858453843E+04  0.00000000000E+00 0. -1.
         -2    1    5    5    0  503  0.47228593980E+02  0.12965780092E+03 -0.54953512766E+03  0.56659557178E+03  0.00000000000E+00 0.  1.
         -3    1    6    6    0  502 -0.49166647234E+02 -0.79633864928E+02 -0.28628988251E+03  0.30119895164E+03  0.00000000000E+00 0.  1.
<mgrwt>
<rscale>  0 0.15418784E+04</rscale>
<asrwt>0</asrwt>
<pdfrwt beam="1">  1        2 0.49091171E+00 0.15418784E+04</pdfrwt>
<pdfrwt beam="2">  1       -2 0.28655643E-01 0.15418784E+04</pdfrwt>
<totfact> 0.14266613E+01</totfact>
</mgrwt>
</event>
<event>
12    1  0.1477245E-007  0.1220699E+04  0.7818608E-02  0.9094929E-01
          2   -1    0    0  501    0  0.00000000000E+00  0.00000000000E+00  0.52204317995E+03  0.52204317995E+03  0.00000000000E+00 0. -1.
         -2   -1    0    0    0  501 -0.00000000000E+00 -0.00000000000E+00 -0.71359327219E+03  0.71359327219E+03  0.00000000000E+00 0.  1.
         23    2    1    2    0    0 -0.19257948901E+03 -0.99686625313E+02 -0.20249669357E+03  0.30946537419E+03  0.87975133199E+02 0.  0.
        254    2    1    2    0    0  0.19257948901E+03  0.99686625313E+02  0.10946601328E+02  0.92617107795E+03  0.90036034714E+03 0.  0.
        -24    2    4    4    0    0 -0.28939075756E+03 -0.13775090988E+03 -0.14543715174E+03  0.36093449613E+03  0.79996385277E+02 0.  0.
         24    2    4    4    0    0  0.48197024656E+03  0.23743753520E+03  0.15638375307E+03  0.56523658182E+03  0.79778527890E+02 0.  0.
         13    1    3    3    0    0 -0.56662102866E+02  0.69429148404E+01 -0.77403945801E+02  0.96177797819E+02  0.00000000000E+00 0. -1.
        -13    1    3    3    0    0 -0.13591738614E+03 -0.10662954015E+03 -0.12509274777E+03  0.21328757637E+03  0.00000000000E+00 0.  1.
          4    1    6    6  502    0  0.21290193015E+03  0.14825553363E+03  0.65768189082E+02  0.26764227956E+03  0.00000000000E+00 0. -1.
          3    1    5    5  503    0 -0.18252531704E+03 -0.12776509023E+03 -0.10408875333E+03  0.24591437171E+03  0.00000000000E+00 0. -1.
         -4    1    5    5    0  503 -0.10686544052E+03 -0.99858196494E+01 -0.41348398414E+02  0.11502012442E+03  0.00000000000E+00 0.  1.
         -3    1    6    6    0  502  0.26906831642E+03  0.89182001568E+02  0.90615563989E+02  0.29759430227E+03  0.00000000000E+00 0.  1.
<mgrwt>
<rscale>  0 0.12206990E+04</rscale>
<asrwt>0</asrwt>
<pdfrwt beam="1">  1        2 0.80314336E-01 0.12206990E+04</pdfrwt>
<pdfrwt beam="2">  1       -2 0.10978358E+00 0.12206990E+04</pdfrwt>
<totfact> 0.38088142E+01</totfact>
</mgrwt>
</event>
<event>
12    1  0.1477245E-007  0.1756097E+04  0.7818608E-02  0.8730001E-01
          2   -1    0    0  501    0  0.00000000000E+00  0.00000000000E+00  0.16602811462E+04  0.16602811462E+04  0.00000000000E+00 0. -1.
         -2   -1    0    0    0  501 -0.00000000000E+00 -0.00000000000E+00 -0.46436064443E+03  0.46436064443E+03  0.00000000000E+00 0.  1.
         23    2    1    2    0    0  0.57551903729E+03 -0.21147288807E+03  0.20685146974E+03  0.65336551476E+03  0.90310689699E+02 0.  0.
        254    2    1    2    0    0 -0.57551903729E+03  0.21147288807E+03  0.98906903206E+03  0.14712762759E+04  0.90025184543E+03 0.  0.
        -24    2    4    4    0    0  0.74618457227E+02 -0.24127837848E+03  0.11469372510E+03  0.28869721930E+03  0.80051631927E+02 0.  0.
         24    2    4    4    0    0 -0.65013749451E+03  0.45275126655E+03  0.87437530696E+03  0.11825790566E+04  0.79363572014E+02 0.  0.
         11    1    3    3    0    0  0.31406896277E+03 -0.11665124694E+03  0.65436307256E+02  0.34136305760E+03  0.00000000000E+00 0. -1.
        -11    1    3    3    0    0  0.26145007451E+03 -0.94821641130E+02  0.14141516248E+03  0.31200245715E+03  0.00000000000E+00 0.  1.
          4    1    6    6  502    0 -0.58768032209E+03  0.39258149259E+03  0.74566945999E+03  0.10273808120E+04  0.00000000000E+00 0. -1.
          1    1    5    5  503    0  0.61323071184E+02 -0.24279678619E+03  0.11439372574E+03  0.27531204647E+03  0.00000000000E+00 0. -1.
         -2    1    5    5    0  503  0.13295386043E+02  0.15184077131E+01  0.29999936171E+00  0.13385172828E+02  0.00000000000E+00 0.  1.
         -3    1    6    6    0  502 -0.62457172429E+02  0.60169773963E+02  0.12870584697E+03  0.15519824461E+03  0.00000000000E+00 0.  1.
<mgrwt>
<rscale>  0 0.17560971E+04</rscale>
<asrwt>0</asrwt>
<pdfrwt beam="1">  1        2 0.25542786E+00 0.17560971E+04</pdfrwt>
<pdfrwt beam="2">  1       -2 0.71440100E-01 0.17560971E+04</pdfrwt>
<totfact> 0.17378783E+01</totfact>
</mgrwt>
</event>
<event>
12    1  0.1477245E-007  0.1691702E+04  0.7818608E-02  0.8766111E-01
          2   -1    0    0  501    0  0.00000000000E+00  0.00000000000E+00  0.13675467282E+04  0.13675467282E+04  0.00000000000E+00 0. -1.
         -2   -1    0    0    0  501 -0.00000000000E+00 -0.00000000000E+00 -0.52317303281E+03  0.52317303281E+03  0.00000000000E+00 0.  1.
         23    2    1    2    0    0 -0.44996457083E+03 -0.13673456869E+03  0.72127688914E+03  0.86588563069E+03  0.91395390154E+02 0.  0.
        254    2    1    2    0    0  0.44996457083E+03  0.13673456869E+03  0.12309680621E+03  0.10248341303E+04  0.90220159257E+03 0.  0.
        -24    2    4    4    0    0  0.33830738965E+03  0.43791208225E+03  0.31564855285E+03  0.64211904929E+03  0.80398898485E+02 0.  0.
         24    2    4    4    0    0  0.11165718118E+03 -0.30117751355E+03 -0.19255174664E+03  0.38271508100E+03  0.78863409221E+02 0.  0.
         13    1    3    3    0    0 -0.16066816351E+03 -0.36841976813E+02  0.33229407801E+03  0.37093253336E+03  0.00000000000E+00 0.  1.
        -13    1    3    3    0    0 -0.28929640732E+03 -0.99892591880E+02  0.38898281113E+03  0.49495309733E+03  0.00000000000E+00 0. -1.
          2    1    6    6  502    0 -0.50187265036E+01 -0.65659129313E+02 -0.56436843113E+02  0.86726156022E+02  0.00000000000E+00 0. -1.
          3    1    5    5  503    0  0.86349973640E+02  0.60889251918E+02  0.63305542611E+02  0.12317228045E+03  0.00000000000E+00 0. -1.
         -4    1    5    5    0  503  0.25195741601E+03  0.37702283033E+03  0.25234301023E+03  0.51894676884E+03  0.00000000000E+00 0.  1.
         -1    1    6    6    0  502  0.11667590769E+03 -0.23551838424E+03 -0.13611490352E+03  0.29598892498E+03  0.00000000000E+00 0.  1.
<mgrwt>
<rscale>  0 0.16917016E+04</rscale>
<asrwt>0</asrwt>
<pdfrwt beam="1">  1        2 0.21039180E+00 0.16917016E+04</pdfrwt>
<pdfrwt beam="2">  1       -2 0.80488159E-01 0.16917016E+04</pdfrwt>
<totfact> 0.19611897E+01</totfact>
</mgrwt>
</event>
<event>
12    1  0.1477245E-007  0.2566621E+04  0.7818608E-02  0.8379628E-01
         -2   -1    0    0    0  501 -0.00000000000E+00  0.00000000000E+00  0.47109708525E+03  0.47109708525E+03  0.00000000000E+00 0.  1.
          2   -1    0    0  501    0  0.00000000000E+00 -0.00000000000E+00 -0.34958532017E+04  0.34958532017E+04  0.00000000000E+00 0. -1.
         23    2    1    2    0    0  0.76747535516E+03  0.28603441729E+03 -0.13385918143E+03  0.83461794878E+03  0.88514017670E+02 0.  0.
        254    2    1    2    0    0 -0.76747535516E+03 -0.28603441729E+03 -0.28908969350E+04  0.31323323381E+04  0.88509133942E+03 0.  0.
        -24    2    4    4    0    0 -0.73532655693E+03 -0.47208525019E+02 -0.11179580405E+04  0.13413465598E+04  0.80290864318E+02 0.  0.
         24    2    4    4    0    0 -0.32148798229E+02 -0.23882589227E+03 -0.17729388945E+04  0.17909857783E+04  0.79034060494E+02 0.  0.
         11    1    3    3    0    0  0.10722634606E+03  0.21387624939E+02  0.67248275711E+01  0.10954516463E+03  0.00000000000E+00 0. -1.
        -11    1    3    3    0    0  0.66024900911E+03  0.26464679235E+03 -0.14058400900E+03  0.72507278415E+03  0.00000000000E+00 0.  1.
          2    1    6    6  502    0 -0.55380746628E+02 -0.11983946195E+03 -0.87651873918E+03  0.88640488710E+03  0.00000000000E+00 0. -1.
          1    1    5    5  503    0 -0.10273024734E+03 -0.36878345682E+01 -0.11025235514E+03  0.15074045793E+03  0.00000000000E+00 0. -1.
         -4    1    5    5    0  503 -0.63259630959E+03 -0.43520690451E+02 -0.10077056854E+04  0.11906061019E+04  0.00000000000E+00 0.  1.
         -1    1    6    6    0  502  0.23231948399E+02 -0.11898643032E+03 -0.89642015527E+03  0.90458089125E+03  0.00000000000E+00 0.  1.
<mgrwt>
<rscale>  0 0.25666213E+04</rscale>
<asrwt>0</asrwt>
<pdfrwt beam="1">  1        2 0.53782359E+00 0.25666213E+04</pdfrwt>
<pdfrwt beam="2">  1       -2 0.72476472E-01 0.25666213E+04</pdfrwt>
<totfact> 0.12514556E+00</totfact>
</mgrwt>
</event>
<event>
12    1  0.1477245E-007  0.2522938E+04  0.7818608E-02  0.8394859E-01
          2   -1    0    0  501    0  0.00000000000E+00  0.00000000000E+00  0.13106196116E+04  0.13106196116E+04  0.00000000000E+00 0. -1.
         -2   -1    0    0    0  501 -0.00000000000E+00 -0.00000000000E+00 -0.12141614607E+04  0.12141614607E+04  0.00000000000E+00 0.  1.
         23    2    1    2    0    0 -0.46904420368E+03 -0.94754030476E+03 -0.26170663119E+03  0.10929648111E+04  0.90810920305E+02 0.  0.
        254    2    1    2    0    0  0.46904420368E+03  0.94754030476E+03  0.35816478208E+03  0.14318162613E+04  0.89664970913E+03 0.  0.
        -24    2    4    4    0    0  0.63282750771E+03  0.74313269082E+03  0.52457282832E+03  0.11111069376E+04  0.81640209735E+02 0.  0.
         24    2    4    4    0    0 -0.16378330403E+03  0.20440761394E+03 -0.16640804624E+03  0.32070932374E+03  0.80965357808E+02 0.  0.
         11    1    3    3    0    0 -0.46138917351E+03 -0.88456465186E+03 -0.24315069224E+03  0.10268674948E+04  0.00000000000E+00 0.  1.
        -11    1    3    3    0    0 -0.76550301700E+01 -0.62975652901E+02 -0.18555938948E+02  0.66097316250E+02  0.00000000000E+00 0. -1.
          2    1    6    6  502    0  0.70679507905E+01 -0.70375823511E+00 -0.58123225331E+01  0.91779244527E+01  0.00000000000E+00 0. -1.
          1    1    5    5  503    0  0.14507211075E+03  0.22643885285E+03  0.14606238476E+03  0.30603054037E+03  0.00000000000E+00 0. -1.
         -2    1    5    5    0  503  0.48775539695E+03  0.51669383797E+03  0.37851044356E+03  0.80507639720E+03  0.00000000000E+00 0.  1.
         -1    1    6    6    0  502 -0.17085125482E+03  0.20511137218E+03 -0.16059572370E+03  0.31153139928E+03  0.00000000000E+00 0.  1.
<mgrwt>
<rscale>  0 0.25229378E+04</rscale>
<asrwt>0</asrwt>
<pdfrwt beam="1">  1        2 0.20163379E+00 0.25229378E+04</pdfrwt>
<pdfrwt beam="2">  1       -2 0.18679407E+00 0.25229378E+04</pdfrwt>
<totfact> 0.23636857E+00</totfact>
</mgrwt>
</event>
<event>
12    1  0.1477245E-007  0.1977867E+04  0.7818608E-02  0.8617039E-01
         -2   -1    0    0    0  501 -0.00000000000E+00  0.00000000000E+00  0.12966290158E+04  0.12966290158E+04  0.00000000000E+00 0.  1.
          2   -1    0    0  501    0  0.00000000000E+00 -0.00000000000E+00 -0.75425542709E+03  0.75425542709E+03  0.00000000000E+00 0. -1.
         23    2    1    2    0    0  0.34293310750E+03  0.48686394934E+03  0.73546008618E+03  0.95127085969E+03  0.96825041943E+02 0.  0.
        254    2    1    2    0    0 -0.34293310750E+03 -0.48686394934E+03 -0.19308649745E+03  0.10996135832E+04  0.90400664572E+03 0.  0.
        -24    2    4    4    0    0 -0.79968656171E+02 -0.61494084411E+03 -0.39017913103E+03  0.73768744083E+03  0.85998711272E+02 0.  0.
         24    2    4    4    0    0 -0.26296445133E+03  0.12807689477E+03  0.19709263357E+03  0.36192614239E+03  0.81185175370E+02 0.  0.
         11    1    3    3    0    0  0.19533835971E+03  0.34622608720E+03  0.52144678361E+03  0.65569529994E+03  0.00000000000E+00 0.  1.
        -11    1    3    3    0    0  0.14759474779E+03  0.14063786214E+03  0.21401330258E+03  0.29557555975E+03  0.00000000000E+00 0. -1.
          2    1    6    6  502    0 -0.18249463051E+03  0.12573569632E+03  0.15969556258E+03  0.27316007798E+03  0.00000000000E+00 0. -1.
          1    1    5    5  503    0 -0.10007668674E+02 -0.38474077441E+03 -0.22447720561E+03  0.44555093173E+03  0.00000000000E+00 0. -1.
         -2    1    5    5    0  503 -0.69960987497E+02 -0.23020006970E+03 -0.16570192542E+03  0.29213650910E+03  0.00000000000E+00 0.  1.
         -1    1    6    6    0  502 -0.80469820813E+02  0.23411984580E+01  0.37397070993E+02  0.88766064409E+02  0.00000000000E+00 0.  1.
<mgrwt>
<rscale>  0 0.19778670E+04</rscale>
<asrwt>0</asrwt>
<pdfrwt beam="1">  1        2 0.11603930E+00 0.19778670E+04</pdfrwt>
<pdfrwt beam="2">  1       -2 0.19948139E+00 0.19778670E+04</pdfrwt>
<totfact> 0.46415406E+00</totfact>
</mgrwt>
</event>
<event>
12    1  0.1477245E-007  0.1138858E+04  0.7818608E-02  0.9168124E-01
         -2   -1    0    0    0  501 -0.00000000000E+00  0.00000000000E+00  0.25887293249E+03  0.25887293249E+03  0.00000000000E+00 0.  1.
          2   -1    0    0  501    0  0.00000000000E+00 -0.00000000000E+00 -0.12525435557E+04  0.12525435557E+04  0.00000000000E+00 0. -1.
         23    2    1    2    0    0 -0.68683116870E+02 -0.40753601130E+02 -0.41907979204E+03  0.43643609166E+03  0.92034577522E+02 0.  0.
        254    2    1    2    0    0  0.68683116870E+02  0.40753601130E+02 -0.57459083116E+03  0.10749803965E+04  0.90501381376E+03 0.  0.
        -24    2    4    4    0    0  0.12609627722E+03  0.41416463387E+03 -0.79699804832E+02  0.44740488672E+03  0.79915322022E+02 0.  0.
         24    2    4    4    0    0 -0.57413160348E+02 -0.37341103274E+03 -0.49489102633E+03  0.62757550980E+03  0.78751648879E+02 0.  0.
         11    1    3    3    0    0  0.66828861902E+01  0.21806679910E+02 -0.58474480622E+02  0.62765094922E+02  0.00000000000E+00 0.  1.
        -11    1    3    3    0    0 -0.75366003060E+02 -0.62560281039E+02 -0.36060531141E+03  0.37367099673E+03  0.00000000000E+00 0. -1.
          4    1    6    6  502    0 -0.22529248901E+02 -0.12144267465E+03 -0.10537141461E+03  0.16235462821E+03  0.00000000000E+00 0. -1.
          1    1    5    5  503    0  0.36320372263E+02  0.13366465131E+03 -0.63692460329E+02  0.15245372398E+03  0.00000000000E+00 0. -1.
         -2    1    5    5    0  503  0.89775904955E+02  0.28049998256E+03 -0.16007344503E+02  0.29495116275E+03  0.00000000000E+00 0.  1.
         -3    1    6    6    0  502 -0.34883911446E+02 -0.25196835809E+03 -0.38951961172E+03  0.46522088159E+03  0.00000000000E+00 0.  1.
<mgrwt>
<rscale>  0 0.11388584E+04</rscale>
<asrwt>0</asrwt>
<pdfrwt beam="1">  1        2 0.19269901E+00 0.11388584E+04</pdfrwt>
<pdfrwt beam="2">  1       -2 0.39826605E-01 0.11388584E+04</pdfrwt>
<totfact> 0.10406921E+02</totfact>
</mgrwt>
</event>
<event>
12    1  0.1477245E-007  0.1439779E+04  0.7818608E-02  0.8925517E-01
         -2   -1    0    0    0  501 -0.00000000000E+00  0.00000000000E+00  0.35768865171E+03  0.35768865171E+03  0.00000000000E+00 0.  1.
          2   -1    0    0  501    0  0.00000000000E+00 -0.00000000000E+00 -0.14488602403E+04  0.14488602403E+04  0.00000000000E+00 0. -1.
         23    2    1    2    0    0  0.12711121862E+03 -0.26330563443E+03  0.76171230827E+02  0.30873223140E+03  0.63454040692E+02 0.  0.
        254    2    1    2    0    0 -0.12711121862E+03  0.26330563443E+03 -0.11673428195E+04  0.14978166607E+04  0.89178381447E+03 0.  0.
        -24    2    4    4    0    0  0.12944519756E+03  0.27172726380E+03 -0.11881841977E+04  0.12282694552E+04  0.79198495320E+02 0.  0.
         24    2    4    4    0    0 -0.25655641618E+03 -0.84216293755E+01  0.20841378279E+02  0.26954720548E+03  0.79556359960E+02 0.  0.
         13    1    3    3    0    0 -0.18085884898E+01 -0.20870130391E+02 -0.65702658975E+01  0.21954537773E+02  0.00000000000E+00 0. -1.
        -13    1    3    3    0    0  0.12891980711E+03 -0.24243550403E+03  0.82741496724E+02  0.28677769363E+03  0.00000000000E+00 0.  1.
          2    1    6    6  502    0 -0.26086079196E+03 -0.36308554320E+01  0.24677957602E+02  0.26205063916E+03  0.00000000000E+00 0. -1.
          1    1    5    5  503    0  0.11481263913E+03  0.26907994547E+03 -0.11609180366E+04  0.11972120308E+04  0.00000000000E+00 0. -1.
         -2    1    5    5    0  503  0.14632558430E+02  0.26473183339E+01 -0.27266161179E+02  0.31057424330E+02  0.00000000000E+00 0.  1.
         -3    1    6    6    0  502  0.43043757748E+01 -0.47907739435E+01 -0.38365793225E+01  0.74965663264E+01  0.00000000000E+00 0.  1.
<mgrwt>
<rscale>  0 0.14397790E+04</rscale>
<asrwt>0</asrwt>
<pdfrwt beam="1">  1        2 0.22290158E+00 0.14397790E+04</pdfrwt>
<pdfrwt beam="2">  1       -2 0.55029022E-01 0.14397790E+04</pdfrwt>
<totfact> 0.40893605E+01</totfact>
</mgrwt>
</event>
<event>
12    1  0.1477245E-007  0.1813628E+04  0.7818608E-02  0.8699086E-01
         -2   -1    0    0    0  501 -0.00000000000E+00  0.00000000000E+00  0.82881306643E+03  0.82881306643E+03  0.00000000000E+00 0. -1.
          2   -1    0    0  501    0  0.00000000000E+00 -0.00000000000E+00 -0.99215532744E+03  0.99215532744E+03  0.00000000000E+00 0.  1.
         23    2    1    2    0    0  0.45134964009E+03 -0.22238055230E+03 -0.52202296714E+03  0.73078701115E+03  0.91499015262E+02 0.  0.
        254    2    1    2    0    0 -0.45134964009E+03  0.22238055230E+03  0.35868070614E+03  0.10901813827E+04  0.89815031627E+03 0.  0.
        -24    2    4    4    0    0  0.24053188463E+03  0.28125887758E+02  0.25311653718E+03  0.35930532273E+03  0.79910452770E+02 0.  0.
         24    2    4    4    0    0 -0.69188152472E+03  0.19425466454E+03  0.10556416896E+03  0.73087605999E+03  0.81247168229E+02 0.  0.
         13    1    3    3    0    0  0.56903139005E+02  0.12435440264E+01 -0.73971759805E+02  0.93334532082E+02  0.00000000000E+00 0. -1.
        -13    1    3    3    0    0  0.39444650108E+03 -0.22362409633E+03 -0.44805120734E+03  0.63745247907E+03  0.00000000000E+00 0.  1.
          2    1    6    6  502    0 -0.47008206875E+03  0.12100208358E+03  0.10802326383E+03  0.49728028427E+03  0.00000000000E+00 0. -1.
          3    1    5    5  503    0  0.73550648277E+02  0.15404118066E+02  0.31379364997E+02  0.81434938835E+02  0.00000000000E+00 0. -1.
         -4    1    5    5    0  503  0.16698123635E+03  0.12721769691E+02  0.22173717219E+03  0.27787038390E+03  0.00000000000E+00 0.  1.
         -1    1    6    6    0  502 -0.22179945597E+03  0.73252580959E+02 -0.24590948703E+01  0.23359577572E+03  0.00000000000E+00 0.  1.
<mgrwt>
<rscale>  0 0.18136276E+04</rscale>
<asrwt>0</asrwt>
<pdfrwt beam="1">  1        2 0.15263928E+00 0.18136276E+04</pdfrwt>
<pdfrwt beam="2">  1       -2 0.12750970E+00 0.18136276E+04</pdfrwt>
<totfact> 0.10960573E+01</totfact>
</mgrwt>
</event>
<event>
12    1  0.1477245E-007  0.1784016E+04  0.7818608E-02  0.8714846E-01
         -2   -1    0    0    0  501 -0.00000000000E+00  0.00000000000E+00  0.61227231369E+03  0.61227231369E+03  0.00000000000E+00 0. -1.
          2   -1    0    0  501    0  0.00000000000E+00 -0.00000000000E+00 -0.12995491714E+04  0.12995491714E+04  0.00000000000E+00 0.  1.
         23    2    1    2    0    0 -0.48719254505E+03 -0.25665593815E+02  0.22162907999E+03  0.54346028243E+03  0.90632945568E+02 0.  0.
        254    2    1    2    0    0  0.48719254505E+03  0.25665593815E+02 -0.90890593772E+03  0.13683612027E+04  0.89904787344E+03 0.  0.
        -24    2    4    4    0    0  0.47114259170E+03  0.26932715234E+03 -0.96024135109E+03  0.11059235106E+04  0.80566135754E+02 0.  0.
         24    2    4    4    0    0  0.16049953349E+02 -0.24366155852E+03  0.51335413368E+02  0.26243769210E+03  0.81299824513E+02 0.  0.
         13    1    3    3    0    0 -0.88531099868E+02 -0.80587460175E+01  0.81264843389E+02  0.12044365406E+03  0.00000000000E+00 0.  1.
        -13    1    3    3    0    0 -0.39866144518E+03 -0.17606847797E+02  0.14036423660E+03  0.42301662837E+03  0.00000000000E+00 0. -1.
          2    1    6    6  502    0 -0.25694117802E+02 -0.11891191535E+03  0.12086048313E+01  0.12166220460E+03  0.00000000000E+00 0. -1.
          1    1    5    5  503    0  0.41455708093E+03  0.22196609318E+03 -0.77471790494E+03  0.90626395278E+03  0.00000000000E+00 0. -1.
         -2    1    5    5    0  503  0.56585510765E+02  0.47361059158E+02 -0.18552344614E+03  0.19965955780E+03  0.00000000000E+00 0.  1.
         -1    1    6    6    0  502  0.41744071152E+02 -0.12474964317E+03  0.50126808537E+02  0.14077548750E+03  0.00000000000E+00 0.  1.
<mgrwt>
<rscale>  0 0.17840157E+04</rscale>
<asrwt>0</asrwt>
<pdfrwt beam="1">  1        2 0.19993064E+00 0.17840157E+04</pdfrwt>
<pdfrwt beam="2">  1       -2 0.94195741E-01 0.17840157E+04</pdfrwt>
<totfact> 0.14867487E+01</totfact>
</mgrwt>
</event>
<event>
12    1  0.1477245E-007  0.1647737E+04  0.7818608E-02  0.8791746E-01
         -1   -1    0    0    0  501 -0.00000000000E+00  0.00000000000E+00  0.25879021320E+03  0.25879021320E+03  0.00000000000E+00 0.  1.
          1   -1    0    0  501    0  0.00000000000E+00 -0.00000000000E+00 -0.26228180347E+04  0.26228180347E+04  0.00000000000E+00 0. -1.
         23    2    1    2    0    0  0.22948744292E+03  0.74519451740E+02  0.57172902400E+02  0.26401232855E+03  0.90642891129E+02 0.  0.
        254    2    1    2    0    0 -0.22948744292E+03 -0.74519451740E+02 -0.24212007239E+04  0.26175959193E+04  0.96507917627E+03 0.  0.
        -24    2    4    4    0    0  0.73992579970E+02 -0.45508157405E+01 -0.22515686947E+04  0.22542525117E+04  0.81223075215E+02 0.  0.
         24    2    4    4    0    0 -0.30348002289E+03 -0.69968636000E+02 -0.16963202923E+03  0.36334340764E+03  0.79042217944E+02 0.  0.
         13    1    3    3    0    0 -0.66298669446E+01 -0.20281152343E+01 -0.44800248762E+01  0.82546356672E+01  0.00000000000E+00 0. -1.
        -13    1    3    3    0    0  0.23611730986E+03  0.76547566975E+02  0.61652927276E+02  0.25575769288E+03  0.00000000000E+00 0.  1.
          2    1    6    6  502    0 -0.89833692462E+02 -0.58254498647E+02 -0.63765034343E+02  0.12461805053E+03  0.00000000000E+00 0. -1.
          3    1    5    5  503    0  0.37395289969E+02  0.28956976772E+02 -0.57233854461E+03  0.57428940776E+03  0.00000000000E+00 0. -1.
         -4    1    5    5    0  503  0.36597290001E+02 -0.33507792512E+02 -0.16792301501E+04  0.16799631040E+04  0.00000000000E+00 0.  1.
         -1    1    6    6    0  502 -0.21364633042E+03 -0.11714137353E+02 -0.10586699488E+03  0.23872535710E+03  0.00000000000E+00 0.  1.
<mgrwt>
<rscale>  0 0.16477374E+04</rscale>
<asrwt>0</asrwt>
<pdfrwt beam="1">  1        1 0.40351046E+00 0.16477374E+04</pdfrwt>
<pdfrwt beam="2">  1       -1 0.39813879E-01 0.16477374E+04</pdfrwt>
<totfact> 0.65450757E+00</totfact>
</mgrwt>
</event>
<event>
12    1  0.1477245E-007  0.1838929E+04  0.7818608E-02  0.8685867E-01
         -1   -1    0    0    0  501 -0.00000000000E+00  0.00000000000E+00  0.90956298912E+03  0.90956298912E+03  0.00000000000E+00 0.  1.
          1   -1    0    0  501    0  0.00000000000E+00 -0.00000000000E+00 -0.92947392170E+03  0.92947392170E+03  0.00000000000E+00 0. -1.
         23    2    1    2    0    0  0.23083572545E+00 -0.71733632165E+02  0.68458302732E+03  0.69465638535E+03  0.93529701949E+02 0.  0.
        254    2    1    2    0    0 -0.23083572545E+00  0.71733632165E+02 -0.70449395990E+03  0.11443805255E+04  0.89897123438E+03 0.  0.
        -24    2    4    4    0    0  0.27717910451E+03  0.99796154305E+02 -0.78661423739E+03  0.84377020381E+03  0.79991686932E+02 0.  0.
         24    2    4    4    0    0 -0.27740994023E+03 -0.28062522140E+02  0.82120277488E+02  0.30061032165E+03  0.76674933453E+02 0.  0.
         13    1    3    3    0    0  0.18770262315E+02 -0.82538687421E+02  0.37976872685E+03  0.38908770678E+03  0.00000000000E+00 0. -1.
        -13    1    3    3    0    0 -0.18539426590E+02  0.10805055256E+02  0.30481430047E+03  0.30556867858E+03  0.00000000000E+00 0.  1.
          2    1    6    6  502    0 -0.25140711500E+03 -0.41643880804E+02  0.55088886660E+02  0.26071926609E+03  0.00000000000E+00 0. -1.
          1    1    5    5  503    0  0.53708159940E+02  0.55794069317E+02 -0.19248327054E+03  0.20747856287E+03  0.00000000000E+00 0. -1.
         -2    1    5    5    0  503  0.22347094457E+03  0.44002084988E+02 -0.59413096686E+03  0.63629164094E+03  0.00000000000E+00 0.  1.
         -1    1    6    6    0  502 -0.26002825237E+02  0.13581358664E+02  0.27031390828E+02  0.39891055558E+02  0.00000000000E+00 0.  1.
<mgrwt>
<rscale>  0 0.18389291E+04</rscale>
<asrwt>0</asrwt>
<pdfrwt beam="1">  1        1 0.14299599E+00 0.18389291E+04</pdfrwt>
<pdfrwt beam="2">  1       -1 0.13993277E+00 0.18389291E+04</pdfrwt>
<totfact> 0.67966544E+00</totfact>
</mgrwt>
</event>
<event>
12    1  0.1477245E-007  0.1484294E+04  0.7818608E-02  0.8894965E-01
         -2   -1    0    0    0  501 -0.00000000000E+00  0.00000000000E+00  0.54289373691E+03  0.54289373691E+03  0.00000000000E+00 0.  1.
          2   -1    0    0  501    0  0.00000000000E+00 -0.00000000000E+00 -0.10145309189E+04  0.10145309189E+04  0.00000000000E+00 0. -1.
         23    2    1    2    0    0  0.43061346670E+03  0.12347185281E+03 -0.14363345468E+03  0.48167344140E+03  0.10346728330E+03 0.  0.
        254    2    1    2    0    0 -0.43061346670E+03 -0.12347185281E+03 -0.32800372729E+03  0.10757512144E+04  0.92140163556E+03 0.  0.
        -24    2    4    4    0    0 -0.26551127532E+03 -0.43791362970E+03 -0.45545925569E+03  0.68993560613E+03  0.79394096840E+02 0.  0.
         24    2    4    4    0    0 -0.16510219138E+03  0.31444177689E+03  0.12745552840E+03  0.38581560827E+03  0.80476128223E+02 0.  0.
         11    1    3    3    0    0  0.69249825391E+02  0.46963684843E+02 -0.59966404774E+02  0.10294219598E+03  0.00000000000E+00 0. -1.
        -11    1    3    3    0    0  0.36136364131E+03  0.76508167966E+02 -0.83667049907E+02  0.37873124543E+03  0.00000000000E+00 0.  1.
          4    1    6    6  502    0 -0.23684046144E+02  0.19337311310E+02 -0.80694723406E+01  0.31622492538E+02  0.00000000000E+00 0. -1.
          3    1    5    5  503    0 -0.11268712420E+03 -0.14030703326E+03 -0.19970089793E+03  0.26882131644E+03  0.00000000000E+00 0. -1.
         -4    1    5    5    0  503 -0.15282415112E+03 -0.29760659644E+03 -0.25575835776E+03  0.42111428968E+03  0.00000000000E+00 0.  1.
         -3    1    6    6    0  502 -0.14141814523E+03  0.29510446558E+03  0.13552500074E+03  0.35419311573E+03  0.00000000000E+00 0.  1.
<mgrwt>
<rscale>  0 0.14842944E+04</rscale>
<asrwt>0</asrwt>
<pdfrwt beam="1">  1        2 0.15608168E+00 0.14842944E+04</pdfrwt>
<pdfrwt beam="2">  1       -2 0.83522114E-01 0.14842944E+04</pdfrwt>
<totfact> 0.29911713E+01</totfact>
</mgrwt>
</event>
<event>
12    1  0.1477245E-007  0.1773616E+04  0.7818608E-02  0.8720457E-01
         -2   -1    0    0    0  501 -0.00000000000E+00  0.00000000000E+00  0.53436940514E+03  0.53436940514E+03  0.00000000000E+00 0.  1.
          2   -1    0    0  501    0  0.00000000000E+00 -0.00000000000E+00 -0.14716949038E+04  0.14716949038E+04  0.00000000000E+00 0. -1.
         23    2    1    2    0    0 -0.36046546036E+03 -0.13577255293E+03 -0.95342948952E+03  0.10323214282E+04  0.91050564593E+02 0.  0.
        254    2    1    2    0    0  0.36046546036E+03  0.13577255293E+03  0.16103990884E+02  0.97374288076E+03  0.89417354304E+03 0.  0.
        -24    2    4    4    0    0  0.59032186748E+03  0.30971565107E+03  0.55344477154E+02  0.67335563177E+03  0.77078556996E+02 0.  0.
         24    2    4    4    0    0 -0.22985640712E+03 -0.17394309814E+03 -0.39240486270E+02  0.30038724899E+03  0.74849945269E+02 0.  0.
         13    1    3    3    0    0 -0.24142087006E+03 -0.90940479653E+02 -0.74206798371E+03  0.78563292942E+03  0.00000000000E+00 0. -1.
        -13    1    3    3    0    0 -0.11904459029E+03 -0.44832073275E+02 -0.21136150581E+03  0.24668849873E+03  0.00000000000E+00 0.  1.
          2    1    6    6  502    0 -0.95988239548E+02 -0.10953283459E+03  0.38989479212E+01  0.14569277875E+03  0.00000000000E+00 0. -1.
          1    1    5    5  503    0  0.17876566654E+03  0.12332945203E+03 -0.69208388990E+01  0.21729062401E+03  0.00000000000E+00 0. -1.
         -2    1    5    5    0  503  0.41155620094E+03  0.18638619904E+03  0.62265316053E+02  0.45606500776E+03  0.00000000000E+00 0.  1.
         -1    1    6    6    0  502 -0.13386816758E+03 -0.64410263549E+02 -0.43139434191E+02  0.15469447024E+03  0.00000000000E+00 0.  1.
<mgrwt>
<rscale>  0 0.17736163E+04</rscale>
<asrwt>0</asrwt>
<pdfrwt beam="1">  1        2 0.22641460E+00 0.17736163E+04</pdfrwt>
<pdfrwt beam="2">  1       -2 0.82210676E-01 0.17736163E+04</pdfrwt>
<totfact> 0.16196127E+01</totfact>
</mgrwt>
</event>
<event>
12    1  0.1477245E-007  0.2079191E+04  0.7818608E-02  0.8570466E-01
          2   -1    0    0  501    0  0.00000000000E+00  0.00000000000E+00  0.98102069101E+03  0.98102069101E+03  0.00000000000E+00 0.  1.
         -2   -1    0    0    0  501 -0.00000000000E+00 -0.00000000000E+00 -0.11016679322E+04  0.11016679322E+04  0.00000000000E+00 0. -1.
         23    2    1    2    0    0  0.65232389148E+03 -0.36758340278E+02 -0.58470624129E+03  0.88152669802E+03  0.91270453789E+02 0.  0.
        254    2    1    2    0    0 -0.65232389148E+03  0.36758340278E+02  0.46405900014E+03  0.12011619252E+04  0.89474106861E+03 0.  0.
        -24    2    4    4    0    0 -0.69691390156E+03 -0.24571568735E+03  0.13067755971E+03  0.75465689375E+03  0.79782313040E+02 0.  0.
         24    2    4    4    0    0  0.44590010080E+02  0.28247402763E+03  0.33338144043E+03  0.44650503140E+03  0.80272741088E+02 0.  0.
         11    1    3    3    0    0  0.16993859388E+03 -0.23717632614E+02 -0.10536000757E+03  0.20135139180E+03  0.00000000000E+00 0.  1.
        -11    1    3    3    0    0  0.48238529761E+03 -0.13040707664E+02 -0.47934623372E+03  0.68017530621E+03  0.00000000000E+00 0. -1.
          2    1    6    6  502    0  0.41946684469E+02  0.18171499394E+03  0.15892529834E+03  0.24502472082E+03  0.00000000000E+00 0. -1.
          3    1    5    5  503    0 -0.19728257586E+03 -0.10794104986E+03  0.45120175196E+02  0.22936328214E+03  0.00000000000E+00 0. -1.
         -4    1    5    5    0  503 -0.49963132570E+03 -0.13777463749E+03  0.85557384513E+02  0.52529361161E+03  0.00000000000E+00 0.  1.
         -1    1    6    6    0  502  0.26433256103E+01  0.10075903369E+03  0.17445614209E+03  0.20148031058E+03  0.00000000000E+00 0.  1.
<mgrwt>
<rscale>  0 0.20791912E+04</rscale>
<asrwt>0</asrwt>
<pdfrwt beam="1">  1        2 0.15092626E+00 0.20791912E+04</pdfrwt>
<pdfrwt beam="2">  1       -2 0.16948737E+00 0.20791912E+04</pdfrwt>
<totfact> 0.51397210E+00</totfact>
</mgrwt>
</event>
<event>
12    1  0.1477245E-007  0.1687464E+04  0.7818608E-02  0.8768547E-01
          2   -1    0    0  501    0  0.00000000000E+00  0.00000000000E+00  0.10725719493E+04  0.10725719493E+04  0.00000000000E+00 0.  1.
         -2   -1    0    0    0  501 -0.00000000000E+00 -0.00000000000E+00 -0.66371625117E+03  0.66371625117E+03  0.00000000000E+00 0. -1.
         23    2    1    2    0    0 -0.12643449396E+03  0.43810105483E+03  0.54730360045E+03  0.71795520521E+03  0.89444005481E+02 0.  0.
        254    2    1    2    0    0  0.12643449396E+03 -0.43810105483E+03 -0.13844790232E+03  0.10183329953E+04  0.89995336105E+03 0.  0.
        -24    2    4    4    0    0  0.49173420584E+03 -0.31904274116E+03  0.28420266001E+02  0.59216277799E+03  0.79109065462E+02 0.  0.
         24    2    4    4    0    0 -0.36529971187E+03 -0.11905831367E+03 -0.16686816832E+03  0.42617021727E+03  0.78468509228E+02 0.  0.
         13    1    3    3    0    0 -0.20781411088E+02  0.92083443475E+01  0.22186983547E+02  0.31763546580E+02  0.00000000000E+00 0. -1.
        -13    1    3    3    0    0 -0.10565308288E+03  0.42889271048E+03  0.52511661690E+03  0.68619165863E+03  0.00000000000E+00 0.  1.
          4    1    6    6  502    0 -0.36141713849E+03 -0.10326647930E+03 -0.16000416160E+03  0.40851884347E+03  0.00000000000E+00 0. -1.
          1    1    5    5  503    0  0.33675757790E+03 -0.25999849190E+03  0.27195905615E+02  0.42631502360E+03  0.00000000000E+00 0. -1.
         -2    1    5    5    0  503  0.15497662794E+03 -0.59044249256E+02  0.12243603861E+01  0.16584775439E+03  0.00000000000E+00 0.  1.
         -3    1    6    6    0  502 -0.38825733873E+01 -0.15791834369E+02 -0.68640067245E+01  0.17651373804E+02  0.00000000000E+00 0.  1.
<mgrwt>
<rscale>  0 0.16874637E+04</rscale>
<asrwt>0</asrwt>
<pdfrwt beam="1">  1        2 0.16501107E+00 0.16874637E+04</pdfrwt>
<pdfrwt beam="2">  1       -2 0.10211019E+00 0.16874637E+04</pdfrwt>
<totfact> 0.16963908E+01</totfact>
</mgrwt>
</event>
<event>
12    1  0.1477245E-007  0.1717128E+04  0.7818608E-02  0.8751656E-01
          1   -1    0    0  501    0  0.00000000000E+00  0.00000000000E+00  0.19282222596E+04  0.19282222596E+04  0.00000000000E+00 0. -1.
         -1   -1    0    0    0  501 -0.00000000000E+00 -0.00000000000E+00 -0.38228584908E+03  0.38228584908E+03  0.00000000000E+00 0.  1.
         23    2    1    2    0    0 -0.12543969406E+03 -0.43309336493E+03  0.11082328393E+04  0.11999962195E+04  0.92227550079E+02 0.  0.
        254    2    1    2    0    0  0.12543969406E+03  0.43309336493E+03  0.43770357113E+03  0.11105118891E+04  0.91561305155E+03 0.  0.
        -24    2    4    4    0    0  0.32893447095E+03  0.54325861338E+03  0.54742696918E+03  0.84225134418E+03  0.79895137499E+02 0.  0.
         24    2    4    4    0    0 -0.20349477689E+03 -0.11016524845E+03 -0.10972339805E+03  0.26826054497E+03  0.79862317272E+02 0.  0.
         13    1    3    3    0    0 -0.14042107954E+03 -0.38892006831E+03  0.10029207026E+04  0.10848164982E+04  0.00000000000E+00 0. -1.
        -13    1    3    3    0    0  0.14981385481E+02 -0.44173296614E+02  0.10531213677E+03  0.11517972129E+03  0.00000000000E+00 0.  1.
          2    1    6    6  502    0 -0.18982925512E+03 -0.79033476512E+02 -0.11206784880E+03  0.23418078325E+03  0.00000000000E+00 0. -1.
          3    1    5    5  503    0  0.25775390481E+03  0.39113027555E+03  0.36149605260E+03  0.59169195021E+03  0.00000000000E+00 0. -1.
         -4    1    5    5    0  503  0.71180566140E+02  0.15212833783E+03  0.18593091658E+03  0.25055939397E+03  0.00000000000E+00 0.  1.
         -3    1    6    6    0  502 -0.13665521769E+02 -0.31131771941E+02  0.23444507533E+01  0.34079761718E+02  0.00000000000E+00 0.  1.
<mgrwt>
<rscale>  0 0.17171279E+04</rscale>
<asrwt>0</asrwt>
<pdfrwt beam="1">  1        1 0.29664957E+00 0.17171279E+04</pdfrwt>
<pdfrwt beam="2">  1       -1 0.58813209E-01 0.17171279E+04</pdfrwt>
<totfact> 0.92834901E+00</totfact>
</mgrwt>
</event>
<event>
12    1  0.1477245E-007  0.2494790E+04  0.7818608E-02  0.8404844E-01
         -2   -1    0    0    0  501 -0.00000000000E+00  0.00000000000E+00  0.90044620558E+03  0.90044620558E+03  0.00000000000E+00 0. -1.
          2   -1    0    0  501    0  0.00000000000E+00 -0.00000000000E+00 -0.17280262776E+04  0.17280262776E+04  0.00000000000E+00 0.  1.
         23    2    1    2    0    0 -0.75971035706E+03  0.70167895164E+03 -0.23869927389E+03  0.10652604884E+04  0.91046070767E+02 0.  0.
        254    2    1    2    0    0  0.75971035706E+03 -0.70167895164E+03 -0.58888079817E+03  0.15632119948E+04  0.10135768193E+04 0.  0.
        -24    2    4    4    0    0  0.54590978473E+03  0.14027905435E+03 -0.15516016593E+03  0.58934068117E+03  0.74512114668E+02 0.  0.
         24    2    4    4    0    0  0.21380057232E+03 -0.84195800599E+03 -0.43372063224E+03  0.97387131366E+03  0.75549852155E+02 0.  0.
         13    1    3    3    0    0 -0.27763268961E+03  0.28651244206E+03 -0.13156733618E+03  0.42009433910E+03  0.00000000000E+00 0.  1.
        -13    1    3    3    0    0 -0.48207766744E+03  0.41516650958E+03 -0.10713193771E+03  0.64516614930E+03  0.00000000000E+00 0. -1.
          2    1    6    6  502    0  0.21444208224E+02 -0.16359315595E+03 -0.10774568929E+03  0.19705762685E+03  0.00000000000E+00 0. -1.
          1    1    5    5  503    0  0.52588123795E+02 -0.71339592109E+01 -0.22549353007E+02  0.57661750401E+02  0.00000000000E+00 0. -1.
         -4    1    5    5    0  503  0.49332166094E+03  0.14741301356E+03 -0.13261081292E+03  0.53167893077E+03  0.00000000000E+00 0.  1.
         -1    1    6    6    0  502  0.19235636410E+03 -0.67836485004E+03 -0.32597494295E+03  0.77681368681E+03  0.00000000000E+00 0.  1.
<mgrwt>
<rscale>  0 0.24947903E+04</rscale>
<asrwt>0</asrwt>
<pdfrwt beam="1">  1        2 0.26585020E+00 0.24947903E+04</pdfrwt>
<pdfrwt beam="2">  1       -2 0.13853019E+00 0.24947903E+04</pdfrwt>
<totfact> 0.31166285E+00</totfact>
</mgrwt>
</event>
<event>
12    1  0.1477245E-007  0.2183737E+04  0.7818608E-02  0.8525228E-01
          2   -1    0    0  501    0  0.00000000000E+00  0.00000000000E+00  0.25266198721E+04  0.25266198721E+04  0.00000000000E+00 0. -1.
         -2   -1    0    0    0  501 -0.00000000000E+00 -0.00000000000E+00 -0.47184669187E+03  0.47184669187E+03  0.00000000000E+00 0.  1.
         23    2    1    2    0    0  0.73535883704E+03 -0.43839280842E+02  0.15601483476E+03  0.75864665474E+03  0.92355921937E+02 0.  0.
        254    2    1    2    0    0 -0.73535883704E+03  0.43839280842E+02  0.18987583455E+04  0.22398199093E+04  0.93211344244E+03 0.  0.
        -24    2    4    4    0    0  0.11492965011E+03 -0.24617064068E+03  0.52674549294E+03  0.59807434569E+03  0.80145491608E+02 0.  0.
         24    2    4    4    0    0 -0.85028848716E+03  0.29000992152E+03  0.13720128525E+04  0.16417455636E+04  0.76242783174E+02 0.  0.
         13    1    3    3    0    0  0.12011312228E+01 -0.64527558440E+01  0.48372594248E+01  0.81535178260E+01  0.00000000000E+00 0. -1.
        -13    1    3    3    0    0  0.73415770582E+03 -0.37386524998E+02  0.15117757533E+03  0.75049313691E+03  0.00000000000E+00 0.  1.
          4    1    6    6  502    0 -0.35125654760E+03  0.14430764009E+03  0.52560678976E+03  0.64843531262E+03  0.00000000000E+00 0. -1.
          3    1    5    5  503    0  0.45193346752E+02 -0.53129287709E+02  0.78132719197E+02  0.10473720262E+03  0.00000000000E+00 0. -1.
         -4    1    5    5    0  503  0.69736303360E+02 -0.19304135297E+03  0.44861277375E+03  0.49333714307E+03  0.00000000000E+00 0.  1.
         -3    1    6    6    0  502 -0.49903193956E+03  0.14570228143E+03  0.84640606278E+03  0.99331025094E+03  0.00000000000E+00 0.  1.
<mgrwt>
<rscale>  0 0.21837374E+04</rscale>
<asrwt>0</asrwt>
<pdfrwt beam="1">  1        2 0.38871074E+00 0.21837374E+04</pdfrwt>
<pdfrwt beam="2">  1       -2 0.72591800E-01 0.21837374E+04</pdfrwt>
<totfact> 0.52779890E+00</totfact>
</mgrwt>
</event>
<event>
12    1  0.1477245E-007  0.2082677E+04  0.7818608E-02  0.8568913E-01
          1   -1    0    0  501    0  0.00000000000E+00  0.00000000000E+00  0.99192353832E+03  0.99192353832E+03  0.00000000000E+00 0. -1.
         -1   -1    0    0    0  501 -0.00000000000E+00 -0.00000000000E+00 -0.10932152723E+04  0.10932152723E+04  0.00000000000E+00 0.  1.
         23    2    1    2    0    0 -0.54709129776E+03  0.60521630215E+03 -0.26485520845E+03  0.86267522824E+03  0.92003301527E+02 0.  0.
        254    2    1    2    0    0  0.54709129776E+03 -0.60521630215E+03  0.16356347446E+03  0.12224635824E+04  0.89558279327E+03 0.  0.
        -24    2    4    4    0    0  0.75600844108E+03 -0.57799105878E+03  0.23941576219E+03  0.98453264246E+03  0.79763336594E+02 0.  0.
         24    2    4    4    0    0 -0.20891714332E+03 -0.27225243378E+02 -0.75852287721E+02  0.23793093993E+03  0.80436160857E+02 0.  0.
         11    1    3    3    0    0 -0.34266488248E+03  0.31858954992E+03 -0.12933152760E+03  0.48543296863E+03  0.00000000000E+00 0. -1.
        -11    1    3    3    0    0 -0.20442641528E+03  0.28662675223E+03 -0.13552368086E+03  0.37724225961E+03  0.00000000000E+00 0.  1.
          2    1    6    6  502    0 -0.18673935390E+03 -0.16330076448E+02 -0.35754972433E+02  0.19083153760E+03  0.00000000000E+00 0. -1.
          1    1    5    5  503    0  0.65724186685E+03 -0.47339654085E+03  0.22033527785E+03  0.83941574389E+03  0.00000000000E+00 0. -1.
         -2    1    5    5    0  503  0.98766574234E+02 -0.10459451793E+03  0.19080484332E+02  0.14511689857E+03  0.00000000000E+00 0.  1.
         -1    1    6    6    0  502 -0.22177789424E+02 -0.10895166930E+02 -0.40097315289E+02  0.47099402326E+02  0.00000000000E+00 0.  1.
<mgrwt>
<rscale>  0 0.20826771E+04</rscale>
<asrwt>0</asrwt>
<pdfrwt beam="1">  1        1 0.15260362E+00 0.20826771E+04</pdfrwt>
<pdfrwt beam="2">  1       -1 0.16818697E+00 0.20826771E+04</pdfrwt>
<totfact> 0.35886250E+00</totfact>
</mgrwt>
</event>
<event>
12    1  0.1477245E-007  0.1301950E+04  0.7818608E-02  0.9028020E-01
         -1   -1    0    0    0  501 -0.00000000000E+00  0.00000000000E+00  0.76893520408E+03  0.76893520408E+03  0.00000000000E+00 0.  1.
          1   -1    0    0  501    0  0.00000000000E+00 -0.00000000000E+00 -0.55111070688E+03  0.55111070688E+03  0.00000000000E+00 0. -1.
         23    2    1    2    0    0 -0.26471446914E+03  0.12086092170E+03 -0.11702431333E+03  0.32492812140E+03  0.84867435465E+02 0.  0.
        254    2    1    2    0    0  0.26471446914E+03 -0.12086092170E+03  0.33484881053E+03  0.99511778956E+03  0.89076067303E+03 0.  0.
        -24    2    4    4    0    0  0.16180991194E+03  0.24684746066E+03 -0.17517490614E+03  0.35283648058E+03  0.81799864629E+02 0.  0.
         24    2    4    4    0    0  0.10290455720E+03 -0.36770838236E+03  0.51002371666E+03  0.64228130898E+03  0.81254451949E+02 0.  0.
         11    1    3    3    0    0 -0.48971778576E+02  0.15292675817E+02 -0.58314517711E+02  0.77670354747E+02  0.00000000000E+00 0.  1.
        -11    1    3    3    0    0 -0.21574269056E+03  0.10556824588E+03 -0.58709795614E+02  0.24725776666E+03  0.00000000000E+00 0. -1.
          2    1    6    6  502    0  0.10018414639E+03 -0.26951987325E+03  0.33412132749E+03  0.44081162274E+03  0.00000000000E+00 0. -1.
          3    1    5    5  503    0  0.12995794764E+03  0.20547456014E+03 -0.17677792957E+03  0.30059823586E+03  0.00000000000E+00 0. -1.
         -4    1    5    5    0  503  0.31851964305E+02  0.41372900520E+02  0.16030234355E+01  0.52238244722E+02  0.00000000000E+00 0.  1.
         -1    1    6    6    0  502  0.27204108130E+01 -0.98188509109E+02  0.17590238918E+03  0.20146968624E+03  0.00000000000E+00 0.  1.
<mgrwt>
<rscale>  0 0.13019500E+04</rscale>
<asrwt>0</asrwt>
<pdfrwt beam="1">  1        1 0.84786263E-01 0.13019500E+04</pdfrwt>
<pdfrwt beam="2">  1       -1 0.11829772E+00 0.13019500E+04</pdfrwt>
<totfact> 0.24371058E+01</totfact>
</mgrwt>
</event>
<event>
12    1  0.1477245E-007  0.1557876E+04  0.7818608E-02  0.8846853E-01
          2   -1    0    0  501    0  0.00000000000E+00  0.00000000000E+00  0.33682094672E+04  0.33682094672E+04  0.00000000000E+00 0. -1.
         -2   -1    0    0    0  501 -0.00000000000E+00 -0.00000000000E+00 -0.18013845697E+03  0.18013845697E+03  0.00000000000E+00 0.  1.
         23    2    1    2    0    0 -0.38559683465E+03 -0.93935201928E+02  0.32830136790E+03  0.52461680637E+03  0.99660746079E+02 0.  0.
        254    2    1    2    0    0  0.38559683465E+03  0.93935201928E+02  0.28597696423E+04  0.30237311178E+04  0.89842012691E+03 0.  0.
        -24    2    4    4    0    0 -0.23141408631E+03 -0.67312503660E+02  0.34160400360E+03  0.42483995726E+03  0.75579372321E+02 0.  0.
         24    2    4    4    0    0  0.61701092096E+03  0.16124770559E+03  0.25181656387E+04  0.25988911605E+04  0.79835963309E+02 0.  0.
         11    1    3    3    0    0 -0.73519759523E+02 -0.27773809587E+02  0.12059904494E+03  0.14394675814E+03  0.00000000000E+00 0. -1.
        -11    1    3    3    0    0 -0.31207707513E+03 -0.66161392340E+02  0.20770232296E+03  0.38067004823E+03  0.00000000000E+00 0.  1.
          2    1    6    6  502    0  0.12025719689E+03  0.58978591292E+02  0.60427933494E+03  0.61894570220E+03  0.00000000000E+00 0. -1.
          1    1    5    5  503    0  0.31325149579E+01  0.53103481677E+01  0.15153229279E+02  0.16359486704E+02  0.00000000000E+00 0. -1.
         -2    1    5    5    0  503 -0.23454660127E+03 -0.72622851828E+02  0.32645077432E+03  0.40848047056E+03  0.00000000000E+00 0.  1.
         -1    1    6    6    0  502  0.49675372407E+03  0.10226911430E+03  0.19138863038E+04  0.19799454583E+04  0.00000000000E+00 0.  1.
<mgrwt>
<rscale>  0 0.15578755E+04</rscale>
<asrwt>0</asrwt>
<pdfrwt beam="1">  1        2 0.51818603E+00 0.15578755E+04</pdfrwt>
<pdfrwt beam="2">  1       -2 0.27713611E-01 0.15578755E+04</pdfrwt>
<totfact> 0.11578955E+01</totfact>
</mgrwt>
</event>
<event>
12    1  0.1477245E-007  0.1494933E+04  0.7818608E-02  0.8887829E-01
         -1   -1    0    0    0  501 -0.00000000000E+00  0.00000000000E+00  0.43906592807E+03  0.43906592807E+03  0.00000000000E+00 0.  1.
          1   -1    0    0  501    0  0.00000000000E+00 -0.00000000000E+00 -0.12724881565E+04  0.12724881565E+04  0.00000000000E+00 0. -1.
         23    2    1    2    0    0  0.25086994932E+03  0.19598483159E+03 -0.64323704270E+03  0.72348879075E+03  0.91303622863E+02 0.  0.
        254    2    1    2    0    0 -0.25086994932E+03 -0.19598483159E+03 -0.19018518570E+03  0.98806529380E+03  0.91583668537E+03 0.  0.
        -24    2    4    4    0    0 -0.52370102775E+03  0.10711166259E+03 -0.18843323854E+03  0.57237989535E+03  0.79849761994E+02 0.  0.
         24    2    4    4    0    0  0.27283107843E+03 -0.30309649418E+03 -0.17519471567E+01  0.41568539844E+03  0.80541908436E+02 0.  0.
         11    1    3    3    0    0  0.24723572755E+03  0.16352014912E+03 -0.60070821259E+03  0.66986170276E+03  0.00000000000E+00 0. -1.
        -11    1    3    3    0    0  0.36342217679E+01  0.32464682470E+02 -0.42528830115E+02  0.53627087994E+02  0.00000000000E+00 0.  1.
          2    1    6    6  502    0  0.24997076171E+03 -0.24977351323E+03  0.19471463264E+02  0.35390864288E+03  0.00000000000E+00 0. -1.
          3    1    5    5  503    0 -0.39940482957E+03  0.62205246432E+02 -0.17166370889E+03  0.43916072174E+03  0.00000000000E+00 0. -1.
         -4    1    5    5    0  503 -0.12429619818E+03  0.44906416161E+02 -0.16769529647E+02  0.13321917362E+03  0.00000000000E+00 0.  1.
         -1    1    6    6    0  502  0.22860316722E+02 -0.53322980950E+02 -0.21223410421E+02  0.61776755563E+02  0.00000000000E+00 0.  1.
<mgrwt>
<rscale>  0 0.14949330E+04</rscale>
<asrwt>0</asrwt>
<pdfrwt beam="1">  1        1 0.19576741E+00 0.14949330E+04</pdfrwt>
<pdfrwt beam="2">  1       -1 0.67548605E-01 0.14949330E+04</pdfrwt>
<totfact> 0.20333194E+01</totfact>
</mgrwt>
</event>
<event>
12    1  0.1477245E-007  0.1507433E+04  0.7818608E-02  0.8879525E-01
          2   -1    0    0  501    0  0.00000000000E+00  0.00000000000E+00  0.19835517017E+04  0.19835517017E+04  0.00000000000E+00 0. -1.
         -2   -1    0    0    0  501 -0.00000000000E+00 -0.00000000000E+00 -0.28639982373E+03  0.28639982373E+03  0.00000000000E+00 0.  1.
         23    2    1    2    0    0 -0.78304860544E+02  0.33424639065E+03  0.10219245729E+04  0.10823384743E+04  0.96303891497E+02 0.  0.
        254    2    1    2    0    0  0.78304860544E+02 -0.33424639065E+03  0.67522730510E+03  0.11876130511E+04  0.91468056979E+03 0.  0.
        -24    2    4    4    0    0  0.91876599313E+02 -0.64396764913E+03  0.42225561677E+03  0.77963421980E+03  0.79962917480E+02 0.  0.
         24    2    4    4    0    0 -0.13571738769E+02  0.30972125848E+03  0.25297168834E+03  0.40797883130E+03  0.79627894847E+02 0.  0.
         13    1    3    3    0    0 -0.25920153946E+02  0.20585512380E+03  0.47938214126E+03  0.52235564871E+03  0.00000000000E+00 0.  1.
        -13    1    3    3    0    0 -0.52384706599E+02  0.12839126684E+03  0.54254243163E+03  0.55998282563E+03  0.00000000000E+00 0. -1.
          4    1    6    6  502    0 -0.42479696169E+02  0.18331508337E+03  0.17312328038E+03  0.25569633276E+03  0.00000000000E+00 0. -1.
          3    1    5    5  503    0  0.76104282072E+02 -0.53075727177E+03  0.30962483757E+03  0.61916288917E+03  0.00000000000E+00 0. -1.
         -4    1    5    5    0  503  0.15772317240E+02 -0.11321037736E+03  0.11263077919E+03  0.16047133063E+03  0.00000000000E+00 0.  1.
         -3    1    6    6    0  502  0.28907957400E+02  0.12640617512E+03  0.79848407962E+02  0.15228249854E+03  0.00000000000E+00 0.  1.
<mgrwt>
<rscale>  0 0.15074334E+04</rscale>
<asrwt>0</asrwt>
<pdfrwt beam="1">  1        2 0.30516179E+00 0.15074334E+04</pdfrwt>
<pdfrwt beam="2">  1       -2 0.44061513E-01 0.15074334E+04</pdfrwt>
<totfact> 0.32196432E+01</totfact>
</mgrwt>
</event>
<event>
12    1  0.1477245E-007  0.1192710E+04  0.7818608E-02  0.9119261E-01
         -1   -1    0    0    0  501 -0.00000000000E+00  0.00000000000E+00  0.99806639341E+02  0.99806639341E+02  0.00000000000E+00 0.  1.
          1   -1    0    0  501    0  0.00000000000E+00 -0.00000000000E+00 -0.35632838696E+04  0.35632838696E+04  0.00000000000E+00 0. -1.
         23    2    1    2    0    0 -0.42521874602E+02  0.21658794276E+03 -0.10797293086E+04  0.11056124323E+04  0.88572139169E+02 0.  0.
        254    2    1    2    0    0  0.42521874602E+02 -0.21658794276E+03 -0.23837479216E+04  0.25574780766E+04  0.89984527098E+03 0.  0.
        -24    2    4    4    0    0 -0.27728117968E+03 -0.32418536278E+03 -0.19728289875E+04  0.20199912094E+04  0.79556710416E+02 0.  0.
         24    2    4    4    0    0  0.31980305429E+03  0.10759742001E+03 -0.41091893409E+03  0.53748686715E+03  0.78654711497E+02 0.  0.
         11    1    3    3    0    0 -0.40305594637E+02  0.17045981374E+03 -0.98226927408E+03  0.99776450922E+03  0.00000000000E+00 0. -1.
        -11    1    3    3    0    0 -0.22162799654E+01  0.46128129027E+02 -0.97460034543E+02  0.10784792310E+03  0.00000000000E+00 0.  1.
          4    1    6    6  502    0  0.21351368622E+03  0.33753778389E+02 -0.27526370538E+03  0.34999645606E+03  0.00000000000E+00 0. -1.
          3    1    5    5  503    0 -0.22102371129E+03 -0.28940910797E+03 -0.17532050339E+04  0.17906247523E+04  0.00000000000E+00 0. -1.
         -4    1    5    5    0  503 -0.56257468395E+02 -0.34776254809E+02 -0.21962395363E+03  0.22936645713E+03  0.00000000000E+00 0.  1.
         -3    1    6    6    0  502  0.10628936807E+03  0.73843641626E+02 -0.13565522871E+03  0.18749041109E+03  0.00000000000E+00 0.  1.
<mgrwt>
<rscale>  0 0.11927102E+04</rscale>
<asrwt>0</asrwt>
<pdfrwt beam="1">  1        1 0.54819755E+00 0.11927102E+04</pdfrwt>
<pdfrwt beam="2">  1       -1 0.15354867E-01 0.11927102E+04</pdfrwt>
<totfact> 0.71526064E+00</totfact>
</mgrwt>
</event>
<event>
12    1  0.1477245E-007  0.1163763E+04  0.7818608E-02  0.9145180E-01
          1   -1    0    0  501    0  0.00000000000E+00  0.00000000000E+00  0.15299525499E+03  0.15299525499E+03  0.00000000000E+00 0. -1.
         -1   -1    0    0    0  501 -0.00000000000E+00 -0.00000000000E+00 -0.22130494865E+04  0.22130494865E+04  0.00000000000E+00 0.  1.
         23    2    1    2    0    0  0.99233951846E+02 -0.33671752472E+02 -0.84888459947E+03  0.86019526245E+03  0.91376486105E+02 0.  0.
        254    2    1    2    0    0 -0.99233951846E+02  0.33671752472E+02 -0.12111696320E+04  0.15058494790E+04  0.88863356442E+03 0.  0.
        -24    2    4    4    0    0 -0.53533706692E+02  0.28698837951E+03 -0.41366897333E+02  0.30549876317E+03  0.79938015860E+02 0.  0.
         24    2    4    4    0    0 -0.45700245154E+02 -0.25331662704E+03 -0.11698027347E+04  0.12003507158E+04  0.78393730685E+02 0.  0.
         13    1    3    3    0    0  0.20652967987E+02 -0.31572384735E+00 -0.27535017395E+02  0.34421242731E+02  0.00000000000E+00 0. -1.
        -13    1    3    3    0    0  0.78580983859E+02 -0.33356028625E+02 -0.82134958207E+03  0.82577401972E+03  0.00000000000E+00 0.  1.
          4    1    6    6  502    0 -0.18774110680E+02 -0.14955586974E+03 -0.50686686493E+03  0.52880378608E+03  0.00000000000E+00 0. -1.
          1    1    5    5  503    0  0.35166873527E+00  0.19658749405E+03 -0.37845411226E+02  0.20019750658E+03  0.00000000000E+00 0. -1.
         -2    1    5    5    0  503 -0.53885375427E+02  0.90400885456E+02 -0.35214861067E+01  0.10530125660E+03  0.00000000000E+00 0.  1.
         -3    1    6    6    0  502 -0.26926134474E+02 -0.10376075730E+03 -0.66293586974E+03  0.67154692975E+03  0.00000000000E+00 0.  1.
<mgrwt>
<rscale>  0 0.11637630E+04</rscale>
<asrwt>0</asrwt>
<pdfrwt beam="1">  1        1 0.23537732E-01 0.11637630E+04</pdfrwt>
<pdfrwt beam="2">  1       -1 0.34046914E+00 0.11637630E+04</pdfrwt>
<totfact> 0.38137694E+00</totfact>
</mgrwt>
</event>
<event>
12    1  0.1477245E-007  0.3474266E+04  0.7818608E-02  0.8119916E-01
          2   -1    0    0  501    0  0.00000000000E+00  0.00000000000E+00  0.41040324093E+04  0.41040324093E+04  0.00000000000E+00 0. -1.
         -2   -1    0    0    0  501 -0.00000000000E+00 -0.00000000000E+00 -0.73528439706E+03  0.73528439706E+03  0.00000000000E+00 0.  1.
         23    2    1    2    0    0 -0.80513178108E+01  0.11709724579E+04  0.31576671101E+04  0.33691725937E+04  0.96026387686E+02 0.  0.
        254    2    1    2    0    0  0.80513178108E+01 -0.11709724579E+04  0.21108090207E+03  0.14701442126E+04  0.86343936544E+03 0.  0.
        -24    2    4    4    0    0  0.28063784257E+03 -0.49306972859E+03 -0.22350237933E+03  0.61627362186E+03  0.89244089430E+02 0.  0.
         24    2    4    4    0    0 -0.27258652476E+03 -0.67790272928E+03  0.43458328140E+03  0.85387059073E+03  0.79855077453E+02 0.  0.
         11    1    3    3    0    0  0.27035625636E+02  0.25179234149E+03  0.76210818226E+03  0.80308106051E+03  0.00000000000E+00 0.  1.
        -11    1    3    3    0    0 -0.35086943447E+02  0.91918011638E+03  0.23955589279E+04  0.25660915332E+04  0.00000000000E+00 0. -1.
          4    1    6    6  502    0 -0.26549111837E+03 -0.65609127833E+03  0.40183027062E+03  0.81388504460E+03  0.00000000000E+00 0. -1.
          1    1    5    5  503    0  0.13748780820E+03 -0.17768032444E+03 -0.12043685134E+03  0.25490827812E+03  0.00000000000E+00 0. -1.
         -2    1    5    5    0  503  0.14315003438E+03 -0.31538940415E+03 -0.10306552798E+03  0.36136534373E+03  0.00000000000E+00 0.  1.
         -3    1    6    6    0  502 -0.70954063940E+01 -0.21811450951E+02  0.32753010779E+02  0.39985546133E+02  0.00000000000E+00 0.  1.
<mgrwt>
<rscale>  0 0.34742660E+04</rscale>
<asrwt>0</asrwt>
<pdfrwt beam="1">  1        2 0.63138959E+00 0.34742660E+04</pdfrwt>
<pdfrwt beam="2">  1       -2 0.11312068E+00 0.34742660E+04</pdfrwt>
<totfact> 0.14151900E-01</totfact>
</mgrwt>
</event>
<event>
12    1  0.1477245E-007  0.1228769E+04  0.7818608E-02  0.9088041E-01
          1   -1    0    0  501    0  0.00000000000E+00  0.00000000000E+00  0.14741837978E+04  0.14741837978E+04  0.00000000000E+00 0. -1.
         -1   -1    0    0    0  501 -0.00000000000E+00 -0.00000000000E+00 -0.25605250939E+03  0.25605250939E+03  0.00000000000E+00 0.  1.
         23    2    1    2    0    0  0.21926661617E+03 -0.11159174054E+03  0.46244033478E+03  0.53168418839E+03  0.91139713805E+02 0.  0.
        254    2    1    2    0    0 -0.21926661617E+03  0.11159174054E+03  0.75569095363E+03  0.11985521188E+04  0.89717768505E+03 0.  0.
        -24    2    4    4    0    0  0.35064250468E+02 -0.34557187459E+03  0.13057814433E+03  0.37950646198E+03  0.79530376225E+02 0.  0.
         24    2    4    4    0    0 -0.25433086664E+03  0.45716361513E+03  0.62511280929E+03  0.81904565681E+03  0.79918726666E+02 0.  0.
         11    1    3    3    0    0  0.37932132665E+01 -0.31806441421E+02  0.45864217151E+02  0.55942511542E+02  0.00000000000E+00 0.  1.
        -11    1    3    3    0    0  0.21547340290E+03 -0.79785299120E+02  0.41657611763E+03  0.47574167685E+03  0.00000000000E+00 0. -1.
          2    1    6    6  502    0 -0.13182059967E+03  0.15932776943E+03  0.25964412309E+03  0.33192932872E+03  0.00000000000E+00 0. -1.
          3    1    5    5  503    0  0.12905283361E+02 -0.19709966475E+03  0.32467394875E+02  0.20017231555E+03  0.00000000000E+00 0. -1.
         -4    1    5    5    0  503  0.22158967108E+02 -0.14847220984E+03  0.98110749457E+02  0.17933414643E+03  0.00000000000E+00 0.  1.
         -1    1    6    6    0  502 -0.12251026697E+03  0.29783584570E+03  0.36546868621E+03  0.48711632809E+03  0.00000000000E+00 0.  1.
<mgrwt>
<rscale>  0 0.12287692E+04</rscale>
<asrwt>0</asrwt>
<pdfrwt beam="1">  1        1 0.22679750E+00 0.12287692E+04</pdfrwt>
<pdfrwt beam="2">  1       -1 0.39392695E-01 0.12287692E+04</pdfrwt>
<totfact> 0.42168930E+01</totfact>
</mgrwt>
</event>
<event>
12    1  0.1477245E-007  0.1856447E+04  0.7818608E-02  0.8676844E-01
         -1   -1    0    0    0  501 -0.00000000000E+00  0.00000000000E+00  0.51646260202E+03  0.51646260202E+03  0.00000000000E+00 0.  1.
          1   -1    0    0  501    0  0.00000000000E+00 -0.00000000000E+00 -0.16682703568E+04  0.16682703568E+04  0.00000000000E+00 0. -1.
         23    2    1    2    0    0 -0.37253073974E+03  0.35052178281E+03  0.14735129984E+03  0.53901222361E+03  0.84717762984E+02 0.  0.
        254    2    1    2    0    0  0.37253073974E+03 -0.35052178281E+03 -0.12991590546E+04  0.16457207352E+04  0.87117037187E+03 0.  0.
        -24    2    4    4    0    0  0.27402828931E+03 -0.97417599102E+02 -0.13274270120E+04  0.13613601939E+04  0.81592975239E+02 0.  0.
         24    2    4    4    0    0  0.98502450432E+02 -0.25310418371E+03  0.28267957369E+02  0.28436054125E+03  0.79356029737E+02 0.  0.
         13    1    3    3    0    0  0.35709085748E+01  0.43777853835E+01  0.69101156463E+01  0.89255863202E+01  0.00000000000E+00 0. -1.
        -13    1    3    3    0    0 -0.37610164831E+03  0.34614399742E+03  0.14044118419E+03  0.53008663729E+03  0.00000000000E+00 0.  1.
          2    1    6    6  502    0  0.71535249382E+02 -0.12139048148E+03 -0.18287226087E+02  0.14208224215E+03  0.00000000000E+00 0. -1.
          1    1    5    5  503    0  0.16803500628E+03 -0.30955022472E+02 -0.89663166902E+03  0.91276630451E+03  0.00000000000E+00 0. -1.
         -2    1    5    5    0  503  0.10599328302E+03 -0.66462576629E+02 -0.43079534294E+03  0.44859388943E+03  0.00000000000E+00 0.  1.
         -1    1    6    6    0  502  0.26967201050E+02 -0.13171370223E+03  0.46555183455E+02  0.14227829910E+03  0.00000000000E+00 0.  1.
<mgrwt>
<rscale>  0 0.18564474E+04</rscale>
<asrwt>0</asrwt>
<pdfrwt beam="1">  1        1 0.25665698E+00 0.18564474E+04</pdfrwt>
<pdfrwt beam="2">  1       -1 0.79455784E-01 0.18564474E+04</pdfrwt>
<totfact> 0.74459020E+00</totfact>
</mgrwt>
</event>
<event>
12    1  0.1477245E-007  0.1663685E+04  0.7818608E-02  0.8782351E-01
         -1   -1    0    0    0  501 -0.00000000000E+00  0.00000000000E+00  0.30927689401E+03  0.30927689401E+03  0.00000000000E+00 0.  1.
          1   -1    0    0  501    0  0.00000000000E+00 -0.00000000000E+00 -0.22373554626E+04  0.22373554626E+04  0.00000000000E+00 0. -1.
         23    2    1    2    0    0  0.41254430029E+02 -0.42842126998E+03 -0.12918758487E+04  0.13647963232E+04  0.92081935835E+02 0.  0.
        254    2    1    2    0    0 -0.41254430029E+02  0.42842126998E+03 -0.63620271988E+03  0.11818360334E+04  0.89818472287E+03 0.  0.
        -24    2    4    4    0    0 -0.18594112738E+02 -0.26358831947E+03 -0.29582970731E+03  0.40582046092E+03  0.85734984601E+02 0.  0.
         24    2    4    4    0    0 -0.22660317291E+02  0.69200958946E+03 -0.34037301257E+03  0.77601557243E+03  0.83400354273E+02 0.  0.
         13    1    3    3    0    0  0.16123371117E+02 -0.11711504754E+03 -0.49454702646E+03  0.50848073595E+03  0.00000000000E+00 0.  1.
        -13    1    3    3    0    0  0.25131058912E+02 -0.31130622245E+03 -0.79732882220E+03  0.85631558725E+03  0.00000000000E+00 0. -1.
          4    1    6    6  502    0  0.69247661830E+00  0.32211781994E+03 -0.20299654176E+03  0.38074658949E+03  0.00000000000E+00 0. -1.
          3    1    5    5  503    0 -0.47225050212E+02 -0.15958740123E+03 -0.14728797008E+03  0.22224331290E+03  0.00000000000E+00 0. -1.
         -4    1    5    5    0  503  0.28630937474E+02 -0.10400091824E+03 -0.14854173723E+03  0.18357714802E+03  0.00000000000E+00 0.  1.
         -3    1    6    6    0  502 -0.23352793909E+02  0.36989176952E+03 -0.13737647081E+03  0.39526898294E+03  0.00000000000E+00 0.  1.
<mgrwt>
<rscale>  0 0.16636855E+04</rscale>
<asrwt>0</asrwt>
<pdfrwt beam="1">  1        1 0.34420854E+00 0.16636855E+04</pdfrwt>
<pdfrwt beam="2">  1       -1 0.47581060E-01 0.16636855E+04</pdfrwt>
<totfact> 0.86544043E+00</totfact>
</mgrwt>
</event>
<event>
12    1  0.1477245E-007  0.1646658E+04  0.7818608E-02  0.8792386E-01
         -3   -1    0    0    0  501 -0.00000000000E+00  0.00000000000E+00  0.15292852486E+04  0.15292852486E+04  0.00000000000E+00 0.  1.
          3   -1    0    0  501    0  0.00000000000E+00 -0.00000000000E+00 -0.44325996589E+03  0.44325996589E+03  0.00000000000E+00 0. -1.
         23    2    1    2    0    0 -0.11665078520E+03 -0.20297323363E+02  0.10412053006E+04  0.10543003970E+04  0.11585103381E+03 0.  0.
        254    2    1    2    0    0  0.11665078520E+03  0.20297323363E+02  0.44819982094E+02  0.91824481751E+03  0.90947530316E+03 0.  0.
        -24    2    4    4    0    0  0.41300288373E+03 -0.24314946986E+03  0.13124351822E+03  0.50323856807E+03  0.79568515440E+02 0.  0.
         24    2    4    4    0    0 -0.29635209853E+03  0.26344679323E+03 -0.86423536124E+02  0.41500624944E+03  0.86789286846E+02 0.  0.
         13    1    3    3    0    0 -0.72918926414E+02  0.18708811603E+02  0.87183583367E+03  0.87507994511E+03  0.00000000000E+00 0.  1.
        -13    1    3    3    0    0 -0.43731858790E+02 -0.39006134966E+02  0.16936946694E+03  0.17922045187E+03  0.00000000000E+00 0. -1.
          2    1    6    6  502    0 -0.24723168753E+03  0.24280983158E+03 -0.49175437632E+02  0.34999763613E+03  0.00000000000E+00 0. -1.
          3    1    5    5  503    0  0.26308386771E+03 -0.19358956108E+03  0.10553931691E+03  0.34326168884E+03  0.00000000000E+00 0. -1.
         -4    1    5    5    0  503  0.14991901602E+03 -0.49559908783E+02  0.25704201310E+02  0.15997687923E+03  0.00000000000E+00 0.  1.
         -1    1    6    6    0  502 -0.49120410996E+02  0.20636961648E+02 -0.37248098492E+02  0.65008613305E+02  0.00000000000E+00 0.  1.
<mgrwt>
<rscale>  0 0.16466583E+04</rscale>
<asrwt>0</asrwt>
<pdfrwt beam="1">  1        3 0.68193842E-01 0.16466583E+04</pdfrwt>
<pdfrwt beam="2">  1       -3 0.23527465E+00 0.16466583E+04</pdfrwt>
<totfact> 0.46111998E-01</totfact>
</mgrwt>
</event>
<event>
12    1  0.2148711E-007  0.2154970E+04  0.7818608E-02  0.8537408E-01
          2   -1    0    0  501    0  0.00000000000E+00  0.00000000000E+00  0.26195099794E+04  0.26195099794E+04  0.00000000000E+00 0.  1.
         -2   -1    0    0    0  501 -0.00000000000E+00 -0.00000000000E+00 -0.44320276979E+03  0.44320276979E+03  0.00000000000E+00 0. -1.
         23    2    1    2    0    0  0.10710281103E+03  0.26573961366E+03 -0.29527577623E+03  0.42001729312E+03  0.84487798459E+02 0.  0.
        254    2    1    2    0    0 -0.10710281103E+03 -0.26573961366E+03  0.24715829858E+04  0.26426954561E+04  0.89052134353E+03 0.  0.
        -24    2    4    4    0    0 -0.17176522562E+02 -0.51784255108E+03  0.21668788775E+04  0.22293891275E+04  0.79723719336E+02 0.  0.
         24    2    4    4    0    0 -0.89926288473E+02  0.25210293742E+03  0.30470410831E+03  0.41330632854E+03  0.79592079894E+02 0.  0.
         11    1    3    3    0    0  0.10592548983E+03  0.15382753567E+03 -0.18698119006E+03  0.26428220818E+03  0.00000000000E+00 0. -1.
        -11    1    3    3    0    0  0.11773212054E+01  0.11191207799E+03 -0.10829458617E+03  0.15573508494E+03  0.00000000000E+00 0.  1.
          2    1    6    6  502    0  0.84056920854E+01  0.99603220111E+00  0.16902272996E+02  0.18903295269E+02  0.00000000000E+00 0. -1.
          1    1    5    5  503    0 -0.14074745778E+01  0.20852591778E+01  0.30222854809E+02  0.30327384380E+02  0.00000000000E+00 0. -1.
         -2    1    5    5    0  503 -0.15769047984E+02 -0.51992781026E+03  0.21366560227E+04  0.21990617432E+04  0.00000000000E+00 0.  1.
         -1    1    6    6    0  502 -0.98331980558E+02  0.25110690522E+03  0.28780183531E+03  0.39440303328E+03  0.00000000000E+00 0.  1.
<mgrwt>
<rscale>  0 0.21549701E+04</rscale>
<asrwt>0</asrwt>
<pdfrwt beam="1">  1        2 0.40300153E+00 0.21549701E+04</pdfrwt>
<pdfrwt beam="2">  1       -2 0.68185043E-01 0.21549701E+04</pdfrwt>
<totfact> 0.53546722E+00</totfact>
</mgrwt>
</event>
<event>
12    1  0.1477245E-007  0.1138921E+04  0.7818608E-02  0.9168066E-01
          2   -1    0    0  501    0  0.00000000000E+00  0.00000000000E+00  0.68284793811E+03  0.68284793811E+03  0.00000000000E+00 0. -1.
         -2   -1    0    0    0  501 -0.00000000000E+00 -0.00000000000E+00 -0.47490092486E+03  0.47490092486E+03  0.00000000000E+00 0.  1.
         23    2    1    2    0    0  0.18935121679E+03  0.66192173905E+01 -0.47608910894E+02  0.21448882735E+03  0.88550275685E+02 0.  0.
        254    2    1    2    0    0 -0.18935121679E+03 -0.66192173905E+01  0.25555592414E+03  0.94326003562E+03  0.88799378775E+03 0.  0.
        -24    2    4    4    0    0 -0.36966159984E+03  0.17976892371E+03  0.44620136982E+03  0.61144554053E+03  0.76180196053E+02 0.  0.
         24    2    4    4    0    0  0.18031038305E+03 -0.18638814110E+03 -0.19064544568E+03  0.33181449509E+03  0.80639939336E+02 0.  0.
         11    1    3    3    0    0  0.19698152911E+03 -0.96962974446E+00 -0.50483200021E+02  0.20334998519E+03  0.00000000000E+00 0.  1.
        -11    1    3    3    0    0 -0.76303123145E+01  0.75888471350E+01  0.28742891271E+01  0.11138842168E+02  0.00000000000E+00 0. -1.
          4    1    6    6  502    0 -0.57085470309E+01 -0.27504344680E+01 -0.16630770910E+02  0.17797048632E+02  0.00000000000E+00 0. -1.
          1    1    5    5  503    0 -0.11145007822E+03  0.18595646570E+02  0.13661815924E+03  0.17728914079E+03  0.00000000000E+00 0. -1.
         -2    1    5    5    0  503 -0.25821152162E+03  0.16117327714E+03  0.30958321058E+03  0.43415639974E+03  0.00000000000E+00 0.  1.
         -3    1    6    6    0  502  0.18601893008E+03 -0.18363770663E+03 -0.17401467477E+03  0.31401744646E+03  0.00000000000E+00 0.  1.
<mgrwt>
<rscale>  0 0.11389207E+04</rscale>
<asrwt>0</asrwt>
<pdfrwt beam="1">  1        2 0.10505353E+00 0.11389207E+04</pdfrwt>
<pdfrwt beam="2">  1       -2 0.73061681E-01 0.11389207E+04</pdfrwt>
<totfact> 0.70901871E+01</totfact>
</mgrwt>
</event>
<event>
12    1  0.1477245E-007  0.1335365E+04  0.7818608E-02  0.9001981E-01
         -3   -1    0    0    0  501 -0.00000000000E+00  0.00000000000E+00  0.14275756474E+04  0.14275756474E+04  0.00000000000E+00 0.  1.
          3   -1    0    0  501    0  0.00000000000E+00 -0.00000000000E+00 -0.31227777681E+03  0.31227777681E+03  0.00000000000E+00 0. -1.
         23    2    1    2    0    0 -0.25663307210E+02  0.10318580040E+03  0.74673488863E+03  0.75985001551E+03  0.91940945337E+02 0.  0.
        254    2    1    2    0    0  0.25663307210E+02 -0.10318580040E+03  0.36856298196E+03  0.98000340869E+03  0.90181045383E+03 0.  0.
        -24    2    4    4    0    0 -0.19053718045E+03 -0.65300649576E+02  0.60819248072E+03  0.64639640865E+03  0.85799950777E+02 0.  0.
         24    2    4    4    0    0  0.21620048766E+03 -0.37885150821E+02 -0.23962949876E+03  0.33360700004E+03  0.75454610730E+02 0.  0.
         13    1    3    3    0    0 -0.20690061084E+02  0.12017388903E+03  0.67760161274E+03  0.68848659233E+03  0.00000000000E+00 0.  1.
        -13    1    3    3    0    0 -0.49732461262E+01 -0.16988088629E+02  0.69133275898E+02  0.71363423185E+02  0.00000000000E+00 0. -1.
          4    1    6    6  502    0  0.16375571902E+03 -0.61825433162E+01 -0.20752247051E+03  0.26442340124E+03  0.00000000000E+00 0. -1.
          3    1    5    5  503    0 -0.11094948279E+03 -0.55518155295E+02  0.47494634803E+03  0.49088296651E+03  0.00000000000E+00 0. -1.
         -4    1    5    5    0  503 -0.79587697659E+02 -0.97824942807E+01  0.13324613268E+03  0.15551344215E+03  0.00000000000E+00 0.  1.
         -3    1    6    6    0  502  0.52444768637E+02 -0.31702607505E+02 -0.32107028250E+02  0.69183598801E+02  0.00000000000E+00 0.  1.
<mgrwt>
<rscale>  0 0.13353653E+04</rscale>
<asrwt>0</asrwt>
<pdfrwt beam="1">  1        3 0.48042736E-01 0.13353653E+04</pdfrwt>
<pdfrwt beam="2">  1       -3 0.21962702E+00 0.13353653E+04</pdfrwt>
<totfact> 0.12221865E+00</totfact>
</mgrwt>
</event>
<event>
12    1  0.1477245E-007  0.2198028E+04  0.7818608E-02  0.8519249E-01
         -2   -1    0    0    0  501 -0.00000000000E+00  0.00000000000E+00  0.83722132216E+03  0.83722132216E+03  0.00000000000E+00 0.  1.
          2   -1    0    0  501    0  0.00000000000E+00 -0.00000000000E+00 -0.14426673307E+04  0.14426673307E+04  0.00000000000E+00 0. -1.
         23    2    1    2    0    0 -0.81119735509E+03 -0.15757819656E+03 -0.46414413174E+03  0.95220536831E+03  0.91614690261E+02 0.  0.
        254    2    1    2    0    0  0.81119735509E+03  0.15757819656E+03 -0.14130187683E+03  0.13276832846E+04  0.10295167055E+04 0.  0.
        -24    2    4    4    0    0  0.10255389084E+04  0.25459302119E+03 -0.18450484387E+03  0.10759011175E+04  0.83507593982E+02 0.  0.
         24    2    4    4    0    0 -0.21434155327E+03 -0.97014824634E+02  0.43202967039E+02  0.25178216706E+03  0.78572168301E+02 0.  0.
         13    1    3    3    0    0 -0.80709369314E+02 -0.23342295535E+02 -0.18443076991E+02  0.86017510687E+02  0.00000000000E+00 0.  1.
        -13    1    3    3    0    0 -0.73048798578E+03 -0.13423590102E+03 -0.44570105475E+03  0.86618785763E+03  0.00000000000E+00 0. -1.
          2    1    6    6  502    0 -0.13898033842E+02 -0.28190019719E+02  0.22887831850E+02  0.38880398702E+02  0.00000000000E+00 0. -1.
          1    1    5    5  503    0  0.59063360669E+03  0.18900591246E+03 -0.10888793526E+03  0.62962518592E+03  0.00000000000E+00 0. -1.
         -2    1    5    5    0  503  0.43490530167E+03  0.65587108728E+02 -0.75616908609E+02  0.44627593160E+03  0.00000000000E+00 0.  1.
         -1    1    6    6    0  502 -0.20044351943E+03 -0.68824804915E+02  0.20315135190E+02  0.21290176836E+03  0.00000000000E+00 0.  1.
<mgrwt>
<rscale>  0 0.21980281E+04</rscale>
<asrwt>0</asrwt>
<pdfrwt beam="1">  1        2 0.22194882E+00 0.21980281E+04</pdfrwt>
<pdfrwt beam="2">  1       -2 0.12880328E+00 0.21980281E+04</pdfrwt>
<totfact> 0.55614919E+00</totfact>
</mgrwt>
</event>
<event>
12    1  0.1477245E-007  0.2994364E+04  0.7818608E-02  0.8245342E-01
         -2   -1    0    0    0  501 -0.00000000000E+00  0.00000000000E+00  0.13841263528E+04  0.13841263528E+04  0.00000000000E+00 0. -1.
          2   -1    0    0  501    0  0.00000000000E+00 -0.00000000000E+00 -0.16194718866E+04  0.16194718866E+04  0.00000000000E+00 0.  1.
         23    2    1    2    0    0  0.88845384075E+02  0.83712056826E+02 -0.14667479863E+04  0.14746404563E+04  0.91178995076E+02 0.  0.
        254    2    1    2    0    0 -0.88845384075E+02 -0.83712056826E+02  0.12314024525E+04  0.15289577830E+04  0.89803045136E+03 0.  0.
        -24    2    4    4    0    0 -0.29275079521E+03 -0.67746545920E+02  0.34726890549E+02  0.31226065897E+03  0.77512190237E+02 0.  0.
         24    2    4    4    0    0  0.20390541113E+03 -0.15965510906E+02  0.11966755620E+04  0.12166971241E+04  0.80543012858E+02 0.  0.
         13    1    3    3    0    0  0.50028573649E+02  0.17994085275E+02 -0.25460393769E+03  0.26009577154E+03  0.00000000000E+00 0. -1.
        -13    1    3    3    0    0  0.38816810425E+02  0.65717971551E+02 -0.12121440486E+04  0.12145446847E+04  0.00000000000E+00 0.  1.
          2    1    6    6  502    0  0.15595478092E+03 -0.21005516210E+02  0.10631549736E+04  0.10747379324E+04  0.00000000000E+00 0. -1.
          1    1    5    5  503    0 -0.11721681208E+03 -0.62194912032E+02  0.32534008433E+02  0.13662521664E+03  0.00000000000E+00 0. -1.
         -2    1    5    5    0  503 -0.17553398313E+03 -0.55516338874E+01  0.21928821163E+01  0.17563544233E+03  0.00000000000E+00 0.  1.
         -1    1    6    6    0  502  0.47950630216E+02  0.50400053041E+01  0.13352058832E+03  0.14195919166E+03  0.00000000000E+00 0.  1.
<mgrwt>
<rscale>  0 0.29943638E+04</rscale>
<asrwt>0</asrwt>
<pdfrwt beam="1">  1        2 0.24914952E+00 0.29943638E+04</pdfrwt>
<pdfrwt beam="2">  1       -2 0.21294251E+00 0.29943638E+04</pdfrwt>
<totfact> 0.10211620E+00</totfact>
</mgrwt>
</event>
<event>
12    1  0.1477245E-007  0.1448297E+04  0.7818608E-02  0.8919582E-01
         -2   -1    0    0    0  501 -0.00000000000E+00  0.00000000000E+00  0.21327060663E+04  0.21327060663E+04  0.00000000000E+00 0.  1.
          2   -1    0    0  501    0  0.00000000000E+00 -0.00000000000E+00 -0.24588047815E+03  0.24588047815E+03  0.00000000000E+00 0. -1.
         23    2    1    2    0    0 -0.25500688288E+03  0.33363753277E+03  0.38407003291E+03  0.57663895630E+03  0.93060099728E+02 0.  0.
        254    2    1    2    0    0  0.25500688288E+03 -0.33363753277E+03  0.15027555553E+04  0.18019475882E+04  0.90133142518E+03 0.  0.
        -24    2    4    4    0    0 -0.21757708214E+03  0.12446265893E+03  0.76708938894E+03  0.81156253379E+03  0.85888738975E+02 0.  0.
         24    2    4    4    0    0  0.47258396502E+03 -0.45810019170E+03  0.73566616633E+03  0.99038505438E+03  0.80414289869E+02 0.  0.
         11    1    3    3    0    0 -0.14747589088E+03  0.16109056407E+03  0.25533084763E+03  0.33599575886E+03  0.00000000000E+00 0.  1.
        -11    1    3    3    0    0 -0.10753099200E+03  0.17254696871E+03  0.12873918528E+03  0.24064319744E+03  0.00000000000E+00 0. -1.
          2    1    6    6  502    0  0.18918521231E+03 -0.23914801665E+03  0.34092548640E+03  0.45739808231E+03  0.00000000000E+00 0. -1.
          3    1    5    5  503    0 -0.68982548854E+01  0.17900416791E+02  0.18600018958E+02  0.26720246013E+02  0.00000000000E+00 0. -1.
         -4    1    5    5    0  503 -0.21067882726E+03  0.10656224214E+03  0.74848936998E+03  0.78484228778E+03  0.00000000000E+00 0.  1.
         -1    1    6    6    0  502  0.28339875272E+03 -0.21895217505E+03  0.39474067993E+03  0.53298697207E+03  0.00000000000E+00 0.  1.
<mgrwt>
<rscale>  0 0.14482966E+04</rscale>
<asrwt>0</asrwt>
<pdfrwt beam="1">  1        2 0.37827767E-01 0.14482966E+04</pdfrwt>
<pdfrwt beam="2">  1       -2 0.32810861E+00 0.14482966E+04</pdfrwt>
<totfact> 0.28548952E+00</totfact>
</mgrwt>
</event>
<event>
12    1  0.1477245E-007  0.1177173E+04  0.7818608E-02  0.9133075E-01
         -2   -1    0    0    0  501 -0.00000000000E+00  0.00000000000E+00  0.10548736344E+03  0.10548736344E+03  0.00000000000E+00 0.  1.
          2   -1    0    0  501    0  0.00000000000E+00 -0.00000000000E+00 -0.32841307565E+04  0.32841307565E+04  0.00000000000E+00 0. -1.
         23    2    1    2    0    0 -0.13443282231E+03  0.19211955444E+03 -0.68713179065E+03  0.73172541323E+03  0.91048754678E+02 0.  0.
        254    2    1    2    0    0  0.13443282231E+03 -0.19211955444E+03 -0.24915116024E+04  0.26578927067E+04  0.89542250839E+03 0.  0.
        -24    2    4    4    0    0 -0.29330523948E+03  0.17553809663E+03 -0.80939327456E+03  0.88226741684E+03  0.80229265468E+02 0.  0.
         24    2    4    4    0    0  0.42773806178E+03 -0.36765765108E+03 -0.16821183279E+04  0.17756252899E+04  0.72049311280E+02 0.  0.
         13    1    3    3    0    0 -0.14256957096E+03  0.16616077306E+03 -0.64861243978E+03  0.68456817199E+03  0.00000000000E+00 0. -1.
        -13    1    3    3    0    0  0.81367486508E+01  0.25958781387E+02 -0.38519350878E+02  0.47157241244E+02  0.00000000000E+00 0.  1.
          2    1    6    6  502    0  0.11726287906E+03 -0.14512516495E+03 -0.54136333535E+03  0.57261344480E+03  0.00000000000E+00 0. -1.
          3    1    5    5  503    0 -0.30572516631E+02  0.41511343569E+02 -0.17921145724E+03  0.18647953460E+03  0.00000000000E+00 0. -1.
         -2    1    5    5    0  503 -0.26273272285E+03  0.13402675306E+03 -0.63018181732E+03  0.69578788224E+03  0.00000000000E+00 0.  1.
         -1    1    6    6    0  502  0.31047518272E+03 -0.22253248613E+03 -0.11407549925E+04  0.12030118451E+04  0.00000000000E+00 0.  1.
<mgrwt>
<rscale>  0 0.11771734E+04</rscale>
<asrwt>0</asrwt>
<pdfrwt beam="1">  1        2 0.50525087E+00 0.11771734E+04</pdfrwt>
<pdfrwt beam="2">  1       -2 0.16228826E-01 0.11771734E+04</pdfrwt>
<totfact> 0.35392521E+01</totfact>
</mgrwt>
</event>
<event>
12    1  0.1477245E-007  0.1626357E+04  0.7818608E-02  0.8804517E-01
          1   -1    0    0  501    0  0.00000000000E+00  0.00000000000E+00  0.75144084076E+03  0.75144084076E+03  0.00000000000E+00 0. -1.
         -1   -1    0    0    0  501 -0.00000000000E+00 -0.00000000000E+00 -0.87998893119E+03  0.87998893119E+03  0.00000000000E+00 0.  1.
         23    2    1    2    0    0 -0.25254592583E+03 -0.14788766651E+03  0.43274772585E+03  0.53030888329E+03  0.91141159256E+02 0.  0.
        254    2    1    2    0    0  0.25254592583E+03  0.14788766651E+03 -0.56129581629E+03  0.11011208887E+04  0.90097947341E+03 0.  0.
        -24    2    4    4    0    0  0.23859553182E+03  0.50989874770E+03 -0.40655997593E+03  0.69909294699E+03  0.80717865327E+02 0.  0.
         24    2    4    4    0    0  0.13950394016E+02 -0.36201108119E+03 -0.15473584036E+03  0.40202794167E+03  0.80228730478E+02 0.  0.
         13    1    3    3    0    0 -0.25233803715E+03 -0.14850867782E+03  0.43699190088E+03  0.52601448061E+03  0.00000000000E+00 0. -1.
        -13    1    3    3    0    0 -0.20788868835E+00  0.62101131145E+00 -0.42441750268E+01  0.42944026842E+01  0.00000000000E+00 0.  1.
          2    1    6    6  502    0  0.45356904042E+02 -0.16668170119E+03 -0.61985389513E+02  0.18352718264E+03  0.00000000000E+00 0. -1.
          3    1    5    5  503    0  0.15298157452E+03  0.33950147177E+03 -0.31412685405E+03  0.48717583264E+03  0.00000000000E+00 0. -1.
         -4    1    5    5    0  503  0.85613957302E+02  0.17039727594E+03 -0.92433121877E+02  0.21191711434E+03  0.00000000000E+00 0.  1.
         -1    1    6    6    0  502 -0.31406510026E+02 -0.19532938001E+03 -0.92750450843E+02  0.21850075903E+03  0.00000000000E+00 0.  1.
<mgrwt>
<rscale>  0 0.16263574E+04</rscale>
<asrwt>0</asrwt>
<pdfrwt beam="1">  1        1 0.11560628E+00 0.16263574E+04</pdfrwt>
<pdfrwt beam="2">  1       -1 0.13538291E+00 0.16263574E+04</pdfrwt>
<totfact> 0.10693711E+01</totfact>
</mgrwt>
</event>
<event>
12    1  0.1477245E-007  0.1392344E+04  0.7818608E-02  0.8959379E-01
          1   -1    0    0  501    0  0.00000000000E+00  0.00000000000E+00  0.91744835131E+03  0.91744835131E+03  0.00000000000E+00 0. -1.
         -1   -1    0    0    0  501 -0.00000000000E+00 -0.00000000000E+00 -0.52826465651E+03  0.52826465651E+03  0.00000000000E+00 0.  1.
         23    2    1    2    0    0  0.88622922272E+02 -0.37623531681E+03  0.41708353706E+01  0.39750593935E+03  0.92663584994E+02 0.  0.
        254    2    1    2    0    0 -0.88622922272E+02  0.37623531681E+03  0.38501285943E+03  0.10482070685E+04  0.89503973124E+03 0.  0.
        -24    2    4    4    0    0  0.23114572183E+03  0.53363244453E+03  0.34445428417E+03  0.68049278920E+03  0.78928776130E+02 0.  0.
         24    2    4    4    0    0 -0.31976864410E+03 -0.15739712772E+03  0.40558575260E+02  0.36771427926E+03  0.80888513289E+02 0.  0.
         13    1    3    3    0    0  0.42102703245E+02 -0.18194127291E+03 -0.44284695354E+02  0.19192810803E+03  0.00000000000E+00 0. -1.
        -13    1    3    3    0    0  0.46520219027E+02 -0.19429404390E+03  0.48455530725E+02  0.20557783133E+03  0.00000000000E+00 0.  1.
          4    1    6    6  502    0 -0.23095667293E+02 -0.36573430458E+02 -0.71685045259E+01  0.43845331796E+02  0.00000000000E+00 0. -1.
          1    1    5    5  503    0  0.59593622678E+02  0.22832605576E+03  0.15500061241E+03  0.28232849210E+03  0.00000000000E+00 0. -1.
         -2    1    5    5    0  503  0.17155209915E+03  0.30530638877E+03  0.18945367176E+03  0.39816429711E+03  0.00000000000E+00 0.  1.
         -3    1    6    6    0  502 -0.29667297681E+03 -0.12082369726E+03  0.47727079785E+02  0.32386894747E+03  0.00000000000E+00 0.  1.
<mgrwt>
<rscale>  0 0.13923441E+04</rscale>
<asrwt>0</asrwt>
<pdfrwt beam="1">  1        1 0.14114590E+00 0.13923441E+04</pdfrwt>
<pdfrwt beam="2">  1       -1 0.81271486E-01 0.13923441E+04</pdfrwt>
<totfact> 0.25918083E+01</totfact>
</mgrwt>
</event>
<event>
12    1  0.1477245E-007  0.1312909E+04  0.7818608E-02  0.9019391E-01
          2   -1    0    0  501    0  0.00000000000E+00  0.00000000000E+00  0.16355381830E+04  0.16355381830E+04  0.00000000000E+00 0. -1.
         -2   -1    0    0    0  501 -0.00000000000E+00 -0.00000000000E+00 -0.26348041205E+03  0.26348041205E+03  0.00000000000E+00 0.  1.
         23    2    1    2    0    0  0.69872056976E+02  0.19329565734E+03 -0.21096308656E+02  0.22720435324E+03  0.94506340541E+02 0.  0.
        254    2    1    2    0    0 -0.69872056976E+02 -0.19329565734E+03  0.13931540796E+04  0.16718142418E+04  0.90102122845E+03 0.  0.
        -24    2    4    4    0    0 -0.22995028751E+03 -0.31229100460E+03  0.14017486332E+04  0.14566222858E+04  0.80289765330E+02 0.  0.
         24    2    4    4    0    0  0.16007823053E+03  0.11899534726E+03 -0.85945536288E+01  0.21519195602E+03  0.80304290207E+02 0.  0.
         11    1    3    3    0    0  0.46852262368E+02  0.18251903793E+03 -0.43421287640E+02  0.19337461549E+03  0.00000000000E+00 0.  1.
        -11    1    3    3    0    0  0.23019794608E+02  0.10776619405E+02  0.22324978985E+02  0.33829737750E+02  0.00000000000E+00 0. -1.
          4    1    6    6  502    0  0.11163298309E+03  0.50941051789E+02  0.24870642134E+02  0.12520168733E+03  0.00000000000E+00 0. -1.
          1    1    5    5  503    0 -0.19022089242E+03 -0.19753829986E+03  0.94197838224E+03  0.98108543993E+03  0.00000000000E+00 0. -1.
         -2    1    5    5    0  503 -0.39729395083E+02 -0.11475270473E+03  0.45977025100E+03  0.47553684587E+03  0.00000000000E+00 0.  1.
         -3    1    6    6    0  502  0.48445247443E+02  0.68054295469E+02 -0.33465195763E+02  0.89990268691E+02  0.00000000000E+00 0.  1.
<mgrwt>
<rscale>  0 0.13129086E+04</rscale>
<asrwt>0</asrwt>
<pdfrwt beam="1">  1        2 0.25162125E+00 0.13129086E+04</pdfrwt>
<pdfrwt beam="2">  1       -2 0.40535449E-01 0.13129086E+04</pdfrwt>
<totfact> 0.60096205E+01</totfact>
</mgrwt>
</event>
<event>
12    1  0.1477245E-007  0.1971292E+04  0.7818608E-02  0.8620161E-01
         -2   -1    0    0    0  501 -0.00000000000E+00  0.00000000000E+00  0.11521040344E+04  0.11521040344E+04  0.00000000000E+00 0.  1.
          2   -1    0    0  501    0  0.00000000000E+00 -0.00000000000E+00 -0.84323822839E+03  0.84323822839E+03  0.00000000000E+00 0. -1.
         23    2    1    2    0    0  0.47417403109E+03 -0.60647655519E+03 -0.14539982295E+02  0.77585712526E+03  0.95331233021E+02 0.  0.
        254    2    1    2    0    0 -0.47417403109E+03  0.60647655519E+03  0.32340578831E+03  0.12194851375E+04  0.88876198896E+03 0.  0.
        -24    2    4    4    0    0 -0.56242916968E+03  0.13097836987E+02  0.19547667752E+03  0.60094516522E+03  0.80161311784E+02 0.  0.
         24    2    4    4    0    0  0.88255138591E+02  0.59337871820E+03  0.12792911079E+03  0.61853997233E+03  0.79615119651E+02 0.  0.
         13    1    3    3    0    0  0.65016077386E+02 -0.38566801704E+02 -0.63153724820E+01  0.75857579990E+02  0.00000000000E+00 0. -1.
        -13    1    3    3    0    0  0.40915795370E+03 -0.56790975348E+03 -0.82246098135E+01  0.69999954527E+03  0.00000000000E+00 0.  1.
          2    1    6    6  502    0  0.89172866882E+02  0.56777508804E+03  0.10518507382E+03  0.58428096884E+03  0.00000000000E+00 0. -1.
          1    1    5    5  503    0 -0.51271799676E+03  0.15188224584E+02  0.15231994390E+03  0.53508110757E+03  0.00000000000E+00 0. -1.
         -2    1    5    5    0  503 -0.49711172916E+02 -0.20903875970E+01  0.43156733622E+02  0.65864057648E+02  0.00000000000E+00 0.  1.
         -1    1    6    6    0  502 -0.91772829073E+00  0.25603630157E+02  0.22744036968E+02  0.34259003489E+02  0.00000000000E+00 0.  1.
<mgrwt>
<rscale>  0 0.19712921E+04</rscale>
<asrwt>0</asrwt>
<pdfrwt beam="1">  1        2 0.12972896E+00 0.19712921E+04</pdfrwt>
<pdfrwt beam="2">  1       -2 0.17724677E+00 0.19712921E+04</pdfrwt>
<totfact> 0.56594128E+00</totfact>
</mgrwt>
</event>
<event>
12    1  0.1477245E-007  0.1786525E+04  0.7818608E-02  0.8713498E-01
          2   -1    0    0  501    0  0.00000000000E+00  0.00000000000E+00  0.96811009095E+03  0.96811009095E+03  0.00000000000E+00 0. -1.
         -2   -1    0    0    0  501 -0.00000000000E+00 -0.00000000000E+00 -0.82420133434E+03  0.82420133434E+03  0.00000000000E+00 0.  1.
         23    2    1    2    0    0  0.28006542196E+03  0.44425816751E+03 -0.35264974721E+03  0.63897932807E+03  0.90170824117E+02 0.  0.
        254    2    1    2    0    0 -0.28006542196E+03 -0.44425816751E+03  0.49655850382E+03  0.11533320972E+04  0.89877840361E+03 0.  0.
        -24    2    4    4    0    0  0.10601043951E+03  0.43157535783E+02 -0.18269328943E+03  0.22908632836E+03  0.77478523849E+02 0.  0.
         24    2    4    4    0    0 -0.38607586147E+03 -0.48741570329E+03  0.67925179325E+03  0.92424576886E+03  0.78858125801E+02 0.  0.
         11    1    3    3    0    0  0.92181288299E+02  0.84619795637E+02 -0.10709685402E+03  0.16470469291E+03  0.00000000000E+00 0. -1.
        -11    1    3    3    0    0  0.18788413366E+03  0.35963837187E+03 -0.24555289319E+03  0.47427463516E+03  0.00000000000E+00 0.  1.
          4    1    6    6  502    0 -0.25330228454E+03 -0.35531003128E+03  0.51616964044E+03  0.67589819011E+03  0.00000000000E+00 0. -1.
          3    1    5    5  503    0  0.97981743957E+02  0.12209099115E+02 -0.16567322531E+03  0.19286550193E+03  0.00000000000E+00 0. -1.
         -4    1    5    5    0  503  0.80286955531E+01  0.30948436669E+02 -0.17020064121E+02  0.36220826429E+02  0.00000000000E+00 0.  1.
         -3    1    6    6    0  502 -0.13277357693E+03 -0.13210567201E+03  0.16308215282E+03  0.24834757876E+03  0.00000000000E+00 0.  1.
<mgrwt>
<rscale>  0 0.17865247E+04</rscale>
<asrwt>0</asrwt>
<pdfrwt beam="1">  1        2 0.14894001E+00 0.17865247E+04</pdfrwt>
<pdfrwt beam="2">  1       -2 0.12680021E+00 0.17865247E+04</pdfrwt>
<totfact> 0.11547724E+01</totfact>
</mgrwt>
</event>
<event>
12    1  0.1477245E-007  0.1315629E+04  0.7818608E-02  0.9017262E-01
         -2   -1    0    0    0  501 -0.00000000000E+00  0.00000000000E+00  0.20761618480E+03  0.20761618480E+03  0.00000000000E+00 0.  1.
          2   -1    0    0  501    0  0.00000000000E+00 -0.00000000000E+00 -0.20842310030E+04  0.20842310030E+04  0.00000000000E+00 0. -1.
         23    2    1    2    0    0  0.11028779534E+03  0.21300177710E+03 -0.60679645806E+02  0.26465418241E+03  0.93950316677E+02 0.  0.
        254    2    1    2    0    0 -0.11028779534E+03 -0.21300177710E+03 -0.18159351724E+04  0.20271930054E+04  0.86853772277E+03 0.  0.
        -24    2    4    4    0    0  0.25885078905E+03  0.10337875988E+03 -0.12221061729E+04  0.12559467439E+04  0.78535511933E+02 0.  0.
         24    2    4    4    0    0 -0.36913858439E+03 -0.31638053698E+03 -0.59382899945E+03  0.77124626146E+03  0.76341185240E+02 0.  0.
         11    1    3    3    0    0  0.11229715781E+03  0.13987541716E+03 -0.18794882975E+02  0.18035806499E+03  0.00000000000E+00 0.  1.
        -11    1    3    3    0    0 -0.20093624758E+01  0.73126359942E+02 -0.41884762831E+02  0.84296117428E+02  0.00000000000E+00 0. -1.
          2    1    6    6  502    0 -0.34040126596E+02 -0.47660206115E+02 -0.10725367505E+03  0.12220301255E+03  0.00000000000E+00 0. -1.
          3    1    5    5  503    0  0.12725370976E+03  0.92685662439E+02 -0.64638584106E+03  0.66528098890E+03  0.00000000000E+00 0. -1.
         -4    1    5    5    0  503  0.13159707929E+03  0.10693097436E+02 -0.57572033185E+03  0.59066575499E+03  0.00000000000E+00 0.  1.
         -1    1    6    6    0  502 -0.33509845780E+03 -0.26872033086E+03 -0.48657532440E+03  0.64904324891E+03  0.00000000000E+00 0.  1.
<mgrwt>
<rscale>  0 0.13156293E+04</rscale>
<asrwt>0</asrwt>
<pdfrwt beam="1">  1        2 0.32065092E+00 0.13156293E+04</pdfrwt>
<pdfrwt beam="2">  1       -2 0.31940952E-01 0.13156293E+04</pdfrwt>
<totfact> 0.53588702E+01</totfact>
</mgrwt>
</event>
<event>
12    1  0.1477245E-007  0.2389017E+04  0.7818608E-02  0.8443627E-01
          1   -1    0    0  501    0  0.00000000000E+00  0.00000000000E+00  0.10476150142E+04  0.10476150142E+04  0.00000000000E+00 0. -1.
         -1   -1    0    0    0  501 -0.00000000000E+00 -0.00000000000E+00 -0.13619986452E+04  0.13619986452E+04  0.00000000000E+00 0.  1.
         23    2    1    2    0    0  0.10164342685E+04  0.12865716969E+03 -0.11401169294E+03  0.10350062339E+04  0.92455116871E+02 0.  0.
        254    2    1    2    0    0 -0.10164342685E+04 -0.12865716969E+03 -0.20037193806E+03  0.13746074254E+04  0.89426247320E+03 0.  0.
        -24    2    4    4    0    0 -0.69090143053E+03 -0.37668289633E+03 -0.42856831140E+03  0.89961327774E+03  0.79990379721E+02 0.  0.
         24    2    4    4    0    0 -0.32553283796E+03  0.24802572664E+03  0.22819637334E+03  0.47499414769E+03  0.77829723519E+02 0.  0.
         11    1    3    3    0    0  0.78464014717E+03  0.10917472580E+03 -0.50135754489E+02  0.79378389703E+03  0.00000000000E+00 0.  1.
        -11    1    3    3    0    0  0.23179412132E+03  0.19482443887E+02 -0.63875938446E+02  0.24122233689E+03  0.00000000000E+00 0. -1.
          2    1    6    6  502    0 -0.86869047213E+02  0.32979098832E+02  0.73274565531E+02  0.11833433262E+03  0.00000000000E+00 0. -1.
          3    1    5    5  503    0 -0.17650978856E+03 -0.13711611671E+03 -0.12382165160E+03  0.25551582402E+03  0.00000000000E+00 0. -1.
         -4    1    5    5    0  503 -0.51439164197E+03 -0.23956677961E+03 -0.30474665981E+03  0.64409745372E+03  0.00000000000E+00 0.  1.
         -1    1    6    6    0  502 -0.23866379075E+03  0.21504662780E+03  0.15492180781E+03  0.35665981506E+03  0.00000000000E+00 0.  1.
<mgrwt>
<rscale>  0 0.23890167E+04</rscale>
<asrwt>0</asrwt>
<pdfrwt beam="1">  1        1 0.16117154E+00 0.23890167E+04</pdfrwt>
<pdfrwt beam="2">  1       -1 0.20953825E+00 0.23890167E+04</pdfrwt>
<totfact> 0.16141828E+00</totfact>
</mgrwt>
</event>
<event>
12    1  0.1477245E-007  0.1552945E+04  0.7818608E-02  0.8849989E-01
         -2   -1    0    0    0  501 -0.00000000000E+00  0.00000000000E+00  0.32715151239E+03  0.32715151239E+03  0.00000000000E+00 0.  1.
          2   -1    0    0  501    0  0.00000000000E+00 -0.00000000000E+00 -0.18429053287E+04  0.18429053287E+04  0.00000000000E+00 0. -1.
         23    2    1    2    0    0  0.18301272759E+03  0.35192875960E+03 -0.59267761737E+02  0.41153479084E+03  0.92199274386E+02 0.  0.
        254    2    1    2    0    0 -0.18301272759E+03 -0.35192875960E+03 -0.14564860546E+04  0.17585220502E+04  0.90205358142E+03 0.  0.
        -24    2    4    4    0    0 -0.11402349937E+03 -0.63201046122E+03 -0.12030634130E+04  0.13661415970E+04  0.80886994849E+02 0.  0.
         24    2    4    4    0    0 -0.68989228213E+02  0.28008170162E+03 -0.25342264153E+03  0.39238045318E+03  0.80833851849E+02 0.  0.
         13    1    3    3    0    0  0.11613724323E+02  0.87646217755E+02  0.10109841399E+02  0.88988465390E+02  0.00000000000E+00 0. -1.
        -13    1    3    3    0    0  0.17139900326E+03  0.26428254185E+03 -0.69377603135E+02  0.32254632545E+03  0.00000000000E+00 0.  1.
          4    1    6    6  502    0 -0.58517669233E+02  0.26049215597E+03 -0.25616227286E+03  0.36999944726E+03  0.00000000000E+00 0. -1.
          1    1    5    5  503    0 -0.11506355842E+03 -0.63360979672E+03 -0.11912063243E+04  0.13541320113E+04  0.00000000000E+00 0. -1.
         -2    1    5    5    0  503  0.10400590482E+01  0.15993354982E+01 -0.11857088746E+02  0.12009585771E+02  0.00000000000E+00 0.  1.
         -3    1    6    6    0  502 -0.10471558980E+02  0.19589545655E+02  0.27396313272E+01  0.22381005925E+02  0.00000000000E+00 0.  1.
<mgrwt>
<rscale>  0 0.15529446E+04</rscale>
<asrwt>0</asrwt>
<pdfrwt beam="1">  1        2 0.28352389E+00 0.15529446E+04</pdfrwt>
<pdfrwt beam="2">  1       -2 0.50331003E-01 0.15529446E+04</pdfrwt>
<totfact> 0.29348935E+01</totfact>
</mgrwt>
</event>
<event>
12    1  0.1477245E-007  0.1927131E+04  0.7818608E-02  0.8641468E-01
         -2   -1    0    0    0  501 -0.00000000000E+00  0.00000000000E+00  0.99294936766E+03  0.99294936766E+03  0.00000000000E+00 0.  1.
          2   -1    0    0  501    0  0.00000000000E+00 -0.00000000000E+00 -0.93505072141E+03  0.93505072141E+03  0.00000000000E+00 0. -1.
         23    2    1    2    0    0 -0.66467998642E+03 -0.23322545756E+03 -0.25043003450E+03  0.75322074622E+03  0.91829689959E+02 0.  0.
        254    2    1    2    0    0  0.66467998642E+03  0.23322545756E+03  0.30832868075E+03  0.11747793428E+04  0.88817021488E+03 0.  0.
        -24    2    4    4    0    0  0.61287214658E+02  0.27236978142E+03  0.46236618096E+03  0.54585346450E+03  0.78943643870E+02 0.  0.
         24    2    4    4    0    0  0.60339277176E+03 -0.39144323853E+02 -0.15403750020E+03  0.62892587834E+03  0.78772418287E+02 0.  0.
         13    1    3    3    0    0 -0.40874383379E+03 -0.13994852007E+03 -0.20043023532E+03  0.47626609071E+03  0.00000000000E+00 0.  1.
        -13    1    3    3    0    0 -0.25593615263E+03 -0.93276937491E+02 -0.49999799179E+02  0.27695465551E+03  0.00000000000E+00 0. -1.
          4    1    6    6  502    0  0.32703480371E+03 -0.57074324920E+02 -0.10052853492E+03  0.34686485514E+03  0.00000000000E+00 0. -1.
          1    1    5    5  503    0  0.57179950681E+02  0.19192994916E+03  0.38601047402E+03  0.43486864476E+03  0.00000000000E+00 0. -1.
         -2    1    5    5    0  503  0.41072639774E+01  0.80439832260E+02  0.76355706941E+02  0.11098481975E+03  0.00000000000E+00 0.  1.
         -3    1    6    6    0  502  0.27635796805E+03  0.17930001067E+02 -0.53508965286E+02  0.28206102320E+03  0.00000000000E+00 0.  1.
<mgrwt>
<rscale>  0 0.19271305E+04</rscale>
<asrwt>0</asrwt>
<pdfrwt beam="1">  1        2 0.14385396E+00 0.19271305E+04</pdfrwt>
<pdfrwt beam="2">  1       -2 0.15276144E+00 0.19271305E+04</pdfrwt>
<totfact> 0.74071893E+00</totfact>
</mgrwt>
</event>
<event>
12    1  0.1477245E-007  0.1517965E+04  0.7818608E-02  0.8872594E-01
         -2   -1    0    0    0  501 -0.00000000000E+00  0.00000000000E+00  0.37140937391E+03  0.37140937391E+03  0.00000000000E+00 0. -1.
          2   -1    0    0  501    0  0.00000000000E+00 -0.00000000000E+00 -0.15509957153E+04  0.15509957153E+04  0.00000000000E+00 0.  1.
         23    2    1    2    0    0  0.21173557622E+03  0.43542653480E+03 -0.39918811850E+03  0.63414788467E+03  0.91455804802E+02 0.  0.
        254    2    1    2    0    0 -0.21173557622E+03 -0.43542653480E+03 -0.78039822294E+03  0.12882572046E+04  0.90341408964E+03 0.  0.
        -24    2    4    4    0    0 -0.19575822678E+03 -0.37953072121E+03  0.63115167325E+02  0.43893839789E+03  0.79489251504E+02 0.  0.
         24    2    4    4    0    0 -0.15977349441E+02 -0.55895813594E+02 -0.84351339027E+03  0.84931880670E+03  0.80299303756E+02 0.  0.
         13    1    3    3    0    0  0.45216253522E+02  0.76502034815E+02 -0.12247007569E+03  0.15131421068E+03  0.00000000000E+00 0. -1.
        -13    1    3    3    0    0  0.16651932269E+03  0.35892449999E+03 -0.27671804280E+03  0.48283367399E+03  0.00000000000E+00 0.  1.
          2    1    6    6  502    0 -0.27714737333E+02  0.12021864270E+02 -0.25713299577E+03  0.25890154383E+03  0.00000000000E+00 0. -1.
          3    1    5    5  503    0 -0.59776335171E+02 -0.19935908607E+03  0.19537611482E+02  0.20904299488E+03  0.00000000000E+00 0. -1.
         -4    1    5    5    0  503 -0.13598189160E+03 -0.18017163514E+03  0.43577555843E+02  0.22989540301E+03  0.00000000000E+00 0.  1.
         -1    1    6    6    0  502  0.11737387892E+02 -0.67917677864E+02 -0.58638039450E+03  0.59041726287E+03  0.00000000000E+00 0.  1.
<mgrwt>
<rscale>  0 0.15179649E+04</rscale>
<asrwt>0</asrwt>
<pdfrwt beam="1">  1        2 0.23861473E+00 0.15179649E+04</pdfrwt>
<pdfrwt beam="2">  1       -2 0.57139904E-01 0.15179649E+04</pdfrwt>
<totfact> 0.32902973E+01</totfact>
</mgrwt>
</event>
<event>
12    1  0.1477245E-007  0.1498849E+04  0.7818608E-02  0.8885219E-01
         -1   -1    0    0    0  501 -0.00000000000E+00  0.00000000000E+00  0.13406682367E+04  0.13406682367E+04  0.00000000000E+00 0.  1.
          1   -1    0    0  501    0  0.00000000000E+00 -0.00000000000E+00 -0.41892307951E+03  0.41892307951E+03  0.00000000000E+00 0. -1.
         23    2    1    2    0    0 -0.41665284840E+03  0.79404592163E+02  0.50123397010E+03  0.66298023018E+03  0.91665737816E+02 0.  0.
        254    2    1    2    0    0  0.41665284840E+03 -0.79404592163E+02  0.42051118707E+03  0.10966110860E+04  0.91968556050E+03 0.  0.
        -24    2    4    4    0    0 -0.11531051175E+03 -0.26260855246E+03  0.43645086929E+03  0.52824076316E+03  0.79304329105E+02 0.  0.
         24    2    4    4    0    0  0.53196336015E+03  0.18320396029E+03 -0.15939682225E+02  0.56837032286E+03  0.79006599902E+02 0.  0.
         13    1    3    3    0    0 -0.40971561355E+03  0.67291959404E+02  0.46111102189E+03  0.62049856268E+03  0.00000000000E+00 0.  1.
        -13    1    3    3    0    0 -0.69372348493E+01  0.12112632759E+02  0.40122948219E+02  0.42481667500E+02  0.00000000000E+00 0. -1.
          4    1    6    6  502    0  0.36275383127E+02  0.35819000151E+02 -0.31564096622E+01  0.51077070343E+02  0.00000000000E+00 0. -1.
          1    1    5    5  503    0  0.58861652361E+01 -0.23540365825E+01  0.64626244861E+00  0.63722903709E+01  0.00000000000E+00 0. -1.
         -2    1    5    5    0  503 -0.12119667699E+03 -0.26025451587E+03  0.43580460684E+03  0.52186847279E+03  0.00000000000E+00 0.  1.
         -3    1    6    6    0  502  0.49568797702E+03  0.14738496014E+03 -0.12783272563E+02  0.51729325251E+03  0.00000000000E+00 0.  1.
<mgrwt>
<rscale>  0 0.14988487E+04</rscale>
<asrwt>0</asrwt>
<pdfrwt beam="1">  1        1 0.64449705E-01 0.14988487E+04</pdfrwt>
<pdfrwt beam="2">  1       -1 0.20625665E+00 0.14988487E+04</pdfrwt>
<totfact> 0.74372460E+00</totfact>
</mgrwt>
</event>
<event>
12    1  0.1477245E-007  0.1273506E+04  0.7818608E-02  0.9050843E-01
          2   -1    0    0  501    0  0.00000000000E+00  0.00000000000E+00  0.30892515401E+04  0.30892515401E+04  0.00000000000E+00 0. -1.
         -2   -1    0    0    0  501 -0.00000000000E+00 -0.00000000000E+00 -0.13124688074E+03  0.13124688074E+03  0.00000000000E+00 0.  1.
         23    2    1    2    0    0 -0.74535514583E+02  0.28397333673E+03  0.98829151617E+03  0.10349548442E+04  0.90636690561E+02 0.  0.
        254    2    1    2    0    0  0.74535514583E+02 -0.28397333673E+03  0.19697131432E+04  0.21855435767E+04  0.90035240883E+03 0.  0.
        -24    2    4    4    0    0 -0.15337628260E+03  0.25466417050E+03  0.10390878169E+04  0.10837836878E+04  0.80656475045E+02 0.  0.
         24    2    4    4    0    0  0.22791179718E+03 -0.53863750723E+03  0.93062532630E+03  0.11017598888E+04  0.75744327911E+02 0.  0.
         11    1    3    3    0    0 -0.38210038479E+02  0.25508118761E+02  0.16541873839E+03  0.17168002264E+03  0.00000000000E+00 0.  1.
        -11    1    3    3    0    0 -0.36325476104E+02  0.25846521797E+03  0.82287277778E+03  0.86327482155E+03  0.00000000000E+00 0. -1.
          2    1    6    6  502    0  0.10083105131E+03 -0.20487232967E+03  0.42903706546E+03  0.48601684735E+03  0.00000000000E+00 0. -1.
          3    1    5    5  503    0 -0.36031664184E+02  0.11162053494E+02  0.12454583910E+03  0.13013277181E+03  0.00000000000E+00 0. -1.
         -4    1    5    5    0  503 -0.11734461841E+03  0.24350211701E+03  0.91454197778E+03  0.95365091600E+03  0.00000000000E+00 0.  1.
         -1    1    6    6    0  502  0.12708074587E+03 -0.33376517757E+03  0.50158826084E+03  0.61574304149E+03  0.00000000000E+00 0.  1.
<mgrwt>
<rscale>  0 0.12735064E+04</rscale>
<asrwt>0</asrwt>
<pdfrwt beam="1">  1        2 0.47526941E+00 0.12735064E+04</pdfrwt>
<pdfrwt beam="2">  1       -2 0.20191830E-01 0.12735064E+04</pdfrwt>
<totfact> 0.31988781E+01</totfact>
</mgrwt>
</event>
<event>
12    1  0.1477245E-007  0.1821726E+04  0.7818608E-02  0.8694830E-01
         -2   -1    0    0    0  501 -0.00000000000E+00  0.00000000000E+00  0.25591292791E+03  0.25591292791E+03  0.00000000000E+00 0.  1.
          2   -1    0    0  501    0  0.00000000000E+00 -0.00000000000E+00 -0.32420072346E+04  0.32420072346E+04  0.00000000000E+00 0. -1.
         23    2    1    2    0    0 -0.24786348452E+03 -0.54540108213E+03 -0.50736811543E+03  0.79051065401E+03  0.92660898999E+02 0.  0.
        254    2    1    2    0    0  0.24786348452E+03  0.54540108213E+03 -0.24787261913E+04  0.27074095085E+04  0.90944162436E+03 0.  0.
        -24    2    4    4    0    0  0.49879476100E+03  0.45314022632E+02 -0.14038154054E+04  0.14926251112E+04  0.79890274295E+02 0.  0.
         24    2    4    4    0    0 -0.25093127649E+03  0.50008705950E+03 -0.10749107859E+04  0.12147843973E+04  0.84937398904E+02 0.  0.
         13    1    3    3    0    0 -0.18070930236E+03 -0.32717437717E+03 -0.26949292147E+03  0.46078775999E+03  0.00000000000E+00 0. -1.
        -13    1    3    3    0    0 -0.67154182160E+02 -0.21822670496E+03 -0.23787519396E+03  0.32972289402E+03  0.00000000000E+00 0.  1.
          2    1    6    6  502    0 -0.12867539242E+03  0.16646771054E+03 -0.38403838144E+03  0.43789762923E+03  0.00000000000E+00 0. -1.
          3    1    5    5  503    0  0.49368648913E+02  0.26088315755E+02 -0.12207184706E+03  0.13423635707E+03  0.00000000000E+00 0. -1.
         -4    1    5    5    0  503  0.44942611209E+03  0.19225706877E+02 -0.12817435584E+04  0.13583887542E+04  0.00000000000E+00 0.  1.
         -1    1    6    6    0  502 -0.12225588406E+03  0.33361934896E+03 -0.69087240442E+03  0.77688676806E+03  0.00000000000E+00 0.  1.
<mgrwt>
<rscale>  0 0.18217262E+04</rscale>
<asrwt>0</asrwt>
<pdfrwt beam="1">  1        2 0.49877036E+00 0.18217262E+04</pdfrwt>
<pdfrwt beam="2">  1       -2 0.39371218E-01 0.18217262E+04</pdfrwt>
<totfact> 0.70357221E+00</totfact>
</mgrwt>
</event>
<event>
12    1  0.1477245E-007  0.1491425E+04  0.7818608E-02  0.8890175E-01
          2   -1    0    0  501    0  0.00000000000E+00  0.00000000000E+00  0.22901927328E+04  0.22901927328E+04  0.00000000000E+00 0. -1.
         -2   -1    0    0    0  501 -0.00000000000E+00 -0.00000000000E+00 -0.24281243797E+03  0.24281243797E+03  0.00000000000E+00 0.  1.
         23    2    1    2    0    0 -0.99795691984E+02 -0.16259457487E+03  0.13681813169E+04  0.13843886395E+04  0.90640020605E+02 0.  0.
        254    2    1    2    0    0  0.99795691984E+02  0.16259457487E+03  0.67919897788E+03  0.11486165312E+04  0.90642843530E+03 0.  0.
        -24    2    4    4    0    0  0.42473334258E+03  0.33719803756E+03  0.41955181666E+03  0.69028317497E+03  0.79788507655E+02 0.  0.
         24    2    4    4    0    0 -0.32493765060E+03 -0.17460346269E+03  0.25964716122E+03  0.45833335625E+03  0.81129348341E+02 0.  0.
         11    1    3    3    0    0 -0.89215049442E+01  0.11015033180E+02  0.13404173586E+03  0.13478913590E+03  0.00000000000E+00 0.  1.
        -11    1    3    3    0    0 -0.90874187040E+02 -0.17360960805E+03  0.12341395811E+04  0.12495995036E+04  0.00000000000E+00 0. -1.
          2    1    6    6  502    0 -0.96210029546E+02 -0.90261649141E+02  0.69141663173E+02  0.14894329350E+03  0.00000000000E+00 0. -1.
          1    1    5    5  503    0 -0.12443872478E+01  0.96482420665E+01  0.14092349469E+02  0.17124000355E+02  0.00000000000E+00 0. -1.
         -2    1    5    5    0  503  0.42597772983E+03  0.32754979550E+03  0.40545946719E+03  0.67315917462E+03  0.00000000000E+00 0.  1.
         -1    1    6    6    0  502 -0.22872762105E+03 -0.84341813547E+02  0.19050549805E+03  0.30939006276E+03  0.00000000000E+00 0.  1.
<mgrwt>
<rscale>  0 0.14914252E+04</rscale>
<asrwt>0</asrwt>
<pdfrwt beam="1">  1        2 0.35233733E+00 0.14914252E+04</pdfrwt>
<pdfrwt beam="2">  1       -2 0.37355761E-01 0.14914252E+04</pdfrwt>
<totfact> 0.30047683E+01</totfact>
</mgrwt>
</event>
<event>
12    1  0.1477245E-007  0.1004691E+04  0.7818608E-02  0.9303414E-01
          4   -1    0    0  501    0  0.00000000000E+00  0.00000000000E+00  0.69212919368E+03  0.69212919368E+03  0.00000000000E+00 0. -1.
         -4   -1    0    0    0  501 -0.00000000000E+00 -0.00000000000E+00 -0.36460126413E+03  0.36460126413E+03  0.00000000000E+00 0.  1.
         23    2    1    2    0    0  0.47572276156E+02  0.84125364287E+00  0.44935871271E+02  0.11268812801E+03  0.91736320511E+02 0.  0.
        254    2    1    2    0    0 -0.47572276156E+02 -0.84125364287E+00  0.28259205828E+03  0.94404232980E+03  0.89949642572E+03 0.  0.
        -24    2    4    4    0    0  0.80754156701E+01 -0.44088431078E+03  0.14790423337E+03  0.47370632079E+03  0.89876739359E+02 0.  0.
         24    2    4    4    0    0 -0.55647691826E+02  0.44004305713E+03  0.13468782491E+03  0.47033600901E+03  0.79627843488E+02 0.  0.
         11    1    3    3    0    0  0.45532808424E+02 -0.40147312796E+02  0.16989684138E+02  0.63037232925E+02  0.00000000000E+00 0. -1.
        -11    1    3    3    0    0  0.20394677320E+01  0.40988566439E+02  0.27946187134E+02  0.49650895084E+02  0.00000000000E+00 0.  1.
          2    1    6    6  502    0  0.20422151200E+02  0.99131890209E+02  0.25567115721E+02  0.10439287965E+03  0.00000000000E+00 0. -1.
          1    1    5    5  503    0  0.15537585579E+02 -0.92277365633E+02 -0.33284988994E+01  0.93635504370E+02  0.00000000000E+00 0. -1.
         -2    1    5    5    0  503 -0.74621699087E+01 -0.34860694514E+03  0.15123273227E+03  0.38007081642E+03  0.00000000000E+00 0.  1.
         -1    1    6    6    0  502 -0.76069843026E+02  0.34091116692E+03  0.10912070919E+03  0.36594312936E+03  0.00000000000E+00 0.  1.
<mgrwt>
<rscale>  0 0.10046914E+04</rscale>
<asrwt>0</asrwt>
<pdfrwt beam="1">  1        4 0.10648141E+00 0.10046914E+04</pdfrwt>
<pdfrwt beam="2">  1       -4 0.56092502E-01 0.10046914E+04</pdfrwt>
<totfact> 0.42637201E+00</totfact>
</mgrwt>
</event>
<event>
12    1  0.1477245E-007  0.1178884E+04  0.7818608E-02  0.9131543E-01
         -1   -1    0    0    0  501 -0.00000000000E+00  0.00000000000E+00  0.16674550045E+03  0.16674550045E+03  0.00000000000E+00 0. -1.
          1   -1    0    0  501    0  0.00000000000E+00 -0.00000000000E+00 -0.20836662550E+04  0.20836662550E+04  0.00000000000E+00 0.  1.
         23    2    1    2    0    0  0.18301820789E+03  0.86128789619E+02 -0.61627030986E+03  0.65497478108E+03  0.91044144339E+02 0.  0.
        254    2    1    2    0    0 -0.18301820789E+03 -0.86128789619E+02 -0.13006504447E+04  0.15954369744E+04  0.90156182656E+03 0.  0.
        -24    2    4    4    0    0 -0.24150952699E+03 -0.15011906257E+03 -0.59406267600E+01  0.29536089955E+03  0.79625280904E+02 0.  0.
         24    2    4    4    0    0  0.58491319099E+02  0.63990272949E+02 -0.12947098180E+04  0.13000760749E+04  0.80051847204E+02 0.  0.
         11    1    3    3    0    0  0.97702838259E+02  0.63686711004E+02 -0.46918156619E+03  0.48345959895E+03  0.00000000000E+00 0.  1.
        -11    1    3    3    0    0  0.85315369635E+02  0.22442078616E+02 -0.14708874367E+03  0.17151518213E+03  0.00000000000E+00 0. -1.
          4    1    6    6  502    0  0.11639937402E+02  0.13394600426E+02 -0.83818551913E+03  0.83837334639E+03  0.00000000000E+00 0. -1.
          3    1    5    5  503    0 -0.14451222854E+03 -0.11768439525E+03  0.26089434338E+02  0.18818623666E+03  0.00000000000E+00 0. -1.
         -4    1    5    5    0  503 -0.96997298450E+02 -0.32434667316E+02 -0.32030061098E+02  0.10717466288E+03  0.00000000000E+00 0.  1.
         -3    1    6    6    0  502  0.46851381697E+02  0.50595672523E+02 -0.45652429883E+03  0.46170272846E+03  0.00000000000E+00 0.  1.
<mgrwt>
<rscale>  0 0.11788842E+04</rscale>
<asrwt>0</asrwt>
<pdfrwt beam="1">  1        1 0.32056402E+00 0.11788842E+04</pdfrwt>
<pdfrwt beam="2">  1       -1 0.25653155E-01 0.11788842E+04</pdfrwt>
<totfact> 0.34817114E+01</totfact>
</mgrwt>
</event>
<event>
12    1  0.1477245E-007  0.1485695E+04  0.7818608E-02  0.8894022E-01
          1   -1    0    0  501    0  0.00000000000E+00  0.00000000000E+00  0.75766662356E+03  0.75766662356E+03  0.00000000000E+00 0. -1.
         -1   -1    0    0    0  501 -0.00000000000E+00 -0.00000000000E+00 -0.72831830293E+03  0.72831830293E+03  0.00000000000E+00 0.  1.
         23    2    1    2    0    0 -0.16593603258E+03  0.24691994590E+03  0.36343551384E+03  0.47853563714E+03  0.91688367323E+02 0.  0.
        254    2    1    2    0    0  0.16593603258E+03 -0.24691994590E+03 -0.33408719322E+03  0.10074492893E+04  0.90268244213E+03 0.  0.
        -24    2    4    4    0    0 -0.40194399264E+02 -0.66112081959E+02 -0.60436354246E+03  0.61418896643E+03  0.77371816029E+02 0.  0.
         24    2    4    4    0    0  0.20613043184E+03 -0.18080786394E+03  0.27027634924E+03  0.39326032292E+03  0.80144482197E+02 0.  0.
         13    1    3    3    0    0 -0.51110095788E+02  0.14052099498E+03  0.13400749825E+03  0.20078944571E+03  0.00000000000E+00 0. -1.
        -13    1    3    3    0    0 -0.11482593679E+03  0.10639895092E+03  0.22942801559E+03  0.27774619144E+03  0.00000000000E+00 0.  1.
          2    1    6    6  502    0  0.19194870108E+03 -0.18665859292E+03  0.24110872321E+03  0.36030424722E+03  0.00000000000E+00 0. -1.
          3    1    5    5  503    0 -0.56969922635E+02 -0.31130951131E+02 -0.27554350328E+03  0.28308820252E+03  0.00000000000E+00 0. -1.
         -4    1    5    5    0  503  0.16775523371E+02 -0.34981130828E+02 -0.32882003918E+03  0.33110076391E+03  0.00000000000E+00 0.  1.
         -1    1    6    6    0  502  0.14181730760E+02  0.58507289765E+01  0.29167626036E+02  0.32956075699E+02  0.00000000000E+00 0.  1.
<mgrwt>
<rscale>  0 0.14856951E+04</rscale>
<asrwt>0</asrwt>
<pdfrwt beam="1">  1        1 0.11656410E+00 0.14856951E+04</pdfrwt>
<pdfrwt beam="2">  1       -1 0.11204897E+00 0.14856951E+04</pdfrwt>
<totfact> 0.17058585E+01</totfact>
</mgrwt>
</event>
<event>
12    1  0.1477245E-007  0.1275865E+04  0.7818608E-02  0.9048927E-01
         -2   -1    0    0    0  501 -0.00000000000E+00  0.00000000000E+00  0.21816430654E+03  0.21816430654E+03  0.00000000000E+00 0.  1.
          2   -1    0    0  501    0  0.00000000000E+00 -0.00000000000E+00 -0.18653719285E+04  0.18653719285E+04  0.00000000000E+00 0. -1.
         23    2    1    2    0    0 -0.25944358696E+03 -0.15213640690E+03 -0.27790398807E+03  0.41910038560E+03  0.89207878052E+02 0.  0.
        254    2    1    2    0    0  0.25944358696E+03  0.15213640690E+03 -0.13693036339E+04  0.16644358494E+04  0.89716096326E+03 0.  0.
        -24    2    4    4    0    0  0.38753671389E+03 -0.28109000537E+03 -0.73746593921E+03  0.88359531046E+03  0.87683324721E+02 0.  0.
         24    2    4    4    0    0 -0.12809312693E+03  0.43322641228E+03 -0.63183769468E+03  0.78084053898E+03  0.80000633990E+02 0.  0.
         13    1    3    3    0    0  0.73973720156E+01 -0.48794626514E+01 -0.64155289228E+01  0.10940259588E+02  0.00000000000E+00 0. -1.
        -13    1    3    3    0    0 -0.26684095898E+03 -0.14725694425E+03 -0.27148845915E+03  0.40816012601E+03  0.00000000000E+00 0.  1.
          4    1    6    6  502    0 -0.41204984042E+02  0.26335649429E+03 -0.33751273104E+03  0.43008061733E+03  0.00000000000E+00 0. -1.
          1    1    5    5  503    0  0.30119352394E+03 -0.25746870510E+03 -0.62207925471E+03  0.73755696194E+03  0.00000000000E+00 0. -1.
         -2    1    5    5    0  503  0.86343189948E+02 -0.23621300275E+02 -0.11538668450E+03  0.14603834852E+03  0.00000000000E+00 0.  1.
         -3    1    6    6    0  502 -0.86888142891E+02  0.16986991799E+03 -0.29432496364E+03  0.35075992165E+03  0.00000000000E+00 0.  1.
<mgrwt>
<rscale>  0 0.12758645E+04</rscale>
<asrwt>0</asrwt>
<pdfrwt beam="1">  1        2 0.28698029E+00 0.12758645E+04</pdfrwt>
<pdfrwt beam="2">  1       -2 0.33563740E-01 0.12758645E+04</pdfrwt>
<totfact> 0.64691028E+01</totfact>
</mgrwt>
</event>
<event>
12    1  0.1477245E-007  0.1472177E+04  0.7818608E-02  0.8903168E-01
         -1   -1    0    0    0  501 -0.00000000000E+00  0.00000000000E+00  0.50100493271E+03  0.50100493271E+03  0.00000000000E+00 0.  1.
          1   -1    0    0  501    0  0.00000000000E+00 -0.00000000000E+00 -0.10814793092E+04  0.10814793092E+04  0.00000000000E+00 0. -1.
         23    2    1    2    0    0  0.16321328558E+03  0.23694443779E+02 -0.64170966294E+03  0.66918347975E+03  0.93889481832E+02 0.  0.
        254    2    1    2    0    0 -0.16321328558E+03 -0.23694443779E+02  0.61235286461E+02  0.91330076216E+03  0.89619669638E+03 0.  0.
        -24    2    4    4    0    0 -0.23883582777E+03 -0.30356677241E+03 -0.26096329476E+03  0.47312031534E+03  0.80905213915E+02 0.  0.
         24    2    4    4    0    0  0.75622542188E+02  0.27987232863E+03  0.32219858122E+03  0.44018044682E+03  0.76808923989E+02 0.  0.
         13    1    3    3    0    0  0.18276203024E+01 -0.10918789642E+02 -0.15206785735E+03  0.15247030334E+03  0.00000000000E+00 0. -1.
        -13    1    3    3    0    0  0.16138566528E+03  0.34613233421E+02 -0.48964180559E+03  0.51671317640E+03  0.00000000000E+00 0.  1.
          4    1    6    6  502    0  0.74795783272E+00  0.45812924729E+02  0.95137304035E+02  0.10559588123E+03  0.00000000000E+00 0. -1.
          3    1    5    5  503    0 -0.10337977077E+03 -0.15358363681E+03 -0.17055465809E+03  0.25172246999E+03  0.00000000000E+00 0. -1.
         -4    1    5    5    0  503 -0.13545605699E+03 -0.14998313561E+03 -0.90408636661E+02  0.22139784535E+03  0.00000000000E+00 0.  1.
         -3    1    6    6    0  502  0.74874584355E+02  0.23405940391E+03  0.22706127718E+03  0.33458456560E+03  0.00000000000E+00 0.  1.
<mgrwt>
<rscale>  0 0.14721773E+04</rscale>
<asrwt>0</asrwt>
<pdfrwt beam="1">  1        1 0.16638143E+00 0.14721773E+04</pdfrwt>
<pdfrwt beam="2">  1       -1 0.77077682E-01 0.14721773E+04</pdfrwt>
<totfact> 0.21433841E+01</totfact>
</mgrwt>
</event>
<event>
12    1  0.1477245E-007  0.2022243E+04  0.7818608E-02  0.8596291E-01
          2   -1    0    0  501    0  0.00000000000E+00  0.00000000000E+00  0.85128781782E+03  0.85128781782E+03  0.00000000000E+00 0.  1.
         -2   -1    0    0    0  501 -0.00000000000E+00 -0.00000000000E+00 -0.12009645868E+04  0.12009645868E+04  0.00000000000E+00 0. -1.
         23    2    1    2    0    0 -0.16332277078E+03 -0.76534610851E+03  0.78739158658E+02  0.79155168718E+03  0.89023733422E+02 0.  0.
        254    2    1    2    0    0  0.16332277078E+03  0.76534610851E+03 -0.42841592764E+03  0.12607007174E+04  0.89072840900E+03 0.  0.
        -24    2    4    4    0    0  0.14835988636E+03 -0.16590817526E+03 -0.16605737986E+03  0.28943876068E+03  0.81630657740E+02 0.  0.
         24    2    4    4    0    0  0.14962884426E+02  0.93125428377E+03 -0.26235854777E+03  0.97126195674E+03  0.84019950485E+02 0.  0.
         13    1    3    3    0    0 -0.70421131220E+02 -0.42776335239E+03  0.82990435824E+02  0.44139328700E+03  0.00000000000E+00 0.  1.
        -13    1    3    3    0    0 -0.92901639563E+02 -0.33758275612E+03 -0.42512771663E+01  0.35015840019E+03  0.00000000000E+00 0. -1.
          2    1    6    6  502    0  0.16834748945E+02  0.89640903245E+03 -0.23481721073E+03  0.92680725325E+03  0.00000000000E+00 0. -1.
          1    1    5    5  503    0  0.13020505372E+03 -0.17387921284E+03 -0.15139882890E+03  0.26478093221E+03  0.00000000000E+00 0. -1.
         -2    1    5    5    0  503  0.18154832643E+02  0.79710375884E+01 -0.14658550965E+02  0.24657828471E+02  0.00000000000E+00 0.  1.
         -1    1    6    6    0  502 -0.18718645191E+01  0.34845251320E+02 -0.27541337042E+02  0.44454703490E+02  0.00000000000E+00 0.  1.
<mgrwt>
<rscale>  0 0.20222428E+04</rscale>
<asrwt>0</asrwt>
<pdfrwt beam="1">  1        2 0.13096736E+00 0.20222428E+04</pdfrwt>
<pdfrwt beam="2">  1       -2 0.18476378E+00 0.20222428E+04</pdfrwt>
<totfact> 0.49376661E+00</totfact>
</mgrwt>
</event>
<event>
12    1  0.1477245E-007  0.1243766E+04  0.7818608E-02  0.9075388E-01
         -1   -1    0    0    0  501 -0.00000000000E+00  0.00000000000E+00  0.56875126706E+03  0.56875126706E+03  0.00000000000E+00 0.  1.
          1   -1    0    0  501    0  0.00000000000E+00 -0.00000000000E+00 -0.67997806860E+03  0.67997806860E+03  0.00000000000E+00 0. -1.
         23    2    1    2    0    0 -0.13341290364E+03 -0.56576785380E+02  0.22712013370E+03  0.28493607159E+03  0.92763539493E+02 0.  0.
        254    2    1    2    0    0  0.13341290364E+03  0.56576785380E+02 -0.33834693524E+03  0.96379326408E+03  0.89074063105E+03 0.  0.
        -24    2    4    4    0    0  0.48483947068E+03 -0.10388565526E+03 -0.24345664555E+03  0.55827591618E+03  0.80866053626E+02 0.  0.
         24    2    4    4    0    0 -0.35142656704E+03  0.16046244064E+03 -0.94890289691E+02  0.40551734790E+03  0.78684976252E+02 0.  0.
         11    1    3    3    0    0  0.12947733703E+02 -0.13783497108E+02  0.17870679356E+02  0.26019027292E+02  0.00000000000E+00 0. -1.
        -11    1    3    3    0    0 -0.14636063734E+03 -0.42793288272E+02  0.20924945434E+03  0.25891704430E+03  0.00000000000E+00 0.  1.
          4    1    6    6  502    0 -0.10137830850E+03  0.12760884982E+02 -0.85209959762E+01  0.10253296539E+03  0.00000000000E+00 0. -1.
          1    1    5    5  503    0  0.46016527983E+02  0.83386136347E+01 -0.40794581770E+02  0.62058450083E+02  0.00000000000E+00 0. -1.
         -2    1    5    5    0  503  0.43882294270E+03 -0.11222426890E+03 -0.20266206378E+03  0.49621746610E+03  0.00000000000E+00 0.  1.
         -3    1    6    6    0  502 -0.25004825854E+03  0.14770155566E+03 -0.86369293714E+02  0.30298438250E+03  0.00000000000E+00 0.  1.
<mgrwt>
<rscale>  0 0.12437659E+04</rscale>
<asrwt>0</asrwt>
<pdfrwt beam="1">  1        1 0.10461201E+00 0.12437659E+04</pdfrwt>
<pdfrwt beam="2">  1       -1 0.87500195E-01 0.12437659E+04</pdfrwt>
<totfact> 0.36117349E+01</totfact>
</mgrwt>
</event>
<event>
12    1  0.1477245E-007  0.1156165E+04  0.7818608E-02  0.9152115E-01
         -1   -1    0    0    0  501 -0.00000000000E+00  0.00000000000E+00  0.40300499385E+03  0.40300499385E+03  0.00000000000E+00 0.  1.
          1   -1    0    0  501    0  0.00000000000E+00 -0.00000000000E+00 -0.82921863444E+03  0.82921863444E+03  0.00000000000E+00 0. -1.
         23    2    1    2    0    0  0.93044476881E+02 -0.14551554400E+03 -0.18563468990E+01  0.19584910689E+03  0.92311312541E+02 0.  0.
        254    2    1    2    0    0 -0.93044476881E+02  0.14551554400E+03 -0.42435729368E+03  0.10363745214E+04  0.92960259664E+03 0.  0.
        -24    2    4    4    0    0 -0.32077810975E+03 -0.13282640020E+03 -0.54315920749E+03  0.64951363949E+03  0.79401479347E+02 0.  0.
         24    2    4    4    0    0  0.22773363287E+03  0.27834194420E+03  0.11880191380E+03  0.38686088191E+03  0.78807371374E+02 0.  0.
         13    1    3    3    0    0 -0.74222922112E+01 -0.59081298738E+02  0.17140498533E+02  0.61963593926E+02  0.00000000000E+00 0. -1.
        -13    1    3    3    0    0  0.10046676909E+03 -0.86434245261E+02 -0.18996845432E+02  0.13388551297E+03  0.00000000000E+00 0.  1.
          4    1    6    6  502    0  0.31406129578E+02  0.99982126040E+01 -0.22006220525E+01  0.33032589481E+02  0.00000000000E+00 0. -1.
          1    1    5    5  503    0 -0.10408680319E+03 -0.71172072207E+02 -0.14607672895E+03  0.19297133777E+03  0.00000000000E+00 0. -1.
         -2    1    5    5    0  503 -0.21669130656E+03 -0.61654327997E+02 -0.39708247854E+03  0.45654230172E+03  0.00000000000E+00 0.  1.
         -3    1    6    6    0  502  0.19632750329E+03  0.26834373160E+03  0.12100253586E+03  0.35382829243E+03  0.00000000000E+00 0.  1.
<mgrwt>
<rscale>  0 0.11561648E+04</rscale>
<asrwt>0</asrwt>
<pdfrwt beam="1">  1        1 0.12757210E+00 0.11561648E+04</pdfrwt>
<pdfrwt beam="2">  1       -1 0.62000769E-01 0.11561648E+04</pdfrwt>
<totfact> 0.54647371E+01</totfact>
</mgrwt>
</event>
<event>
12    1  0.1477245E-007  0.1035889E+04  0.7818608E-02  0.9270035E-01
          2   -1    0    0  501    0  0.00000000000E+00  0.00000000000E+00  0.18824762580E+04  0.18824762580E+04  0.00000000000E+00 0. -1.
         -2   -1    0    0    0  501 -0.00000000000E+00 -0.00000000000E+00 -0.14250736038E+03  0.14250736038E+03  0.00000000000E+00 0.  1.
         23    2    1    2    0    0 -0.12205712999E+02  0.78464031827E+02  0.31614463131E+03  0.33857130707E+03  0.91528784225E+02 0.  0.
        254    2    1    2    0    0  0.12205712999E+02 -0.78464031827E+02  0.14238242664E+04  0.16864123114E+04  0.90022517111E+03 0.  0.
        -24    2    4    4    0    0  0.36712987241E+03  0.13552273092E+03  0.10473883362E+04  0.11210550718E+04  0.81187397089E+02 0.  0.
         24    2    4    4    0    0 -0.35492415942E+03 -0.21398676275E+03  0.37643593016E+03  0.56535723953E+03  0.78506720757E+02 0.  0.
         11    1    3    3    0    0 -0.38569699068E+02  0.73024269217E+00  0.87016785905E+02  0.95184431342E+02  0.00000000000E+00 0.  1.
        -11    1    3    3    0    0  0.26363986070E+02  0.77733789135E+02  0.22912784541E+03  0.24338687573E+03  0.00000000000E+00 0. -1.
          4    1    6    6  502    0 -0.94105219558E+02 -0.19107000506E+02  0.78488853265E+02  0.12402165095E+03  0.00000000000E+00 0. -1.
          3    1    5    5  503    0  0.21227928598E+03  0.48135358316E+02  0.65604134899E+03  0.69120891166E+03  0.00000000000E+00 0. -1.
         -4    1    5    5    0  503  0.15485058644E+03  0.87387372606E+02  0.39134698720E+03  0.42984616016E+03  0.00000000000E+00 0.  1.
         -3    1    6    6    0  502 -0.26081893986E+03 -0.19487976224E+03  0.29794707690E+03  0.44133558858E+03  0.00000000000E+00 0.  1.
<mgrwt>
<rscale>  0 0.10358894E+04</rscale>
<asrwt>0</asrwt>
<pdfrwt beam="1">  1        2 0.28961171E+00 0.10358894E+04</pdfrwt>
<pdfrwt beam="2">  1       -2 0.21924211E-01 0.10358894E+04</pdfrwt>
<totfact> 0.14082422E+02</totfact>
</mgrwt>
</event>
<event>
12    1  0.1477245E-007  0.2317960E+04  0.7818608E-02  0.8470873E-01
         -1   -1    0    0    0  501 -0.00000000000E+00  0.00000000000E+00  0.64284449664E+03  0.64284449664E+03  0.00000000000E+00 0.  1.
          1   -1    0    0  501    0  0.00000000000E+00 -0.00000000000E+00 -0.20895172953E+04  0.20895172953E+04  0.00000000000E+00 0. -1.
         23    2    1    2    0    0 -0.29603391724E+03 -0.92940285271E+03 -0.50112674507E+03  0.11004955058E+04  0.92393727347E+02 0.  0.
        254    2    1    2    0    0  0.29603391724E+03  0.92940285271E+03 -0.94554605355E+03  0.16318662861E+04  0.90415955096E+03 0.  0.
        -24    2    4    4    0    0  0.49782809532E+02  0.42487986843E+03  0.96105093975E+02  0.44596249198E+03  0.81517632741E+02 0.  0.
         24    2    4    4    0    0  0.24625110771E+03  0.50452298428E+03 -0.10416511475E+04  0.11859037941E+04  0.78406926222E+02 0.  0.
         13    1    3    3    0    0 -0.29991203260E+03 -0.86991891568E+03 -0.47052545731E+03  0.10334894064E+04  0.00000000000E+00 0.  1.
        -13    1    3    3    0    0  0.38781153562E+01 -0.59483937026E+02 -0.30601287760E+02  0.67006099390E+02  0.00000000000E+00 0. -1.
          2    1    6    6  502    0  0.57426286092E+02  0.15998444286E+03 -0.38205417054E+03  0.41816048297E+03  0.00000000000E+00 0. -1.
          1    1    5    5  503    0  0.31904951760E+02  0.61050334513E+02 -0.12966012593E+01  0.68896665128E+02  0.00000000000E+00 0. -1.
         -2    1    5    5    0  503  0.17877857772E+02  0.36382953391E+03  0.97401695234E+02  0.37706582685E+03  0.00000000000E+00 0.  1.
         -3    1    6    6    0  502  0.18882482162E+03  0.34453854142E+03 -0.65959697698E+03  0.76774331115E+03  0.00000000000E+00 0.  1.
<mgrwt>
<rscale>  0 0.23179600E+04</rscale>
<asrwt>0</asrwt>
<pdfrwt beam="1">  1        1 0.32146420E+00 0.23179600E+04</pdfrwt>
<pdfrwt beam="2">  1       -1 0.98899152E-01 0.23179600E+04</pdfrwt>
<totfact> 0.22850219E+00</totfact>
</mgrwt>
</event>
<event>
12    1  0.1477245E-007  0.1324607E+04  0.7818608E-02  0.9010276E-01
         -1   -1    0    0    0  501 -0.00000000000E+00  0.00000000000E+00  0.36240418959E+03  0.36240418959E+03  0.00000000000E+00 0.  1.
          1   -1    0    0  501    0  0.00000000000E+00 -0.00000000000E+00 -0.12103779573E+04  0.12103779573E+04  0.00000000000E+00 0. -1.
         23    2    1    2    0    0  0.30016036235E+02  0.33589166353E+03 -0.85655543072E+02  0.35994883446E+03  0.92206937431E+02 0.  0.
        254    2    1    2    0    0 -0.30016036235E+02 -0.33589166353E+03 -0.76231822464E+03  0.12128333124E+04  0.88097184749E+03 0.  0.
        -24    2    4    4    0    0  0.72511480344E+02 -0.54248146069E+03 -0.18086293999E+03  0.58223833067E+03  0.82134162578E+02 0.  0.
         24    2    4    4    0    0 -0.10252751658E+03  0.20658979716E+03 -0.58145528465E+03  0.63059498176E+03  0.79803176863E+02 0.  0.
         11    1    3    3    0    0  0.17387552993E+02  0.33367591438E+03 -0.73157444313E+02  0.34204379032E+03  0.00000000000E+00 0.  1.
        -11    1    3    3    0    0  0.12628483243E+02  0.22157491540E+01 -0.12498098759E+02  0.17905044147E+02  0.00000000000E+00 0. -1.
          2    1    6    6  502    0 -0.42623230335E+02  0.26979340537E+02 -0.17643398599E+03  0.18350361302E+03  0.00000000000E+00 0. -1.
          1    1    5    5  503    0 -0.20742615636E+01 -0.19675572808E+03 -0.35957412448E+02  0.20002513493E+03  0.00000000000E+00 0. -1.
         -2    1    5    5    0  503  0.74585741907E+02 -0.34572573261E+03 -0.14490552754E+03  0.38221319574E+03  0.00000000000E+00 0.  1.
         -1    1    6    6    0  502 -0.59904286243E+02  0.17961045662E+03 -0.40502129866E+03  0.44709136874E+03  0.00000000000E+00 0.  1.
<mgrwt>
<rscale>  0 0.13246072E+04</rscale>
<asrwt>0</asrwt>
<pdfrwt beam="1">  1        1 0.18621199E+00 0.13246072E+04</pdfrwt>
<pdfrwt beam="2">  1       -1 0.55754492E-01 0.13246072E+04</pdfrwt>
<totfact> 0.33502384E+01</totfact>
</mgrwt>
</event>
<event>
12    1  0.1477245E-007  0.2420951E+04  0.7818608E-02  0.8431701E-01
          2   -1    0    0  501    0  0.00000000000E+00  0.00000000000E+00  0.18077262742E+04  0.18077262742E+04  0.00000000000E+00 0. -1.
         -2   -1    0    0    0  501 -0.00000000000E+00 -0.00000000000E+00 -0.81054926065E+03  0.81054926065E+03  0.00000000000E+00 0.  1.
         23    2    1    2    0    0 -0.82536019368E+02  0.47767287359E+03 -0.56543806273E+03  0.75225041894E+03  0.10572095989E+03 0.  0.
        254    2    1    2    0    0  0.82536019368E+02 -0.47767287359E+03  0.15626150763E+04  0.18660251159E+04  0.89738525060E+03 0.  0.
        -24    2    4    4    0    0 -0.41568323201E+02  0.42082828702E+02  0.12250916478E+04  0.12288684470E+04  0.75955411897E+02 0.  0.
         24    2    4    4    0    0  0.12410434257E+03 -0.51975570229E+03  0.33752342854E+03  0.63715666896E+03  0.80614378912E+02 0.  0.
         11    1    3    3    0    0 -0.34678533930E+02  0.15329262722E+03 -0.11336487245E+03  0.19378551179E+03  0.00000000000E+00 0.  1.
        -11    1    3    3    0    0 -0.47857485439E+02  0.32438024637E+03 -0.45207319028E+03  0.55846490715E+03  0.00000000000E+00 0. -1.
          2    1    6    6  502    0  0.12702054556E+03 -0.38815686077E+03  0.26526858418E+03  0.48699834631E+03  0.00000000000E+00 0. -1.
          3    1    5    5  503    0 -0.56365552945E+02  0.52805040435E+02  0.10456993454E+04  0.10485478381E+04  0.00000000000E+00 0. -1.
         -4    1    5    5    0  503  0.14797229744E+02 -0.10722211733E+02  0.17939230239E+03  0.18032060889E+03  0.00000000000E+00 0.  1.
         -1    1    6    6    0  502 -0.29162029884E+01 -0.13159884152E+03  0.72254844362E+02  0.15015832266E+03  0.00000000000E+00 0.  1.
<mgrwt>
<rscale>  0 0.24209512E+04</rscale>
<asrwt>0</asrwt>
<pdfrwt beam="1">  1        2 0.27811173E+00 0.24209512E+04</pdfrwt>
<pdfrwt beam="2">  1       -2 0.12469989E+00 0.24209512E+04</pdfrwt>
<totfact> 0.37001446E+00</totfact>
</mgrwt>
</event>
<event>
12    1  0.1477245E-007  0.1271672E+04  0.7818608E-02  0.9052336E-01
         -1   -1    0    0    0  501 -0.00000000000E+00  0.00000000000E+00  0.46323998047E+03  0.46323998047E+03  0.00000000000E+00 0.  1.
          1   -1    0    0  501    0  0.00000000000E+00 -0.00000000000E+00 -0.87273879939E+03  0.87273879939E+03  0.00000000000E+00 0. -1.
         23    2    1    2    0    0 -0.21362462480E+03 -0.74812092435E+02  0.11734665211E+03  0.27139985737E+03  0.93033952546E+02 0.  0.
        254    2    1    2    0    0  0.21362462480E+03  0.74812092435E+02 -0.52684547102E+03  0.10645789225E+04  0.89695585308E+03 0.  0.
        -24    2    4    4    0    0 -0.16750104682E+03  0.28917306782E+03 -0.51571351643E+03  0.61972759456E+03  0.80151086030E+02 0.  0.
         24    2    4    4    0    0  0.38112567162E+03 -0.21436097538E+03 -0.11131954585E+02  0.44485132792E+03  0.81002334569E+02 0.  0.
         11    1    3    3    0    0 -0.16246489674E+03 -0.57341668047E+02  0.39724912486E+02  0.17680774372E+03  0.00000000000E+00 0. -1.
        -11    1    3    3    0    0 -0.51159728056E+02 -0.17470424389E+02  0.77621739622E+02  0.94592113651E+02  0.00000000000E+00 0.  1.
          4    1    6    6  502    0  0.30560973111E+03 -0.20494783179E+03 -0.19234219219E+00  0.36796869228E+03  0.00000000000E+00 0. -1.
          1    1    5    5  503    0 -0.12198528397E+03  0.25521514502E+03 -0.46102938960E+03  0.54089118853E+03  0.00000000000E+00 0. -1.
         -2    1    5    5    0  503 -0.45515762852E+02  0.33957922798E+02 -0.54684126833E+02  0.78836406033E+02  0.00000000000E+00 0.  1.
         -3    1    6    6    0  502  0.75515940513E+02 -0.94131435925E+01 -0.10939612393E+02  0.76882635641E+02  0.00000000000E+00 0.  1.
<mgrwt>
<rscale>  0 0.12716721E+04</rscale>
<asrwt>0</asrwt>
<pdfrwt beam="1">  1        1 0.13426751E+00 0.12716721E+04</pdfrwt>
<pdfrwt beam="2">  1       -1 0.71267690E-01 0.12716721E+04</pdfrwt>
<totfact> 0.37531434E+01</totfact>
</mgrwt>
</event>
<event>
12    1  0.1477245E-007  0.3963106E+04  0.7818608E-02  0.8012031E-01
          1   -1    0    0  501    0  0.00000000000E+00  0.00000000000E+00  0.34557987546E+04  0.34557987546E+04  0.00000000000E+00 0. -1.
         -1   -1    0    0    0  501 -0.00000000000E+00 -0.00000000000E+00 -0.11362212222E+04  0.11362212222E+04  0.00000000000E+00 0.  1.
         23    2    1    2    0    0  0.79191718198E+03  0.86845141758E+03  0.27881152014E+04  0.30271396503E+04  0.92991386817E+02 0.  0.
        254    2    1    2    0    0 -0.79191718198E+03 -0.86845141758E+03 -0.46853766900E+03  0.15648803265E+04  0.92085949044E+03 0.  0.
        -24    2    4    4    0    0 -0.41363830943E+03 -0.97196588470E+03 -0.48334855470E+03  0.11644868157E+04  0.81175036144E+02 0.  0.
         24    2    4    4    0    0 -0.37827887255E+03  0.10351446712E+03  0.14810885706E+02  0.40039351081E+03  0.79280835302E+02 0.  0.
         11    1    3    3    0    0  0.60330411186E+03  0.69713326254E+03  0.22582168181E+04  0.24391625273E+04  0.00000000000E+00 0. -1.
        -11    1    3    3    0    0  0.18861307011E+03  0.17131815504E+03  0.52989838331E+03  0.58797712294E+03  0.00000000000E+00 0.  1.
          2    1    6    6  502    0 -0.26422758219E+03  0.90892206882E+02 -0.20935504562E+02  0.28020689466E+03  0.00000000000E+00 0. -1.
          1    1    5    5  503    0 -0.32962082560E+03 -0.84196917159E+03 -0.42468168160E+03  0.99895770945E+03  0.00000000000E+00 0. -1.
         -2    1    5    5    0  503 -0.84017483823E+02 -0.12999671311E+03 -0.58666873107E+02  0.16552910622E+03  0.00000000000E+00 0.  1.
         -3    1    6    6    0  502 -0.11405129036E+03  0.12622260236E+02  0.35746390267E+02  0.12018661616E+03  0.00000000000E+00 0.  1.
<mgrwt>
<rscale>  0 0.39631058E+04</rscale>
<asrwt>0</asrwt>
<pdfrwt beam="1">  1        1 0.53166134E+00 0.39631058E+04</pdfrwt>
<pdfrwt beam="2">  1       -1 0.17480327E+00 0.39631058E+04</pdfrwt>
<totfact> 0.48153467E-02</totfact>
</mgrwt>
</event>
<event>
12    1  0.1477245E-007  0.2811470E+04  0.7818608E-02  0.8299716E-01
          2   -1    0    0  501    0  0.00000000000E+00  0.00000000000E+00  0.24114533930E+04  0.24114533930E+04  0.00000000000E+00 0. -1.
         -2   -1    0    0    0  501 -0.00000000000E+00 -0.00000000000E+00 -0.81946037595E+03  0.81946037595E+03  0.00000000000E+00 0.  1.
         23    2    1    2    0    0  0.11512952350E+04 -0.90566895835E+02  0.13308903545E+03  0.11674013453E+04  0.10691178049E+03 0.  0.
        254    2    1    2    0    0 -0.11512952350E+04  0.90566895835E+02  0.14589039816E+04  0.20635124236E+04  0.89218810476E+03 0.  0.
        -24    2    4    4    0    0 -0.11264190593E+04 -0.15929403952E+03  0.92763662625E+03  0.14703535547E+04  0.85061021155E+02 0.  0.
         24    2    4    4    0    0 -0.24876175728E+02  0.24986093536E+03  0.53126735530E+03  0.59315886892E+03  0.80889615105E+02 0.  0.
         13    1    3    3    0    0  0.33240779075E+02 -0.10063316687E+02  0.21651363480E+02  0.40926779458E+02  0.00000000000E+00 0.  1.
        -13    1    3    3    0    0  0.11180544559E+04 -0.80503579148E+02  0.11143767197E+03  0.11264745658E+04  0.00000000000E+00 0. -1.
          4    1    6    6  502    0 -0.59540643875E+01  0.24077970816E+03  0.46542549923E+03  0.52405268254E+03  0.00000000000E+00 0. -1.
          1    1    5    5  503    0 -0.10018710119E+04 -0.12450560356E+03  0.79406557663E+03  0.12844404657E+04  0.00000000000E+00 0. -1.
         -2    1    5    5    0  503 -0.12454804735E+03 -0.34788435962E+02  0.13357104963E+03  0.18591308904E+03  0.00000000000E+00 0.  1.
         -3    1    6    6    0  502 -0.18922111341E+02  0.90812271996E+01  0.65841856066E+02  0.69106186375E+02  0.00000000000E+00 0.  1.
<mgrwt>
<rscale>  0 0.28114697E+04</rscale>
<asrwt>0</asrwt>
<pdfrwt beam="1">  1        2 0.37099283E+00 0.28114697E+04</pdfrwt>
<pdfrwt beam="2">  1       -2 0.12607083E+00 0.28114697E+04</pdfrwt>
<totfact> 0.15973039E+00</totfact>
</mgrwt>
</event>
<event>
12    1  0.1477245E-007  0.2337692E+04  0.7818608E-02  0.8463206E-01
         -2   -1    0    0    0  501 -0.00000000000E+00  0.00000000000E+00  0.50137943049E+03  0.50137943049E+03  0.00000000000E+00 0.  1.
          2   -1    0    0  501    0  0.00000000000E+00 -0.00000000000E+00 -0.27248840211E+04  0.27248840211E+04  0.00000000000E+00 0. -1.
         23    2    1    2    0    0  0.56670639383E+03  0.80368485762E+03 -0.11184300429E+04  0.14920653984E+04  0.91147709625E+02 0.  0.
        254    2    1    2    0    0 -0.56670639383E+03 -0.80368485762E+03 -0.11050745477E+04  0.17341980532E+04  0.90508985444E+03 0.  0.
        -24    2    4    4    0    0  0.17971454106E+03  0.42946084198E+02 -0.12610860502E+03  0.23789828561E+03  0.80935354573E+02 0.  0.
         24    2    4    4    0    0 -0.74642093489E+03 -0.84663094182E+03 -0.97896594265E+03  0.14962997676E+04  0.81305067000E+02 0.  0.
         11    1    3    3    0    0  0.40474495236E+03  0.55141423932E+03 -0.83623673583E+03  0.10803555054E+04  0.00000000000E+00 0. -1.
        -11    1    3    3    0    0  0.16196144147E+03  0.25227061830E+03 -0.28219330711E+03  0.41170989296E+03  0.00000000000E+00 0.  1.
          2    1    6    6  502    0 -0.65867103437E+03 -0.73699798329E+03 -0.88987730009E+03  0.13299981835E+04  0.00000000000E+00 0. -1.
          3    1    5    5  503    0  0.82442080231E+02  0.61251009306E+02 -0.61910681150E+02  0.11992212129E+03  0.00000000000E+00 0. -1.
         -4    1    5    5    0  503  0.97272460827E+02 -0.18304925108E+02 -0.64197923871E+02  0.11797616432E+03  0.00000000000E+00 0.  1.
         -1    1    6    6    0  502 -0.87749900524E+02 -0.10963295853E+03 -0.89088642565E+02  0.16630158409E+03  0.00000000000E+00 0.  1.
<mgrwt>
<rscale>  0 0.23376919E+04</rscale>
<asrwt>0</asrwt>
<pdfrwt beam="1">  1        2 0.41921292E+00 0.23376919E+04</pdfrwt>
<pdfrwt beam="2">  1       -2 0.77135298E-01 0.23376919E+04</pdfrwt>
<totfact> 0.34797702E+00</totfact>
</mgrwt>
</event>
<event>
12    1  0.1477245E-007  0.1201220E+04  0.7818608E-02  0.9111790E-01
         -1   -1    0    0    0  501 -0.00000000000E+00  0.00000000000E+00  0.16760051135E+03  0.16760051135E+03  0.00000000000E+00 0.  1.
          1   -1    0    0  501    0  0.00000000000E+00 -0.00000000000E+00 -0.21523332144E+04  0.21523332144E+04  0.00000000000E+00 0. -1.
         23    2    1    2    0    0 -0.30104772271E+01 -0.22081415208E+03 -0.63416148331E+03  0.67772371728E+03  0.91546148562E+02 0.  0.
        254    2    1    2    0    0  0.30104772271E+01  0.22081415208E+03 -0.13505712198E+04  0.16422100085E+04  0.90776821911E+03 0.  0.
        -24    2    4    4    0    0  0.15681103110E+03 -0.30982988654E+03 -0.70356854715E+03  0.78852333245E+03  0.78588085674E+02 0.  0.
         24    2    4    4    0    0 -0.15380055387E+03  0.53064403861E+03 -0.64700267262E+03  0.85368667605E+03  0.70219487395E+02 0.  0.
         13    1    3    3    0    0  0.35100078584E+02 -0.12618817705E+03 -0.27922923220E+03  0.30842249538E+03  0.00000000000E+00 0.  1.
        -13    1    3    3    0    0 -0.38110555811E+02 -0.94625975023E+02 -0.35493225111E+03  0.36930122190E+03  0.00000000000E+00 0. -1.
          4    1    6    6  502    0 -0.57433103313E+02  0.18689080194E+03 -0.28172029807E+03  0.34291844446E+03  0.00000000000E+00 0. -1.
          1    1    5    5  503    0  0.13963819643E+03 -0.28380145228E+03 -0.57526241807E+03  0.65648224642E+03  0.00000000000E+00 0. -1.
         -2    1    5    5    0  503  0.17172834671E+02 -0.26028434258E+02 -0.12830612908E+03  0.13204108603E+03  0.00000000000E+00 0.  1.
         -3    1    6    6    0  502 -0.96367450556E+02  0.34375323668E+03 -0.36528237455E+03  0.51076823160E+03  0.00000000000E+00 0.  1.
<mgrwt>
<rscale>  0 0.12012196E+04</rscale>
<asrwt>0</asrwt>
<pdfrwt beam="1">  1        1 0.33112820E+00 0.12012196E+04</pdfrwt>
<pdfrwt beam="2">  1       -1 0.25784693E-01 0.12012196E+04</pdfrwt>
<totfact> 0.30951865E+01</totfact>
</mgrwt>
</event>
<event>
12    1  0.1477245E-007  0.2437888E+04  0.7818608E-02  0.8425454E-01
         -2   -1    0    0    0  501 -0.00000000000E+00  0.00000000000E+00  0.33632657893E+03  0.33632657893E+03  0.00000000000E+00 0.  1.
          2   -1    0    0  501    0  0.00000000000E+00 -0.00000000000E+00 -0.44178010913E+04  0.44178010913E+04  0.00000000000E+00 0. -1.
         23    2    1    2    0    0  0.66010095705E+03  0.16821167115E+03 -0.20918559659E+03  0.71834144728E+03  0.90704913027E+02 0.  0.
        254    2    1    2    0    0 -0.66010095705E+03 -0.16821167115E+03 -0.38722889158E+04  0.40357862229E+04  0.91045074018E+03 0.  0.
        -24    2    4    4    0    0 -0.64797134802E+03  0.70005968682E+02 -0.36205144254E+04  0.36795689956E+04  0.79596389749E+02 0.  0.
         24    2    4    4    0    0 -0.12129609032E+02 -0.23821763983E+03 -0.25177449037E+03  0.35621722736E+03  0.81274520735E+02 0.  0.
         13    1    3    3    0    0  0.28571122639E+03  0.86390011214E+02 -0.13678638475E+03  0.32833619048E+03  0.00000000000E+00 0. -1.
        -13    1    3    3    0    0  0.37438973066E+03  0.81821659937E+02 -0.72399211839E+02  0.39000525680E+03  0.00000000000E+00 0.  1.
          4    1    6    6  502    0  0.13792595344E+02 -0.92389041157E+02 -0.50110997446E+02  0.10600510685E+03  0.00000000000E+00 0. -1.
          1    1    5    5  503    0 -0.50300759912E+03  0.35429009824E+02 -0.29396587264E+04  0.29825937181E+04  0.00000000000E+00 0. -1.
         -2    1    5    5    0  503 -0.14496374889E+03  0.34576958858E+02 -0.68085569898E+03  0.69697527747E+03  0.00000000000E+00 0.  1.
         -3    1    6    6    0  502 -0.25922204376E+02 -0.14582859868E+03 -0.20166349293E+03  0.25021212051E+03  0.00000000000E+00 0.  1.
<mgrwt>
<rscale>  0 0.24378876E+04</rscale>
<asrwt>0</asrwt>
<pdfrwt beam="1">  1        2 0.67966165E+00 0.24378876E+04</pdfrwt>
<pdfrwt beam="2">  1       -2 0.51742555E-01 0.24378876E+04</pdfrwt>
<totfact> 0.46999390E-01</totfact>
</mgrwt>
</event>
<event>
12    1  0.1836740E-007  0.1253280E+04  0.7818608E-02  0.9067458E-01
         -1   -1    0    0    0  501 -0.00000000000E+00  0.00000000000E+00  0.24416401081E+03  0.24416401081E+03  0.00000000000E+00 0.  1.
          1   -1    0    0  501    0  0.00000000000E+00 -0.00000000000E+00 -0.16082537753E+04  0.16082537753E+04  0.00000000000E+00 0. -1.
         23    2    1    2    0    0 -0.20320845944E+02  0.20290558665E+03 -0.35493036730E+02  0.23552037270E+03  0.11236759508E+03 0.  0.
        254    2    1    2    0    0  0.20320845944E+02 -0.20290558665E+03 -0.13285967278E+04  0.16168974134E+04  0.89866810704E+03 0.  0.
        -24    2    4    4    0    0 -0.84035663176E+01 -0.25775211890E+03 -0.14394795694E+04  0.14644228583E+04  0.76981182871E+02 0.  0.
         24    2    4    4    0    0  0.28724412262E+02  0.54846532244E+02  0.11088284168E+03  0.15247455506E+03  0.84381582139E+02 0.  0.
         11    1    3    3    0    0 -0.34004004976E+02  0.19288155874E+03  0.36121001399E+00  0.19585632114E+03  0.00000000000E+00 0.  1.
        -11    1    3    3    0    0  0.13683159032E+02  0.10024027914E+02 -0.35854246744E+02  0.39664051561E+02  0.00000000000E+00 0. -1.
          4    1    6    6  502    0  0.37859355366E+02  0.10043712640E+02  0.97123934801E+02  0.10472471372E+03  0.00000000000E+00 0. -1.
          1    1    5    5  503    0 -0.18136460967E+02 -0.24222828904E+03 -0.13997716765E+04  0.14206914589E+04  0.00000000000E+00 0. -1.
         -2    1    5    5    0  503  0.97328946497E+01 -0.15523829859E+02 -0.39707892982E+02  0.43731399438E+02  0.00000000000E+00 0.  1.
         -3    1    6    6    0  502 -0.91349431043E+01  0.44802819604E+02  0.13758906876E+02  0.47749841344E+02  0.00000000000E+00 0.  1.
<mgrwt>
<rscale>  0 0.12532800E+04</rscale>
<asrwt>0</asrwt>
<pdfrwt beam="1">  1        1 0.24742366E+00 0.12532800E+04</pdfrwt>
<pdfrwt beam="2">  1       -1 0.37563694E-01 0.12532800E+04</pdfrwt>
<totfact> 0.37090381E+01</totfact>
</mgrwt>
</event>
<event>
12    1  0.1477245E-007  0.1078626E+04  0.7818608E-02  0.9226278E-01
         -1   -1    0    0    0  501 -0.00000000000E+00  0.00000000000E+00  0.42154620638E+03  0.42154620638E+03  0.00000000000E+00 0.  1.
          1   -1    0    0  501    0  0.00000000000E+00 -0.00000000000E+00 -0.68998046703E+03  0.68998046703E+03  0.00000000000E+00 0. -1.
         23    2    1    2    0    0  0.64797083504E+02 -0.15725271943E+02  0.52448676556E+01  0.11636732465E+03  0.95225518639E+02 0.  0.
        254    2    1    2    0    0 -0.64797083504E+02  0.15725271943E+02 -0.27367912830E+03  0.99515934876E+03  0.95446106152E+03 0.  0.
        -24    2    4    4    0    0  0.87784034791E+02 -0.17508350044E+03 -0.56712154607E+03  0.60517456807E+03  0.79051508097E+02 0.  0.
         24    2    4    4    0    0 -0.15258111830E+03  0.19080877239E+03  0.29344241777E+03  0.38998478069E+03  0.79313878612E+02 0.  0.
         13    1    3    3    0    0  0.11368767575E+01 -0.19009442361E+02  0.39609484409E+02  0.43949546559E+02  0.00000000000E+00 0.  1.
        -13    1    3    3    0    0  0.63660206747E+02  0.32841704179E+01 -0.34364616753E+02  0.72417778086E+02  0.00000000000E+00 0. -1.
          2    1    6    6  502    0 -0.13330432692E+03  0.19314334616E+03  0.25277643233E+03  0.34492074522E+03  0.00000000000E+00 0. -1.
          3    1    5    5  503    0  0.99496924070E+02 -0.13839774452E+03 -0.42443107014E+03  0.45737873462E+03  0.00000000000E+00 0. -1.
         -4    1    5    5    0  503 -0.11712889279E+02 -0.36685755928E+02 -0.14269047593E+03  0.14779583345E+03  0.00000000000E+00 0.  1.
         -1    1    6    6    0  502 -0.19276791371E+02 -0.23345737784E+01  0.40665985444E+02  0.45064035466E+02  0.00000000000E+00 0.  1.
<mgrwt>
<rscale>  0 0.10786263E+04</rscale>
<asrwt>0</asrwt>
<pdfrwt beam="1">  1        1 0.10615084E+00 0.10786263E+04</pdfrwt>
<pdfrwt beam="2">  1       -1 0.64853263E-01 0.10786263E+04</pdfrwt>
<totfact> 0.67004953E+01</totfact>
</mgrwt>
</event>
<event>
12    1  0.1477245E-007  0.1736903E+04  0.7818608E-02  0.8740593E-01
          1   -1    0    0  501    0  0.00000000000E+00  0.00000000000E+00  0.26075638445E+04  0.26075638445E+04  0.00000000000E+00 0. -1.
         -1   -1    0    0    0  501 -0.00000000000E+00 -0.00000000000E+00 -0.28923844455E+03  0.28923844455E+03  0.00000000000E+00 0.  1.
         23    2    1    2    0    0 -0.39226520067E+03 -0.24101694934E+03  0.15438070599E+04  0.16132979447E+04  0.86190850717E+02 0.  0.
        254    2    1    2    0    0  0.39226520067E+03  0.24101694934E+03  0.77451834005E+03  0.12835043443E+04  0.91408073238E+03 0.  0.
        -24    2    4    4    0    0  0.17992448810E+02 -0.19374307230E+03  0.66038838157E+03  0.69314075546E+03  0.80443682636E+02 0.  0.
         24    2    4    4    0    0  0.37427275186E+03  0.43476002165E+03  0.11412995848E+03  0.59036358888E+03  0.80044677799E+02 0.  0.
         11    1    3    3    0    0 -0.12157052725E+03 -0.10161872894E+03  0.65078029973E+03  0.66979157780E+03  0.00000000000E+00 0. -1.
        -11    1    3    3    0    0 -0.27069467342E+03 -0.13939822041E+03  0.89302676017E+03  0.94350636693E+03  0.00000000000E+00 0.  1.
          4    1    6    6  502    0  0.32601537704E+03  0.35786983234E+03  0.69038258289E+02  0.48900217185E+03  0.00000000000E+00 0. -1.
          3    1    5    5  503    0 -0.13149016845E+02 -0.16920366100E+03  0.50410711120E+03  0.53190859656E+03  0.00000000000E+00 0. -1.
         -4    1    5    5    0  503  0.31141465655E+02 -0.24539411307E+02  0.15628127038E+03  0.16123215889E+03  0.00000000000E+00 0.  1.
         -3    1    6    6    0  502  0.48257374816E+02  0.76890189302E+02  0.45091700189E+02  0.10136141702E+03  0.00000000000E+00 0.  1.
<mgrwt>
<rscale>  0 0.17369027E+04</rscale>
<asrwt>0</asrwt>
<pdfrwt beam="1">  1        1 0.40116365E+00 0.17369027E+04</pdfrwt>
<pdfrwt beam="2">  1       -1 0.44498224E-01 0.17369027E+04</pdfrwt>
<totfact> 0.54174647E+00</totfact>
</mgrwt>
</event>
<event>
12    1  0.1477245E-007  0.1156784E+04  0.7818608E-02  0.9151547E-01
         -1   -1    0    0    0  501 -0.00000000000E+00  0.00000000000E+00  0.22930004919E+03  0.22930004919E+03  0.00000000000E+00 0.  1.
          1   -1    0    0  501    0  0.00000000000E+00 -0.00000000000E+00 -0.14589508255E+04  0.14589508255E+04  0.00000000000E+00 0. -1.
         23    2    1    2    0    0 -0.10194079684E+02  0.82193062027E+02  0.44865549837E+02  0.12799780386E+03  0.86665457511E+02 0.  0.
        254    2    1    2    0    0  0.10194079684E+02 -0.82193062027E+02 -0.12745163262E+04  0.15602530708E+04  0.89617975916E+03 0.  0.
        -24    2    4    4    0    0 -0.97878089086E+02  0.23479758360E+03 -0.28735911453E+02  0.26779318358E+03  0.78596507399E+02 0.  0.
         24    2    4    4    0    0  0.10807216877E+03 -0.31699064563E+03 -0.12457804147E+04  0.12924598873E+04  0.79505065535E+02 0.  0.
         11    1    3    3    0    0  0.26279224623E+02  0.25096866641E+02 -0.13307853893E+02  0.38698182609E+02  0.00000000000E+00 0. -1.
        -11    1    3    3    0    0 -0.36473304307E+02  0.57096195385E+02  0.58173403730E+02  0.89299621254E+02  0.00000000000E+00 0.  1.
          2    1    6    6  502    0  0.10952618140E+03 -0.20735388068E+03 -0.83705577261E+03  0.86928360315E+03  0.00000000000E+00 0. -1.
          3    1    5    5  503    0 -0.10718855254E+03  0.22929202799E+03 -0.20015543229E+02  0.25389927504E+03  0.00000000000E+00 0. -1.
         -4    1    5    5    0  503  0.93104634566E+01  0.55055556065E+01 -0.87203682242E+01  0.13893908531E+02  0.00000000000E+00 0.  1.
         -1    1    6    6    0  502 -0.14540126315E+01 -0.10963676495E+03 -0.40872464210E+03  0.42317628412E+03  0.00000000000E+00 0.  1.
<mgrwt>
<rscale>  0 0.11567843E+04</rscale>
<asrwt>0</asrwt>
<pdfrwt beam="1">  1        1 0.22445397E+00 0.11567843E+04</pdfrwt>
<pdfrwt beam="2">  1       -1 0.35276931E-01 0.11567843E+04</pdfrwt>
<totfact> 0.53042243E+01</totfact>
</mgrwt>
</event>
<event>
12    1  0.1477245E-007  0.1398355E+04  0.7818608E-02  0.8955010E-01
          2   -1    0    0  501    0  0.00000000000E+00  0.00000000000E+00  0.27535849267E+03  0.27535849267E+03  0.00000000000E+00 0. -1.
         -2   -1    0    0    0  501 -0.00000000000E+00 -0.00000000000E+00 -0.17753183658E+04  0.17753183658E+04  0.00000000000E+00 0.  1.
         23    2    1    2    0    0 -0.10246030897E+03 -0.11458724389E+03 -0.99778903943E+03  0.10136173169E+04  0.90602132596E+02 0.  0.
        254    2    1    2    0    0  0.10246030897E+03  0.11458724389E+03 -0.50217083369E+03  0.10370595416E+04  0.89425309351E+03 0.  0.
        -24    2    4    4    0    0  0.24763670923E+03 -0.31112531254E+03 -0.76609784398E+02  0.41295034930E+03  0.80845729981E+02 0.  0.
         24    2    4    4    0    0 -0.14517640026E+03  0.42571255643E+03 -0.42556104930E+03  0.62410919231E+03  0.78119839705E+02 0.  0.
         11    1    3    3    0    0 -0.16397610234E+02 -0.63286454886E+02 -0.59385591350E+03  0.59744364002E+03  0.00000000000E+00 0. -1.
        -11    1    3    3    0    0 -0.86062698740E+02 -0.51300789003E+02 -0.40393312593E+03  0.41617367683E+03  0.00000000000E+00 0.  1.
          4    1    6    6  502    0 -0.24270154600E+02  0.83594833688E+02 -0.43901697358E+02  0.97491002941E+02  0.00000000000E+00 0. -1.
          1    1    5    5  503    0  0.77436134489E+02 -0.66379667144E+02 -0.50189981686E+02  0.11367343312E+03  0.00000000000E+00 0. -1.
         -2    1    5    5    0  503  0.17020057475E+03 -0.24474564539E+03 -0.26419802712E+02  0.29927691618E+03  0.00000000000E+00 0.  1.
         -3    1    6    6    0  502 -0.12090624566E+03  0.34211772274E+03 -0.38165935194E+03  0.52661818937E+03  0.00000000000E+00 0.  1.
<mgrwt>
<rscale>  0 0.13983547E+04</rscale>
<asrwt>0</asrwt>
<pdfrwt beam="1">  1        2 0.42362845E-01 0.13983547E+04</pdfrwt>
<pdfrwt beam="2">  1       -2 0.27312590E+00 0.13983547E+04</pdfrwt>
<totfact> 0.54695655E+00</totfact>
</mgrwt>
</event>
<event>
12    1  0.1477245E-007  0.1379041E+04  0.7818608E-02  0.8969131E-01
          1   -1    0    0  501    0  0.00000000000E+00  0.00000000000E+00  0.37909732866E+04  0.37909732866E+04  0.00000000000E+00 0. -1.
         -1   -1    0    0    0  501 -0.00000000000E+00 -0.00000000000E+00 -0.12541323051E+03  0.12541323051E+03  0.00000000000E+00 0.  1.
         23    2    1    2    0    0  0.22430139706E+03  0.28418431491E+03  0.14930410648E+04  0.15390998875E+04  0.92655279056E+02 0.  0.
        254    2    1    2    0    0 -0.22430139706E+03 -0.28418431491E+03  0.21725189912E+04  0.23772866296E+04  0.89475198272E+03 0.  0.
        -24    2    4    4    0    0 -0.33213433038E+03 -0.39692040292E+03  0.60407335149E+03  0.79904705443E+03  0.75581489363E+02 0.  0.
         24    2    4    4    0    0  0.10783293332E+03  0.11273608802E+03  0.15684456397E+04  0.15782395752E+04  0.80505061107E+02 0.  0.
         13    1    3    3    0    0  0.18810627527E+03  0.27308466106E+03  0.13981533470E+04  0.14369384067E+04  0.00000000000E+00 0. -1.
        -13    1    3    3    0    0  0.36195121787E+02  0.11099653846E+02  0.94887717837E+02  0.10216148077E+03  0.00000000000E+00 0.  1.
          4    1    6    6  502    0 -0.37472634091E+01  0.17819496965E+02  0.60122797507E+02  0.62819799707E+02  0.00000000000E+00 0. -1.
          1    1    5    5  503    0 -0.54910628882E+02 -0.91007223681E+02  0.86820867893E+02  0.13724195797E+03  0.00000000000E+00 0. -1.
         -2    1    5    5    0  503 -0.27722370149E+03 -0.30591317924E+03  0.51725248360E+03  0.66180509645E+03  0.00000000000E+00 0.  1.
         -3    1    6    6    0  502  0.11158019673E+03  0.94916591050E+02  0.15083228422E+04  0.15154197755E+04  0.00000000000E+00 0.  1.
<mgrwt>
<rscale>  0 0.13790405E+04</rscale>
<asrwt>0</asrwt>
<pdfrwt beam="1">  1        1 0.58322657E+00 0.13790405E+04</pdfrwt>
<pdfrwt beam="2">  1       -1 0.19294346E-01 0.13790405E+04</pdfrwt>
<totfact> 0.31395880E+00</totfact>
</mgrwt>
</event>
<event>
12    1  0.2331122E-007  0.1701633E+04  0.7818608E-02  0.8760434E-01
          2   -1    0    0  501    0  0.00000000000E+00  0.00000000000E+00  0.18609957749E+04  0.18609957749E+04  0.00000000000E+00 0.  1.
         -2   -1    0    0    0  501 -0.00000000000E+00 -0.00000000000E+00 -0.38897926801E+03  0.38897926801E+03  0.00000000000E+00 0. -1.
         23    2    1    2    0    0  0.25991815833E+03  0.54942736310E+03  0.49472900272E+03  0.78929133783E+03  0.93787810976E+02 0.  0.
        254    2    1    2    0    0 -0.25991815833E+03 -0.54942736310E+03  0.97728750413E+03  0.14606837050E+04  0.89948771203E+03 0.  0.
        -24    2    4    4    0    0 -0.36036949512E+03 -0.72648273123E+03  0.93057882771E+03  0.12369101811E+04  0.79539359367E+02 0.  0.
         24    2    4    4    0    0  0.10045133679E+03  0.17705536812E+03  0.46708676418E+02  0.22377352396E+03  0.80335640462E+02 0.  0.
         11    1    3    3    0    0  0.23898642666E+03  0.47731089708E+03  0.39307365821E+03  0.66290806706E+03  0.00000000000E+00 0. -1.
        -11    1    3    3    0    0  0.20931731670E+02  0.72116466025E+02  0.10165534452E+03  0.12638327077E+03  0.00000000000E+00 0.  1.
          2    1    6    6  502    0  0.11160712410E+03  0.17201001023E+03  0.37483124023E+02  0.20844322574E+03  0.00000000000E+00 0. -1.
          1    1    5    5  503    0 -0.36328670374E+03 -0.70475035569E+03  0.90347128700E+03  0.12020443666E+04  0.00000000000E+00 0. -1.
         -2    1    5    5    0  503  0.29172086144E+01 -0.21732375534E+02  0.27107540708E+02  0.34865814427E+02  0.00000000000E+00 0.  1.
         -1    1    6    6    0  502 -0.11155787305E+02  0.50453578951E+01  0.92255523959E+01  0.15330298226E+02  0.00000000000E+00 0.  1.
<mgrwt>
<rscale>  0 0.17016331E+04</rscale>
<asrwt>0</asrwt>
<pdfrwt beam="1">  1        2 0.28630704E+00 0.17016331E+04</pdfrwt>
<pdfrwt beam="2">  1       -2 0.59842965E-01 0.17016331E+04</pdfrwt>
<totfact> 0.19776287E+01</totfact>
</mgrwt>
</event>
<event>
12    1  0.1477245E-007  0.1484461E+04  0.7818608E-02  0.8894853E-01
          1   -1    0    0  501    0  0.00000000000E+00  0.00000000000E+00  0.29661517628E+03  0.29661517628E+03  0.00000000000E+00 0. -1.
         -1   -1    0    0    0  501 -0.00000000000E+00 -0.00000000000E+00 -0.18573081357E+04  0.18573081357E+04  0.00000000000E+00 0.  1.
         23    2    1    2    0    0 -0.37489608573E+03 -0.16052102138E+03 -0.80966223185E+03  0.91116581502E+03  0.91411921331E+02 0.  0.
        254    2    1    2    0    0  0.37489608573E+03  0.16052102138E+03 -0.75103072762E+03  0.12427574970E+04  0.90226657323E+03 0.  0.
        -24    2    4    4    0    0  0.48844294178E+03 -0.96345334433E+02 -0.78900357015E+02  0.51018626192E+03  0.78777056800E+02 0.  0.
         24    2    4    4    0    0 -0.11354685605E+03  0.25686635582E+03 -0.67213037060E+03  0.73257123509E+03  0.77641265650E+02 0.  0.
         13    1    3    3    0    0 -0.66101134872E+02 -0.42199566238E+02 -0.91385792375E+02  0.12042228394E+03  0.00000000000E+00 0. -1.
        -13    1    3    3    0    0 -0.30879495086E+03 -0.11832145515E+03 -0.71827643948E+03  0.79074353107E+03  0.00000000000E+00 0.  1.
          2    1    6    6  502    0 -0.11804878102E+03  0.20778135344E+03 -0.59303782267E+03  0.63937662191E+03  0.00000000000E+00 0. -1.
          3    1    5    5  503    0  0.14573667467E+03 -0.65172897794E+02 -0.17082834912E+02  0.16055686905E+03  0.00000000000E+00 0. -1.
         -4    1    5    5    0  503  0.34270626711E+03 -0.31172436639E+02 -0.61817522103E+02  0.34962939288E+03  0.00000000000E+00 0.  1.
         -1    1    6    6    0  502  0.45019249671E+01  0.49085002379E+02 -0.79092547935E+02  0.93194613180E+02  0.00000000000E+00 0.  1.
<mgrwt>
<rscale>  0 0.14844605E+04</rscale>
<asrwt>0</asrwt>
<pdfrwt beam="1">  1        1 0.45633105E-01 0.14844605E+04</pdfrwt>
<pdfrwt beam="2">  1       -1 0.28573971E+00 0.14844605E+04</pdfrwt>
<totfact> 0.35284817E+00</totfact>
</mgrwt>
</event>
<event>
12    1  0.1477245E-007  0.2086689E+04  0.7818608E-02  0.8567130E-01
         -2   -1    0    0    0  501 -0.00000000000E+00  0.00000000000E+00  0.41565373779E+03  0.41565373779E+03  0.00000000000E+00 0.  1.
          2   -1    0    0  501    0  0.00000000000E+00 -0.00000000000E+00 -0.26189283849E+04  0.26189283849E+04  0.00000000000E+00 0. -1.
         23    2    1    2    0    0  0.12791046098E+03  0.40115881239E+03 -0.19564872598E+04  0.20033917256E+04  0.91905001686E+02 0.  0.
        254    2    1    2    0    0 -0.12791046098E+03 -0.40115881239E+03 -0.24678738724E+03  0.10311903971E+04  0.90838325710E+03 0.  0.
        -24    2    4    4    0    0  0.74693615949E+02  0.11884586491E+03  0.23785212661E+03  0.28786934101E+03  0.81188961647E+02 0.  0.
         24    2    4    4    0    0 -0.20260407693E+03 -0.52000467730E+03 -0.48463951385E+03  0.74332105608E+03  0.78723932986E+02 0.  0.
         13    1    3    3    0    0  0.39078316135E+02  0.30031849329E+02 -0.21209823405E+03  0.21774913927E+03  0.00000000000E+00 0.  1.
        -13    1    3    3    0    0  0.88832144848E+02  0.37112696306E+03 -0.17443890258E+04  0.17856425863E+04  0.00000000000E+00 0. -1.
          2    1    6    6  502    0 -0.60470346349E+02 -0.20039492451E+03 -0.22778112369E+03  0.30935259634E+03  0.00000000000E+00 0. -1.
          1    1    5    5  503    0  0.13715225676E+02 -0.85355391503E+01  0.51979788735E+02  0.54432171378E+02  0.00000000000E+00 0. -1.
         -2    1    5    5    0  503  0.60978390273E+02  0.12738140406E+03  0.18587233787E+03  0.23343716964E+03  0.00000000000E+00 0.  1.
         -1    1    6    6    0  502 -0.14213373058E+03 -0.31960975280E+03 -0.25685839016E+03  0.43396845974E+03  0.00000000000E+00 0.  1.
<mgrwt>
<rscale>  0 0.20866886E+04</rscale>
<asrwt>0</asrwt>
<pdfrwt beam="1">  1        2 0.40291206E+00 0.20866886E+04</pdfrwt>
<pdfrwt beam="2">  1       -2 0.63946728E-01 0.20866886E+04</pdfrwt>
<totfact> 0.61911909E+00</totfact>
</mgrwt>
</event>
<event>
12    1  0.1477245E-007  0.1678472E+04  0.7818608E-02  0.8773739E-01
         -2   -1    0    0    0  501 -0.00000000000E+00  0.00000000000E+00  0.45417193113E+03  0.45417193113E+03  0.00000000000E+00 0.  1.
          2   -1    0    0  501    0  0.00000000000E+00 -0.00000000000E+00 -0.15507720195E+04  0.15507720195E+04  0.00000000000E+00 0. -1.
         23    2    1    2    0    0 -0.18559364250E+03 -0.16635878271E+02  0.28364231279E+03  0.34533368967E+03  0.63879911013E+02 0.  0.
        254    2    1    2    0    0  0.18559364250E+03  0.16635878271E+02 -0.13802424011E+04  0.16596102609E+04  0.90250505800E+03 0.  0.
        -24    2    4    4    0    0  0.14292971502E+03 -0.36021644146E+03 -0.25688411069E+03  0.47135007025E+03  0.77438067303E+02 0.  0.
         24    2    4    4    0    0  0.42663927488E+02  0.37685231973E+03 -0.11233582904E+04  0.11882601907E+04  0.78680051189E+02 0.  0.
         13    1    3    3    0    0 -0.23798133047E+02  0.16182879673E+02  0.67308010478E+02  0.73202493165E+02  0.00000000000E+00 0. -1.
        -13    1    3    3    0    0 -0.16179550946E+03 -0.32818757944E+02  0.21633430231E+03  0.27213119651E+03  0.00000000000E+00 0.  1.
          4    1    6    6  502    0  0.42963818413E+02  0.31503889466E+03 -0.10135140767E+04  0.10622175758E+04  0.00000000000E+00 0. -1.
          3    1    5    5  503    0  0.13810465444E+03 -0.35762086914E+03 -0.23695346305E+03  0.45068006975E+03  0.00000000000E+00 0. -1.
         -4    1    5    5    0  503  0.48250605785E+01 -0.25955723203E+01 -0.19930647637E+02  0.20670000496E+02  0.00000000000E+00 0.  1.
         -3    1    6    6    0  502 -0.29989092456E+00  0.61813425068E+02 -0.10984421377E+03  0.12604261482E+03  0.00000000000E+00 0.  1.
<mgrwt>
<rscale>  0 0.16784721E+04</rscale>
<asrwt>0</asrwt>
<pdfrwt beam="1">  1        2 0.23858030E+00 0.16784721E+04</pdfrwt>
<pdfrwt beam="2">  1       -2 0.69872607E-01 0.16784721E+04</pdfrwt>
<totfact> 0.21139102E+01</totfact>
</mgrwt>
</event>
<event>
12    1  0.1477245E-007  0.3248505E+04  0.7818608E-02  0.8176123E-01
          1   -1    0    0  501    0  0.00000000000E+00  0.00000000000E+00  0.30099932015E+04  0.30099932015E+04  0.00000000000E+00 0. -1.
         -1   -1    0    0    0  501 -0.00000000000E+00 -0.00000000000E+00 -0.87647900139E+03  0.87647900139E+03  0.00000000000E+00 0.  1.
         23    2    1    2    0    0  0.41861399621E+03 -0.46750765068E+03 -0.64186557394E+03  0.90312172994E+03  0.99178439237E+02 0.  0.
        254    2    1    2    0    0 -0.41861399621E+03  0.46750765068E+03  0.27753797740E+04  0.29833504729E+04  0.89657463324E+03 0.  0.
        -24    2    4    4    0    0  0.19893428946E+02  0.15089555201E+03  0.18338312367E+02  0.17259373184E+03  0.79291149815E+02 0.  0.
         24    2    4    4    0    0 -0.43850742516E+03  0.31661209867E+03  0.27570414617E+04  0.28107567411E+04  0.80894086905E+02 0.  0.
         11    1    3    3    0    0  0.27542523570E+03 -0.33842145357E+03 -0.50090319148E+03  0.66429823719E+03  0.00000000000E+00 0.  1.
        -11    1    3    3    0    0  0.14318876051E+03 -0.12908619711E+03 -0.14096238246E+03  0.23882349275E+03  0.00000000000E+00 0. -1.
          4    1    6    6  502    0 -0.39457223666E+03  0.31021995441E+03  0.24957710494E+04  0.25457409139E+04  0.00000000000E+00 0. -1.
          3    1    5    5  503    0 -0.17248475733E+02  0.12484603524E+03  0.17316359883E+02  0.12721595321E+03  0.00000000000E+00 0. -1.
         -4    1    5    5    0  503  0.37141904679E+02  0.26049516770E+02  0.10219524849E+01  0.45377778636E+02  0.00000000000E+00 0.  1.
         -1    1    6    6    0  502 -0.43935188494E+02  0.63921442620E+01  0.26127041231E+03  0.26501582716E+03  0.00000000000E+00 0.  1.
<mgrwt>
<rscale>  0 0.32485048E+04</rscale>
<asrwt>0</asrwt>
<pdfrwt beam="1">  1        1 0.46307587E+00 0.32485048E+04</pdfrwt>
<pdfrwt beam="2">  1       -1 0.13484293E+00 0.32485048E+04</pdfrwt>
<totfact> 0.22607839E-01</totfact>
</mgrwt>
</event>
<event>
12    1  0.1477245E-007  0.1583454E+04  0.7818608E-02  0.8830778E-01
         -2   -1    0    0    0  501 -0.00000000000E+00  0.00000000000E+00  0.46468542894E+03  0.46468542894E+03  0.00000000000E+00 0.  1.
          2   -1    0    0  501    0  0.00000000000E+00 -0.00000000000E+00 -0.13489370269E+04  0.13489370269E+04  0.00000000000E+00 0. -1.
         23    2    1    2    0    0  0.15587704987E+03 -0.13365494154E+02  0.28285596412E+03  0.33620210605E+03  0.92455765425E+02 0.  0.
        254    2    1    2    0    0 -0.15587704987E+03  0.13365494154E+02 -0.11671075621E+04  0.14774203498E+04  0.89227492255E+03 0.  0.
        -24    2    4    4    0    0 -0.41759424458E+03  0.27011521765E+03 -0.48846696137E+03  0.70153708284E+03  0.78785292655E+02 0.  0.
         24    2    4    4    0    0  0.26171719471E+03 -0.25674972350E+03 -0.67864060070E+03  0.77588326695E+03  0.83818067755E+02 0.  0.
         11    1    3    3    0    0  0.30871926673E+02  0.16343307835E+02  0.13899218699E+03  0.14331436639E+03  0.00000000000E+00 0. -1.
        -11    1    3    3    0    0  0.12500512320E+03 -0.29708801990E+02  0.14386377713E+03  0.19288773966E+03  0.00000000000E+00 0.  1.
          2    1    6    6  502    0  0.33719911225E+02 -0.68367269171E+02 -0.97019820475E+02  0.12338541839E+03  0.00000000000E+00 0. -1.
          3    1    5    5  503    0 -0.21580637954E+03  0.14828321848E+03 -0.31061123009E+03  0.40625071395E+03  0.00000000000E+00 0. -1.
         -4    1    5    5    0  503 -0.20178786504E+03  0.12183199917E+03 -0.17785573128E+03  0.29528636889E+03  0.00000000000E+00 0.  1.
         -1    1    6    6    0  502  0.22799728348E+03 -0.18838245433E+03 -0.58162078023E+03  0.65249784856E+03  0.00000000000E+00 0.  1.
<mgrwt>
<rscale>  0 0.15834537E+04</rscale>
<asrwt>0</asrwt>
<pdfrwt beam="1">  1        2 0.20752877E+00 0.15834537E+04</pdfrwt>
<pdfrwt beam="2">  1       -2 0.71490067E-01 0.15834537E+04</pdfrwt>
<totfact> 0.26389331E+01</totfact>
</mgrwt>
</event>
<event>
12    1  0.1477245E-007  0.2022104E+04  0.7818608E-02  0.8596355E-01
          2   -1    0    0  501    0  0.00000000000E+00  0.00000000000E+00  0.52301963035E+04  0.52301963035E+04  0.00000000000E+00 0.  1.
         -2   -1    0    0    0  501 -0.00000000000E+00 -0.00000000000E+00 -0.19544700706E+03  0.19544700706E+03  0.00000000000E+00 0. -1.
         23    2    1    2    0    0 -0.36830965052E+03  0.62909416158E+03  0.10636146596E+04  0.12927459350E+04  0.92219551536E+02 0.  0.
        254    2    1    2    0    0  0.36830965052E+03 -0.62909416158E+03  0.39711346369E+04  0.41328973755E+04  0.88290370350E+03 0.  0.
        -24    2    4    4    0    0  0.44365692063E+03 -0.15068902907E+03  0.85453223809E+03  0.97785629938E+03  0.80243065730E+02 0.  0.
         24    2    4    4    0    0 -0.75347270116E+02 -0.47840513251E+03  0.31166023988E+04  0.31550410761E+04  0.80777460466E+02 0.  0.
         13    1    3    3    0    0 -0.33334297276E+03  0.60857433435E+03  0.10136817468E+04  0.12284262052E+04  0.00000000000E+00 0. -1.
        -13    1    3    3    0    0 -0.34966677762E+02  0.20519827230E+02  0.49932912800E+02  0.64319729819E+02  0.00000000000E+00 0.  1.
          4    1    6    6  502    0 -0.32405210410E+02 -0.28821220492E+03  0.20971776741E+04  0.21171373525E+04  0.00000000000E+00 0. -1.
          1    1    5    5  503    0  0.43627012105E+03 -0.13380963314E+03  0.83003330166E+03  0.94720215282E+03  0.00000000000E+00 0. -1.
         -2    1    5    5    0  503  0.73867995849E+01 -0.16879395937E+02  0.24498936420E+02  0.30654146555E+02  0.00000000000E+00 0.  1.
         -3    1    6    6    0  502 -0.42942059706E+02 -0.19019292759E+03  0.10194247247E+04  0.10379037236E+04  0.00000000000E+00 0.  1.
<mgrwt>
<rscale>  0 0.20221041E+04</rscale>
<asrwt>0</asrwt>
<pdfrwt beam="1">  1        2 0.80464548E+00 0.20221041E+04</pdfrwt>
<pdfrwt beam="2">  1       -2 0.30068774E-01 0.20221041E+04</pdfrwt>
<totfact> 0.16244408E-01</totfact>
</mgrwt>
</event>
<event>
12    1  0.1477245E-007  0.1248134E+04  0.7818608E-02  0.9071738E-01
          2   -1    0    0  501    0  0.00000000000E+00  0.00000000000E+00  0.68007720393E+03  0.68007720393E+03  0.00000000000E+00 0. -1.
         -2   -1    0    0    0  501 -0.00000000000E+00 -0.00000000000E+00 -0.57266964249E+03  0.57266964249E+03  0.00000000000E+00 0.  1.
         23    2    1    2    0    0 -0.24254379427E+02  0.22380920634E+03 -0.17658008635E+03  0.29964957266E+03  0.89053375747E+02 0.  0.
        254    2    1    2    0    0  0.24254379427E+02 -0.22380920634E+03  0.28398764779E+03  0.95309727377E+03  0.88151380783E+03 0.  0.
        -24    2    4    4    0    0 -0.23388670332E+03  0.25578777024E+03  0.74747561653E+02  0.36358879478E+03  0.80493728460E+02 0.  0.
         24    2    4    4    0    0  0.25814108274E+03 -0.47959697658E+03  0.20924008613E+03  0.58950847899E+03  0.84194742162E+02 0.  0.
         11    1    3    3    0    0 -0.57666567273E+02  0.14139465423E+03 -0.10258001976E+03  0.18395798890E+03  0.00000000000E+00 0. -1.
        -11    1    3    3    0    0  0.33412187846E+02  0.82414552116E+02 -0.74000066595E+02  0.11569158376E+03  0.00000000000E+00 0.  1.
          4    1    6    6  502    0  0.17361633524E+03 -0.39417226140E+03  0.17068689675E+03  0.46330165146E+03  0.00000000000E+00 0. -1.
          1    1    5    5  503    0 -0.29130750268E+02  0.43391679284E+02 -0.16455586063E+02  0.54792561128E+02  0.00000000000E+00 0. -1.
         -2    1    5    5    0  503 -0.20475595305E+03  0.21239609096E+03  0.91203147717E+02  0.30879623365E+03  0.00000000000E+00 0.  1.
         -3    1    6    6    0  502  0.84524747501E+02 -0.85424715179E+02  0.38553189386E+02  0.12620682753E+03  0.00000000000E+00 0.  1.
<mgrwt>
<rscale>  0 0.12481339E+04</rscale>
<asrwt>0</asrwt>
<pdfrwt beam="1">  1        2 0.10462726E+00 0.12481339E+04</pdfrwt>
<pdfrwt beam="2">  1       -2 0.88103022E-01 0.12481339E+04</pdfrwt>
<totfact> 0.46415246E+01</totfact>
</mgrwt>
</event>
<event>
12    1  0.1477245E-007  0.1905703E+04  0.7818608E-02  0.8652023E-01
          2   -1    0    0  501    0  0.00000000000E+00  0.00000000000E+00  0.21686627195E+04  0.21686627195E+04  0.00000000000E+00 0. -1.
         -2   -1    0    0    0  501 -0.00000000000E+00 -0.00000000000E+00 -0.41865713848E+03  0.41865713848E+03  0.00000000000E+00 0.  1.
         23    2    1    2    0    0 -0.48564257339E+03 -0.38552150173E+03  0.12196744743E+04  0.13709193213E+04  0.85664607428E+02 0.  0.
        254    2    1    2    0    0  0.48564257339E+03  0.38552150173E+03  0.53033110671E+03  0.12164005366E+04  0.90216608526E+03 0.  0.
        -24    2    4    4    0    0 -0.12662364122E+03  0.31267521175E+03  0.48079952669E+03  0.59263417568E+03  0.79042689502E+02 0.  0.
         24    2    4    4    0    0  0.61226621461E+03  0.72846289979E+02  0.49531580018E+02  0.62376636095E+03  0.80340501107E+02 0.  0.
         13    1    3    3    0    0 -0.20908567871E+03 -0.20794104299E+03  0.63699957339E+03  0.70194355535E+03  0.00000000000E+00 0.  1.
        -13    1    3    3    0    0 -0.27655689468E+03 -0.17758045874E+03  0.58267490091E+03  0.66897576598E+03  0.00000000000E+00 0. -1.
          2    1    6    6  502    0  0.75870883835E+01 -0.65506225235E+01  0.73696010177E+01  0.12441285494E+02  0.00000000000E+00 0. -1.
          1    1    5    5  503    0 -0.11003163464E+02  0.19573209918E+02  0.67908863714E+01  0.23458394882E+02  0.00000000000E+00 0. -1.
         -2    1    5    5    0  503 -0.11562047775E+03  0.29310200183E+03  0.47400864032E+03  0.56917578080E+03  0.00000000000E+00 0.  1.
         -1    1    6    6    0  502  0.60467912622E+03  0.79396912502E+02  0.42161979000E+02  0.61132507545E+03  0.00000000000E+00 0.  1.
<mgrwt>
<rscale>  0 0.19057032E+04</rscale>
<asrwt>0</asrwt>
<pdfrwt beam="1">  1        2 0.33364041E+00 0.19057032E+04</pdfrwt>
<pdfrwt beam="2">  1       -2 0.64408791E-01 0.19057032E+04</pdfrwt>
<totfact> 0.11209493E+01</totfact>
</mgrwt>
</event>
<event>
12    1  0.1477245E-007  0.2539948E+04  0.7818608E-02  0.8388891E-01
         -1   -1    0    0    0  501 -0.00000000000E+00  0.00000000000E+00  0.10021685671E+04  0.10021685671E+04  0.00000000000E+00 0.  1.
          1   -1    0    0  501    0  0.00000000000E+00 -0.00000000000E+00 -0.16093438884E+04  0.16093438884E+04  0.00000000000E+00 0. -1.
         23    2    1    2    0    0  0.67640998272E+03  0.62819220952E+03  0.36158139674E+03  0.99534069977E+03  0.88352053294E+02 0.  0.
        254    2    1    2    0    0 -0.67640998272E+03 -0.62819220952E+03 -0.96875671803E+03  0.16161717557E+04  0.90629225322E+03 0.  0.
        -24    2    4    4    0    0 -0.17620210263E+03  0.21988398306E+03 -0.32298708624E+03  0.43594585035E+03  0.79573736771E+02 0.  0.
         24    2    4    4    0    0 -0.50020788009E+03 -0.84807619258E+03 -0.64576963179E+03  0.11802259053E+04  0.80458799988E+02 0.  0.
         11    1    3    3    0    0  0.34974480810E+03  0.37724635623E+03  0.22355740459E+03  0.56090476663E+03  0.00000000000E+00 0.  1.
        -11    1    3    3    0    0  0.32666517462E+03  0.25094585330E+03  0.13802399215E+03  0.43443593314E+03  0.00000000000E+00 0. -1.
          2    1    6    6  502    0 -0.45927788504E+02 -0.92795585960E+02 -0.97612214880E+02  0.14229731910E+03  0.00000000000E+00 0. -1.
          3    1    5    5  503    0  0.10462165287E+00  0.15482731039E+02 -0.62977093741E+00  0.15495887117E+02  0.00000000000E+00 0. -1.
         -4    1    5    5    0  503 -0.17630672428E+03  0.20440125202E+03 -0.32235731530E+03  0.42044996323E+03  0.00000000000E+00 0.  1.
         -1    1    6    6    0  502 -0.45428009159E+03 -0.75528060662E+03 -0.54815741691E+03  0.10379285862E+04  0.00000000000E+00 0.  1.
<mgrwt>
<rscale>  0 0.25399479E+04</rscale>
<asrwt>0</asrwt>
<pdfrwt beam="1">  1        1 0.24759137E+00 0.25399479E+04</pdfrwt>
<pdfrwt beam="2">  1       -1 0.15417978E+00 0.25399479E+04</pdfrwt>
<totfact> 0.15762067E+00</totfact>
</mgrwt>
</event>
<event>
12    1  0.1477245E-007  0.1891840E+04  0.7818608E-02  0.8658929E-01
          1   -1    0    0  501    0  0.00000000000E+00  0.00000000000E+00  0.17071730557E+04  0.17071730557E+04  0.00000000000E+00 0. -1.
         -1   -1    0    0    0  501 -0.00000000000E+00 -0.00000000000E+00 -0.52412060627E+03  0.52412060627E+03  0.00000000000E+00 0.  1.
         23    2    1    2    0    0  0.28413029006E+03 -0.35494339658E+03 -0.19670926686E+03  0.50370740901E+03  0.91168973409E+02 0.  0.
        254    2    1    2    0    0 -0.28413029006E+03  0.35494339658E+03  0.13797617163E+04  0.17275862530E+04  0.93493156496E+03 0.  0.
        -24    2    4    4    0    0 -0.42651199339E+03 -0.17617187474E+03  0.48409102924E+03  0.67363460878E+03  0.80563339043E+02 0.  0.
         24    2    4    4    0    0  0.14238170333E+03  0.53111527132E+03  0.89567068707E+03  0.10539516442E+04  0.78943699854E+02 0.  0.
         11    1    3    3    0    0  0.23058427451E+03 -0.24599691103E+03 -0.17673159492E+03  0.38068050190E+03  0.00000000000E+00 0.  1.
        -11    1    3    3    0    0  0.53546015557E+02 -0.10894648555E+03 -0.19977671948E+02  0.12302690711E+03  0.00000000000E+00 0. -1.
          4    1    6    6  502    0  0.71947335775E+02  0.13808827458E+03  0.23133217324E+03  0.27885366248E+03  0.00000000000E+00 0. -1.
          1    1    5    5  503    0 -0.23933602716E+02 -0.33449144256E+02  0.48039020539E+02  0.63240889342E+02  0.00000000000E+00 0. -1.
         -2    1    5    5    0  503 -0.40257839068E+03 -0.14272273048E+03  0.43605200871E+03  0.61039371944E+03  0.00000000000E+00 0.  1.
         -3    1    6    6    0  502  0.70434367554E+02  0.39302699675E+03  0.66433851383E+03  0.77509798172E+03  0.00000000000E+00 0.  1.
<mgrwt>
<rscale>  0 0.18918399E+04</rscale>
<asrwt>0</asrwt>
<pdfrwt beam="1">  1        1 0.26264201E+00 0.18918399E+04</pdfrwt>
<pdfrwt beam="2">  1       -1 0.80633940E-01 0.18918399E+04</pdfrwt>
<totfact> 0.67669422E+00</totfact>
</mgrwt>
</event>
<event>
12    1  0.1477245E-007  0.1117126E+04  0.7818608E-02  0.9188658E-01
          2   -1    0    0  501    0  0.00000000000E+00  0.00000000000E+00  0.69044432791E+03  0.69044432791E+03  0.00000000000E+00 0. -1.
         -2   -1    0    0    0  501 -0.00000000000E+00 -0.00000000000E+00 -0.45187246618E+03  0.45187246618E+03  0.00000000000E+00 0.  1.
         23    2    1    2    0    0 -0.44178712532E+02 -0.18856027644E+02  0.21133771293E+03  0.23467289246E+03  0.90002384002E+02 0.  0.
        254    2    1    2    0    0  0.44178712532E+02  0.18856027644E+02  0.27234148797E+02  0.90764390163E+03  0.90596271716E+03 0.  0.
        -24    2    4    4    0    0  0.14579037936E+03  0.41178277236E+03 -0.13375954536E+03  0.46376698871E+03  0.79801738763E+02 0.  0.
         24    2    4    4    0    0 -0.10161166682E+03 -0.39292674472E+03  0.16099369416E+03  0.44387691292E+03  0.79946148863E+02 0.  0.
         13    1    3    3    0    0 -0.20190770209E+02 -0.35254310433E+02  0.28708327865E+02  0.49746373682E+02  0.00000000000E+00 0.  1.
        -13    1    3    3    0    0 -0.23987942323E+02  0.16398282788E+02  0.18262938507E+03  0.18492651877E+03  0.00000000000E+00 0. -1.
          2    1    6    6  502    0 -0.61915735445E+02 -0.33655792584E+03  0.11505281629E+03  0.36102901030E+03  0.00000000000E+00 0. -1.
          1    1    5    5  503    0  0.98117917284E+02  0.35335653073E+03 -0.12684426684E+03  0.38804307948E+03  0.00000000000E+00 0. -1.
         -2    1    5    5    0  503  0.47672462072E+02  0.58426241635E+02 -0.69152785189E+01  0.75723909226E+02  0.00000000000E+00 0.  1.
         -1    1    6    6    0  502 -0.39695931379E+02 -0.56368818876E+02  0.45940877869E+02  0.82847902622E+02  0.00000000000E+00 0.  1.
<mgrwt>
<rscale>  0 0.11171263E+04</rscale>
<asrwt>0</asrwt>
<pdfrwt beam="1">  1        2 0.10622220E+00 0.11171263E+04</pdfrwt>
<pdfrwt beam="2">  1       -2 0.69518841E-01 0.11171263E+04</pdfrwt>
<totfact> 0.78083619E+01</totfact>
</mgrwt>
</event>
<event>
12    1  0.1477245E-007  0.2195642E+04  0.7818608E-02  0.8520244E-01
          1   -1    0    0  501    0  0.00000000000E+00  0.00000000000E+00  0.26062367563E+04  0.26062367563E+04  0.00000000000E+00 0. -1.
         -1   -1    0    0    0  501 -0.00000000000E+00 -0.00000000000E+00 -0.46243345199E+03  0.46243345199E+03  0.00000000000E+00 0.  1.
         23    2    1    2    0    0 -0.13489255669E+03 -0.88958425622E+03  0.10393407962E+04  0.13781597047E+04  0.97666422340E+02 0.  0.
        254    2    1    2    0    0  0.13489255669E+03  0.88958425622E+03  0.11044625081E+04  0.16905105036E+04  0.91018249840E+03 0.  0.
        -24    2    4    4    0    0  0.13525483707E+03  0.88984206252E+03  0.12396272327E+04  0.15340685571E+04  0.81104220570E+02 0.  0.
         24    2    4    4    0    0 -0.36228037769E+00 -0.25780630878E+00 -0.13516472460E+03  0.15644194657E+03  0.78767900569E+02 0.  0.
         13    1    3    3    0    0  0.12988015291E+02 -0.73496139948E+02  0.68693732466E+02  0.10143569396E+03  0.00000000000E+00 0.  1.
        -13    1    3    3    0    0 -0.14788057198E+03 -0.81608811627E+03  0.97064706377E+03  0.12767240107E+04  0.00000000000E+00 0. -1.
          2    1    6    6  502    0 -0.21725192559E+02 -0.32843178290E+02 -0.59803355366E+02  0.71603768511E+02  0.00000000000E+00 0. -1.
          1    1    5    5  503    0  0.53307574299E+02  0.14834420740E+03  0.20928927021E+03  0.26201087758E+03  0.00000000000E+00 0. -1.
         -2    1    5    5    0  503  0.81947262770E+02  0.74149785513E+03  0.10303379625E+04  0.12720576795E+04  0.00000000000E+00 0.  1.
         -1    1    6    6    0  502  0.21362912181E+02  0.32585371981E+02 -0.75361369230E+02  0.84838178058E+02  0.00000000000E+00 0.  1.
<mgrwt>
<rscale>  0 0.21956421E+04</rscale>
<asrwt>0</asrwt>
<pdfrwt beam="1">  1        1 0.40095949E+00 0.21956421E+04</pdfrwt>
<pdfrwt beam="2">  1       -1 0.71143610E-01 0.21956421E+04</pdfrwt>
<totfact> 0.20793050E+00</totfact>
</mgrwt>
</event>
<event>
12    1  0.1477245E-007  0.2690160E+04  0.7818608E-02  0.8338205E-01
         -1   -1    0    0    0  501 -0.00000000000E+00  0.00000000000E+00  0.25314585251E+04  0.25314585251E+04  0.00000000000E+00 0.  1.
          1   -1    0    0  501    0  0.00000000000E+00 -0.00000000000E+00 -0.71470277071E+03  0.71470277071E+03  0.00000000000E+00 0. -1.
         23    2    1    2    0    0  0.11788376648E+04 -0.15025593551E+03  0.91840909918E+03  0.15045710774E+04  0.89575484164E+02 0.  0.
        254    2    1    2    0    0 -0.11788376648E+04  0.15025593551E+03  0.89834665525E+03  0.17415902185E+04  0.90215003737E+03 0.  0.
        -24    2    4    4    0    0 -0.72301296384E+03  0.39122196054E+03  0.89771629034E+03  0.12199471458E+04  0.81081022935E+02 0.  0.
         24    2    4    4    0    0 -0.45582470096E+03 -0.24096602503E+03  0.63036490658E+00  0.52164307267E+03  0.79185318616E+02 0.  0.
         11    1    3    3    0    0  0.23549189695E+03 -0.40428128926E+02  0.22950337212E+03  0.33130448978E+03  0.00000000000E+00 0.  1.
        -11    1    3    3    0    0  0.94334576785E+03 -0.10982780658E+03  0.68890572706E+03  0.11732665876E+04  0.00000000000E+00 0. -1.
          2    1    6    6  502    0 -0.41831425450E+03 -0.19595401251E+03 -0.10245171066E+02  0.46204951474E+03  0.00000000000E+00 0. -1.
          3    1    5    5  503    0 -0.10708636493E+03  0.60769721725E+02  0.18022702047E+03  0.21827099565E+03  0.00000000000E+00 0. -1.
         -4    1    5    5    0  503 -0.61592659891E+03  0.33045223881E+03  0.71748926987E+03  0.10016761501E+04  0.00000000000E+00 0.  1.
         -1    1    6    6    0  502 -0.37510446454E+02 -0.45012012525E+02  0.10875535973E+02  0.59593557936E+02  0.00000000000E+00 0.  1.
<mgrwt>
<rscale>  0 0.26901602E+04</rscale>
<asrwt>0</asrwt>
<pdfrwt beam="1">  1        1 0.10995427E+00 0.26901602E+04</pdfrwt>
<pdfrwt beam="2">  1       -1 0.38945515E+00 0.26901602E+04</pdfrwt>
<totfact> 0.19464605E-01</totfact>
</mgrwt>
</event>
<event>
12    1  0.1477245E-007  0.2018816E+04  0.7818608E-02  0.8597874E-01
          2   -1    0    0  501    0  0.00000000000E+00  0.00000000000E+00  0.11208282442E+04  0.11208282442E+04  0.00000000000E+00 0. -1.
         -2   -1    0    0    0  501 -0.00000000000E+00 -0.00000000000E+00 -0.90906358760E+03  0.90906358760E+03  0.00000000000E+00 0.  1.
         23    2    1    2    0    0  0.34444529655E+03  0.68293129917E+03 -0.18917852124E+03  0.79291301401E+03  0.88796470550E+02 0.  0.
        254    2    1    2    0    0 -0.34444529655E+03 -0.68293129917E+03  0.40094317783E+03  0.12369788178E+04  0.88562037132E+03 0.  0.
        -24    2    4    4    0    0 -0.41783771953E+03 -0.36195130158E+02  0.39430474105E+03  0.58115299001E+03  0.79775445308E+02 0.  0.
         24    2    4    4    0    0  0.73392422980E+02 -0.64673616901E+03  0.66384367779E+01  0.65582582777E+03  0.80058275457E+02 0.  0.
         13    1    3    3    0    0  0.29814686255E+03  0.60948532064E+03 -0.13886077854E+03  0.69256495980E+03  0.00000000000E+00 0.  1.
        -13    1    3    3    0    0  0.46298434005E+02  0.73445978526E+02 -0.50317742697E+02  0.10034805421E+03  0.00000000000E+00 0. -1.
          2    1    6    6  502    0  0.87728596230E+02 -0.53218211841E+03 -0.82114526416E+01  0.53942704947E+03  0.00000000000E+00 0. -1.
          3    1    5    5  503    0 -0.37442832641E+03 -0.57073052111E+02  0.34984049892E+03  0.51559895226E+03  0.00000000000E+00 0. -1.
         -4    1    5    5    0  503 -0.43409393127E+02  0.20877921953E+02  0.44464242135E+02  0.65554037750E+02  0.00000000000E+00 0.  1.
         -1    1    6    6    0  502 -0.14336173250E+02 -0.11455405060E+03  0.14849889419E+02  0.11639877830E+03  0.00000000000E+00 0.  1.
<mgrwt>
<rscale>  0 0.20188156E+04</rscale>
<asrwt>0</asrwt>
<pdfrwt beam="1">  1        2 0.17243511E+00 0.20188156E+04</pdfrwt>
<pdfrwt beam="2">  1       -2 0.13985594E+00 0.20188156E+04</pdfrwt>
<totfact> 0.70666864E+00</totfact>
</mgrwt>
</event>
<event>
12    1  0.1477245E-007  0.1315145E+04  0.7818608E-02  0.9017641E-01
          1   -1    0    0  501    0  0.00000000000E+00  0.00000000000E+00  0.72437204532E+03  0.72437204532E+03  0.00000000000E+00 0. -1.
         -1   -1    0    0    0  501 -0.00000000000E+00 -0.00000000000E+00 -0.59693272503E+03  0.59693272503E+03  0.00000000000E+00 0.  1.
         23    2    1    2    0    0  0.14315371168E+03 -0.30102822221E+03  0.12330810288E+02  0.34579210905E+03  0.91154583341E+02 0.  0.
        254    2    1    2    0    0 -0.14315371168E+03  0.30102822221E+03  0.11510851000E+03  0.97551266130E+03  0.90954054750E+03 0.  0.
        -24    2    4    4    0    0 -0.92731672268E+02  0.37911560028E+03 -0.32779430758E+03  0.51589350930E+03  0.79807289398E+02 0.  0.
         24    2    4    4    0    0 -0.50422039413E+02 -0.78087378069E+02  0.44290281758E+03  0.45961915200E+03  0.80292206313E+02 0.  0.
         13    1    3    3    0    0  0.36048139747E+01 -0.71564856107E+02  0.27613972122E+02  0.76792283270E+02  0.00000000000E+00 0. -1.
        -13    1    3    3    0    0  0.13954889771E+03 -0.22946336611E+03 -0.15283161834E+02  0.26899982578E+03  0.00000000000E+00 0.  1.
          2    1    6    6  502    0 -0.23387485137E+02 -0.82853089795E+02  0.24215743082E+03  0.25700550627E+03  0.00000000000E+00 0. -1.
          1    1    5    5  503    0 -0.83296571789E+02  0.37698695119E+03 -0.30807873887E+03  0.49393318331E+03  0.00000000000E+00 0. -1.
         -2    1    5    5    0  503 -0.94351004785E+01  0.21286490976E+01 -0.19715568708E+02  0.21960325988E+02  0.00000000000E+00 0.  1.
         -1    1    6    6    0  502 -0.27034554276E+02  0.47657117267E+01  0.20074538676E+03  0.20261364573E+03  0.00000000000E+00 0.  1.
<mgrwt>
<rscale>  0 0.13151447E+04</rscale>
<asrwt>0</asrwt>
<pdfrwt beam="1">  1        1 0.11144185E+00 0.13151447E+04</pdfrwt>
<pdfrwt beam="2">  1       -1 0.91835804E-01 0.13151447E+04</pdfrwt>
<totfact> 0.29319020E+01</totfact>
</mgrwt>
</event>
<event>
12    1  0.1477245E-007  0.3296267E+04  0.7818608E-02  0.8163846E-01
          1   -1    0    0  501    0  0.00000000000E+00  0.00000000000E+00  0.19367675648E+04  0.19367675648E+04  0.00000000000E+00 0. -1.
         -1   -1    0    0    0  501 -0.00000000000E+00 -0.00000000000E+00 -0.14025144912E+04  0.14025144912E+04  0.00000000000E+00 0.  1.
         23    2    1    2    0    0  0.13956894997E+04  0.51531001298E+03  0.58667471027E+03  0.16018426349E+04  0.90658824355E+02 0.  0.
        254    2    1    2    0    0 -0.13956894997E+04 -0.51531001298E+03 -0.52421636623E+02  0.17374394211E+04  0.89579803808E+03 0.  0.
        -24    2    4    4    0    0 -0.49483771238E+03  0.13561060078E+03 -0.29454479078E+03  0.59690853476E+03  0.79300494661E+02 0.  0.
         24    2    4    4    0    0 -0.90085178730E+03 -0.65092061377E+03  0.24212315415E+03  0.11405308863E+04  0.83399597258E+02 0.  0.
         13    1    3    3    0    0  0.93162069913E+03  0.30922109293E+03  0.35641950918E+03  0.10443034415E+04  0.00000000000E+00 0. -1.
        -13    1    3    3    0    0  0.46406880055E+03  0.20608892005E+03  0.23025520110E+03  0.55753919346E+03  0.00000000000E+00 0.  1.
          2    1    6    6  502    0 -0.36566136531E+03 -0.22223435576E+03  0.11568040312E+03  0.44325872650E+03  0.00000000000E+00 0. -1.
          1    1    5    5  503    0 -0.39572346087E+03  0.13574333919E+03 -0.21848464872E+03  0.47197336084E+03  0.00000000000E+00 0. -1.
         -2    1    5    5    0  503 -0.99114251503E+02 -0.13273840292E+00 -0.76060142056E+02  0.12493517391E+03  0.00000000000E+00 0.  1.
         -1    1    6    6    0  502 -0.53519042199E+03 -0.42868625801E+03  0.12644275103E+03  0.69727215984E+03  0.00000000000E+00 0.  1.
<mgrwt>
<rscale>  0 0.32962673E+04</rscale>
<asrwt>0</asrwt>
<pdfrwt beam="1">  1        1 0.29796424E+00 0.32962673E+04</pdfrwt>
<pdfrwt beam="2">  1       -1 0.21577146E+00 0.32962673E+04</pdfrwt>
<totfact> 0.32077842E-01</totfact>
</mgrwt>
</event>
<event>
12    1  0.1477245E-007  0.1771057E+04  0.7818608E-02  0.8721844E-01
         -1   -1    0    0    0  501 -0.00000000000E+00  0.00000000000E+00  0.57701863950E+03  0.57701863950E+03  0.00000000000E+00 0.  1.
          1   -1    0    0  501    0  0.00000000000E+00 -0.00000000000E+00 -0.13589869543E+04  0.13589869543E+04  0.00000000000E+00 0. -1.
         23    2    1    2    0    0 -0.55831870714E+03  0.31837916880E+03 -0.16333312660E+03  0.66911182651E+03  0.89150727770E+02 0.  0.
        254    2    1    2    0    0  0.55831870714E+03 -0.31837916880E+03 -0.61863518817E+03  0.12668937673E+04  0.89956947903E+03 0.  0.
        -24    2    4    4    0    0  0.44370970810E+02 -0.41373587779E+03 -0.60484654295E+03  0.73848462260E+03  0.79837570584E+02 0.  0.
         24    2    4    4    0    0  0.51394773633E+03  0.95356708986E+02 -0.13788645221E+02  0.52840914466E+03  0.76098093240E+02 0.  0.
         11    1    3    3    0    0 -0.21438542645E+03  0.11521150904E+03 -0.10637311372E+03  0.26561257917E+03  0.00000000000E+00 0.  1.
        -11    1    3    3    0    0 -0.34393328069E+03  0.20316765976E+03 -0.56960012880E+02  0.40349924734E+03  0.00000000000E+00 0. -1.
          2    1    6    6  502    0  0.23230330832E+02  0.12959295901E+02 -0.15563186714E+02  0.30818896825E+02  0.00000000000E+00 0. -1.
          1    1    5    5  503    0  0.27254573030E+02 -0.13090083145E+03 -0.13637770344E+03  0.19098878873E+03  0.00000000000E+00 0. -1.
         -2    1    5    5    0  503  0.17116397780E+02 -0.28283504633E+03 -0.46846883951E+03  0.54749583387E+03  0.00000000000E+00 0.  1.
         -1    1    6    6    0  502  0.49071740550E+03  0.82397413085E+02  0.17745414937E+01  0.49759024783E+03  0.00000000000E+00 0.  1.
<mgrwt>
<rscale>  0 0.17710571E+04</rscale>
<asrwt>0</asrwt>
<pdfrwt beam="1">  1        1 0.20907491E+00 0.17710571E+04</pdfrwt>
<pdfrwt beam="2">  1       -1 0.88772100E-01 0.17710571E+04</pdfrwt>
<totfact> 0.96723242E+00</totfact>
</mgrwt>
</event>
<event>
12    1  0.1477245E-007  0.1205676E+04  0.7818608E-02  0.9107902E-01
          2   -1    0    0  501    0  0.00000000000E+00  0.00000000000E+00  0.14312961749E+04  0.14312961749E+04  0.00000000000E+00 0. -1.
         -2   -1    0    0    0  501 -0.00000000000E+00 -0.00000000000E+00 -0.25390546362E+03  0.25390546362E+03  0.00000000000E+00 0.  1.
         23    2    1    2    0    0  0.12497158767E+03  0.17661997660E+03  0.50222647122E+03  0.55432621130E+03  0.90739221270E+02 0.  0.
        254    2    1    2    0    0 -0.12497158767E+03 -0.17661997660E+03  0.67516424006E+03  0.11308754272E+04  0.88103346529E+03 0.  0.
        -24    2    4    4    0    0  0.19933069166E+03 -0.27243420110E+03 -0.26062664513E+02  0.34836346371E+03  0.82004401076E+02 0.  0.
         24    2    4    4    0    0 -0.32430227934E+03  0.95814224499E+02  0.70122690457E+03  0.78251196351E+03  0.79078867837E+02 0.  0.
         13    1    3    3    0    0  0.69337191775E+02  0.49993724691E+02  0.11608616673E+03  0.14416316027E+03  0.00000000000E+00 0.  1.
        -13    1    3    3    0    0  0.55634395897E+02  0.12662625191E+03  0.38614030449E+03  0.41016305103E+03  0.00000000000E+00 0. -1.
          2    1    6    6  502    0 -0.38480179686E+02 -0.14095805906E+02  0.88186968384E+02  0.97243803738E+02  0.00000000000E+00 0. -1.
          1    1    5    5  503    0 -0.29704451482E+01 -0.32165549755E+02 -0.10180116183E+02  0.33868582800E+02  0.00000000000E+00 0. -1.
         -2    1    5    5    0  503  0.20230113681E+03 -0.24026865135E+03 -0.15882548330E+02  0.31449488091E+03  0.00000000000E+00 0.  1.
         -1    1    6    6    0  502 -0.28582209965E+03  0.10991003040E+03  0.61303993619E+03  0.68526815977E+03  0.00000000000E+00 0.  1.
<mgrwt>
<rscale>  0 0.12056764E+04</rscale>
<asrwt>0</asrwt>
<pdfrwt beam="1">  1        2 0.22019941E+00 0.12056764E+04</pdfrwt>
<pdfrwt beam="2">  1       -2 0.39062380E-01 0.12056764E+04</pdfrwt>
<totfact> 0.84807992E+01</totfact>
</mgrwt>
</event>
<event>
12    1  0.1477245E-007  0.1806944E+04  0.7818608E-02  0.8702615E-01
         -1   -1    0    0    0  501 -0.00000000000E+00  0.00000000000E+00  0.22470868119E+03  0.22470868119E+03  0.00000000000E+00 0.  1.
          1   -1    0    0  501    0  0.00000000000E+00 -0.00000000000E+00 -0.36325324472E+04  0.36325324472E+04  0.00000000000E+00 0. -1.
         23    2    1    2    0    0 -0.35005873455E+03 -0.82181044503E+02 -0.12222181383E+03  0.39067294210E+03  0.91609683966E+02 0.  0.
        254    2    1    2    0    0  0.35005873455E+03  0.82181044503E+02 -0.32856019522E+04  0.34665681863E+04  0.10452846313E+04 0.  0.
        -24    2    4    4    0    0 -0.29128129836E+02  0.11075537030E+02 -0.29434850253E+04  0.29447722913E+04  0.81293530507E+02 0.  0.
         24    2    4    4    0    0  0.37918686439E+03  0.71105507474E+02 -0.34211692685E+03  0.52179589495E+03  0.79926797946E+02 0.  0.
         11    1    3    3    0    0 -0.21974999550E+03 -0.37130872784E+02 -0.11925266558E+03  0.25276463456E+03  0.00000000000E+00 0. -1.
        -11    1    3    3    0    0 -0.13030873905E+03 -0.45050171720E+02 -0.29691482476E+01  0.13790830753E+03  0.00000000000E+00 0.  1.
          2    1    6    6  502    0  0.36304263776E+03  0.76727403593E+02 -0.30282712609E+03  0.47894813873E+03  0.00000000000E+00 0. -1.
          3    1    5    5  503    0 -0.19936353899E+02 -0.56224802908E+01 -0.17500008143E+03  0.17622173246E+03  0.00000000000E+00 0. -1.
         -4    1    5    5    0  503 -0.91917759370E+01  0.16698017320E+02 -0.27684849439E+04  0.27685505589E+04  0.00000000000E+00 0.  1.
         -1    1    6    6    0  502  0.16144226627E+02 -0.56218961190E+01 -0.39289800761E+02  0.42847756221E+02  0.00000000000E+00 0.  1.
<mgrwt>
<rscale>  0 0.18069439E+04</rscale>
<asrwt>0</asrwt>
<pdfrwt beam="1">  1        1 0.55885115E+00 0.18069439E+04</pdfrwt>
<pdfrwt beam="2">  1       -1 0.34570566E-01 0.18069439E+04</pdfrwt>
<totfact> 0.14763100E+00</totfact>
</mgrwt>
</event>
<event>
12    1  0.1477245E-007  0.2284414E+04  0.7818608E-02  0.8484092E-01
         -1   -1    0    0    0  501 -0.00000000000E+00  0.00000000000E+00  0.16700576754E+04  0.16700576754E+04  0.00000000000E+00 0.  1.
          1   -1    0    0  501    0  0.00000000000E+00 -0.00000000000E+00 -0.78119254872E+03  0.78119254872E+03  0.00000000000E+00 0. -1.
         23    2    1    2    0    0 -0.59560798126E+03  0.62573291364E+03  0.82227287962E+03  0.11960782549E+04  0.90443112779E+02 0.  0.
        254    2    1    2    0    0  0.59560798126E+03 -0.62573291364E+03  0.66592247075E+02  0.12551719693E+04  0.90814734407E+03 0.  0.
        -24    2    4    4    0    0  0.67630440516E+03 -0.35415373051E+03 -0.26377992975E+03  0.81210581777E+03  0.84400797589E+02 0.  0.
         24    2    4    4    0    0 -0.80696423905E+02 -0.27157918313E+03  0.33037217683E+03  0.44306615151E+03  0.83034172814E+02 0.  0.
         11    1    3    3    0    0 -0.19281556980E+03  0.26354695431E+03  0.29244578147E+03  0.43835987064E+03  0.00000000000E+00 0. -1.
        -11    1    3    3    0    0 -0.40279241146E+03  0.36218595932E+03  0.52982709815E+03  0.75771838423E+03  0.00000000000E+00 0.  1.
          2    1    6    6  502    0  0.39736449670E+01 -0.11182414690E+03  0.15510876929E+03  0.19125679072E+03  0.00000000000E+00 0. -1.
          3    1    5    5  503    0  0.50543012981E+03 -0.30238566342E+03 -0.21529882318E+03  0.62709671409E+03  0.00000000000E+00 0. -1.
         -4    1    5    5    0  503  0.17087427536E+03 -0.51768067087E+02 -0.48481106565E+02  0.18500910367E+03  0.00000000000E+00 0.  1.
         -1    1    6    6    0  502 -0.84670068872E+02 -0.15975503623E+03  0.17526340753E+03  0.25180936079E+03  0.00000000000E+00 0.  1.
<mgrwt>
<rscale>  0 0.22844138E+04</rscale>
<asrwt>0</asrwt>
<pdfrwt beam="1">  1        1 0.12018347E+00 0.22844138E+04</pdfrwt>
<pdfrwt beam="2">  1       -1 0.25693195E+00 0.22844138E+04</pdfrwt>
<totfact> 0.13059538E+00</totfact>
</mgrwt>
</event>
<event>
12    1  0.1477245E-007  0.1538127E+04  0.7818608E-02  0.8859488E-01
          2   -1    0    0  501    0  0.00000000000E+00  0.00000000000E+00  0.67957271539E+03  0.67957271539E+03  0.00000000000E+00 0.  1.
         -2   -1    0    0    0  501 -0.00000000000E+00 -0.00000000000E+00 -0.87033886420E+03  0.87033886420E+03  0.00000000000E+00 0. -1.
         23    2    1    2    0    0  0.25872921109E+03 -0.37123521730E+03 -0.27258127220E+03  0.53632308667E+03  0.92658038555E+02 0.  0.
        254    2    1    2    0    0 -0.25872921109E+03  0.37123521730E+03  0.81815123394E+02  0.10135884929E+04  0.90327821148E+03 0.  0.
        -24    2    4    4    0    0 -0.57216759116E+03  0.16814804506E+03  0.16378024888E+03  0.62384964888E+03  0.81944475457E+02 0.  0.
         24    2    4    4    0    0  0.31343838007E+03  0.20308717224E+03 -0.81965125482E+02  0.38973884404E+03  0.75432533604E+02 0.  0.
         13    1    3    3    0    0  0.87086708970E+02 -0.74986227311E+02 -0.10265047253E+03  0.15409136470E+03  0.00000000000E+00 0. -1.
        -13    1    3    3    0    0  0.17164250212E+03 -0.29624898998E+03 -0.16993079967E+03  0.38223172197E+03  0.00000000000E+00 0.  1.
          4    1    6    6  502    0  0.20012873054E+03  0.13134469541E+03 -0.89130909424E+02  0.25543542592E+03  0.00000000000E+00 0. -1.
          3    1    5    5  503    0 -0.33505528495E+03  0.12646752879E+03  0.66814056654E+02  0.36430783409E+03  0.00000000000E+00 0. -1.
         -4    1    5    5    0  503 -0.23711230621E+03  0.41680516267E+02  0.96966192222E+02  0.25954181479E+03  0.00000000000E+00 0.  1.
         -3    1    6    6    0  502  0.11330964953E+03  0.71742476825E+02  0.71657839422E+01  0.13430341811E+03  0.00000000000E+00 0.  1.
<mgrwt>
<rscale>  0 0.15381268E+04</rscale>
<asrwt>0</asrwt>
<pdfrwt beam="1">  1        2 0.10454965E+00 0.15381268E+04</pdfrwt>
<pdfrwt beam="2">  1       -2 0.13389829E+00 0.15381268E+04</pdfrwt>
<totfact> 0.16502482E+01</totfact>
</mgrwt>
</event>
<event>
12    1  0.1477245E-007  0.1514245E+04  0.7818608E-02  0.8875035E-01
         -2   -1    0    0    0  501 -0.00000000000E+00  0.00000000000E+00  0.63174025986E+03  0.63174025986E+03  0.00000000000E+00 0.  1.
          2   -1    0    0  501    0  0.00000000000E+00 -0.00000000000E+00 -0.90738953240E+03  0.90738953240E+03  0.00000000000E+00 0. -1.
         23    2    1    2    0    0  0.17856254147E+03 -0.44498388707E+03 -0.11426874625E+03  0.50344565910E+03  0.10249363068E+03 0.  0.
        254    2    1    2    0    0 -0.17856254147E+03  0.44498388707E+03 -0.16138052629E+03  0.10356841332E+04  0.90371605522E+03 0.  0.
        -24    2    4    4    0    0  0.17699779569E+02  0.26270440047E+03  0.35466913079E+03  0.44881828230E+03  0.79503295325E+02 0.  0.
         24    2    4    4    0    0 -0.19626232104E+03  0.18227948660E+03 -0.51604965708E+03  0.58686585086E+03  0.79746902353E+02 0.  0.
         13    1    3    3    0    0  0.13595586804E+03 -0.33355434267E+03 -0.13037322466E+03  0.38306615001E+03  0.00000000000E+00 0. -1.
        -13    1    3    3    0    0  0.42606673433E+02 -0.11142954439E+03  0.16104478414E+02  0.12037950909E+03  0.00000000000E+00 0.  1.
          2    1    6    6  502    0 -0.45703166757E+02  0.29062762895E+02 -0.18047417385E+03  0.18842598299E+03  0.00000000000E+00 0. -1.
          3    1    5    5  503    0  0.98721636078E+00  0.23336470884E+03  0.33908587448E+03  0.41163004288E+03  0.00000000000E+00 0. -1.
         -4    1    5    5    0  503  0.16712563208E+02  0.29339691634E+02  0.15583256310E+02  0.37188239423E+02  0.00000000000E+00 0.  1.
         -1    1    6    6    0  502 -0.15055915429E+03  0.15321672370E+03 -0.33557548323E+03  0.39843986787E+03  0.00000000000E+00 0.  1.
<mgrwt>
<rscale>  0 0.15142450E+04</rscale>
<asrwt>0</asrwt>
<pdfrwt beam="1">  1        2 0.13959839E+00 0.15142450E+04</pdfrwt>
<pdfrwt beam="2">  1       -2 0.97190809E-01 0.15142450E+04</pdfrwt>
<totfact> 0.24722064E+01</totfact>
</mgrwt>
</event>
<event>
12    1  0.1477245E-007  0.2322481E+04  0.7818608E-02  0.8469109E-01
          2   -1    0    0  501    0  0.00000000000E+00  0.00000000000E+00  0.19562546636E+04  0.19562546636E+04  0.00000000000E+00 0. -1.
         -2   -1    0    0    0  501 -0.00000000000E+00 -0.00000000000E+00 -0.68931715161E+03  0.68931715161E+03  0.00000000000E+00 0.  1.
         23    2    1    2    0    0 -0.91758358518E+03  0.30391504420E+03  0.73803543260E+03  0.12195540295E+04  0.91058998133E+02 0.  0.
        254    2    1    2    0    0  0.91758358518E+03 -0.30391504420E+03  0.52890207939E+03  0.14260177858E+04  0.90524324124E+03 0.  0.
        -24    2    4    4    0    0  0.18057370601E+02 -0.31364714821E+03 -0.83835161738E+02  0.33452371882E+03  0.78595050077E+02 0.  0.
         24    2    4    4    0    0  0.89952621458E+03  0.97321040034E+01  0.61273724113E+03  0.10914940669E+04  0.81671579644E+02 0.  0.
         11    1    3    3    0    0 -0.12376422861E+03  0.43268675329E+02  0.63195211806E+02  0.14554517287E+03  0.00000000000E+00 0. -1.
        -11    1    3    3    0    0 -0.79381935657E+03  0.26064636887E+03  0.67484022080E+03  0.10740088566E+04  0.00000000000E+00 0.  1.
          2    1    6    6  502    0  0.44700839840E+03  0.39768171030E+02  0.33032258742E+03  0.55723516349E+03  0.00000000000E+00 0. -1.
          1    1    5    5  503    0  0.10111202106E+02 -0.31567900225E+02 -0.34878546801E+02  0.48117374820E+02  0.00000000000E+00 0. -1.
         -2    1    5    5    0  503  0.79461684951E+01 -0.28207924798E+03 -0.48956614937E+02  0.28640634400E+03  0.00000000000E+00 0.  1.
         -1    1    6    6    0  502  0.45251781618E+03 -0.30036067026E+02  0.28241465371E+03  0.53425890345E+03  0.00000000000E+00 0.  1.
<mgrwt>
<rscale>  0 0.23224813E+04</rscale>
<asrwt>0</asrwt>
<pdfrwt beam="1">  1        2 0.30096225E+00 0.23224813E+04</pdfrwt>
<pdfrwt beam="2">  1       -2 0.10604879E+00 0.23224813E+04</pdfrwt>
<totfact> 0.45893866E+00</totfact>
</mgrwt>
</event>
<event>
12    1  0.1477245E-007  0.1504612E+04  0.7818608E-02  0.8881392E-01
          1   -1    0    0  501    0  0.00000000000E+00  0.00000000000E+00  0.57476880940E+03  0.57476880940E+03  0.00000000000E+00 0. -1.
         -1   -1    0    0    0  501 -0.00000000000E+00 -0.00000000000E+00 -0.98468128698E+03  0.98468128698E+03  0.00000000000E+00 0.  1.
         23    2    1    2    0    0  0.14450420452E+03  0.29871538334E+03  0.23129179311E+03  0.41472454423E+03  0.91587164244E+02 0.  0.
        254    2    1    2    0    0 -0.14450420452E+03 -0.29871538334E+03 -0.64120427069E+03  0.11447255522E+04  0.88833626946E+03 0.  0.
        -24    2    4    4    0    0  0.26803443248E+03  0.15481631646E+03 -0.29952375986E+03  0.43825685656E+03  0.80895245621E+02 0.  0.
         24    2    4    4    0    0 -0.41253863700E+03 -0.45353169980E+03 -0.34168051083E+03  0.70646869559E+03  0.80456924093E+02 0.  0.
         11    1    3    3    0    0  0.11056282138E+03  0.27771252838E+03  0.17715882875E+03  0.34746746106E+03  0.00000000000E+00 0. -1.
        -11    1    3    3    0    0  0.33941383140E+02  0.21002854965E+02  0.54132964358E+02  0.67257083168E+02  0.00000000000E+00 0.  1.
          2    1    6    6  502    0 -0.83929095505E+00  0.25063290568E+01  0.11769771077E+01  0.28933319478E+01  0.00000000000E+00 0. -1.
          3    1    5    5  503    0  0.19295115689E+02  0.27711543920E+02 -0.66128785814E+02  0.74251245573E+02  0.00000000000E+00 0. -1.
         -4    1    5    5    0  503  0.24873931679E+03  0.12710477254E+03 -0.23339497405E+03  0.36400561099E+03  0.00000000000E+00 0.  1.
         -1    1    6    6    0  502 -0.41169934604E+03 -0.45603802885E+03 -0.34285748793E+03  0.70357536364E+03  0.00000000000E+00 0.  1.
<mgrwt>
<rscale>  0 0.15046117E+04</rscale>
<asrwt>0</asrwt>
<pdfrwt beam="1">  1        1 0.88425972E-01 0.15046117E+04</pdfrwt>
<pdfrwt beam="2">  1       -1 0.15148943E+00 0.15046117E+04</pdfrwt>
<totfact> 0.11968560E+01</totfact>
</mgrwt>
</event>
<event>
12    1  0.1477245E-007  0.1944545E+04  0.7818608E-02  0.8632996E-01
          1   -1    0    0  501    0  0.00000000000E+00  0.00000000000E+00  0.23206885831E+04  0.23206885831E+04  0.00000000000E+00 0. -1.
         -1   -1    0    0    0  501 -0.00000000000E+00 -0.00000000000E+00 -0.40734207613E+03  0.40734207613E+03  0.00000000000E+00 0.  1.
         23    2    1    2    0    0  0.25549542341E+03  0.67556668807E+03  0.36568341972E+03  0.81488041261E+03  0.92937946976E+02 0.  0.
        254    2    1    2    0    0 -0.25549542341E+03 -0.67556668807E+03  0.15476630873E+04  0.19131502466E+04  0.86209893464E+03 0.  0.
        -24    2    4    4    0    0 -0.28905818905E+03 -0.64887703032E+03  0.52627093627E+03  0.88770857033E+03  0.80432396075E+02 0.  0.
         24    2    4    4    0    0  0.33562765644E+02 -0.26689657750E+02  0.10213921510E+04  0.10254416763E+04  0.80311321296E+02 0.  0.
         13    1    3    3    0    0  0.87509365884E+02  0.29694508650E+03  0.20116211788E+03  0.36918893698E+03  0.00000000000E+00 0.  1.
        -13    1    3    3    0    0  0.16798605752E+03  0.37862160157E+03  0.16452130184E+03  0.44569147563E+03  0.00000000000E+00 0. -1.
          4    1    6    6  502    0 -0.40318309210E+01  0.51088950159E+01  0.72186138090E+03  0.72189071867E+03  0.00000000000E+00 0. -1.
          3    1    5    5  503    0 -0.26100439652E+03 -0.57545931118E+03  0.49670422450E+03  0.80373615102E+03  0.00000000000E+00 0. -1.
         -4    1    5    5    0  503 -0.28053792528E+02 -0.73417719138E+02  0.29566711770E+02  0.83972419303E+02  0.00000000000E+00 0.  1.
         -3    1    6    6    0  502  0.37594596565E+02 -0.31798552766E+02  0.29953077009E+03  0.30355095763E+03  0.00000000000E+00 0.  1.
<mgrwt>
<rscale>  0 0.19445453E+04</rscale>
<asrwt>0</asrwt>
<pdfrwt beam="1">  1        1 0.35702900E+00 0.19445453E+04</pdfrwt>
<pdfrwt beam="2">  1       -1 0.62668013E-01 0.19445453E+04</pdfrwt>
<totfact> 0.43374983E+00</totfact>
</mgrwt>
</event>
<event>
12    1  0.1477245E-007  0.1493640E+04  0.7818608E-02  0.8888693E-01
          2   -1    0    0  501    0  0.00000000000E+00  0.00000000000E+00  0.85572712886E+03  0.85572712886E+03  0.00000000000E+00 0. -1.
         -2   -1    0    0    0  501 -0.00000000000E+00 -0.00000000000E+00 -0.65177330760E+03  0.65177330760E+03  0.00000000000E+00 0.  1.
         23    2    1    2    0    0 -0.42479166423E+03 -0.11803925420E+03 -0.89352859095E+02  0.45868743642E+03  0.89604728526E+02 0.  0.
        254    2    1    2    0    0  0.42479166423E+03  0.11803925420E+03  0.29330668035E+03  0.10488130000E+04  0.90531689301E+03 0.  0.
        -24    2    4    4    0    0 -0.18571945294E+03  0.24514504067E+03  0.27381968160E+03  0.41906693610E+03  0.77795068842E+02 0.  0.
         24    2    4    4    0    0  0.61051111717E+03 -0.12710578646E+03  0.19486998758E+02  0.62974606394E+03  0.85560836734E+02 0.  0.
         11    1    3    3    0    0 -0.12222698910E+02 -0.43338457731E+01  0.13322043877E+02  0.18591757338E+02  0.00000000000E+00 0. -1.
        -11    1    3    3    0    0 -0.41256896532E+03 -0.11370540843E+03 -0.10267490297E+03  0.44009567909E+03  0.00000000000E+00 0.  1.
          4    1    6    6  502    0  0.32295847244E+03 -0.10724709256E+03  0.27386695825E+02  0.34140027078E+03  0.00000000000E+00 0. -1.
          1    1    5    5  503    0 -0.35214762333E+01 -0.34227215965E+01  0.17622352002E+02  0.18293799717E+02  0.00000000000E+00 0. -1.
         -4    1    5    5    0  503 -0.18219797671E+03  0.24856776226E+03  0.25619732959E+03  0.40077313638E+03  0.00000000000E+00 0.  1.
         -3    1    6    6    0  502  0.28755264473E+03 -0.19858693902E+02 -0.78996970669E+01  0.28834579316E+03  0.00000000000E+00 0.  1.
<mgrwt>
<rscale>  0 0.14936400E+04</rscale>
<asrwt>0</asrwt>
<pdfrwt beam="1">  1        2 0.13165033E+00 0.14936400E+04</pdfrwt>
<pdfrwt beam="2">  1       -2 0.10027282E+00 0.14936400E+04</pdfrwt>
<totfact> 0.24953486E+01</totfact>
</mgrwt>
</event>
<event>
12    1  0.1477245E-007  0.1375410E+04  0.7818608E-02  0.8971813E-01
         -2   -1    0    0    0  501 -0.00000000000E+00  0.00000000000E+00  0.17305021503E+03  0.17305021503E+03  0.00000000000E+00 0.  1.
          2   -1    0    0  501    0  0.00000000000E+00 -0.00000000000E+00 -0.27329544101E+04  0.27329544101E+04  0.00000000000E+00 0. -1.
         23    2    1    2    0    0  0.12179275595E+02  0.15057925781E+03  0.11284724942E+02  0.17666671943E+03  0.90891897880E+02 0.  0.
        254    2    1    2    0    0 -0.12179275595E+02 -0.15057925781E+03 -0.25711889200E+04  0.27293379057E+04  0.90302297504E+03 0.  0.
        -24    2    4    4    0    0  0.29642232972E+03  0.23334523775E+03 -0.78248321032E+03  0.87225853665E+03  0.78985965772E+02 0.  0.
         24    2    4    4    0    0 -0.30860160532E+03 -0.38392449557E+03 -0.17887057097E+04  0.18570793690E+04  0.81502748157E+02 0.  0.
         11    1    3    3    0    0  0.12057087155E+02 -0.41719583374E+01 -0.15007514420E+02  0.19697819070E+02  0.00000000000E+00 0. -1.
        -11    1    3    3    0    0  0.12218843930E+00  0.15475121615E+03  0.26292239362E+02  0.15696890036E+03  0.00000000000E+00 0.  1.
          2    1    6    6  502    0 -0.90556626828E+02 -0.17598560365E+03 -0.69551091212E+03  0.72312299385E+03  0.00000000000E+00 0. -1.
          1    1    5    5  503    0  0.16055456976E+03  0.78293069382E+02 -0.33822158104E+03  0.38249367637E+03  0.00000000000E+00 0. -1.
         -2    1    5    5    0  503  0.13586775996E+03  0.15505216837E+03 -0.44426162928E+03  0.48976486028E+03  0.00000000000E+00 0.  1.
         -1    1    6    6    0  502 -0.21804497849E+03 -0.20793889191E+03 -0.10931947976E+04  0.11339563752E+04  0.00000000000E+00 0.  1.
<mgrwt>
<rscale>  0 0.13754103E+04</rscale>
<asrwt>0</asrwt>
<pdfrwt beam="1">  1        2 0.42045452E+00 0.13754103E+04</pdfrwt>
<pdfrwt beam="2">  1       -2 0.26623110E-01 0.13754103E+04</pdfrwt>
<totfact> 0.31848618E+01</totfact>
</mgrwt>
</event>
<event>
12    1  0.1477245E-007  0.1583608E+04  0.7818608E-02  0.8830682E-01
          1   -1    0    0  501    0  0.00000000000E+00  0.00000000000E+00  0.12053806294E+04  0.12053806294E+04  0.00000000000E+00 0. -1.
         -1   -1    0    0    0  501 -0.00000000000E+00 -0.00000000000E+00 -0.52012913516E+03  0.52012913516E+03  0.00000000000E+00 0.  1.
         23    2    1    2    0    0  0.10976653722E+03  0.68496337423E+02  0.79242554843E+03  0.80806749311E+03  0.91073501581E+02 0.  0.
        254    2    1    2    0    0 -0.10976653722E+03 -0.68496337423E+02 -0.10717405415E+03  0.91744227148E+03  0.90192771478E+03 0.  0.
        -24    2    4    4    0    0  0.31563121886E+03  0.70232232058E+02  0.18125764931E+03  0.37912906348E+03  0.79554249418E+02 0.  0.
         24    2    4    4    0    0 -0.42539775608E+03 -0.13872856948E+03 -0.28843170347E+03  0.53831320800E+03  0.79871117883E+02 0.  0.
         13    1    3    3    0    0  0.61568227003E+02  0.54729572616E+02  0.24766392223E+03  0.26100458056E+03  0.00000000000E+00 0.  1.
        -13    1    3    3    0    0  0.48198310215E+02  0.13766764807E+02  0.54476162619E+03  0.54706291256E+03  0.00000000000E+00 0. -1.
          4    1    6    6  502    0 -0.91542619751E+02 -0.30897923075E+02 -0.25617603288E+02  0.99954962255E+02  0.00000000000E+00 0. -1.
          3    1    5    5  503    0  0.16724037809E+03  0.66778933577E+02  0.68268406601E+02  0.19258594283E+03  0.00000000000E+00 0. -1.
         -4    1    5    5    0  503  0.14839084077E+03  0.34532984802E+01  0.11298924271E+03  0.18654312066E+03  0.00000000000E+00 0.  1.
         -3    1    6    6    0  502 -0.33385513633E+03 -0.10783064641E+03 -0.26281410018E+03  0.43835824575E+03  0.00000000000E+00 0.  1.
<mgrwt>
<rscale>  0 0.15836080E+04</rscale>
<asrwt>0</asrwt>
<pdfrwt beam="1">  1        1 0.18544317E+00 0.15836080E+04</pdfrwt>
<pdfrwt beam="2">  1       -1 0.80019867E-01 0.15836080E+04</pdfrwt>
<totfact> 0.15863899E+01</totfact>
</mgrwt>
</event>
<event>
12    1  0.1477245E-007  0.2820646E+04  0.7818608E-02  0.8296887E-01
         -1   -1    0    0    0  501 -0.00000000000E+00  0.00000000000E+00  0.12577901502E+04  0.12577901502E+04  0.00000000000E+00 0.  1.
          1   -1    0    0  501    0  0.00000000000E+00 -0.00000000000E+00 -0.15813532228E+04  0.15813532228E+04  0.00000000000E+00 0. -1.
         23    2    1    2    0    0 -0.97421574310E-01  0.83161777712E+03 -0.11026865053E+04  0.13840906912E+04  0.90561447021E+02 0.  0.
        254    2    1    2    0    0  0.97421574310E-01 -0.83161777712E+03  0.77912343274E+03  0.14550526817E+04  0.90474131468E+03 0.  0.
        -24    2    4    4    0    0  0.37836381317E+03 -0.17774021729E+03  0.47317756506E+03  0.63613555464E+03  0.77593014156E+02 0.  0.
         24    2    4    4    0    0 -0.37826639159E+03 -0.65387755983E+03  0.30594586768E+03  0.81891712710E+03  0.79881542610E+02 0.  0.
         13    1    3    3    0    0 -0.15959591062E+02  0.48017351121E+03 -0.70488260662E+03  0.85304208485E+03  0.00000000000E+00 0. -1.
        -13    1    3    3    0    0  0.15862169488E+02  0.35144426591E+03 -0.39780389870E+03  0.53104860633E+03  0.00000000000E+00 0.  1.
          4    1    6    6  502    0 -0.32598368679E+03 -0.52152775554E+03  0.22300432820E+03  0.65420753149E+03  0.00000000000E+00 0. -1.
          3    1    5    5  503    0  0.28685260190E+03 -0.15796037227E+03  0.32875714396E+03  0.46402279483E+03  0.00000000000E+00 0. -1.
         -4    1    5    5    0  503  0.91511211272E+02 -0.19779845023E+02  0.14442042110E+03  0.17211275981E+03  0.00000000000E+00 0.  1.
         -3    1    6    6    0  502 -0.52282704802E+02 -0.13234980428E+03  0.82941539486E+02  0.16470959562E+03  0.00000000000E+00 0.  1.
<mgrwt>
<rscale>  0 0.28206457E+04</rscale>
<asrwt>0</asrwt>
<pdfrwt beam="1">  1        1 0.24328511E+00 0.28206457E+04</pdfrwt>
<pdfrwt beam="2">  1       -1 0.19350618E+00 0.28206457E+04</pdfrwt>
<totfact> 0.82941256E-01</totfact>
</mgrwt>
</event>
<event>
12    1  0.1477245E-007  0.2559325E+04  0.7818608E-02  0.8382150E-01
         -2   -1    0    0    0  501 -0.00000000000E+00  0.00000000000E+00  0.13373353987E+04  0.13373353987E+04  0.00000000000E+00 0. -1.
          2   -1    0    0  501    0  0.00000000000E+00 -0.00000000000E+00 -0.12244770675E+04  0.12244770675E+04  0.00000000000E+00 0.  1.
         23    2    1    2    0    0  0.75110272198E+03 -0.71961152736E+03  0.46694430614E+03  0.11437760782E+04  0.90502391224E+02 0.  0.
        254    2    1    2    0    0 -0.75110272198E+03  0.71961152736E+03 -0.35408597496E+03  0.14180363880E+04  0.89635610711E+03 0.  0.
        -24    2    4    4    0    0 -0.46925924186E+03  0.65289258778E+03  0.15894473719E+03  0.82340368470E+03  0.79102662654E+02 0.  0.
         24    2    4    4    0    0 -0.28184348012E+03  0.66718939578E+02 -0.51303071215E+03  0.59463270331E+03  0.80624909606E+02 0.  0.
         13    1    3    3    0    0  0.31151372031E+02 -0.55203248274E+02  0.16460632100E+02  0.65488617397E+02  0.00000000000E+00 0.  1.
        -13    1    3    3    0    0  0.71995134995E+03 -0.66440827909E+03  0.45048367404E+03  0.10782874608E+04  0.00000000000E+00 0. -1.
          2    1    6    6  502    0 -0.81182181101E+02  0.70111104613E+01 -0.82812281771E+02  0.11617906959E+03  0.00000000000E+00 0. -1.
          3    1    5    5  503    0 -0.10251660501E+02  0.28068768060E+02  0.19444794224E+02  0.35651820512E+02  0.00000000000E+00 0. -1.
         -4    1    5    5    0  503 -0.45900758136E+03  0.62482381972E+03  0.13949994297E+03  0.78775186419E+03  0.00000000000E+00 0.  1.
         -1    1    6    6    0  502 -0.20066129902E+03  0.59707829117E+02 -0.43021843037E+03  0.47845363372E+03  0.00000000000E+00 0.  1.
<mgrwt>
<rscale>  0 0.25593253E+04</rscale>
<asrwt>0</asrwt>
<pdfrwt beam="1">  1        2 0.18838109E+00 0.25593253E+04</pdfrwt>
<pdfrwt beam="2">  1       -2 0.20574391E+00 0.25593253E+04</pdfrwt>
<totfact> 0.19829803E+00</totfact>
</mgrwt>
</event>
<event>
12    1  0.1477245E-007  0.9574977E+03  0.7818608E-02  0.9356430E-01
          1   -1    0    0  501    0  0.00000000000E+00  0.00000000000E+00  0.56455862339E+03  0.56455862339E+03  0.00000000000E+00 0. -1.
         -1   -1    0    0    0  501 -0.00000000000E+00 -0.00000000000E+00 -0.40598166569E+03  0.40598166569E+03  0.00000000000E+00 0.  1.
         23    2    1    2    0    0 -0.81088298386E+01 -0.93085835359E+02 -0.11817501445E+03  0.17628139862E+03  0.91537268875E+02 0.  0.
        254    2    1    2    0    0  0.81088298386E+01  0.93085835359E+02  0.27675197214E+03  0.79425889046E+03  0.73859651037E+03 0.  0.
        -24    2    4    4    0    0  0.33392478819E+03  0.20879290864E+02 -0.14585050536E+02  0.34415219464E+03  0.79286193128E+02 0.  0.
         24    2    4    4    0    0 -0.32581595835E+03  0.72206544494E+02  0.29133702268E+03  0.45010669582E+03  0.79680317845E+02 0.  0.
         11    1    3    3    0    0 -0.17222604108E+02 -0.31510833551E+02  0.69057906468E+01  0.36568301408E+02  0.00000000000E+00 0. -1.
        -11    1    3    3    0    0  0.91137742698E+01 -0.61575001807E+02 -0.12508080509E+03  0.13971309721E+03  0.00000000000E+00 0.  1.
          2    1    6    6  502    0 -0.22117916582E+03  0.44583630116E+02  0.14539262230E+03  0.26841560701E+03  0.00000000000E+00 0. -1.
          3    1    5    5  503    0  0.79503981714E+02  0.36528261268E+02  0.10019631036E+02  0.88065827570E+02  0.00000000000E+00 0. -1.
         -4    1    5    5    0  503  0.25442080648E+03 -0.15648970404E+02 -0.24604681572E+02  0.25608636707E+03  0.00000000000E+00 0.  1.
         -1    1    6    6    0  502 -0.10463679253E+03  0.27622914378E+02  0.14594440038E+03  0.18169108880E+03  0.00000000000E+00 0.  1.
<mgrwt>
<rscale>  0 0.95749768E+03</rscale>
<asrwt>0</asrwt>
<pdfrwt beam="1">  1        1 0.86855173E-01 0.95749768E+03</pdfrwt>
<pdfrwt beam="2">  1       -1 0.62458718E-01 0.95749768E+03</pdfrwt>
<totfact> 0.97693608E+01</totfact>
</mgrwt>
</event>
<event>
12    1  0.1477245E-007  0.1583859E+04  0.7818608E-02  0.8830526E-01
         -2   -1    0    0    0  501 -0.00000000000E+00  0.00000000000E+00  0.25995381462E+03  0.25995381462E+03  0.00000000000E+00 0.  1.
          2   -1    0    0  501    0  0.00000000000E+00 -0.00000000000E+00 -0.24125543613E+04  0.24125543613E+04  0.00000000000E+00 0. -1.
         23    2    1    2    0    0 -0.32274007986E+03 -0.77788920930E+02 -0.57151972387E+02  0.35260918323E+03  0.10418547301E+03 0.  0.
        254    2    1    2    0    0  0.32274007986E+03  0.77788920930E+02 -0.20954485743E+04  0.23198989927E+04  0.93851709278E+03 0.  0.
        -24    2    4    4    0    0 -0.78867400600E+02 -0.18931434102E+03 -0.16302252898E+04  0.16450105955E+04  0.79783314665E+02 0.  0.
         24    2    4    4    0    0  0.40160748046E+03  0.26710326195E+03 -0.46522328453E+03  0.67488839720E+03  0.80055751238E+02 0.  0.
         11    1    3    3    0    0 -0.75034444698E+02  0.25084425507E+02 -0.21847500588E+02  0.82077460829E+02  0.00000000000E+00 0. -1.
        -11    1    3    3    0    0 -0.24770563516E+03 -0.10287334644E+03 -0.35304471799E+02  0.27053172240E+03  0.00000000000E+00 0.  1.
          4    1    6    6  502    0  0.14614673221E+02  0.28219670033E+02 -0.48917328520E+02  0.58333896490E+02  0.00000000000E+00 0. -1.
          1    1    5    5  503    0 -0.27500698561E+02 -0.11176788053E+03 -0.62658002645E+03  0.63706426448E+03  0.00000000000E+00 0. -1.
         -2    1    5    5    0  503 -0.51366702039E+02 -0.77546460488E+02 -0.10036452633E+04  0.10079463310E+04  0.00000000000E+00 0.  1.
         -3    1    6    6    0  502  0.38699280724E+03  0.23888359192E+03 -0.41630595601E+03  0.61655450071E+03  0.00000000000E+00 0.  1.
<mgrwt>
<rscale>  0 0.15838595E+04</rscale>
<asrwt>0</asrwt>
<pdfrwt beam="1">  1        2 0.37116221E+00 0.15838595E+04</pdfrwt>
<pdfrwt beam="2">  1       -2 0.39992894E-01 0.15838595E+04</pdfrwt>
<totfact> 0.22249632E+01</totfact>
</mgrwt>
</event>
<event>
12    1  0.1477245E-007  0.1574497E+04  0.7818608E-02  0.8836370E-01
         -1   -1    0    0    0  501 -0.00000000000E+00  0.00000000000E+00  0.31212938369E+03  0.31212938369E+03  0.00000000000E+00 0.  1.
          1   -1    0    0  501    0  0.00000000000E+00 -0.00000000000E+00 -0.19855879886E+04  0.19855879886E+04  0.00000000000E+00 0. -1.
         23    2    1    2    0    0  0.17171155440E+03 -0.83695900861E+02  0.14732683393E+03  0.25800777531E+03  0.91503849047E+02 0.  0.
        254    2    1    2    0    0 -0.17171155440E+03  0.83695900861E+02 -0.18207854389E+04  0.20397095970E+04  0.89925845226E+03 0.  0.
        -24    2    4    4    0    0  0.36252109767E+03 -0.67368179332E+01 -0.72192718704E+03  0.81175778692E+03  0.79403465051E+02 0.  0.
         24    2    4    4    0    0 -0.53423265208E+03  0.90432718794E+02 -0.10988582518E+04  0.12279518101E+04  0.82423219406E+02 0.  0.
         13    1    3    3    0    0  0.15554632941E+03 -0.63155499824E+02  0.15727450437E+03  0.23004031706E+03  0.00000000000E+00 0.  1.
        -13    1    3    3    0    0  0.16165224997E+02 -0.20540401036E+02 -0.99476704383E+01  0.27967458252E+02  0.00000000000E+00 0. -1.
          4    1    6    6  502    0 -0.46932097374E+02  0.20677447173E+02 -0.15767841773E+03  0.16580911315E+03  0.00000000000E+00 0. -1.
          1    1    5    5  503    0  0.11932041497E+02 -0.99801708829E+01 -0.10917758560E+02  0.19004601472E+02  0.00000000000E+00 0. -1.
         -2    1    5    5    0  503  0.35058905617E+03  0.32433529496E+01 -0.71100942848E+03  0.79275318545E+03  0.00000000000E+00 0.  1.
         -3    1    6    6    0  502 -0.48730055470E+03  0.69755271621E+02 -0.94117983409E+03  0.10621426969E+04  0.00000000000E+00 0.  1.
<mgrwt>
<rscale>  0 0.15744972E+04</rscale>
<asrwt>0</asrwt>
<pdfrwt beam="1">  1        1 0.30547507E+00 0.15744972E+04</pdfrwt>
<pdfrwt beam="2">  1       -1 0.48019906E-01 0.15744972E+04</pdfrwt>
<totfact> 0.12707369E+01</totfact>
</mgrwt>
</event>
<event>
12    1  0.1477245E-007  0.1370112E+04  0.7818608E-02  0.8975742E-01
         -2   -1    0    0    0  501 -0.00000000000E+00  0.00000000000E+00  0.38273295017E+03  0.38273295017E+03  0.00000000000E+00 0.  1.
          2   -1    0    0  501    0  0.00000000000E+00 -0.00000000000E+00 -0.12261858263E+04  0.12261858263E+04  0.00000000000E+00 0. -1.
         23    2    1    2    0    0  0.18590714460E+03  0.32190746737E+03 -0.33649985156E+03  0.50980773851E+03  0.92118924106E+02 0.  0.
        254    2    1    2    0    0 -0.18590714460E+03 -0.32190746737E+03 -0.50695302460E+03  0.10991110380E+04  0.90158628024E+03 0.  0.
        -24    2    4    4    0    0 -0.82937716564E+02 -0.25765786831E+03 -0.75808679863E+03  0.80887872103E+03  0.79516973987E+02 0.  0.
         24    2    4    4    0    0 -0.10296942804E+03 -0.64249599066E+02  0.25113377402E+03  0.29023231697E+03  0.80224131450E+02 0.  0.
         13    1    3    3    0    0  0.16343574289E+03  0.32131454748E+03 -0.31604095113E+03  0.47941231030E+03  0.00000000000E+00 0. -1.
        -13    1    3    3    0    0  0.22471401716E+02  0.59291988949E+00 -0.20458900426E+02  0.30395428204E+02  0.00000000000E+00 0.  1.
          2    1    6    6  502    0 -0.21454007477E+01 -0.42077346190E+02  0.67476452122E+02  0.79549842223E+02  0.00000000000E+00 0. -1.
          1    1    5    5  503    0 -0.21437715592E+02 -0.33100156165E+02 -0.20542216853E+03  0.20917328536E+03  0.00000000000E+00 0. -1.
         -2    1    5    5    0  503 -0.61500000972E+02 -0.22455771214E+03 -0.55266463010E+03  0.59970543566E+03  0.00000000000E+00 0.  1.
         -3    1    6    6    0  502 -0.10082402729E+03 -0.22172252876E+02  0.18365732190E+03  0.21068247474E+03  0.00000000000E+00 0.  1.
<mgrwt>
<rscale>  0 0.13701120E+04</rscale>
<asrwt>0</asrwt>
<pdfrwt beam="1">  1        2 0.18864397E+00 0.13701120E+04</pdfrwt>
<pdfrwt beam="2">  1       -2 0.58881992E-01 0.13701120E+04</pdfrwt>
<totfact> 0.48027612E+01</totfact>
</mgrwt>
</event>
<event>
12    1  0.1477245E-007  0.1176891E+04  0.7818608E-02  0.9133328E-01
         -2   -1    0    0    0  501 -0.00000000000E+00  0.00000000000E+00  0.51455752941E+03  0.51455752941E+03  0.00000000000E+00 0.  1.
          2   -1    0    0  501    0  0.00000000000E+00 -0.00000000000E+00 -0.67294331393E+03  0.67294331393E+03  0.00000000000E+00 0. -1.
         23    2    1    2    0    0  0.22458860013E+03  0.25306141183E+02 -0.13459470046E+02  0.24160533121E+03  0.84329939198E+02 0.  0.
        254    2    1    2    0    0 -0.22458860013E+03 -0.25306141183E+02 -0.14492631448E+03  0.94589551213E+03  0.90699186498E+03 0.  0.
        -24    2    4    4    0    0  0.22940879358E+03  0.21294347341E+03  0.14200939967E+03  0.35280373789E+03  0.79564379185E+02 0.  0.
         24    2    4    4    0    0 -0.45399739371E+03 -0.23824961459E+03 -0.28693571414E+03  0.59309177424E+03  0.80927351774E+02 0.  0.
         13    1    3    3    0    0  0.94169014732E+02 -0.22487547874E+01 -0.45351184733E+02  0.10454468035E+03  0.00000000000E+00 0.  1.
        -13    1    3    3    0    0  0.13041958540E+03  0.27554895971E+02  0.31891714686E+02  0.13706065086E+03  0.00000000000E+00 0. -1.
          4    1    6    6  502    0 -0.35307728023E+03 -0.14735710029E+03 -0.22466066979E+03  0.44367792076E+03  0.00000000000E+00 0. -1.
          1    1    5    5  503    0  0.78858786616E+02  0.34255069160E+02  0.61335514660E+02  0.10561327260E+03  0.00000000000E+00 0. -1.
         -2    1    5    5    0  503  0.15055000697E+03  0.17868840425E+03  0.80673885007E+02  0.24719046529E+03  0.00000000000E+00 0.  1.
         -3    1    6    6    0  502 -0.10092011348E+03 -0.90892514300E+02 -0.62275044358E+02  0.14941385348E+03  0.00000000000E+00 0.  1.
<mgrwt>
<rscale>  0 0.11768909E+04</rscale>
<asrwt>0</asrwt>
<pdfrwt beam="1">  1        2 0.10352974E+00 0.11768909E+04</pdfrwt>
<pdfrwt beam="2">  1       -2 0.79162697E-01 0.11768909E+04</pdfrwt>
<totfact> 0.60260999E+01</totfact>
</mgrwt>
</event>
<event>
12    1  0.1477245E-007  0.1371400E+04  0.7818608E-02  0.8974785E-01
         -2   -1    0    0    0  501 -0.00000000000E+00  0.00000000000E+00  0.39104748442E+03  0.39104748442E+03  0.00000000000E+00 0.  1.
          2   -1    0    0  501    0  0.00000000000E+00 -0.00000000000E+00 -0.12023724291E+04  0.12023724291E+04  0.00000000000E+00 0. -1.
         23    2    1    2    0    0  0.15854501613E+03 -0.16601105741E+03 -0.58314807743E+03  0.63326044982E+03  0.90889624137E+02 0.  0.
        254    2    1    2    0    0 -0.15854501613E+03  0.16601105741E+03 -0.22817686727E+03  0.96015946372E+03  0.90396090606E+03 0.  0.
        -24    2    4    4    0    0 -0.28650034830E+03 -0.24155612496E+03  0.12138400239E+03  0.40247366733E+03  0.82578240347E+02 0.  0.
         24    2    4    4    0    0  0.12795533217E+03  0.40756718237E+03 -0.34956086966E+03  0.55768579639E+03  0.79605720408E+02 0.  0.
         13    1    3    3    0    0  0.16852658154E+03 -0.14299725424E+03 -0.53763001652E+03  0.58128775840E+03  0.00000000000E+00 0. -1.
        -13    1    3    3    0    0 -0.99815654108E+01 -0.23013803165E+02 -0.45518060914E+02  0.51972691421E+02  0.00000000000E+00 0.  1.
          2    1    6    6  502    0  0.68975218881E+02  0.29337648659E+03 -0.28083568679E+03  0.41194177583E+03  0.00000000000E+00 0. -1.
          3    1    5    5  503    0 -0.23577994862E+03 -0.16175594807E+03  0.68065564646E+02  0.29392191480E+03  0.00000000000E+00 0. -1.
         -4    1    5    5    0  503 -0.50720399678E+02 -0.79800176886E+02  0.53318437740E+02  0.10855175253E+03  0.00000000000E+00 0.  1.
         -1    1    6    6    0  502  0.58980113293E+02  0.11419069578E+03 -0.68725182864E+02  0.14574402055E+03  0.00000000000E+00 0.  1.
<mgrwt>
<rscale>  0 0.13714003E+04</rscale>
<asrwt>0</asrwt>
<pdfrwt beam="1">  1        2 0.18498037E+00 0.13714003E+04</pdfrwt>
<pdfrwt beam="2">  1       -2 0.60161152E-01 0.13714003E+04</pdfrwt>
<totfact> 0.47417117E+01</totfact>
</mgrwt>
</event>
<event>
12    1  0.1477245E-007  0.1691479E+04  0.7818608E-02  0.8766239E-01
          4   -1    0    0  501    0  0.00000000000E+00  0.00000000000E+00  0.31827266684E+04  0.31827266684E+04  0.00000000000E+00 0. -1.
         -4   -1    0    0    0  501 -0.00000000000E+00 -0.00000000000E+00 -0.22473657582E+03  0.22473657582E+03  0.00000000000E+00 0.  1.
         23    2    1    2    0    0 -0.45151037704E+02  0.32745130036E+03  0.49162172968E+02  0.34609504089E+03  0.90010486976E+02 0.  0.
        254    2    1    2    0    0  0.45151037704E+02 -0.32745130036E+03  0.29088279196E+04  0.30613682033E+04  0.89522759125E+03 0.  0.
        -24    2    4    4    0    0 -0.26474059379E+03 -0.28398769163E+03  0.25413189397E+04  0.25722403808E+04  0.85918751862E+02 0.  0.
         24    2    4    4    0    0  0.30989163150E+03 -0.43463608728E+02  0.36750897984E+03  0.48912782254E+03  0.79128174281E+02 0.  0.
         11    1    3    3    0    0  0.18605315724E+02  0.10967138140E+03 -0.97116649113E+01  0.11166147996E+03  0.00000000000E+00 0. -1.
        -11    1    3    3    0    0 -0.63756353428E+02  0.21777991895E+03  0.58873837880E+02  0.23443356093E+03  0.00000000000E+00 0.  1.
          4    1    6    6  502    0  0.26227875021E+03 -0.32944308980E+02  0.25857716085E+03  0.36978050032E+03  0.00000000000E+00 0. -1.
          3    1    5    5  503    0 -0.18181066010E+03 -0.18863626446E+03  0.19536124338E+04  0.19711012906E+04  0.00000000000E+00 0. -1.
         -4    1    5    5    0  503 -0.82929933692E+02 -0.95351427169E+02  0.58770650599E+03  0.60113909019E+03  0.00000000000E+00 0.  1.
         -3    1    6    6    0  502  0.47612881283E+02 -0.10519299748E+02  0.10893181899E+03  0.11934732222E+03  0.00000000000E+00 0.  1.
<mgrwt>
<rscale>  0 0.16914788E+04</rscale>
<asrwt>0</asrwt>
<pdfrwt beam="1">  1        4 0.48965022E+00 0.16914788E+04</pdfrwt>
<pdfrwt beam="2">  1       -4 0.34574860E-01 0.16914788E+04</pdfrwt>
<totfact> 0.23099084E-02</totfact>
</mgrwt>
</event>
<event>
12    1  0.1477245E-007  0.2997566E+04  0.7818608E-02  0.8244426E-01
         -1   -1    0    0    0  501 -0.00000000000E+00  0.00000000000E+00  0.19913794062E+04  0.19913794062E+04  0.00000000000E+00 0.  1.
          1   -1    0    0  501    0  0.00000000000E+00 -0.00000000000E+00 -0.11280373830E+04  0.11280373830E+04  0.00000000000E+00 0. -1.
         23    2    1    2    0    0  0.12246420210E+04  0.54744434537E+03  0.16316942235E+03  0.13543849436E+04  0.91054512132E+02 0.  0.
        254    2    1    2    0    0 -0.12246420210E+04 -0.54744434537E+03  0.70017260079E+03  0.17650318456E+04  0.90865414459E+03 0.  0.
        -24    2    4    4    0    0 -0.10436491089E+03  0.14133126247E+03 -0.10564758508E+03  0.22064375045E+03  0.81582424586E+02 0.  0.
         24    2    4    4    0    0 -0.11202771101E+04 -0.68877560784E+03  0.80582018587E+03  0.15443880952E+04  0.79723116822E+02 0.  0.
         13    1    3    3    0    0  0.75404012490E+02  0.44336633060E+02  0.31433892528E+02  0.92949404141E+02  0.00000000000E+00 0.  1.
        -13    1    3    3    0    0  0.11492380085E+04  0.50310771231E+03  0.13173552983E+03  0.12614355394E+04  0.00000000000E+00 0. -1.
          4    1    6    6  502    0 -0.15877495295E+02 -0.59596357206E-01  0.80478333507E+01  0.17800731170E+02  0.00000000000E+00 0. -1.
          3    1    5    5  503    0 -0.42095398462E+02  0.85749563654E+01 -0.60521460804E+01  0.43384109078E+02  0.00000000000E+00 0. -1.
         -4    1    5    5    0  503 -0.62269512430E+02  0.13275630610E+03 -0.99595439000E+02  0.17725964137E+03  0.00000000000E+00 0.  1.
         -3    1    6    6    0  502 -0.11043996148E+04 -0.68871601148E+03  0.79777235252E+03  0.15265873640E+04  0.00000000000E+00 0.  1.
<mgrwt>
<rscale>  0 0.29975660E+04</rscale>
<asrwt>0</asrwt>
<pdfrwt beam="1">  1        1 0.17354421E+00 0.29975660E+04</pdfrwt>
<pdfrwt beam="2">  1       -1 0.30636606E+00 0.29975660E+04</pdfrwt>
<totfact> 0.30869359E-01</totfact>
</mgrwt>
</event>
<event>
12    1  0.2017242E-007  0.2757264E+04  0.7818608E-02  0.8316660E-01
         -2   -1    0    0    0  501 -0.00000000000E+00  0.00000000000E+00  0.13933298123E+04  0.13933298123E+04  0.00000000000E+00 0. -1.
          2   -1    0    0  501    0  0.00000000000E+00 -0.00000000000E+00 -0.13640895259E+04  0.13640895259E+04  0.00000000000E+00 0.  1.
         23    2    1    2    0    0  0.70288646300E+03  0.49675848154E+03  0.88764106507E+03  0.12398137057E+04  0.91722383604E+02 0.  0.
        254    2    1    2    0    0 -0.70288646300E+03 -0.49675848154E+03 -0.85840077870E+03  0.15176056324E+04  0.90854641588E+03 0.  0.
        -24    2    4    4    0    0  0.14936976134E+03 -0.27534303946E+03 -0.42207934013E+03  0.53159819978E+03  0.79501960084E+02 0.  0.
         24    2    4    4    0    0 -0.85225622434E+03 -0.22141544208E+03 -0.43632143856E+03  0.98600743263E+03  0.80428785484E+02 0.  0.
         11    1    3    3    0    0  0.28923719745E+03  0.21430187068E+03  0.30819132756E+03  0.47388325835E+03  0.00000000000E+00 0.  1.
        -11    1    3    3    0    0  0.41364926555E+03  0.28245661086E+03  0.57944973751E+03  0.76593044737E+03  0.00000000000E+00 0. -1.
          4    1    6    6  502    0 -0.58157300754E+02 -0.16377697564E+02 -0.54391221721E+02  0.81295175803E+02  0.00000000000E+00 0. -1.
          1    1    5    5  503    0  0.33052992137E+01  0.49084470337E+01 -0.27787535155E+01  0.65375321242E+01  0.00000000000E+00 0. -1.
         -2    1    5    5    0  503  0.14606446213E+03 -0.28025148649E+03 -0.41930058662E+03  0.52506066765E+03  0.00000000000E+00 0.  1.
         -3    1    6    6    0  502 -0.79409892359E+03 -0.20503774451E+03 -0.38193021684E+03  0.90471225683E+03  0.00000000000E+00 0.  1.
<mgrwt>
<rscale>  0 0.27572643E+04</rscale>
<asrwt>0</asrwt>
<pdfrwt beam="1">  1        2 0.20985993E+00 0.27572643E+04</pdfrwt>
<pdfrwt beam="2">  1       -2 0.21435843E+00 0.27572643E+04</pdfrwt>
<totfact> 0.14226890E+00</totfact>
</mgrwt>
</event>
<event>
12    1  0.1477245E-007  0.1321340E+04  0.7818608E-02  0.9012812E-01
          2   -1    0    0  501    0  0.00000000000E+00  0.00000000000E+00  0.14864290337E+04  0.14864290337E+04  0.00000000000E+00 0. -1.
         -2   -1    0    0    0  501 -0.00000000000E+00 -0.00000000000E+00 -0.29364644339E+03  0.29364644339E+03  0.00000000000E+00 0.  1.
         23    2    1    2    0    0 -0.21420323368E+03  0.23745123659E+03  0.15120394273E+03  0.36482866000E+03  0.89281598267E+02 0.  0.
        254    2    1    2    0    0  0.21420323368E+03 -0.23745123659E+03  0.10415786476E+04  0.14152468171E+04  0.90320061952E+03 0.  0.
        -24    2    4    4    0    0  0.69117561186E+02  0.32234165090E+03  0.20848840163E+03  0.39792420986E+03  0.78707598176E+02 0.  0.
         24    2    4    4    0    0  0.14508567249E+03 -0.55979288748E+03  0.83309024595E+03  0.10173226072E+04  0.80548122516E+02 0.  0.
         11    1    3    3    0    0 -0.10539901064E+03  0.13518537802E+03  0.33419759449E+02  0.17464512073E+03  0.00000000000E+00 0.  1.
        -11    1    3    3    0    0 -0.10880422304E+03  0.10226585857E+03  0.11778418328E+03  0.19018353928E+03  0.00000000000E+00 0. -1.
          2    1    6    6  502    0  0.55331921519E+01 -0.15986587443E+02  0.56962794059E+02  0.59421772950E+02  0.00000000000E+00 0. -1.
          1    1    5    5  503    0  0.45717239776E+02  0.87984399478E+02  0.34045799679E+02  0.10483528528E+03  0.00000000000E+00 0. -1.
         -2    1    5    5    0  503  0.23400321410E+02  0.23435725142E+03  0.17444260195E+03  0.29308892458E+03  0.00000000000E+00 0.  1.
         -1    1    6    6    0  502  0.13955248034E+03 -0.54380630004E+03  0.77612745189E+03  0.95790083428E+03  0.00000000000E+00 0.  1.
<mgrwt>
<rscale>  0 0.13213396E+04</rscale>
<asrwt>0</asrwt>
<pdfrwt beam="1">  1        2 0.22868139E+00 0.13213396E+04</pdfrwt>
<pdfrwt beam="2">  1       -2 0.45176377E-01 0.13213396E+04</pdfrwt>
<totfact> 0.58738732E+01</totfact>
</mgrwt>
</event>
<event>
12    1  0.1477245E-007  0.2812186E+04  0.7818608E-02  0.8299495E-01
         -2   -1    0    0    0  501 -0.00000000000E+00  0.00000000000E+00  0.97202523320E+03  0.97202523320E+03  0.00000000000E+00 0.  1.
          2   -1    0    0  501    0  0.00000000000E+00 -0.00000000000E+00 -0.20339987647E+04  0.20339987647E+04  0.00000000000E+00 0. -1.
         23    2    1    2    0    0  0.55085101929E+03  0.47479195457E+03 -0.15963044065E+04  0.17565511656E+04  0.91760522239E+02 0.  0.
        254    2    1    2    0    0 -0.55085101929E+03 -0.47479195457E+03  0.53433087505E+03  0.12494728323E+04  0.86418090062E+03 0.  0.
        -24    2    4    4    0    0 -0.33960582738E+03 -0.60283928290E+03  0.66145876734E+03  0.96045851972E+03  0.78775302047E+02 0.  0.
         24    2    4    4    0    0 -0.21124519192E+03  0.12804732833E+03 -0.12712789229E+03  0.28901431256E+03  0.79668829961E+02 0.  0.
         13    1    3    3    0    0  0.28321334612E+03  0.18426163517E+03 -0.72136187319E+03  0.79657083910E+03  0.00000000000E+00 0.  1.
        -13    1    3    3    0    0  0.26763767318E+03  0.29053031941E+03 -0.87494253335E+03  0.95998032650E+03  0.00000000000E+00 0. -1.
          2    1    6    6  502    0 -0.10287796681E+03  0.16799149454E+02 -0.52142536918E+02  0.11655441490E+03  0.00000000000E+00 0. -1.
          1    1    5    5  503    0 -0.18075920638E+03 -0.38180624372E+03  0.43523329997E+03  0.60652940888E+03  0.00000000000E+00 0. -1.
         -2    1    5    5    0  503 -0.15884662100E+03 -0.22103303918E+03  0.22622546738E+03  0.35392911084E+03  0.00000000000E+00 0.  1.
         -1    1    6    6    0  502 -0.10836722511E+03  0.11124817887E+03 -0.74985355371E+02  0.17245989766E+03  0.00000000000E+00 0.  1.
<mgrwt>
<rscale>  0 0.28121864E+04</rscale>
<asrwt>0</asrwt>
<pdfrwt beam="1">  1        2 0.31292288E+00 0.28121864E+04</pdfrwt>
<pdfrwt beam="2">  1       -2 0.14954235E+00 0.28121864E+04</pdfrwt>
<totfact> 0.16795577E+00</totfact>
</mgrwt>
</event>
<event>
12    1  0.1830716E-007  0.2075961E+04  0.7818608E-02  0.8571907E-01
         -1   -1    0    0    0  501 -0.00000000000E+00  0.00000000000E+00  0.88536602773E+03  0.88536602773E+03  0.00000000000E+00 0.  1.
          1   -1    0    0  501    0  0.00000000000E+00 -0.00000000000E+00 -0.12169018396E+04  0.12169018396E+04  0.00000000000E+00 0. -1.
         23    2    1    2    0    0  0.45593342918E+03  0.66010579219E+03  0.56273914017E+02  0.81339050979E+03  0.12174735846E+03 0.  0.
        254    2    1    2    0    0 -0.45593342918E+03 -0.66010579219E+03 -0.38780972588E+03  0.12888773575E+04  0.93123225381E+03 0.  0.
        -24    2    4    4    0    0 -0.12275857048E+03 -0.83297142418E+03 -0.26711333083E+03  0.88644011935E+03  0.74266368911E+02 0.  0.
         24    2    4    4    0    0 -0.33317485870E+03  0.17286563200E+03 -0.12069639505E+03  0.40243723818E+03  0.80623183412E+02 0.  0.
         11    1    3    3    0    0  0.84913661016E+02  0.20611351562E+03 -0.11234124558E+02  0.22320241195E+03  0.00000000000E+00 0.  1.
        -11    1    3    3    0    0  0.37101976816E+03  0.45399227657E+03  0.67508038575E+02  0.59018809784E+03  0.00000000000E+00 0. -1.
          4    1    6    6  502    0 -0.69334651657E+02  0.47924252404E+02  0.53602392465E+01  0.84455669163E+02  0.00000000000E+00 0. -1.
          3    1    5    5  503    0  0.27555378257E+01 -0.40662329818E+01 -0.72077646281E+01  0.87223339941E+01  0.00000000000E+00 0. -1.
         -4    1    5    5    0  503 -0.12551410831E+03 -0.82890519120E+03 -0.25990556620E+03  0.87771778536E+03  0.00000000000E+00 0.  1.
         -3    1    6    6    0  502 -0.26384020704E+03  0.12494137959E+03 -0.12605663430E+03  0.31798156902E+03  0.00000000000E+00 0.  1.
<mgrwt>
<rscale>  0 0.20759610E+04</rscale>
<asrwt>0</asrwt>
<pdfrwt beam="1">  1        1 0.18721567E+00 0.20759610E+04</pdfrwt>
<pdfrwt beam="2">  1       -1 0.13621016E+00 0.20759610E+04</pdfrwt>
<totfact> 0.43094514E+00</totfact>
</mgrwt>
</event>
<event>
12    1  0.1477245E-007  0.1880213E+04  0.7818608E-02  0.8664769E-01
         -2   -1    0    0    0  501 -0.00000000000E+00  0.00000000000E+00  0.10351769762E+04  0.10351769762E+04  0.00000000000E+00 0. -1.
          2   -1    0    0  501    0  0.00000000000E+00 -0.00000000000E+00 -0.85376766659E+03  0.85376766659E+03  0.00000000000E+00 0.  1.
         23    2    1    2    0    0  0.20025156501E+03  0.44107708581E+03  0.59523726775E+03  0.77311037599E+03  0.93501677158E+02 0.  0.
        254    2    1    2    0    0 -0.20025156501E+03 -0.44107708581E+03 -0.41382795813E+03  0.11158342668E+04  0.91606923709E+03 0.  0.
        -24    2    4    4    0    0  0.32851264030E+03 -0.34502878256E+03 -0.26478673614E+03  0.55111120186E+03  0.81523772923E+02 0.  0.
         24    2    4    4    0    0 -0.52876420531E+03 -0.96048303255E+02 -0.14904122198E+03  0.56472306494E+03  0.88780588299E+02 0.  0.
         13    1    3    3    0    0  0.15785306696E+03  0.30791147743E+03  0.35882119550E+03  0.49847740071E+03  0.00000000000E+00 0. -1.
        -13    1    3    3    0    0  0.42398498052E+02  0.13316560839E+03  0.23641607226E+03  0.27463297529E+03  0.00000000000E+00 0.  1.
          2    1    6    6  502    0 -0.19685503412E+03 -0.78728297925E+02 -0.48544543884E+02  0.21750085539E+03  0.00000000000E+00 0. -1.
          3    1    5    5  503    0  0.42864597628E+02 -0.67701955739E+02 -0.16206935817E+02  0.81753246475E+02  0.00000000000E+00 0. -1.
         -4    1    5    5    0  503  0.28564804267E+03 -0.27732682682E+03 -0.24857980033E+03  0.46935795539E+03  0.00000000000E+00 0.  1.
         -1    1    6    6    0  502 -0.33190917118E+03 -0.17320005330E+02 -0.10049667810E+03  0.34722220956E+03  0.00000000000E+00 0.  1.
<mgrwt>
<rscale>  0 0.18802134E+04</rscale>
<asrwt>0</asrwt>
<pdfrwt beam="1">  1        2 0.13134887E+00 0.18802134E+04</pdfrwt>
<pdfrwt beam="2">  1       -2 0.15925800E+00 0.18802134E+04</pdfrwt>
<totfact> 0.75464025E+00</totfact>
</mgrwt>
</event>
<event>
12    1  0.1477245E-007  0.1200549E+04  0.7818608E-02  0.9112376E-01
          1   -1    0    0  501    0  0.00000000000E+00  0.00000000000E+00  0.35819674434E+03  0.35819674434E+03  0.00000000000E+00 0. -1.
         -1   -1    0    0    0  501 -0.00000000000E+00 -0.00000000000E+00 -0.10059542428E+04  0.10059542428E+04  0.00000000000E+00 0.  1.
         23    2    1    2    0    0 -0.93431319084E+02  0.15580617279E+03  0.44553473055E+02  0.21354907271E+03  0.10302048160E+03 0.  0.
        254    2    1    2    0    0  0.93431319084E+02 -0.15580617279E+03 -0.69231097156E+03  0.11506019145E+04  0.90088029693E+03 0.  0.
        -24    2    4    4    0    0 -0.28137577845E+03 -0.33102723791E+03 -0.15370926929E+03  0.46709814233E+03  0.76175942222E+02 0.  0.
         24    2    4    4    0    0  0.37480709753E+03  0.17522106512E+03 -0.53860170226E+03  0.68350377214E+03  0.76829882412E+02 0.  0.
         11    1    3    3    0    0 -0.11455452576E+03  0.11447305450E+03  0.40628684157E+02  0.16696559392E+03  0.00000000000E+00 0. -1.
        -11    1    3    3    0    0  0.21123206675E+02  0.41333118293E+02  0.39247888977E+01  0.46583478787E+02  0.00000000000E+00 0.  1.
          4    1    6    6  502    0  0.18881840056E+03  0.53365045312E+02 -0.28787324551E+03  0.34838372799E+03  0.00000000000E+00 0. -1.
          1    1    5    5  503    0 -0.81755483440E+01 -0.32456250367E+02  0.18702799231E+01  0.33522316829E+02  0.00000000000E+00 0. -1.
         -2    1    5    5    0  503 -0.27320023010E+03 -0.29857098754E+03 -0.15557954922E+03  0.43357582551E+03  0.00000000000E+00 0.  1.
         -3    1    6    6    0  502  0.18598869697E+03  0.12185601980E+03 -0.25072845676E+03  0.33512004415E+03  0.00000000000E+00 0.  1.
<mgrwt>
<rscale>  0 0.12005491E+04</rscale>
<asrwt>0</asrwt>
<pdfrwt beam="1">  1        1 0.55107192E-01 0.12005491E+04</pdfrwt>
<pdfrwt beam="2">  1       -1 0.15476219E+00 0.12005491E+04</pdfrwt>
<totfact> 0.22032415E+01</totfact>
</mgrwt>
</event>
<event>
12    1  0.1477245E-007  0.1592775E+04  0.7818608E-02  0.8824999E-01
         -1   -1    0    0    0  501 -0.00000000000E+00  0.00000000000E+00  0.52477900758E+03  0.52477900758E+03  0.00000000000E+00 0.  1.
          1   -1    0    0  501    0  0.00000000000E+00 -0.00000000000E+00 -0.12085723990E+04  0.12085723990E+04  0.00000000000E+00 0. -1.
         23    2    1    2    0    0 -0.68667260665E+02 -0.50731900047E+03 -0.29814003838E+02  0.52069697379E+03  0.90270165449E+02 0.  0.
        254    2    1    2    0    0  0.68667260665E+02  0.50731900047E+03 -0.65397938754E+03  0.12126544328E+04  0.88360283671E+03 0.  0.
        -24    2    4    4    0    0  0.10472818460E+03 -0.17524797000E+03  0.53288370258E+02  0.22579574848E+03  0.80400410369E+02 0.  0.
         24    2    4    4    0    0 -0.36060923936E+02  0.68256697046E+03 -0.70726775780E+03  0.98685868428E+03  0.80401008209E+02 0.  0.
         11    1    3    3    0    0 -0.58562971262E+02 -0.18763601519E+03 -0.40432809171E+02  0.20067812002E+03  0.00000000000E+00 0.  1.
        -11    1    3    3    0    0 -0.10104289403E+02 -0.31968298528E+03  0.10618805333E+02  0.32001885377E+03  0.00000000000E+00 0. -1.
          4    1    6    6  502    0  0.13587914717E+02  0.40047515994E+02 -0.60713635230E+02  0.73990407935E+02  0.00000000000E+00 0. -1.
          3    1    5    5  503    0  0.44674784752E+01  0.65249609383E+01 -0.59758850283E+01  0.99118454913E+01  0.00000000000E+00 0. -1.
         -4    1    5    5    0  503  0.10026070613E+03 -0.18177293093E+03  0.59264255286E+02  0.21588390298E+03  0.00000000000E+00 0.  1.
         -3    1    6    6    0  502 -0.49648838653E+02  0.64251945447E+03 -0.64655412257E+03  0.91286827634E+03  0.00000000000E+00 0.  1.
<mgrwt>
<rscale>  0 0.15927755E+04</rscale>
<asrwt>0</asrwt>
<pdfrwt beam="1">  1        1 0.18593421E+00 0.15927755E+04</pdfrwt>
<pdfrwt beam="2">  1       -1 0.80735232E-01 0.15927755E+04</pdfrwt>
<totfact> 0.15470183E+01</totfact>
</mgrwt>
</event>
<event>
12    1  0.1477245E-007  0.1894094E+04  0.7818608E-02  0.8657802E-01
         -2   -1    0    0    0  501 -0.00000000000E+00  0.00000000000E+00  0.37602618047E+03  0.37602618047E+03  0.00000000000E+00 0.  1.
          2   -1    0    0  501    0  0.00000000000E+00 -0.00000000000E+00 -0.23851999480E+04  0.23851999480E+04  0.00000000000E+00 0. -1.
         23    2    1    2    0    0 -0.25465715897E+03 -0.68913174525E+03 -0.79105212456E+03  0.10831372176E+04  0.87578179201E+02 0.  0.
        254    2    1    2    0    0  0.25465715897E+03  0.68913174525E+03 -0.12181216430E+04  0.16780889109E+04  0.89017370484E+03 0.  0.
        -24    2    4    4    0    0  0.30872299575E+03 -0.11257199335E+03 -0.45839771197E+03  0.56911672966E+03  0.76046353307E+02 0.  0.
         24    2    4    4    0    0 -0.54065836786E+02  0.80170373861E+03 -0.75972393105E+03  0.11089721812E+04  0.83587368397E+02 0.  0.
         13    1    3    3    0    0 -0.17657227458E+03 -0.47953036627E+03 -0.60711545689E+03  0.79354667054E+03  0.00000000000E+00 0. -1.
        -13    1    3    3    0    0 -0.78084884383E+02 -0.20960137898E+03 -0.18393666768E+03  0.28959054708E+03  0.00000000000E+00 0.  1.
          4    1    6    6  502    0 -0.65552022904E+02  0.78345363499E+03 -0.74224171279E+03  0.10812120172E+04  0.00000000000E+00 0. -1.
          3    1    5    5  503    0  0.24041080308E+03 -0.11941462507E+03 -0.37281697898E+03  0.45940146575E+03  0.00000000000E+00 0. -1.
         -4    1    5    5    0  503  0.68312192679E+02  0.68426317158E+01 -0.85580732983E+02  0.10971526391E+03  0.00000000000E+00 0.  1.
         -1    1    6    6    0  502  0.11486186117E+02  0.18250103619E+02 -0.17482218256E+02  0.27760164062E+02  0.00000000000E+00 0.  1.
<mgrwt>
<rscale>  0 0.18940936E+04</rscale>
<asrwt>0</asrwt>
<pdfrwt beam="1">  1        2 0.36695384E+00 0.18940936E+04</pdfrwt>
<pdfrwt beam="2">  1       -2 0.57850182E-01 0.18940936E+04</pdfrwt>
<totfact> 0.10630581E+01</totfact>
</mgrwt>
</event>
<event>
12    1  0.1477245E-007  0.1929939E+04  0.7818608E-02  0.8640096E-01
         -2   -1    0    0    0  501 -0.00000000000E+00  0.00000000000E+00  0.33508197244E+03  0.33508197244E+03  0.00000000000E+00 0.  1.
          2   -1    0    0  501    0  0.00000000000E+00 -0.00000000000E+00 -0.27789203533E+04  0.27789203533E+04  0.00000000000E+00 0. -1.
         23    2    1    2    0    0 -0.65020569828E+03  0.10446052084E+03 -0.15418352987E+04  0.16790225849E+04  0.90450547423E+02 0.  0.
        254    2    1    2    0    0  0.65020569828E+03 -0.10446052084E+03 -0.90200308213E+03  0.14349797409E+04  0.90104264388E+03 0.  0.
        -24    2    4    4    0    0  0.16847886137E+02  0.31548741907E+03 -0.41930030344E+03  0.53140617352E+03  0.82241193663E+02 0.  0.
         24    2    4    4    0    0  0.63335781215E+03 -0.41994793991E+03 -0.48270277869E+03  0.90357356736E+03  0.77102714842E+02 0.  0.
         13    1    3    3    0    0 -0.42463919674E+03  0.90493361560E+02 -0.11038526194E+04  0.11861695078E+04  0.00000000000E+00 0. -1.
        -13    1    3    3    0    0 -0.22556650155E+03  0.13967159278E+02 -0.43798267934E+03  0.49285307705E+03  0.00000000000E+00 0.  1.
          2    1    6    6  502    0  0.58498507048E+03 -0.36078792406E+03 -0.43914965173E+03  0.81561502895E+03  0.00000000000E+00 0. -1.
          1    1    5    5  503    0  0.41266628842E+02  0.27897197305E+03 -0.37264897548E+03  0.46732810244E+03  0.00000000000E+00 0. -1.
         -2    1    5    5    0  503 -0.24418742705E+02  0.36515446021E+02 -0.46651327952E+02  0.64078071078E+02  0.00000000000E+00 0.  1.
         -1    1    6    6    0  502  0.48372741671E+02 -0.59160015851E+02 -0.43553126963E+02  0.87958538418E+02  0.00000000000E+00 0.  1.
<mgrwt>
<rscale>  0 0.19299390E+04</rscale>
<asrwt>0</asrwt>
<pdfrwt beam="1">  1        2 0.42752621E+00 0.19299390E+04</pdfrwt>
<pdfrwt beam="2">  1       -2 0.51551073E-01 0.19299390E+04</pdfrwt>
<totfact> 0.79224284E+00</totfact>
</mgrwt>
</event>
<event>
12    1  0.1477245E-007  0.3228963E+04  0.7818608E-02  0.8181210E-01
         -1   -1    0    0    0  501 -0.00000000000E+00  0.00000000000E+00  0.16736160316E+04  0.16736160316E+04  0.00000000000E+00 0. -1.
          1   -1    0    0  501    0  0.00000000000E+00 -0.00000000000E+00 -0.15574359118E+04  0.15574359118E+04  0.00000000000E+00 0.  1.
         23    2    1    2    0    0 -0.27196574967E+02  0.21646632828E+02 -0.14344912525E+04  0.14377546780E+04  0.90361109587E+02 0.  0.
        254    2    1    2    0    0  0.27196574967E+02 -0.21646632828E+02  0.15506713723E+04  0.17932972654E+04  0.90006952322E+03 0.  0.
        -24    2    4    4    0    0 -0.60013085066E+02  0.37750336432E+03  0.11550915799E+04  0.12192040529E+04  0.78176750012E+02 0.  0.
         24    2    4    4    0    0  0.87209660033E+02 -0.39914999715E+03  0.39557979245E+03  0.57409321247E+03  0.78570983088E+02 0.  0.
         11    1    3    3    0    0  0.27690314342E+02 -0.12440816746E+02 -0.33755178985E+03  0.33891405734E+03  0.00000000000E+00 0. -1.
        -11    1    3    3    0    0 -0.54886889309E+02  0.34087449574E+02 -0.10969394627E+04  0.10988406207E+04  0.00000000000E+00 0.  1.
          2    1    6    6  502    0  0.72427405860E+02 -0.34623693873E+03  0.29985292051E+03  0.46372138272E+03  0.00000000000E+00 0. -1.
          1    1    5    5  503    0 -0.36881599417E+02  0.24569717936E+03  0.86036362869E+03  0.89551824654E+03  0.00000000000E+00 0. -1.
         -2    1    5    5    0  503 -0.23131485649E+02  0.13180618497E+03  0.29472795119E+03  0.32368580635E+03  0.00000000000E+00 0.  1.
         -1    1    6    6    0  502  0.14782254173E+02 -0.52913058423E+02  0.95726871939E+02  0.11037182974E+03  0.00000000000E+00 0.  1.
<mgrwt>
<rscale>  0 0.32289625E+04</rscale>
<asrwt>0</asrwt>
<pdfrwt beam="1">  1        1 0.23960553E+00 0.32289625E+04</pdfrwt>
<pdfrwt beam="2">  1       -1 0.25747939E+00 0.32289625E+04</pdfrwt>
<totfact> 0.31044317E-01</totfact>
</mgrwt>
</event>
<event>
12    1  0.1477245E-007  0.1419731E+04  0.7818608E-02  0.8939659E-01
          2   -1    0    0  501    0  0.00000000000E+00  0.00000000000E+00  0.18154783756E+04  0.18154783756E+04  0.00000000000E+00 0. -1.
         -2   -1    0    0    0  501 -0.00000000000E+00 -0.00000000000E+00 -0.27756280265E+03  0.27756280265E+03  0.00000000000E+00 0.  1.
         23    2    1    2    0    0  0.65437339983E+02 -0.46747752015E+02  0.10740650412E+04  0.10809636107E+04  0.91647242810E+02 0.  0.
        254    2    1    2    0    0 -0.65437339983E+02  0.46747752015E+02  0.46385053165E+03  0.10120775675E+04  0.89592203293E+03 0.  0.
        -24    2    4    4    0    0 -0.26668888258E+03 -0.28406491518E+02  0.65566549608E+03  0.71290821339E+03  0.80068652512E+02 0.  0.
         24    2    4    4    0    0  0.20125154260E+03  0.75154243532E+02 -0.19181496443E+03  0.29916935408E+03  0.80987518318E+02 0.  0.
         11    1    3    3    0    0 -0.12200510573E+02 -0.22725997817E+02  0.92173392573E+02  0.95714459375E+02  0.00000000000E+00 0.  1.
        -11    1    3    3    0    0  0.77637850556E+02 -0.24021754198E+02  0.98189164868E+03  0.98524915136E+03  0.00000000000E+00 0. -1.
          4    1    6    6  502    0  0.80930021920E+01  0.11242573963E+02 -0.48147300635E+02  0.50100446228E+02  0.00000000000E+00 0. -1.
          3    1    5    5  503    0 -0.18290176018E+01 -0.14342966150E+02  0.28302097098E+02  0.31781672132E+02  0.00000000000E+00 0. -1.
         -4    1    5    5    0  503 -0.26485986498E+03 -0.14063525368E+02  0.62736339899E+03  0.68112654126E+03  0.00000000000E+00 0.  1.
         -3    1    6    6    0  502  0.19315854041E+03  0.63911669570E+02 -0.14366766379E+03  0.24906890785E+03  0.00000000000E+00 0.  1.
<mgrwt>
<rscale>  0 0.14197313E+04</rscale>
<asrwt>0</asrwt>
<pdfrwt beam="1">  1        2 0.27930436E+00 0.14197313E+04</pdfrwt>
<pdfrwt beam="2">  1       -2 0.42701971E-01 0.14197313E+04</pdfrwt>
<totfact> 0.42749257E+01</totfact>
</mgrwt>
</event>
<event>
12    1  0.1477245E-007  0.2660293E+04  0.7818608E-02  0.8348005E-01
          1   -1    0    0  501    0  0.00000000000E+00  0.00000000000E+00  0.77459787335E+03  0.77459787335E+03  0.00000000000E+00 0. -1.
         -1   -1    0    0    0  501 -0.00000000000E+00 -0.00000000000E+00 -0.22841389696E+04  0.22841389696E+04  0.00000000000E+00 0.  1.
         23    2    1    2    0    0  0.66855073353E+03  0.33030787101E+02  0.44052784042E+03  0.80728198224E+03  0.97919887928E+02 0.  0.
        254    2    1    2    0    0 -0.66855073353E+03 -0.33030787101E+02 -0.19500689366E+04  0.22514548607E+04  0.90456012284E+03 0.  0.
        -24    2    4    4    0    0 -0.27270015289E+03  0.33700935190E+03 -0.14304751695E+04  0.14969003337E+04  0.80689043508E+02 0.  0.
         24    2    4    4    0    0 -0.39585058064E+03 -0.37004013901E+03 -0.51959376711E+03  0.75455452698E+03  0.75812035269E+02 0.  0.
         13    1    3    3    0    0  0.63765221470E+03  0.42412536511E+02  0.43828095211E+03  0.77491248741E+03  0.00000000000E+00 0. -1.
        -13    1    3    3    0    0  0.30898518831E+02 -0.93817494096E+01  0.22468883118E+01  0.32369494822E+02  0.00000000000E+00 0.  1.
          4    1    6    6  502    0 -0.34134736995E+03 -0.30198688733E+03 -0.46796306110E+03  0.65322548453E+03  0.00000000000E+00 0. -1.
          1    1    5    5  503    0 -0.19322426408E+03  0.28069642478E+03 -0.11775715266E+04  0.12258877597E+04  0.00000000000E+00 0. -1.
         -2    1    5    5    0  503 -0.79475888807E+02  0.56312927127E+02 -0.25290364296E+03  0.27101257403E+03  0.00000000000E+00 0.  1.
         -3    1    6    6    0  502 -0.54503210690E+02 -0.68053251678E+02 -0.51630706016E+02  0.10132904245E+03  0.00000000000E+00 0.  1.
<mgrwt>
<rscale>  0 0.26602926E+04</rscale>
<asrwt>0</asrwt>
<pdfrwt beam="1">  1        1 0.11916891E+00 0.26602926E+04</pdfrwt>
<pdfrwt beam="2">  1       -1 0.35140599E+00 0.26602926E+04</pdfrwt>
<totfact> 0.31017966E-01</totfact>
</mgrwt>
</event>
<event>
12    1  0.1477245E-007  0.3522523E+04  0.7818608E-02  0.8108473E-01
          1   -1    0    0  501    0  0.00000000000E+00  0.00000000000E+00  0.23644759452E+04  0.23644759452E+04  0.00000000000E+00 0. -1.
         -1   -1    0    0    0  501 -0.00000000000E+00 -0.00000000000E+00 -0.13119364873E+04  0.13119364873E+04  0.00000000000E+00 0.  1.
         23    2    1    2    0    0 -0.14322560170E+04 -0.32194611903E+03 -0.28398943135E+03  0.14968160348E+04  0.69293889575E+02 0.  0.
        254    2    1    2    0    0  0.14322560170E+04  0.32194611903E+03  0.13365288892E+04  0.21795963977E+04  0.89962457922E+03 0.  0.
        -24    2    4    4    0    0  0.37658936446E+03 -0.22510258613E+03  0.89303344698E+02  0.45476646878E+03  0.79666367050E+02 0.  0.
         24    2    4    4    0    0  0.10556666525E+04  0.54704870516E+03  0.12472255445E+04  0.17248299289E+04  0.75976034763E+02 0.  0.
         11    1    3    3    0    0 -0.63431011432E+03 -0.17754264731E+03 -0.12229479524E+03  0.66994531843E+03  0.00000000000E+00 0. -1.
        -11    1    3    3    0    0 -0.79794590268E+03 -0.14440347172E+03 -0.16169463611E+03  0.82687071638E+03  0.00000000000E+00 0.  1.
          4    1    6    6  502    0  0.90664692631E+03  0.44134739146E+03  0.10707181118E+04  0.14707934743E+04  0.00000000000E+00 0. -1.
          3    1    5    5  503    0  0.37114548241E+03 -0.23038606164E+03  0.82464462068E+02  0.44455268981E+03  0.00000000000E+00 0. -1.
         -4    1    5    5    0  503  0.54438820511E+01  0.52834755043E+01  0.68388826299E+01  0.10213778968E+02  0.00000000000E+00 0.  1.
         -3    1    6    6    0  502  0.14901972623E+03  0.10570131370E+03  0.17650743267E+03  0.25403645469E+03  0.00000000000E+00 0.  1.
<mgrwt>
<rscale>  0 0.35225231E+04</rscale>
<asrwt>0</asrwt>
<pdfrwt beam="1">  1        1 0.36376553E+00 0.35225231E+04</pdfrwt>
<pdfrwt beam="2">  1       -1 0.20183638E+00 0.35225231E+04</pdfrwt>
<totfact> 0.20006244E-01</totfact>
</mgrwt>
</event>
<event>
12    1  0.1477245E-007  0.1150749E+04  0.7818608E-02  0.9157093E-01
         -2   -1    0    0    0  501 -0.00000000000E+00  0.00000000000E+00  0.17897797198E+03  0.17897797198E+03  0.00000000000E+00 0.  1.
          2   -1    0    0  501    0  0.00000000000E+00 -0.00000000000E+00 -0.18497012002E+04  0.18497012002E+04  0.00000000000E+00 0. -1.
         23    2    1    2    0    0 -0.13150033512E+03 -0.95664003778E+02 -0.10203112747E+03  0.21260749876E+03  0.91365517565E+02 0.  0.
        254    2    1    2    0    0  0.13150033512E+03  0.95664003778E+02 -0.15686921007E+04  0.18160716734E+04  0.90048735489E+03 0.  0.
        -24    2    4    4    0    0  0.21214620780E+03 -0.16382158600E+03 -0.66422252805E+02  0.28752331794E+03  0.80088807995E+02 0.  0.
         24    2    4    4    0    0 -0.80645872677E+02  0.25948558978E+03 -0.15022698479E+04  0.15285483555E+04  0.76215818259E+02 0.  0.
         13    1    3    3    0    0 -0.62121661887E+02 -0.15163946175E+02 -0.82786993354E+02  0.10460751602E+03  0.00000000000E+00 0. -1.
        -13    1    3    3    0    0 -0.69378673235E+02 -0.80500057602E+02 -0.19244134115E+02  0.10799998274E+03  0.00000000000E+00 0.  1.
          2    1    6    6  502    0  0.26728783676E+01  0.29671083184E+02 -0.31303538271E+03  0.31444978659E+03  0.00000000000E+00 0. -1.
          3    1    5    5  503    0 -0.51437607110E-01 -0.81546084653E+01  0.10541249827E+02  0.13327349060E+02  0.00000000000E+00 0. -1.
         -4    1    5    5    0  503  0.21219764541E+03 -0.15566697754E+03 -0.76963502632E+02  0.27419596888E+03  0.00000000000E+00 0.  1.
         -1    1    6    6    0  502 -0.83318751044E+02  0.22981450660E+03 -0.11892344652E+04  0.12140985689E+04  0.00000000000E+00 0.  1.
<mgrwt>
<rscale>  0 0.11507489E+04</rscale>
<asrwt>0</asrwt>
<pdfrwt beam="1">  1        2 0.28456940E+00 0.11507489E+04</pdfrwt>
<pdfrwt beam="2">  1       -2 0.27535074E-01 0.11507489E+04</pdfrwt>
<totfact> 0.96429356E+01</totfact>
</mgrwt>
</event>
<event>
12    1  0.1477245E-007  0.1100682E+04  0.7818608E-02  0.9204527E-01
          3   -1    0    0  501    0  0.00000000000E+00  0.00000000000E+00  0.56277644522E+03  0.56277644522E+03  0.00000000000E+00 0. -1.
         -3   -1    0    0    0  501 -0.00000000000E+00 -0.00000000000E+00 -0.53818050760E+03  0.53818050760E+03  0.00000000000E+00 0.  1.
         23    2    1    2    0    0 -0.12194021001E+03  0.38151498127E+02  0.10362209612E+03  0.18943116330E+03  0.93923773329E+02 0.  0.
        254    2    1    2    0    0  0.12194021001E+03 -0.38151498127E+02 -0.79026158507E+02  0.91152578952E+03  0.89906016462E+03 0.  0.
        -24    2    4    4    0    0 -0.14729900342E+03 -0.24837757460E+03  0.27896934477E+03  0.40941596117E+03  0.80056967061E+02 0.  0.
         24    2    4    4    0    0  0.26923921343E+03  0.21022607647E+03 -0.35799550327E+03  0.50210982835E+03  0.85256918099E+02 0.  0.
         11    1    3    3    0    0 -0.32719008099E+02 -0.19765041994E+01 -0.14682515569E+02  0.35916797230E+02  0.00000000000E+00 0. -1.
        -11    1    3    3    0    0 -0.89221201911E+02  0.40128002327E+02  0.11830461169E+03  0.15351436607E+03  0.00000000000E+00 0.  1.
          4    1    6    6  502    0  0.18030194235E+03  0.12844714962E+03 -0.17210877030E+03  0.28040843332E+03  0.00000000000E+00 0. -1.
          1    1    5    5  503    0 -0.85264505026E+02 -0.14962045870E+03  0.11083839763E+03  0.20479616176E+03  0.00000000000E+00 0. -1.
         -2    1    5    5    0  503 -0.62034498389E+02 -0.98757115890E+02  0.16813094713E+03  0.20461979942E+03  0.00000000000E+00 0.  1.
         -3    1    6    6    0  502  0.88937271079E+02  0.81778926844E+02 -0.18588673297E+03  0.22170139503E+03  0.00000000000E+00 0.  1.
<mgrwt>
<rscale>  0 0.11006822E+04</rscale>
<asrwt>0</asrwt>
<pdfrwt beam="1">  1        3 0.86580992E-01 0.11006822E+04</pdfrwt>
<pdfrwt beam="2">  1       -3 0.82797001E-01 0.11006822E+04</pdfrwt>
<totfact> 0.42697269E+00</totfact>
</mgrwt>
</event>
<event>
12    1  0.1477245E-007  0.2857219E+04  0.7818608E-02  0.8285721E-01
         -2   -1    0    0    0  501 -0.00000000000E+00  0.00000000000E+00  0.19746843988E+04  0.19746843988E+04  0.00000000000E+00 0.  1.
          2   -1    0    0  501    0  0.00000000000E+00 -0.00000000000E+00 -0.10335447071E+04  0.10335447071E+04  0.00000000000E+00 0. -1.
         23    2    1    2    0    0  0.16730630405E+03  0.98191891502E+03  0.12774766971E+04  0.16226485713E+04  0.94263033587E+02 0.  0.
        254    2    1    2    0    0 -0.16730630405E+03 -0.98191891502E+03 -0.33633700528E+03  0.13855805346E+04  0.90252683154E+03 0.  0.
        -24    2    4    4    0    0  0.18164066253E+03 -0.18221385665E+03  0.22017123049E+03  0.34760771998E+03  0.78489084655E+02 0.  0.
         24    2    4    4    0    0 -0.34894696657E+03 -0.79970505836E+03 -0.55650823577E+03  0.10379728146E+04  0.79962375677E+02 0.  0.
         11    1    3    3    0    0 -0.45655202143E+01  0.15007995698E+03  0.16731411804E+03  0.22480847750E+03  0.00000000000E+00 0. -1.
        -11    1    3    3    0    0  0.17187182426E+03  0.83183895804E+03  0.11101625790E+04  0.13978400938E+04  0.00000000000E+00 0.  1.
          4    1    6    6  502    0 -0.34134166464E+03 -0.72806378286E+03 -0.50860889511E+03  0.95145888620E+03  0.00000000000E+00 0. -1.
          3    1    5    5  503    0  0.10854509406E+03 -0.53659734926E+02  0.10142165851E+03  0.15794859104E+03  0.00000000000E+00 0. -1.
         -4    1    5    5    0  503  0.73095568472E+02 -0.12855412173E+03  0.11874957199E+03  0.18965912894E+03  0.00000000000E+00 0.  1.
         -1    1    6    6    0  502 -0.76053019317E+01 -0.71641275502E+02 -0.47899340658E+02  0.86513928408E+02  0.00000000000E+00 0.  1.
<mgrwt>
<rscale>  0 0.28572187E+04</rscale>
<asrwt>0</asrwt>
<pdfrwt beam="1">  1        2 0.15900688E+00 0.28572187E+04</pdfrwt>
<pdfrwt beam="2">  1       -2 0.30379760E+00 0.28572187E+04</pdfrwt>
<totfact> 0.62553457E-01</totfact>
</mgrwt>
</event>
<event>
12    1  0.1477245E-007  0.1406952E+04  0.7818608E-02  0.8948801E-01
         -2   -1    0    0    0  501 -0.00000000000E+00  0.00000000000E+00  0.21731076271E+03  0.21731076271E+03  0.00000000000E+00 0.  1.
          2   -1    0    0  501    0  0.00000000000E+00 -0.00000000000E+00 -0.22772859966E+04  0.22772859966E+04  0.00000000000E+00 0. -1.
         23    2    1    2    0    0 -0.32180346936E+03 -0.25424825845E+03 -0.61780841673E+03  0.74740477153E+03  0.93418429236E+02 0.  0.
        254    2    1    2    0    0  0.32180346936E+03  0.25424825845E+03 -0.14421668172E+04  0.17471919878E+04  0.89701452823E+03 0.  0.
        -24    2    4    4    0    0 -0.30462538503E+03  0.11493598147E+03 -0.57596741947E+03  0.66637010860E+03  0.79396147886E+02 0.  0.
         24    2    4    4    0    0  0.62642885439E+03  0.13931227698E+03 -0.86619939771E+03  0.10808218792E+04  0.77804356190E+02 0.  0.
         11    1    3    3    0    0 -0.31240580679E+03 -0.21313035485E+03 -0.56349917209E+03  0.67864073944E+03  0.00000000000E+00 0.  1.
        -11    1    3    3    0    0 -0.93976625709E+01 -0.41117903593E+02 -0.54309244634E+02  0.68764032098E+02  0.00000000000E+00 0. -1.
          2    1    6    6  502    0  0.34116852227E+03  0.69249051897E+02 -0.40537569641E+03  0.53434150785E+03  0.00000000000E+00 0. -1.
          1    1    5    5  503    0 -0.12009130269E+03  0.59612457792E+02 -0.31192629064E+03  0.33951962667E+03  0.00000000000E+00 0. -1.
         -2    1    5    5    0  503 -0.18453408235E+03  0.55323523678E+02 -0.26404112883E+03  0.32685048193E+03  0.00000000000E+00 0.  1.
         -1    1    6    6    0  502  0.28526033212E+03  0.70063225079E+02 -0.46082370130E+03  0.54648037135E+03  0.00000000000E+00 0.  1.
<mgrwt>
<rscale>  0 0.14069524E+04</rscale>
<asrwt>0</asrwt>
<pdfrwt beam="1">  1        2 0.35035170E+00 0.14069524E+04</pdfrwt>
<pdfrwt beam="2">  1       -2 0.33432425E-01 0.14069524E+04</pdfrwt>
<totfact> 0.38059673E+01</totfact>
</mgrwt>
</event>
<event>
12    1  0.1477245E-007  0.1588367E+04  0.7818608E-02  0.8827727E-01
          2   -1    0    0  501    0  0.00000000000E+00  0.00000000000E+00  0.24238823409E+04  0.24238823409E+04  0.00000000000E+00 0. -1.
         -2   -1    0    0    0  501 -0.00000000000E+00 -0.00000000000E+00 -0.26021375271E+03  0.26021375271E+03  0.00000000000E+00 0.  1.
         23    2    1    2    0    0  0.20781310539E+00 -0.45888267398E+03  0.11922740701E+04  0.12808343725E+04  0.91901468362E+02 0.  0.
        254    2    1    2    0    0 -0.20781310539E+00  0.45888267398E+03  0.97139451812E+03  0.14032617211E+04  0.90275289893E+03 0.  0.
        -24    2    4    4    0    0  0.39620544659E+01 -0.24196529462E+03  0.48183991128E+03  0.54454104450E+03  0.76107472434E+02 0.  0.
         24    2    4    4    0    0 -0.41698675713E+01  0.70084796861E+03  0.48955460684E+03  0.85872067665E+03  0.80822178422E+02 0.  0.
         13    1    3    3    0    0  0.71641549040E+01 -0.37970883345E+03  0.10659986083E+04  0.11316285416E+04  0.00000000000E+00 0. -1.
        -13    1    3    3    0    0 -0.69563417986E+01 -0.79173840533E+02  0.12627546178E+03  0.14920583087E+03  0.00000000000E+00 0.  1.
          4    1    6    6  502    0  0.25518896361E+02  0.59541690628E+03  0.41187179455E+03  0.72443832139E+03  0.00000000000E+00 0. -1.
          3    1    5    5  503    0  0.20062838245E+02 -0.21226074938E+03  0.45072933980E+03  0.49861215485E+03  0.00000000000E+00 0. -1.
         -4    1    5    5    0  503 -0.16100783779E+02 -0.29704545242E+02  0.31110571478E+02  0.45928889645E+02  0.00000000000E+00 0.  1.
         -3    1    6    6    0  502 -0.29688763932E+02  0.10543106233E+03  0.77682812294E+02  0.13428235526E+03  0.00000000000E+00 0.  1.
<mgrwt>
<rscale>  0 0.15883671E+04</rscale>
<asrwt>0</asrwt>
<pdfrwt beam="1">  1        2 0.37290496E+00 0.15883671E+04</pdfrwt>
<pdfrwt beam="2">  1       -2 0.40032887E-01 0.15883671E+04</pdfrwt>
<totfact> 0.21869053E+01</totfact>
</mgrwt>
</event>
<event>
12    1  0.1477245E-007  0.1745251E+04  0.7818608E-02  0.8735969E-01
          1   -1    0    0  501    0  0.00000000000E+00  0.00000000000E+00  0.11437333580E+04  0.11437333580E+04  0.00000000000E+00 0. -1.
         -1   -1    0    0    0  501 -0.00000000000E+00 -0.00000000000E+00 -0.66578055255E+03  0.66578055255E+03  0.00000000000E+00 0.  1.
         23    2    1    2    0    0  0.63107622682E+03 -0.11788153850E+03  0.81564223040E+02  0.65695447787E+03  0.11306282472E+03 0.  0.
        254    2    1    2    0    0 -0.63107622682E+03  0.11788153850E+03  0.39638858245E+03  0.11525594327E+04  0.87127267630E+03 0.  0.
        -24    2    4    4    0    0 -0.47823088350E+03 -0.67585899706E+02 -0.18123772268E+03  0.52191788024E+03  0.79237174475E+02 0.  0.
         24    2    4    4    0    0 -0.15284534332E+03  0.18546743821E+03  0.57762630513E+03  0.63064155247E+03  0.79352061857E+02 0.  0.
         13    1    3    3    0    0  0.59436228447E+03 -0.81090117124E+02  0.73440572047E+02  0.60434729247E+03  0.00000000000E+00 0. -1.
        -13    1    3    3    0    0  0.36713942351E+02 -0.36791421379E+02  0.81236509925E+01  0.52607185398E+02  0.00000000000E+00 0.  1.
          4    1    6    6  502    0 -0.13756402813E+03  0.12175167195E+03  0.37305782769E+03  0.41583587418E+03  0.00000000000E+00 0. -1.
          3    1    5    5  503    0 -0.33070367008E+03 -0.79438018179E+02 -0.14374903726E+03  0.36924125156E+03  0.00000000000E+00 0. -1.
         -4    1    5    5    0  503 -0.14752721342E+03  0.11852118472E+02 -0.37488685416E+02  0.15267662868E+03  0.00000000000E+00 0.  1.
         -3    1    6    6    0  502 -0.15281315186E+02  0.63715766263E+02  0.20456847744E+03  0.21480567829E+03  0.00000000000E+00 0.  1.
<mgrwt>
<rscale>  0 0.17452512E+04</rscale>
<asrwt>0</asrwt>
<pdfrwt beam="1">  1        1 0.17595898E+00 0.17452512E+04</pdfrwt>
<pdfrwt beam="2">  1       -1 0.10242778E+00 0.17452512E+04</pdfrwt>
<totfact> 0.10053867E+01</totfact>
</mgrwt>
</event>
<event>
12    1  0.1477245E-007  0.2470963E+04  0.7818608E-02  0.8413404E-01
          1   -1    0    0  501    0  0.00000000000E+00  0.00000000000E+00  0.18683680886E+04  0.18683680886E+04  0.00000000000E+00 0. -1.
         -1   -1    0    0    0  501 -0.00000000000E+00 -0.00000000000E+00 -0.81697753848E+03  0.81697753848E+03  0.00000000000E+00 0.  1.
         23    2    1    2    0    0  0.47619412598E+03  0.25553538169E+03 -0.50242327043E+03  0.74362240099E+03  0.92119246993E+02 0.  0.
        254    2    1    2    0    0 -0.47619412598E+03 -0.25553538169E+03  0.15538138205E+04  0.19417232261E+04  0.10314516571E+04 0.  0.
        -24    2    4    4    0    0 -0.79487950940E+03 -0.19339950974E+03  0.99740424154E+03  0.12924899096E+04  0.80486897450E+02 0.  0.
         24    2    4    4    0    0  0.31868538342E+03 -0.62135871946E+02  0.55640957898E+03  0.64923331642E+03  0.80566986879E+02 0.  0.
         11    1    3    3    0    0  0.85380754224E+01  0.25335594450E+02 -0.19948766765E+02  0.33357823273E+02  0.00000000000E+00 0. -1.
        -11    1    3    3    0    0  0.46765605055E+03  0.23019978724E+03 -0.48247450367E+03  0.71026457771E+03  0.00000000000E+00 0.  1.
          2    1    6    6  502    0  0.28051422165E+03 -0.68560739324E+02  0.52582435111E+03  0.59990003479E+03  0.00000000000E+00 0. -1.
          3    1    5    5  503    0 -0.76514369951E+03 -0.18690755891E+03  0.93128142779E+03  0.12196984932E+04  0.00000000000E+00 0. -1.
         -4    1    5    5    0  503 -0.29735809889E+02 -0.64919508312E+01  0.66122813744E+02  0.72791416477E+02  0.00000000000E+00 0.  1.
         -1    1    6    6    0  502  0.38171161771E+02  0.64248673781E+01  0.30585227870E+02  0.49333281623E+02  0.00000000000E+00 0.  1.
<mgrwt>
<rscale>  0 0.24709632E+04</rscale>
<asrwt>0</asrwt>
<pdfrwt beam="1">  1        1 0.28744124E+00 0.24709632E+04</pdfrwt>
<pdfrwt beam="2">  1       -1 0.12568885E+00 0.24709632E+04</pdfrwt>
<totfact> 0.17995501E+00</totfact>
</mgrwt>
</event>
<event>
12    1  0.1477245E-007  0.1321807E+04  0.7818608E-02  0.9012448E-01
         -2   -1    0    0    0  501 -0.00000000000E+00  0.00000000000E+00  0.96915635453E+03  0.96915635453E+03  0.00000000000E+00 0.  1.
          2   -1    0    0  501    0  0.00000000000E+00 -0.00000000000E+00 -0.45069456604E+03  0.45069456604E+03  0.00000000000E+00 0. -1.
         23    2    1    2    0    0 -0.89485028795E+02  0.10382316715E+03 -0.20472915458E+03  0.26270055823E+03  0.91163239014E+02 0.  0.
        254    2    1    2    0    0  0.89485028795E+02 -0.10382316715E+03  0.72319094306E+03  0.11571503623E+04  0.89286337170E+03 0.  0.
        -24    2    4    4    0    0 -0.29720393295E+03  0.63470702321E+02  0.65037524410E+03  0.72238150723E+03  0.80550456480E+02 0.  0.
         24    2    4    4    0    0  0.38668896174E+03 -0.16729386947E+03  0.72815698960E+02  0.43476885511E+03  0.78779689395E+02 0.  0.
         11    1    3    3    0    0 -0.37157142586E+02  0.45359933375E+02 -0.19922728940E+02  0.61928119053E+02  0.00000000000E+00 0.  1.
        -11    1    3    3    0    0 -0.52327886209E+02  0.58463233772E+02 -0.18480642564E+03  0.20077243918E+03  0.00000000000E+00 0. -1.
          4    1    6    6  502    0  0.27896930049E+03 -0.10232325917E+03  0.18413204636E+02  0.29771289205E+03  0.00000000000E+00 0. -1.
          1    1    5    5  503    0 -0.23844822410E+03  0.76588348628E+02  0.47532414486E+03  0.53726750638E+03  0.00000000000E+00 0. -1.
         -2    1    5    5    0  503 -0.58755708842E+02 -0.13117646307E+02  0.17505109924E+03  0.18511400085E+03  0.00000000000E+00 0.  1.
         -3    1    6    6    0  502  0.10771966125E+03 -0.64970610299E+02  0.54402494324E+02  0.13705596306E+03  0.00000000000E+00 0.  1.
<mgrwt>
<rscale>  0 0.13218071E+04</rscale>
<asrwt>0</asrwt>
<pdfrwt beam="1">  1        2 0.69337625E-01 0.13218071E+04</pdfrwt>
<pdfrwt beam="2">  1       -2 0.14910098E+00 0.13218071E+04</pdfrwt>
<totfact> 0.20665399E+01</totfact>
</mgrwt>
</event>
<event>
12    1  0.1477245E-007  0.1308185E+04  0.7818608E-02  0.9023100E-01
         -2   -1    0    0    0  501 -0.00000000000E+00  0.00000000000E+00  0.30095376690E+03  0.30095376690E+03  0.00000000000E+00 0.  1.
          2   -1    0    0  501    0  0.00000000000E+00 -0.00000000000E+00 -0.14216028819E+04  0.14216028819E+04  0.00000000000E+00 0. -1.
         23    2    1    2    0    0  0.30167142333E+03  0.11101042267E+03 -0.17882424833E+03  0.37897758804E+03  0.91197252441E+02 0.  0.
        254    2    1    2    0    0 -0.30167142333E+03 -0.11101042267E+03 -0.94182486670E+03  0.13435790608E+04  0.90268579887E+03 0.  0.
        -24    2    4    4    0    0 -0.43509096643E+03  0.65854023489E+02 -0.84502249513E+02  0.45447466286E+03  0.75932124513E+02 0.  0.
         24    2    4    4    0    0  0.13341954310E+03 -0.17686444616E+03 -0.85732261719E+03  0.88910439793E+03  0.80142084322E+02 0.  0.
         13    1    3    3    0    0  0.10261657530E+03  0.79975050357E+02 -0.47529809073E+02  0.13851084058E+03  0.00000000000E+00 0. -1.
        -13    1    3    3    0    0  0.19905484802E+03  0.31035372313E+02 -0.13129443926E+03  0.24046674746E+03  0.00000000000E+00 0.  1.
          4    1    6    6  502    0 -0.81555857517E+01 -0.54679810177E+01 -0.14909302195E+02  0.17852161979E+02  0.00000000000E+00 0. -1.
          3    1    5    5  503    0 -0.12523300148E+03  0.51253666331E+02 -0.39952624151E+02  0.14109023761E+03  0.00000000000E+00 0. -1.
         -4    1    5    5    0  503 -0.30985796495E+03  0.14600357158E+02 -0.44549625362E+02  0.31338442525E+03  0.00000000000E+00 0.  1.
         -3    1    6    6    0  502  0.14157512886E+03 -0.17139646514E+03 -0.84241331499E+03  0.87125223595E+03  0.00000000000E+00 0.  1.
<mgrwt>
<rscale>  0 0.13081846E+04</rscale>
<asrwt>0</asrwt>
<pdfrwt beam="1">  1        2 0.21870814E+00 0.13081846E+04</pdfrwt>
<pdfrwt beam="2">  1       -2 0.46300579E-01 0.13081846E+04</pdfrwt>
<totfact> 0.60915504E+01</totfact>
</mgrwt>
</event>
<event>
12    1  0.1477245E-007  0.1654001E+04  0.7818608E-02  0.8788043E-01
          2   -1    0    0  501    0  0.00000000000E+00  0.00000000000E+00  0.54134232971E+03  0.54134232971E+03  0.00000000000E+00 0. -1.
         -2   -1    0    0    0  501 -0.00000000000E+00 -0.00000000000E+00 -0.12633967171E+04  0.12633967171E+04  0.00000000000E+00 0.  1.
         23    2    1    2    0    0 -0.18123713675E+03 -0.54190496492E+03 -0.37490516214E+03  0.68950709772E+03  0.91423555317E+02 0.  0.
        254    2    1    2    0    0  0.18123713675E+03  0.54190496492E+03 -0.34714922526E+03  0.11152319491E+04  0.89259275425E+03 0.  0.
        -24    2    4    4    0    0  0.18337847181E+03 -0.14054578620E+03  0.13186143515E+03  0.27759636138E+03  0.79319101304E+02 0.  0.
         24    2    4    4    0    0 -0.21413350535E+01  0.68245075111E+03 -0.47901066041E+03  0.83763558771E+03  0.80240588310E+02 0.  0.
         11    1    3    3    0    0  0.37731313575E+01 -0.49679106326E+02 -0.14095393299E+02  0.51777700198E+02  0.00000000000E+00 0. -1.
        -11    1    3    3    0    0 -0.18501026811E+03 -0.49222585859E+03 -0.36080976884E+03  0.63772939752E+03  0.00000000000E+00 0.  1.
          4    1    6    6  502    0 -0.16067251974E+02  0.65930134515E+03 -0.46682752167E+03  0.80800021986E+03  0.00000000000E+00 0. -1.
          1    1    5    5  503    0  0.18613434083E+03 -0.14345497411E+03  0.11760137861E+03  0.26278395439E+03  0.00000000000E+00 0. -1.
         -2    1    5    5    0  503 -0.27558690263E+01  0.29091879081E+01  0.14260056540E+02  0.14812406992E+02  0.00000000000E+00 0.  1.
         -3    1    6    6    0  502  0.13925916920E+02  0.23149405963E+02 -0.12183138737E+02  0.29635367856E+02  0.00000000000E+00 0.  1.
<mgrwt>
<rscale>  0 0.16540014E+04</rscale>
<asrwt>0</asrwt>
<pdfrwt beam="1">  1        2 0.83283435E-01 0.16540014E+04</pdfrwt>
<pdfrwt beam="2">  1       -2 0.19436873E+00 0.16540014E+04</pdfrwt>
<totfact> 0.77554574E+00</totfact>
</mgrwt>
</event>
<event>
12    1  0.1477245E-007  0.1750159E+04  0.7818608E-02  0.8733263E-01
         -2   -1    0    0    0  501 -0.00000000000E+00  0.00000000000E+00  0.25208814188E+03  0.25208814188E+03  0.00000000000E+00 0.  1.
          2   -1    0    0  501    0  0.00000000000E+00 -0.00000000000E+00 -0.30376849806E+04  0.30376849806E+04  0.00000000000E+00 0. -1.
         23    2    1    2    0    0 -0.31042035088E+03  0.39310080926E+02 -0.65521353587E+01  0.32568755387E+03  0.90129770696E+02 0.  0.
        254    2    1    2    0    0  0.31042035088E+03 -0.39310080926E+02 -0.27790447034E+04  0.29640855686E+04  0.98224626143E+03 0.  0.
        -24    2    4    4    0    0  0.39025458965E+03 -0.25779526642E+03 -0.56996371997E+03  0.74162303537E+03  0.79931472924E+02 0.  0.
         24    2    4    4    0    0 -0.79834238773E+02  0.21848518550E+03 -0.22090809834E+04  0.22224625333E+04  0.72053026082E+02 0.  0.
         11    1    3    3    0    0 -0.20220726246E+02 -0.18870714813E+02 -0.10775082431E+02  0.29683059965E+02  0.00000000000E+00 0. -1.
        -11    1    3    3    0    0 -0.29019962463E+03  0.58180795739E+02  0.42229470727E+01  0.29600449391E+03  0.00000000000E+00 0.  1.
          2    1    6    6  502    0 -0.38209555220E+02  0.17074946158E+03 -0.13968676006E+04  0.14077835211E+04  0.00000000000E+00 0. -1.
          3    1    5    5  503    0  0.14904012401E+03 -0.13463157080E+03 -0.28306136105E+03  0.34707686834E+03  0.00000000000E+00 0. -1.
         -4    1    5    5    0  503  0.24121446564E+03 -0.12316369563E+03 -0.28690235893E+03  0.39454616703E+03  0.00000000000E+00 0.  1.
         -1    1    6    6    0  502 -0.41624683553E+02  0.47735723920E+02 -0.81221338281E+03  0.81467901215E+03  0.00000000000E+00 0.  1.
<mgrwt>
<rscale>  0 0.17501593E+04</rscale>
<asrwt>0</asrwt>
<pdfrwt beam="1">  1        2 0.46733617E+00 0.17501593E+04</pdfrwt>
<pdfrwt beam="2">  1       -2 0.38782790E-01 0.17501593E+04</pdfrwt>
<totfact> 0.98623643E+00</totfact>
</mgrwt>
</event>
<event>
12    1  0.1477245E-007  0.2139820E+04  0.7818608E-02  0.8543902E-01
          1   -1    0    0  501    0  0.00000000000E+00  0.00000000000E+00  0.22939768525E+04  0.22939768525E+04  0.00000000000E+00 0. -1.
         -1   -1    0    0    0  501 -0.00000000000E+00 -0.00000000000E+00 -0.49900571568E+03  0.49900571568E+03  0.00000000000E+00 0.  1.
         23    2    1    2    0    0 -0.16307343222E+03  0.81606942310E+03  0.38804712131E+03  0.92267016269E+03  0.90429050417E+02 0.  0.
        254    2    1    2    0    0  0.16307343222E+03 -0.81606942310E+03  0.14069240155E+04  0.18703124055E+04  0.90888451473E+03 0.  0.
        -24    2    4    4    0    0 -0.21958819326E+03 -0.79309354661E+03  0.10706606430E+04  0.13525552672E+04  0.76649788411E+02 0.  0.
         24    2    4    4    0    0  0.38266162548E+03 -0.22975876484E+02  0.33626337253E+03  0.51775713831E+03  0.89674901992E+02 0.  0.
         11    1    3    3    0    0 -0.13818616665E+03  0.54382417580E+03  0.29472326117E+03  0.63379961464E+03  0.00000000000E+00 0.  1.
        -11    1    3    3    0    0 -0.24887265563E+02  0.27224524729E+03  0.93323860136E+02  0.28887054805E+03  0.00000000000E+00 0. -1.
          2    1    6    6  502    0  0.49806508927E+02 -0.33044042062E+02  0.64459271848E+02  0.87906739073E+02  0.00000000000E+00 0. -1.
          3    1    5    5  503    0 -0.17028268269E+03 -0.47821507158E+03  0.64510591991E+03  0.82088214416E+03  0.00000000000E+00 0. -1.
         -4    1    5    5    0  503 -0.49305510579E+02 -0.31487847504E+03  0.42555472310E+03  0.53167312305E+03  0.00000000000E+00 0.  1.
         -1    1    6    6    0  502  0.33285511656E+03  0.10068165578E+02  0.27180410068E+03  0.42985039923E+03  0.00000000000E+00 0.  1.
<mgrwt>
<rscale>  0 0.21398201E+04</rscale>
<asrwt>0</asrwt>
<pdfrwt beam="1">  1        1 0.35291951E+00 0.21398201E+04</pdfrwt>
<pdfrwt beam="2">  1       -1 0.76770112E-01 0.21398201E+04</pdfrwt>
<totfact> 0.29314341E+00</totfact>
</mgrwt>
</event>
<event>
12    1  0.1477245E-007  0.1927362E+04  0.7818608E-02  0.8641355E-01
          3   -1    0    0  501    0  0.00000000000E+00  0.00000000000E+00  0.11644418424E+04  0.11644418424E+04  0.00000000000E+00 0. -1.
         -3   -1    0    0    0  501 -0.00000000000E+00 -0.00000000000E+00 -0.79753352162E+03  0.79753352162E+03  0.00000000000E+00 0.  1.
         23    2    1    2    0    0 -0.56551299174E+03 -0.35567436601E+03  0.46243431771E+03  0.81862234868E+03  0.99939247025E+02 0.  0.
        254    2    1    2    0    0  0.56551299174E+03  0.35567436601E+03 -0.95525996932E+02  0.11433530153E+04  0.92294187419E+03 0.  0.
        -24    2    4    4    0    0  0.57378537602E+03 -0.17091445271E+03 -0.10971935227E+02  0.60406046650E+03  0.79544050347E+02 0.  0.
         24    2    4    4    0    0 -0.82723842760E+01  0.52658881872E+03 -0.84554061705E+02  0.53929254885E+03  0.79516335060E+02 0.  0.
         11    1    3    3    0    0 -0.18247565003E+03 -0.11580297270E+03  0.20812045597E+03  0.30003635702E+03  0.00000000000E+00 0. -1.
        -11    1    3    3    0    0 -0.38303734171E+03 -0.23987139331E+03  0.25431386174E+03  0.51858599166E+03  0.00000000000E+00 0.  1.
          2    1    6    6  502    0 -0.43850649675E+02  0.26168661978E+03 -0.43494194522E+02  0.26887638685E+03  0.00000000000E+00 0. -1.
          1    1    5    5  503    0  0.47736950941E+03 -0.11013782896E+03 -0.51074616385E+01  0.48993680822E+03  0.00000000000E+00 0. -1.
         -2    1    5    5    0  503  0.96415866604E+02 -0.60776623756E+02 -0.58644735885E+01  0.11412365828E+03  0.00000000000E+00 0.  1.
         -1    1    6    6    0  502  0.35578265399E+02  0.26490219894E+03 -0.41059867183E+02  0.27041616199E+03  0.00000000000E+00 0.  1.
<mgrwt>
<rscale>  0 0.19273623E+04</rscale>
<asrwt>0</asrwt>
<pdfrwt beam="1">  1        3 0.17914490E+00 0.19273623E+04</pdfrwt>
<pdfrwt beam="2">  1       -3 0.12269746E+00 0.19273623E+04</pdfrwt>
<totfact> 0.26318932E-01</totfact>
</mgrwt>
</event>
<event>
12    1  0.1477245E-007  0.2886515E+04  0.7818608E-02  0.8276901E-01
         -2   -1    0    0    0  501 -0.00000000000E+00  0.00000000000E+00  0.51024979712E+03  0.51024979712E+03  0.00000000000E+00 0.  1.
          2   -1    0    0  501    0  0.00000000000E+00 -0.00000000000E+00 -0.40822990529E+04  0.40822990529E+04  0.00000000000E+00 0. -1.
         23    2    1    2    0    0  0.40684895551E+03  0.68130607368E+03  0.23211001192E+02  0.79904995244E+03  0.90763634217E+02 0.  0.
        254    2    1    2    0    0 -0.40684895551E+03 -0.68130607368E+03 -0.35952602570E+04  0.37934988976E+04  0.91380169182E+03 0.  0.
        -24    2    4    4    0    0  0.14658175064E+03 -0.37348010436E+03 -0.56894705372E+03  0.70055849401E+03  0.78152770965E+02 0.  0.
         24    2    4    4    0    0 -0.55343070615E+03 -0.30782596932E+03 -0.30263132033E+04  0.30929404036E+04  0.81647792565E+02 0.  0.
         11    1    3    3    0    0  0.40666239340E+03  0.67128794794E+03  0.32299635885E+02  0.78552216884E+03  0.00000000000E+00 0.  1.
        -11    1    3    3    0    0  0.18656210599E+00  0.10018125737E+02 -0.90886346930E+01  0.13527783606E+02  0.00000000000E+00 0. -1.
          4    1    6    6  502    0 -0.51665827722E+03 -0.30495154416E+03 -0.27908635656E+04  0.28546191797E+04  0.00000000000E+00 0. -1.
          1    1    5    5  503    0  0.15385952568E+03 -0.36982571276E+03 -0.55588296665E+03  0.68516398334E+03  0.00000000000E+00 0. -1.
         -2    1    5    5    0  503 -0.72777750376E+01 -0.36543916014E+01 -0.13064087073E+02  0.15394510662E+02  0.00000000000E+00 0.  1.
         -3    1    6    6    0  502 -0.36772428933E+02 -0.28744251652E+01 -0.23544963771E+03  0.23832122387E+03  0.00000000000E+00 0.  1.
<mgrwt>
<rscale>  0 0.28865150E+04</rscale>
<asrwt>0</asrwt>
<pdfrwt beam="1">  1        2 0.62804602E+00 0.28865150E+04</pdfrwt>
<pdfrwt beam="2">  1       -2 0.78499967E-01 0.28865150E+04</pdfrwt>
<totfact> 0.36496789E-01</totfact>
</mgrwt>
</event>
<event>
12    1  0.1477245E-007  0.1310280E+04  0.7818608E-02  0.9021452E-01
          2   -1    0    0  501    0  0.00000000000E+00  0.00000000000E+00  0.20532147727E+04  0.20532147727E+04  0.00000000000E+00 0. -1.
         -2   -1    0    0    0  501 -0.00000000000E+00 -0.00000000000E+00 -0.20904222373E+03  0.20904222373E+03  0.00000000000E+00 0.  1.
         23    2    1    2    0    0  0.81907467416E+02 -0.81361230691E+01  0.10479111878E+04  0.10550627125E+04  0.90908965469E+02 0.  0.
        254    2    1    2    0    0 -0.81907467416E+02  0.81361230691E+01  0.79626136118E+03  0.12071942840E+04  0.90360990158E+03 0.  0.
        -24    2    4    4    0    0 -0.11510006116E+03 -0.34119354482E+03  0.76026684541E+03  0.84490139921E+03  0.78686968659E+02 0.  0.
         24    2    4    4    0    0  0.33192593746E+02  0.34932966789E+03  0.35994515766E+02  0.36229288477E+03  0.82629075012E+02 0.  0.
         11    1    3    3    0    0  0.23958398983E+02 -0.38382127261E+02  0.67111551111E+03  0.67263899814E+03  0.00000000000E+00 0. -1.
        -11    1    3    3    0    0  0.57949068433E+02  0.30246004192E+02  0.37679567670E+03  0.38242371433E+03  0.00000000000E+00 0.  1.
          2    1    6    6  502    0  0.47669637827E+02  0.10502481041E+03  0.32891128356E+01  0.11538380924E+03  0.00000000000E+00 0. -1.
          3    1    5    5  503    0 -0.11180147939E+02 -0.60817900476E+02  0.74772915003E+02  0.97029900259E+02  0.00000000000E+00 0. -1.
         -4    1    5    5    0  503 -0.10391991322E+03 -0.28037564435E+03  0.68549393041E+03  0.74787149895E+03  0.00000000000E+00 0.  1.
         -1    1    6    6    0  502 -0.14477044080E+02  0.24430485748E+03  0.32705402930E+02  0.24690907552E+03  0.00000000000E+00 0.  1.
<mgrwt>
<rscale>  0 0.13102802E+04</rscale>
<asrwt>0</asrwt>
<pdfrwt beam="1">  1        2 0.31587918E+00 0.13102802E+04</pdfrwt>
<pdfrwt beam="2">  1       -2 0.32160344E-01 0.13102802E+04</pdfrwt>
<totfact> 0.55064588E+01</totfact>
</mgrwt>
</event>
<event>
12    1  0.1477245E-007  0.1345241E+04  0.7818608E-02  0.8994438E-01
         -1   -1    0    0    0  501 -0.00000000000E+00  0.00000000000E+00  0.67313571768E+03  0.67313571768E+03  0.00000000000E+00 0. -1.
          1   -1    0    0  501    0  0.00000000000E+00 -0.00000000000E+00 -0.67210600838E+03  0.67210600838E+03  0.00000000000E+00 0.  1.
         23    2    1    2    0    0 -0.28367562741E+03  0.17069172552E+03  0.12641885395E+03  0.36516191953E+03  0.88056652763E+02 0.  0.
        254    2    1    2    0    0  0.28367562741E+03 -0.17069172552E+03 -0.12538914465E+03  0.98007980654E+03  0.91390725068E+03 0.  0.
        -24    2    4    4    0    0  0.22213926856E+03  0.29858777236E+03  0.16983432496E+03  0.41675785073E+03  0.79642298846E+02 0.  0.
         24    2    4    4    0    0  0.61536358848E+02 -0.46927949788E+03 -0.29522346960E+03  0.56332195581E+03  0.78515974806E+02 0.  0.
         11    1    3    3    0    0 -0.25842756851E+03  0.15390542958E+03  0.82679121117E+02  0.31194154338E+03  0.00000000000E+00 0.  1.
        -11    1    3    3    0    0 -0.25248058905E+02  0.16786295944E+02  0.43739732830E+02  0.53220376154E+02  0.00000000000E+00 0. -1.
          4    1    6    6  502    0  0.38665647042E+02 -0.22401883129E+03 -0.18661348476E+03  0.29411572846E+03  0.00000000000E+00 0. -1.
          1    1    5    5  503    0 -0.37071937700E+01  0.22071708978E+02  0.18275879498E+02  0.28894833350E+02  0.00000000000E+00 0. -1.
         -2    1    5    5    0  503  0.22584646233E+03  0.27651606338E+03  0.15155844546E+03  0.38786301738E+03  0.00000000000E+00 0.  1.
         -3    1    6    6    0  502  0.22870711806E+02 -0.24526066659E+03 -0.10860998484E+03  0.26920622735E+03  0.00000000000E+00 0.  1.
<mgrwt>
<rscale>  0 0.13452413E+04</rscale>
<asrwt>0</asrwt>
<pdfrwt beam="1">  1        1 0.10340092E+00 0.13452413E+04</pdfrwt>
<pdfrwt beam="2">  1       -1 0.10355934E+00 0.13452413E+04</pdfrwt>
<totfact> 0.24953766E+01</totfact>
</mgrwt>
</event>
<event>
12    1  0.1477245E-007  0.2759416E+04  0.7818608E-02  0.8315980E-01
         -2   -1    0    0    0  501 -0.00000000000E+00  0.00000000000E+00  0.99501009930E+03  0.99501009930E+03  0.00000000000E+00 0.  1.
          2   -1    0    0  501    0  0.00000000000E+00 -0.00000000000E+00 -0.19131410324E+04  0.19131410324E+04  0.00000000000E+00 0. -1.
         23    2    1    2    0    0  0.79915419750E+01  0.12178208380E+04 -0.21183068043E+03  0.12394702966E+04  0.90900610381E+02 0.  0.
        254    2    1    2    0    0 -0.79915419750E+01 -0.12178208380E+04 -0.70630025272E+03  0.16686808351E+04  0.89581483819E+03 0.  0.
        -24    2    4    4    0    0 -0.41579423363E+03 -0.50022519362E+03 -0.47000853081E+03  0.80632500852E+03  0.78370346988E+02 0.  0.
         24    2    4    4    0    0  0.40780269165E+03 -0.71759564434E+03 -0.23629172191E+03  0.86235582658E+03  0.81100244710E+02 0.  0.
         11    1    3    3    0    0  0.84838759826E+01  0.41156910939E+03 -0.11504409085E+03  0.42742981973E+03  0.00000000000E+00 0.  1.
        -11    1    3    3    0    0 -0.49233400762E+00  0.80625172857E+03 -0.96786589578E+02  0.81204047691E+03  0.00000000000E+00 0. -1.
          4    1    6    6  502    0  0.12178412143E+03 -0.27539677731E+03 -0.60384546686E+02  0.30711732393E+03  0.00000000000E+00 0. -1.
          1    1    5    5  503    0 -0.14788248162E+03 -0.19994486186E+03 -0.22375712259E+03  0.33453613566E+03  0.00000000000E+00 0. -1.
         -4    1    5    5    0  503 -0.26791175201E+03 -0.30028033176E+03 -0.24625140822E+03  0.47178887286E+03  0.00000000000E+00 0.  1.
         -3    1    6    6    0  502  0.28601857023E+03 -0.44219886704E+03 -0.17590717523E+03  0.55523850265E+03  0.00000000000E+00 0.  1.
<mgrwt>
<rscale>  0 0.27594164E+04</rscale>
<asrwt>0</asrwt>
<pdfrwt beam="1">  1        2 0.29432938E+00 0.27594164E+04</pdfrwt>
<pdfrwt beam="2">  1       -2 0.15307848E+00 0.27594164E+04</pdfrwt>
<totfact> 0.18505764E+00</totfact>
</mgrwt>
</event>
<event>
12    1  0.1477245E-007  0.1059925E+04  0.7818608E-02  0.9245157E-01
         -1   -1    0    0    0  501 -0.00000000000E+00  0.00000000000E+00  0.23513948095E+03  0.23513948095E+03  0.00000000000E+00 0.  1.
          1   -1    0    0  501    0  0.00000000000E+00 -0.00000000000E+00 -0.11944411434E+04  0.11944411434E+04  0.00000000000E+00 0. -1.
         23    2    1    2    0    0  0.70708990535E+02 -0.43986393881E+02 -0.27070827525E+03  0.29790099103E+03  0.92344279629E+02 0.  0.
        254    2    1    2    0    0 -0.70708990535E+02  0.43986393881E+02 -0.68859338723E+03  0.11316796333E+04  0.89420544362E+03 0.  0.
        -24    2    4    4    0    0 -0.36144375263E+03  0.16113778081E+03 -0.39133196826E+02  0.40544933101E+03  0.79061888425E+02 0.  0.
         24    2    4    4    0    0  0.29073476209E+03 -0.11715138693E+03 -0.64946019040E+03  0.72623030234E+03  0.85794893618E+02 0.  0.
         13    1    3    3    0    0  0.27171501808E+02 -0.68981911040E+02 -0.16030385461E+03  0.17661857310E+03  0.00000000000E+00 0. -1.
        -13    1    3    3    0    0  0.43537488726E+02  0.24995517158E+02 -0.11040442064E+03  0.12128241793E+03  0.00000000000E+00 0.  1.
          4    1    6    6  502    0  0.38849640086E+02 -0.15422630303E+02 -0.35435252295E+02  0.54797893805E+02  0.00000000000E+00 0. -1.
          3    1    5    5  503    0 -0.11942843687E+03  0.80841336859E+02 -0.42803731676E+02  0.15043481221E+03  0.00000000000E+00 0. -1.
         -4    1    5    5    0  503 -0.24201531575E+03  0.80296443951E+02  0.36705348491E+01  0.25501451880E+03  0.00000000000E+00 0.  1.
         -3    1    6    6    0  502  0.25188512201E+03 -0.10172875663E+03 -0.61402493811E+03  0.67143240854E+03  0.00000000000E+00 0.  1.
<mgrwt>
<rscale>  0 0.10599250E+04</rscale>
<asrwt>0</asrwt>
<pdfrwt beam="1">  1        1 0.18376017E+00 0.10599250E+04</pdfrwt>
<pdfrwt beam="2">  1       -1 0.36175305E-01 0.10599250E+04</pdfrwt>
<totfact> 0.78723886E+01</totfact>
</mgrwt>
</event>
<event>
12    1  0.1477245E-007  0.2016260E+04  0.7818608E-02  0.8599056E-01
         -2   -1    0    0    0  501 -0.00000000000E+00  0.00000000000E+00  0.63722366994E+03  0.63722366994E+03  0.00000000000E+00 0.  1.
          2   -1    0    0  501    0  0.00000000000E+00 -0.00000000000E+00 -0.15949284862E+04  0.15949284862E+04  0.00000000000E+00 0. -1.
         23    2    1    2    0    0  0.75215792251E+03  0.19628570803E+03 -0.60343147628E+03  0.98826020603E+03  0.90879418430E+02 0.  0.
        254    2    1    2    0    0 -0.75215792251E+03 -0.19628570803E+03 -0.35427334000E+03  0.12438919501E+04  0.90415041036E+03 0.  0.
        -24    2    4    4    0    0 -0.61055627931E+03 -0.32411544895E+03  0.13876329705E+03  0.70942672334E+03  0.78747880754E+02 0.  0.
         24    2    4    4    0    0 -0.14160164320E+03  0.12782974092E+03 -0.49303663705E+03  0.53446522678E+03  0.78590617391E+02 0.  0.
         13    1    3    3    0    0  0.37831891930E+03  0.72102448148E+02 -0.34560060019E+03  0.51745892840E+03  0.00000000000E+00 0. -1.
        -13    1    3    3    0    0  0.37383900321E+03  0.12418325989E+03 -0.25783087608E+03  0.47080127763E+03  0.00000000000E+00 0.  1.
          4    1    6    6  502    0 -0.99328481674E+01  0.49713982985E+02 -0.16185827775E+03  0.16961203865E+03  0.00000000000E+00 0. -1.
          1    1    5    5  503    0 -0.30725664498E+03 -0.18788597390E+03  0.38790253803E+02  0.36223261706E+03  0.00000000000E+00 0. -1.
         -2    1    5    5    0  503 -0.30329963433E+03 -0.13622947506E+03  0.99973043245E+02  0.34719410628E+03  0.00000000000E+00 0.  1.
         -3    1    6    6    0  502 -0.13166879504E+03  0.78115757936E+02 -0.33117835930E+03  0.36485318814E+03  0.00000000000E+00 0.  1.
<mgrwt>
<rscale>  0 0.20162601E+04</rscale>
<asrwt>0</asrwt>
<pdfrwt beam="1">  1        2 0.24537361E+00 0.20162601E+04</pdfrwt>
<pdfrwt beam="2">  1       -2 0.98034412E-01 0.20162601E+04</pdfrwt>
<totfact> 0.90167612E+00</totfact>
</mgrwt>
</event>
<event>
12    1  0.1992206E-007  0.1465565E+04  0.7818608E-02  0.8907680E-01
          1   -1    0    0  501    0  0.00000000000E+00  0.00000000000E+00  0.23023481830E+04  0.23023481830E+04  0.00000000000E+00 0. -1.
         -1   -1    0    0    0  501 -0.00000000000E+00 -0.00000000000E+00 -0.23322725679E+03  0.23322725679E+03  0.00000000000E+00 0.  1.
         23    2    1    2    0    0  0.44298972143E+03  0.95005211307E+02  0.60112022454E+03  0.75842993747E+03  0.92760779679E+02 0.  0.
        254    2    1    2    0    0 -0.44298972143E+03 -0.95005211307E+02  0.14680007017E+04  0.17771455023E+04  0.89328281795E+03 0.  0.
        -24    2    4    4    0    0 -0.40298556250E+03 -0.44333253161E+03  0.11399601212E+04  0.12903123043E+04  0.80347167553E+02 0.  0.
         24    2    4    4    0    0 -0.40004158923E+02  0.34832732030E+03  0.32804058043E+03  0.48683319806E+03  0.80397049232E+02 0.  0.
         13    1    3    3    0    0  0.38961612777E+03  0.65548265779E+02  0.47121620279E+03  0.61493252633E+03  0.00000000000E+00 0.  1.
        -13    1    3    3    0    0  0.53373593654E+02  0.29456945528E+02  0.12990402175E+03  0.14349741115E+03  0.00000000000E+00 0. -1.
          4    1    6    6  502    0 -0.45695859504E+02  0.35005883191E+03  0.32604938086E+03  0.48055956564E+03  0.00000000000E+00 0. -1.
          1    1    5    5  503    0 -0.35862639586E+03 -0.42558616753E+03  0.10576792214E+04  0.11951660191E+04  0.00000000000E+00 0. -1.
         -2    1    5    5    0  503 -0.44359166642E+02 -0.17746364075E+02  0.82280899863E+02  0.95146285189E+02  0.00000000000E+00 0.  1.
         -3    1    6    6    0  502  0.56917005813E+01 -0.17315116082E+01  0.19911995704E+01  0.62736324155E+01  0.00000000000E+00 0.  1.
<mgrwt>
<rscale>  0 0.14655652E+04</rscale>
<asrwt>0</asrwt>
<pdfrwt beam="1">  1        1 0.35420740E+00 0.14655652E+04</pdfrwt>
<pdfrwt beam="2">  1       -1 0.35881118E-01 0.14655652E+04</pdfrwt>
<totfact> 0.13372150E+01</totfact>
</mgrwt>
</event>
<event>
12    1  0.1477245E-007  0.1334623E+04  0.7818608E-02  0.9002551E-01
         -1   -1    0    0    0  501 -0.00000000000E+00  0.00000000000E+00  0.19157943040E+03  0.19157943040E+03  0.00000000000E+00 0.  1.
          1   -1    0    0  501    0  0.00000000000E+00 -0.00000000000E+00 -0.23243861938E+04  0.23243861938E+04  0.00000000000E+00 0. -1.
         23    2    1    2    0    0  0.14145594943E+03  0.31139578510E+03 -0.33764777138E+03  0.48913412680E+03  0.90934349260E+02 0.  0.
        254    2    1    2    0    0 -0.14145594943E+03 -0.31139578510E+03 -0.17951589920E+04  0.20268314974E+04  0.87662591315E+03 0.  0.
        -24    2    4    4    0    0  0.57144938678E+01 -0.55267119899E+03 -0.71613385511E+03  0.90828285051E+03  0.81559355389E+02 0.  0.
         24    2    4    4    0    0 -0.14717044330E+03  0.24127541389E+03 -0.10790251369E+04  0.11185486469E+04  0.83563536609E+02 0.  0.
         11    1    3    3    0    0  0.35632250531E+02  0.92770425578E+02 -0.15946050585E+03  0.18789268763E+03  0.00000000000E+00 0. -1.
        -11    1    3    3    0    0  0.10582369890E+03  0.21862535952E+03 -0.17818726553E+03  0.30124143917E+03  0.00000000000E+00 0.  1.
          2    1    6    6  502    0 -0.14722162139E+03  0.18688658333E+03 -0.92862611386E+03  0.95861736901E+03  0.00000000000E+00 0. -1.
          3    1    5    5  503    0  0.27610691171E+02 -0.17276102978E+03 -0.18198287431E+03  0.25244106287E+03  0.00000000000E+00 0. -1.
         -4    1    5    5    0  503 -0.21896197303E+02 -0.37991016921E+03 -0.53415098080E+03  0.65584178764E+03  0.00000000000E+00 0.  1.
         -1    1    6    6    0  502  0.51178087551E-01  0.54388830561E+02 -0.15039902302E+03  0.15993127785E+03  0.00000000000E+00 0.  1.
<mgrwt>
<rscale>  0 0.13346229E+04</rscale>
<asrwt>0</asrwt>
<pdfrwt beam="1">  1        1 0.35759789E+00 0.13346229E+04</pdfrwt>
<pdfrwt beam="2">  1       -1 0.29473757E-01 0.13346229E+04</pdfrwt>
<totfact> 0.18526895E+01</totfact>
</mgrwt>
</event>
<event>
12    1  0.1477245E-007  0.1929550E+04  0.7818608E-02  0.8640286E-01
         -2   -1    0    0    0  501 -0.00000000000E+00  0.00000000000E+00  0.59881900439E+03  0.59881900439E+03  0.00000000000E+00 0.  1.
          2   -1    0    0  501    0  0.00000000000E+00 -0.00000000000E+00 -0.15543777203E+04  0.15543777203E+04  0.00000000000E+00 0. -1.
         23    2    1    2    0    0  0.20852701596E+03 -0.42449607736E+03  0.24849531602E+03  0.54176010408E+03  0.89853504185E+02 0.  0.
        254    2    1    2    0    0 -0.20852701596E+03  0.42449607736E+03 -0.12040540319E+04  0.16114366206E+04  0.96088575509E+03 0.  0.
        -24    2    4    4    0    0  0.15213175143E+03 -0.15264245499E+03 -0.76142934819E+03  0.79574607320E+03  0.83626382609E+02 0.  0.
         24    2    4    4    0    0 -0.36065876739E+03  0.57713853235E+03 -0.44262468371E+03  0.81569054738E+03  0.79188549965E+02 0.  0.
         13    1    3    3    0    0  0.13145213504E+01 -0.87922784163E+01 -0.72953926062E+01  0.11500212146E+02  0.00000000000E+00 0. -1.
        -13    1    3    3    0    0  0.20721249461E+03 -0.41570379894E+03  0.25579070863E+03  0.53025989193E+03  0.00000000000E+00 0.  1.
          4    1    6    6  502    0 -0.56706261100E+02  0.14453793187E+03 -0.12097795397E+03  0.19683109293E+03  0.00000000000E+00 0. -1.
          1    1    5    5  503    0  0.29044455307E+02  0.61328122607E+01 -0.80492518898E+02  0.85791825769E+02  0.00000000000E+00 0. -1.
         -2    1    5    5    0  503  0.12308729613E+03 -0.15877526725E+03 -0.68093682929E+03  0.70995424743E+03  0.00000000000E+00 0.  1.
         -3    1    6    6    0  502 -0.30395250629E+03  0.43260060047E+03 -0.32164672974E+03  0.61885945445E+03  0.00000000000E+00 0.  1.
<mgrwt>
<rscale>  0 0.19295501E+04</rscale>
<asrwt>0</asrwt>
<pdfrwt beam="1">  1        2 0.23913503E+00 0.19295501E+04</pdfrwt>
<pdfrwt beam="2">  1       -2 0.92126003E-01 0.19295501E+04</pdfrwt>
<totfact> 0.11065918E+01</totfact>
</mgrwt>
</event>
<event>
12    1  0.1477245E-007  0.1320493E+04  0.7818608E-02  0.9013470E-01
         -2   -1    0    0    0  501 -0.00000000000E+00  0.00000000000E+00  0.73903044268E+03  0.73903044268E+03  0.00000000000E+00 0.  1.
          2   -1    0    0  501    0  0.00000000000E+00 -0.00000000000E+00 -0.58986152194E+03  0.58986152194E+03  0.00000000000E+00 0. -1.
         23    2    1    2    0    0 -0.21713539946E+03  0.17562358466E+03 -0.15434456522E+03  0.33298262543E+03  0.95203775326E+02 0.  0.
        254    2    1    2    0    0  0.21713539946E+03 -0.17562358466E+03  0.30351348595E+03  0.99590933919E+03  0.90648968585E+03 0.  0.
        -24    2    4    4    0    0 -0.17773491961E+03 -0.14762292300E+03  0.49354116994E+03  0.55000786418E+03  0.74454920539E+02 0.  0.
         24    2    4    4    0    0  0.39487031907E+03 -0.28000661662E+02 -0.19002768398E+03  0.44590147502E+03  0.77530631393E+02 0.  0.
         11    1    3    3    0    0 -0.87619405932E+02  0.10514354056E+03 -0.30033924312E+02  0.14012266421E+03  0.00000000000E+00 0.  1.
        -11    1    3    3    0    0 -0.12951599353E+03  0.70480044101E+02 -0.12431064091E+03  0.19285996121E+03  0.00000000000E+00 0. -1.
          2    1    6    6  502    0  0.21580100251E+03 -0.52780891987E+02 -0.11516625311E+03  0.25023820871E+03  0.00000000000E+00 0. -1.
          3    1    5    5  503    0 -0.41897195809E+02 -0.24889090640E+02  0.18435201468E+03  0.19068431285E+03  0.00000000000E+00 0. -1.
         -4    1    5    5    0  503 -0.13583772380E+03 -0.12273383236E+03  0.30918915525E+03  0.35932355133E+03  0.00000000000E+00 0.  1.
         -3    1    6    6    0  502  0.17906931657E+03  0.24780230325E+02 -0.74861430872E+02  0.19566326631E+03  0.00000000000E+00 0.  1.
<mgrwt>
<rscale>  0 0.13204933E+04</rscale>
<asrwt>0</asrwt>
<pdfrwt beam="1">  1        2 0.90747926E-01 0.13204933E+04</pdfrwt>
<pdfrwt beam="2">  1       -2 0.11369699E+00 0.13204933E+04</pdfrwt>
<totfact> 0.30042611E+01</totfact>
</mgrwt>
</event>
<event>
12    1  0.1477245E-007  0.2618873E+04  0.7818608E-02  0.8361819E-01
          2   -1    0    0  501    0  0.00000000000E+00  0.00000000000E+00  0.19729076145E+04  0.19729076145E+04  0.00000000000E+00 0. -1.
         -2   -1    0    0    0  501 -0.00000000000E+00 -0.00000000000E+00 -0.86908465614E+03  0.86908465614E+03  0.00000000000E+00 0.  1.
         23    2    1    2    0    0  0.87926925440E+03 -0.21921481080E+03 -0.29300599712E+03  0.95658201642E+03  0.89593999667E+02 0.  0.
        254    2    1    2    0    0 -0.87926925440E+03  0.21921481080E+03  0.13968289555E+04  0.18854102542E+04  0.88457398831E+03 0.  0.
        -24    2    4    4    0    0 -0.46048965765E+02  0.11215655637E+03 -0.92984981749E+02  0.17324223212E+03  0.81652089825E+02 0.  0.
         24    2    4    4    0    0 -0.83322028864E+03  0.10705825442E+03  0.14898139372E+04  0.17121680221E+04  0.79096454305E+02 0.  0.
         13    1    3    3    0    0  0.84163233785E+02 -0.16459592563E+02 -0.56245604981E+02  0.10255698995E+03  0.00000000000E+00 0. -1.
        -13    1    3    3    0    0  0.79510602062E+03 -0.20275521823E+03 -0.23676039214E+03  0.85402502647E+03  0.00000000000E+00 0.  1.
          4    1    6    6  502    0 -0.52268046898E+03  0.68805482364E+02  0.10108123646E+04  0.11400310099E+04  0.00000000000E+00 0. -1.
          1    1    5    5  503    0  0.67961175547E+01  0.86539641603E+02 -0.47434661384E+02  0.98920897101E+02  0.00000000000E+00 0. -1.
         -2    1    5    5    0  503 -0.52845083320E+02  0.25616914771E+02 -0.45550320365E+02  0.74321335018E+02  0.00000000000E+00 0.  1.
         -3    1    6    6    0  502 -0.31053981966E+03  0.38252772059E+02  0.47900157257E+03  0.57213701217E+03  0.00000000000E+00 0.  1.
<mgrwt>
<rscale>  0 0.26188728E+04</rscale>
<asrwt>0</asrwt>
<pdfrwt beam="1">  1        2 0.30352425E+00 0.26188728E+04</pdfrwt>
<pdfrwt beam="2">  1       -2 0.13370533E+00 0.26188728E+04</pdfrwt>
<totfact> 0.24703380E+00</totfact>
</mgrwt>
</event>
<event>
12    1  0.2064307E-007  0.1676744E+04  0.7818608E-02  0.8774740E-01
          2   -1    0    0  501    0  0.00000000000E+00  0.00000000000E+00  0.19261286074E+04  0.19261286074E+04  0.00000000000E+00 0. -1.
         -2   -1    0    0    0  501 -0.00000000000E+00 -0.00000000000E+00 -0.36491225549E+03  0.36491225549E+03  0.00000000000E+00 0.  1.
         23    2    1    2    0    0 -0.50381546739E+03  0.94180199567E+02  0.16784082486E+03  0.54684030222E+03  0.90353962084E+02 0.  0.
        254    2    1    2    0    0  0.50381546739E+03 -0.94180199567E+02  0.13933755270E+04  0.17442005606E+04  0.91544541141E+03 0.  0.
        -24    2    4    4    0    0  0.29797714718E+03 -0.46766601836E+03  0.10541839354E+04  0.11940596326E+04  0.83503002553E+02 0.  0.
         24    2    4    4    0    0  0.20583832022E+03  0.37348581879E+03  0.33919159158E+03  0.55014092807E+03  0.75782808292E+02 0.  0.
         13    1    3    3    0    0 -0.48159396864E+02  0.13503278011E+02  0.46872220233E+02  0.68546852976E+02  0.00000000000E+00 0. -1.
        -13    1    3    3    0    0 -0.45565607053E+03  0.80676921556E+02  0.12096860463E+03  0.47829344924E+03  0.00000000000E+00 0.  1.
          4    1    6    6  502    0  0.15585529986E+03  0.22197569212E+03  0.18535885928E+03  0.32851482326E+03  0.00000000000E+00 0. -1.
          3    1    5    5  503    0  0.19781398673E+03 -0.34438195426E+03  0.81961591020E+03  0.91076865560E+03  0.00000000000E+00 0. -1.
         -4    1    5    5    0  503  0.10016316044E+03 -0.12328406409E+03  0.23456802523E+03  0.28329097696E+03  0.00000000000E+00 0.  1.
         -3    1    6    6    0  502  0.49983020359E+02  0.15151012667E+03  0.15383273231E+03  0.22162610482E+03  0.00000000000E+00 0.  1.
<mgrwt>
<rscale>  0 0.16767444E+04</rscale>
<asrwt>0</asrwt>
<pdfrwt beam="1">  1        2 0.29632747E+00 0.16767444E+04</pdfrwt>
<pdfrwt beam="2">  1       -2 0.56140348E-01 0.16767444E+04</pdfrwt>
<totfact> 0.20853865E+01</totfact>
</mgrwt>
</event>
<event>
12    1  0.1477245E-007  0.2145284E+04  0.7818608E-02  0.8541554E-01
          1   -1    0    0  501    0  0.00000000000E+00  0.00000000000E+00  0.95200774992E+03  0.95200774992E+03  0.00000000000E+00 0. -1.
         -1   -1    0    0    0  501 -0.00000000000E+00 -0.00000000000E+00 -0.12085620263E+04  0.12085620263E+04  0.00000000000E+00 0.  1.
         23    2    1    2    0    0 -0.78462395748E+03  0.12962925710E+03  0.27762707334E+03  0.84718867312E+03  0.90627573417E+02 0.  0.
        254    2    1    2    0    0  0.78462395748E+03 -0.12962925710E+03 -0.53418134971E+03  0.13133811031E+04  0.89843291826E+03 0.  0.
        -24    2    4    4    0    0  0.88855860716E+03 -0.28307313020E+03 -0.58697733496E+03  0.11048423052E+04  0.80419724556E+02 0.  0.
         24    2    4    4    0    0 -0.10393464969E+03  0.15344387310E+03  0.52795985255E+02  0.20853879792E+03  0.79709350655E+02 0.  0.
         11    1    3    3    0    0 -0.69545728973E+03  0.85182804988E+02  0.23813982034E+03  0.74001859851E+03  0.00000000000E+00 0. -1.
        -11    1    3    3    0    0 -0.89166667746E+02  0.44446452113E+02  0.39487253001E+02  0.10717007461E+03  0.00000000000E+00 0.  1.
          2    1    6    6  502    0 -0.95704649771E+02  0.11976028678E+03  0.71482367176E+02  0.16914974164E+03  0.00000000000E+00 0. -1.
          3    1    5    5  503    0  0.84735589258E+03 -0.28302493957E+03 -0.54758137335E+03  0.10478360967E+04  0.00000000000E+00 0. -1.
         -4    1    5    5    0  503  0.41202714582E+02 -0.48190638173E-01 -0.39395961611E+02  0.57006208456E+02  0.00000000000E+00 0.  1.
         -1    1    6    6    0  502 -0.82299999168E+01  0.33683586320E+02 -0.18686381921E+02  0.39389056289E+02  0.00000000000E+00 0.  1.
<mgrwt>
<rscale>  0 0.21452836E+04</rscale>
<asrwt>0</asrwt>
<pdfrwt beam="1">  1        1 0.14646273E+00 0.21452836E+04</pdfrwt>
<pdfrwt beam="2">  1       -1 0.18593262E+00 0.21452836E+04</pdfrwt>
<totfact> 0.28556319E+00</totfact>
</mgrwt>
</event>
<event>
12    1  0.1477245E-007  0.1324525E+04  0.7818608E-02  0.9010339E-01
         -2   -1    0    0    0  501 -0.00000000000E+00  0.00000000000E+00  0.76800497081E+03  0.76800497081E+03  0.00000000000E+00 0.  1.
          2   -1    0    0  501    0  0.00000000000E+00 -0.00000000000E+00 -0.57107941171E+03  0.57107941171E+03  0.00000000000E+00 0. -1.
         23    2    1    2    0    0  0.32531491718E+03  0.39408146432E+02  0.19888498463E+03  0.39355721788E+03  0.89158562621E+02 0.  0.
        254    2    1    2    0    0 -0.32531491718E+03 -0.39408146432E+02 -0.19594255293E+01  0.94552716464E+03  0.88692445134E+03 0.  0.
        -24    2    4    4    0    0 -0.14867118676E+03 -0.41667865015E+03 -0.18136236560E+03  0.48481485772E+03  0.80180542159E+02 0.  0.
         24    2    4    4    0    0 -0.17664373042E+03  0.37727050372E+03  0.17940294007E+03  0.46071230693E+03  0.80835477198E+02 0.  0.
         11    1    3    3    0    0  0.72941182665E+02 -0.24702906165E+02  0.64939574793E+02  0.10073627984E+03  0.00000000000E+00 0.  1.
        -11    1    3    3    0    0  0.25237373452E+03  0.64111052597E+02  0.13394540983E+03  0.29282093804E+03  0.00000000000E+00 0. -1.
          4    1    6    6  502    0 -0.15858083194E+03  0.27135298536E+03  0.11089646904E+03  0.33328418769E+03  0.00000000000E+00 0. -1.
          3    1    5    5  503    0 -0.28534244485E+02 -0.17377130305E+03 -0.96719301583E+02  0.20091115492E+03  0.00000000000E+00 0. -1.
         -4    1    5    5    0  503 -0.12013694228E+03 -0.24290734710E+03 -0.84643064013E+02  0.28390370280E+03  0.00000000000E+00 0.  1.
         -3    1    6    6    0  502 -0.18062898473E+02  0.10591751837E+03  0.68506471030E+02  0.12742811923E+03  0.00000000000E+00 0.  1.
<mgrwt>
<rscale>  0 0.13245253E+04</rscale>
<asrwt>0</asrwt>
<pdfrwt beam="1">  1        2 0.87858372E-01 0.13245253E+04</pdfrwt>
<pdfrwt beam="2">  1       -2 0.11815461E+00 0.13245253E+04</pdfrwt>
<totfact> 0.28416644E+01</totfact>
</mgrwt>
</event>
<event>
12    1  0.1477245E-007  0.2373163E+04  0.7818608E-02  0.8449620E-01
         -2   -1    0    0    0  501 -0.00000000000E+00  0.00000000000E+00  0.36156740717E+03  0.36156740717E+03  0.00000000000E+00 0.  1.
          2   -1    0    0  501    0  0.00000000000E+00 -0.00000000000E+00 -0.38940885265E+04  0.38940885265E+04  0.00000000000E+00 0. -1.
         23    2    1    2    0    0  0.55111293727E+03  0.29660911557E+03 -0.29509371498E+04  0.30179503351E+04  0.91058914564E+02 0.  0.
        254    2    1    2    0    0 -0.55111293727E+03 -0.29660911557E+03 -0.58158396953E+03  0.12377055986E+04  0.89552933960E+03 0.  0.
        -24    2    4    4    0    0 -0.30460262654E+03 -0.51554421438E+02 -0.77073355050E+03  0.83384996638E+03  0.76386792710E+02 0.  0.
         24    2    4    4    0    0 -0.24651031073E+03 -0.24505469413E+03  0.18914958097E+03  0.40385563220E+03  0.80639142285E+02 0.  0.
         11    1    3    3    0    0  0.24089027890E+03  0.95240761260E+02 -0.10608096713E+04  0.10919780619E+04  0.00000000000E+00 0. -1.
        -11    1    3    3    0    0  0.31022265837E+03  0.20136835431E+03 -0.18901274785E+04  0.19259722732E+04  0.00000000000E+00 0.  1.
          4    1    6    6  502    0 -0.54967384874E+02 -0.14098011929E+02  0.28315295583E+02  0.63418635307E+02  0.00000000000E+00 0. -1.
          3    1    5    5  503    0 -0.17065071327E+01 -0.12680081094E+02 -0.27863398451E+02  0.30660489174E+02  0.00000000000E+00 0. -1.
         -4    1    5    5    0  503 -0.30289611940E+03 -0.38874340344E+02 -0.74287015205E+03  0.80318947721E+03  0.00000000000E+00 0.  1.
         -3    1    6    6    0  502 -0.19154292586E+03 -0.23095668220E+03  0.16083428539E+03  0.34043699689E+03  0.00000000000E+00 0.  1.
<mgrwt>
<rscale>  0 0.23731629E+04</rscale>
<asrwt>0</asrwt>
<pdfrwt beam="1">  1        2 0.59909057E+00 0.23731629E+04</pdfrwt>
<pdfrwt beam="2">  1       -2 0.55625752E-01 0.23731629E+04</pdfrwt>
<totfact> 0.11418094E+00</totfact>
</mgrwt>
</event>
<event>
12    1  0.1477245E-007  0.1997512E+04  0.7818608E-02  0.8607785E-01
         -1   -1    0    0    0  501 -0.00000000000E+00  0.00000000000E+00  0.34203768321E+03  0.34203768321E+03  0.00000000000E+00 0.  1.
          1   -1    0    0  501    0  0.00000000000E+00 -0.00000000000E+00 -0.29163845186E+04  0.29163845186E+04  0.00000000000E+00 0. -1.
         23    2    1    2    0    0 -0.13855294796E+03 -0.80262395617E+03 -0.97670842302E+03  0.12748447201E+04  0.88699393329E+02 0.  0.
        254    2    1    2    0    0  0.13855294796E+03  0.80262395617E+03 -0.15976384124E+04  0.19835774817E+04  0.84777885964E+03 0.  0.
        -24    2    4    4    0    0  0.48467671066E+03  0.42748627344E+03 -0.77344996446E+03  0.10109590898E+04  0.78469139733E+02 0.  0.
         24    2    4    4    0    0 -0.34612376270E+03  0.37513768273E+03 -0.82418844791E+03  0.97261839191E+03  0.78549337985E+02 0.  0.
         11    1    3    3    0    0 -0.36727333768E+02 -0.16363727195E+03 -0.25865276592E+03  0.30826499499E+03  0.00000000000E+00 0. -1.
        -11    1    3    3    0    0 -0.10182561419E+03 -0.63898668422E+03 -0.71805565710E+03  0.96657972511E+03  0.00000000000E+00 0.  1.
          2    1    6    6  502    0 -0.13508255285E+03  0.20323718924E+03 -0.40329687070E+03  0.47138202881E+03  0.00000000000E+00 0. -1.
          3    1    5    5  503    0  0.39536010225E+03  0.32484691471E+03 -0.64996391979E+03  0.82721715739E+03  0.00000000000E+00 0. -1.
         -4    1    5    5    0  503  0.89316608409E+02  0.10263935873E+03 -0.12348604467E+03  0.18374193241E+03  0.00000000000E+00 0.  1.
         -1    1    6    6    0  502 -0.21104120985E+03  0.17190049349E+03 -0.42089157722E+03  0.50123636310E+03  0.00000000000E+00 0.  1.
<mgrwt>
<rscale>  0 0.19975119E+04</rscale>
<asrwt>0</asrwt>
<pdfrwt beam="1">  1        1 0.44867453E+00 0.19975119E+04</pdfrwt>
<pdfrwt beam="2">  1       -1 0.52621184E-01 0.19975119E+04</pdfrwt>
<totfact> 0.23253142E+00</totfact>
</mgrwt>
</event>
<event>
12    1  0.1477245E-007  0.1584717E+04  0.7818608E-02  0.8829992E-01
         -2   -1    0    0    0  501 -0.00000000000E+00  0.00000000000E+00  0.26597272568E+03  0.26597272568E+03  0.00000000000E+00 0.  1.
          2   -1    0    0  501    0  0.00000000000E+00 -0.00000000000E+00 -0.23605126725E+04  0.23605126725E+04  0.00000000000E+00 0. -1.
         23    2    1    2    0    0 -0.41659766972E+03  0.27571695330E+03 -0.41311447693E+03  0.65492773807E+03  0.93237944538E+02 0.  0.
        254    2    1    2    0    0  0.41659766972E+03 -0.27571695330E+03 -0.16814254699E+04  0.19715576601E+04  0.90015250905E+03 0.  0.
        -24    2    4    4    0    0  0.35839321583E+03 -0.27389642297E+03 -0.17758818369E+04  0.18340345518E+04  0.80383398970E+02 0.  0.
         24    2    4    4    0    0  0.58204453884E+02 -0.18205303275E+01  0.94456367057E+02  0.13752310828E+03  0.81237474418E+02 0.  0.
         13    1    3    3    0    0 -0.41976468070E+03  0.27814826474E+03 -0.40630344340E+03  0.64703271359E+03  0.00000000000E+00 0.  1.
        -13    1    3    3    0    0  0.31670109797E+01 -0.24313114432E+01 -0.68110335226E+01  0.78950244791E+01  0.00000000000E+00 0. -1.
          4    1    6    6  502    0  0.12946512832E+02 -0.17591551187E+02  0.86157262228E+02  0.88882780685E+02  0.00000000000E+00 0. -1.
          1    1    5    5  503    0  0.14167515214E+03 -0.63784670861E+02 -0.54857917075E+03  0.57015738139E+03  0.00000000000E+00 0. -1.
         -2    1    5    5    0  503  0.21671806369E+03 -0.21011175211E+03 -0.12273026662E+04  0.12638771704E+04  0.00000000000E+00 0.  1.
         -3    1    6    6    0  502  0.45257941052E+02  0.15771020860E+02  0.82991048291E+01  0.48640327592E+02  0.00000000000E+00 0.  1.
<mgrwt>
<rscale>  0 0.15847170E+04</rscale>
<asrwt>0</asrwt>
<pdfrwt beam="1">  1        2 0.36315580E+00 0.15847170E+04</pdfrwt>
<pdfrwt beam="2">  1       -2 0.40918880E-01 0.15847170E+04</pdfrwt>
<totfact> 0.22774646E+01</totfact>
</mgrwt>
</event>
<event>
12    1  0.1477245E-007  0.1771595E+04  0.7818608E-02  0.8721553E-01
         -1   -1    0    0    0  501 -0.00000000000E+00  0.00000000000E+00  0.77573267377E+03  0.77573267377E+03  0.00000000000E+00 0.  1.
          1   -1    0    0  501    0  0.00000000000E+00 -0.00000000000E+00 -0.10114783631E+04  0.10114783631E+04  0.00000000000E+00 0. -1.
         23    2    1    2    0    0  0.24137393232E+03 -0.28935687461E+03  0.44830784281E+03  0.59245025995E+03  0.89602525118E+02 0.  0.
        254    2    1    2    0    0 -0.24137393232E+03  0.28935687461E+03 -0.68405353215E+03  0.11947607769E+04  0.90417658848E+03 0.  0.
        -24    2    4    4    0    0 -0.46894084531E+03  0.29324385011E+03 -0.75876277972E+03  0.94236867947E+03  0.80251480556E+02 0.  0.
         24    2    4    4    0    0  0.22756691299E+03 -0.38869755009E+01  0.74709247573E+02  0.25239209745E+03  0.79488934561E+02 0.  0.
         13    1    3    3    0    0  0.60541634613E+02 -0.34581047367E+02  0.12316592010E+03  0.14153085258E+03  0.00000000000E+00 0. -1.
        -13    1    3    3    0    0  0.18083229771E+03 -0.25477582724E+03  0.32514192271E+03  0.45091940737E+03  0.00000000000E+00 0.  1.
          2    1    6    6  502    0  0.43091031768E+02  0.30283876223E+02  0.80064354513E+01  0.53273381595E+02  0.00000000000E+00 0. -1.
          1    1    5    5  503    0 -0.48567427999E+02  0.14937409429E+02 -0.10632267742E+03  0.11784071027E+03  0.00000000000E+00 0. -1.
         -2    1    5    5    0  503 -0.42037341731E+03  0.27830644068E+03 -0.65244010230E+03  0.82452796920E+03  0.00000000000E+00 0.  1.
         -1    1    6    6    0  502  0.18447588122E+03 -0.34170851724E+02  0.66702812122E+02  0.19911871586E+03  0.00000000000E+00 0.  1.
<mgrwt>
<rscale>  0 0.17715946E+04</rscale>
<asrwt>0</asrwt>
<pdfrwt beam="1">  1        1 0.15561206E+00 0.17715946E+04</pdfrwt>
<pdfrwt beam="2">  1       -1 0.11934349E+00 0.17715946E+04</pdfrwt>
<totfact> 0.87985017E+00</totfact>
</mgrwt>
</event>
<event>
12    1  0.1477245E-007  0.2719697E+04  0.7818608E-02  0.8328642E-01
         -2   -1    0    0    0  501 -0.00000000000E+00  0.00000000000E+00  0.45821597320E+03  0.45821597320E+03  0.00000000000E+00 0. -1.
          2   -1    0    0  501    0  0.00000000000E+00 -0.00000000000E+00 -0.40356243792E+04  0.40356243792E+04  0.00000000000E+00 0.  1.
         23    2    1    2    0    0 -0.83255084793E+03 -0.40321002979E+03 -0.30774625056E+03  0.97916726861E+03  0.91332046239E+02 0.  0.
        254    2    1    2    0    0  0.83255084793E+03  0.40321002979E+03 -0.32696621554E+04  0.35146730837E+04  0.89806293355E+03 0.  0.
        -24    2    4    4    0    0  0.14443007864E+03  0.49835379984E+03 -0.87961674167E+03  0.10244316525E+04  0.80734385164E+02 0.  0.
         24    2    4    4    0    0  0.68812076929E+03 -0.95143770048E+02 -0.23900454137E+04  0.24902414313E+04  0.80142224672E+02 0.  0.
         11    1    3    3    0    0 -0.54800830816E+03 -0.26115186390E+03 -0.15594537423E+03  0.62676340159E+03  0.00000000000E+00 0. -1.
        -11    1    3    3    0    0 -0.28454253977E+03 -0.14205816590E+03 -0.15180087633E+03  0.35240386702E+03  0.00000000000E+00 0.  1.
          2    1    6    6  502    0  0.11740882652E+03  0.95901748450E+00 -0.32191407106E+03  0.34265787808E+03  0.00000000000E+00 0. -1.
          3    1    5    5  503    0  0.97723830777E+01  0.11830745584E+02 -0.59102639681E+02  0.61062165285E+02  0.00000000000E+00 0. -1.
         -4    1    5    5    0  503  0.13465769556E+03  0.48652305426E+03 -0.82051410199E+03  0.96336948719E+03  0.00000000000E+00 0.  1.
         -3    1    6    6    0  502  0.57071194277E+03 -0.96102787533E+02 -0.20681313427E+04  0.21475835532E+04  0.00000000000E+00 0.  1.
<mgrwt>
<rscale>  0 0.27196967E+04</rscale>
<asrwt>0</asrwt>
<pdfrwt beam="1">  1        2 0.62086529E+00 0.27196967E+04</pdfrwt>
<pdfrwt beam="2">  1       -2 0.70494765E-01 0.27196967E+04</pdfrwt>
<totfact> 0.51376881E-01</totfact>
</mgrwt>
</event>
<event>
12    1  0.1477245E-007  0.3604532E+04  0.7818608E-02  0.8089454E-01
         -2   -1    0    0    0  501 -0.00000000000E+00  0.00000000000E+00  0.80083964308E+03  0.80083964308E+03  0.00000000000E+00 0. -1.
          2   -1    0    0  501    0  0.00000000000E+00 -0.00000000000E+00 -0.40559465996E+04  0.40559465996E+04  0.00000000000E+00 0.  1.
         23    2    1    2    0    0 -0.52562484011E+03 -0.15099032859E+04 -0.80181978850E+03  0.17907687125E+04  0.88590085245E+02 0.  0.
        254    2    1    2    0    0  0.52562484011E+03  0.15099032859E+04 -0.24532871681E+04  0.30660175302E+04  0.90871126385E+03 0.  0.
        -24    2    4    4    0    0  0.74376857559E+03  0.12969078299E+04 -0.22007532703E+04  0.26617366600E+04  0.79783942609E+02 0.  0.
         24    2    4    4    0    0 -0.21814373548E+03  0.21299545607E+03 -0.25253389779E+03  0.40428087017E+03  0.81950587653E+02 0.  0.
         13    1    3    3    0    0 -0.51351205271E+03 -0.14931787015E+04 -0.78159799696E+03  0.17618662525E+04  0.00000000000E+00 0.  1.
        -13    1    3    3    0    0 -0.12112787400E+02 -0.16724584426E+02 -0.20221791534E+02  0.28902460028E+02  0.00000000000E+00 0. -1.
          2    1    6    6  502    0 -0.19833609372E+03  0.14966817382E+03 -0.21123173883E+03  0.32612362046E+03  0.00000000000E+00 0. -1.
          1    1    5    5  503    0  0.67659169738E+03  0.12200281970E+04 -0.20507552077E+04  0.24802907185E+04  0.00000000000E+00 0. -1.
         -2    1    5    5    0  503  0.67176878215E+02  0.76879632902E+02 -0.14999806257E+03  0.18144594153E+03  0.00000000000E+00 0.  1.
         -1    1    6    6    0  502 -0.19807641759E+02  0.63327282240E+02 -0.41302158956E+02  0.78157249711E+02  0.00000000000E+00 0.  1.
<mgrwt>
<rscale>  0 0.36045321E+04</rscale>
<asrwt>0</asrwt>
<pdfrwt beam="1">  1        2 0.62399179E+00 0.36045321E+04</pdfrwt>
<pdfrwt beam="2">  1       -2 0.12320610E+00 0.36045321E+04</pdfrwt>
<totfact> 0.12433442E-01</totfact>
</mgrwt>
</event>
<event>
12    1  0.1477245E-007  0.2059186E+04  0.7818608E-02  0.8579439E-01
          1   -1    0    0  501    0  0.00000000000E+00  0.00000000000E+00  0.31232061684E+04  0.31232061684E+04  0.00000000000E+00 0. -1.
         -1   -1    0    0    0  501 -0.00000000000E+00 -0.00000000000E+00 -0.33941452126E+03  0.33941452126E+03  0.00000000000E+00 0.  1.
         23    2    1    2    0    0 -0.22098669272E+02  0.49078018223E+03  0.66381941836E+01  0.49964536380E+03  0.90817869923E+02 0.  0.
        254    2    1    2    0    0  0.22098669272E+02 -0.49078018223E+03  0.27771534529E+04  0.29629753258E+04  0.90845359923E+03 0.  0.
        -24    2    4    4    0    0 -0.31253896460E+03 -0.48666494271E+03  0.23109466331E+04  0.23836254489E+04  0.81685793253E+02 0.  0.
         24    2    4    4    0    0  0.33463763387E+03 -0.41152395173E+01  0.46620681984E+03  0.57934987693E+03  0.79361198567E+02 0.  0.
         13    1    3    3    0    0  0.23125418059E+02  0.15255930762E+03 -0.27418132563E+02  0.15671911592E+03  0.00000000000E+00 0. -1.
        -13    1    3    3    0    0 -0.45224087330E+02  0.33822087460E+03  0.34056326746E+02  0.34292624788E+03  0.00000000000E+00 0.  1.
          2    1    6    6  502    0  0.32128028957E+03 -0.20574426995E+02  0.44607862178E+03  0.55011859478E+03  0.00000000000E+00 0. -1.
          3    1    5    5  503    0 -0.19726393992E+03 -0.33420568185E+03  0.13966829897E+04  0.14495964520E+04  0.00000000000E+00 0. -1.
         -2    1    5    5    0  503 -0.11527502468E+03 -0.15245926086E+03  0.91426364338E+03  0.93402899695E+03  0.00000000000E+00 0.  1.
         -1    1    6    6    0  502  0.13357344299E+02  0.16459187478E+02  0.20128198059E+02  0.29231282152E+02  0.00000000000E+00 0.  1.
<mgrwt>
<rscale>  0 0.20591858E+04</rscale>
<asrwt>0</asrwt>
<pdfrwt beam="1">  1        1 0.48049324E+00 0.20591858E+04</pdfrwt>
<pdfrwt beam="2">  1       -1 0.52217621E-01 0.20591858E+04</pdfrwt>
<totfact> 0.16570295E+00</totfact>
</mgrwt>
</event>
<event>
12    1  0.1477245E-007  0.2086577E+04  0.7818608E-02  0.8567179E-01
          1   -1    0    0  501    0  0.00000000000E+00  0.00000000000E+00  0.15947476150E+04  0.15947476150E+04  0.00000000000E+00 0. -1.
         -1   -1    0    0    0  501 -0.00000000000E+00 -0.00000000000E+00 -0.68252234161E+03  0.68252234161E+03  0.00000000000E+00 0.  1.
         23    2    1    2    0    0  0.78065483794E+03 -0.99697285162E+02  0.72375739372E+03  0.10736221221E+04  0.97355900604E+02 0.  0.
        254    2    1    2    0    0 -0.78065483794E+03  0.99697285162E+02  0.18846787969E+03  0.12036478346E+04  0.89100305460E+03 0.  0.
        -24    2    4    4    0    0 -0.46860854803E+03 -0.36623894904E+03  0.21338920419E+03  0.63700689429E+03  0.80733461678E+02 0.  0.
         24    2    4    4    0    0 -0.31204628991E+03  0.46593623420E+03 -0.24921324496E+02  0.56664094027E+03  0.77404272362E+02 0.  0.
         11    1    3    3    0    0  0.34768733527E+03 -0.88425611822E+02  0.35644349462E+03  0.50572476387E+03  0.00000000000E+00 0. -1.
        -11    1    3    3    0    0  0.43296750267E+03 -0.11271673340E+02  0.36731389910E+03  0.56789735821E+03  0.00000000000E+00 0.  1.
          4    1    6    6  502    0 -0.29519617001E+03  0.39588889171E+03 -0.16516906773E+02  0.49410687263E+03  0.00000000000E+00 0. -1.
          3    1    5    5  503    0 -0.32107890915E+03 -0.26617568450E+03  0.11162497497E+03  0.43174216374E+03  0.00000000000E+00 0. -1.
         -4    1    5    5    0  503 -0.14752963887E+03 -0.10006326455E+03  0.10176422922E+03  0.20526473055E+03  0.00000000000E+00 0.  1.
         -3    1    6    6    0  502 -0.16850119903E+02  0.70047342494E+02 -0.84044177225E+01  0.72534067641E+02  0.00000000000E+00 0.  1.
<mgrwt>
<rscale>  0 0.20865770E+04</rscale>
<asrwt>0</asrwt>
<pdfrwt beam="1">  1        1 0.24534579E+00 0.20865770E+04</pdfrwt>
<pdfrwt beam="2">  1       -1 0.10500344E+00 0.20865770E+04</pdfrwt>
<totfact> 0.44100906E+00</totfact>
</mgrwt>
</event>
<event>
12    1  0.1477245E-007  0.1391178E+04  0.7818608E-02  0.8960229E-01
         -1   -1    0    0    0  501 -0.00000000000E+00  0.00000000000E+00  0.46576622003E+03  0.46576622003E+03  0.00000000000E+00 0.  1.
          1   -1    0    0  501    0  0.00000000000E+00 -0.00000000000E+00 -0.10388138214E+04  0.10388138214E+04  0.00000000000E+00 0. -1.
         23    2    1    2    0    0 -0.67426885523E+02  0.39408634204E+03 -0.15998334460E+03  0.44038609077E+03  0.92167285553E+02 0.  0.
        254    2    1    2    0    0  0.67426885523E+02 -0.39408634204E+03 -0.41306425673E+03  0.10641939506E+04  0.89556476843E+03 0.  0.
        -24    2    4    4    0    0 -0.26217373550E+03 -0.48317767447E+03 -0.44505790400E+03  0.71200927755E+03  0.81761486764E+02 0.  0.
         24    2    4    4    0    0  0.32960062102E+03  0.89091332435E+02  0.31993647272E+02  0.35218467305E+03  0.80228520967E+02 0.  0.
         13    1    3    3    0    0  0.13665221079E+02  0.86400437738E+01 -0.93813328248E+01  0.18692191661E+02  0.00000000000E+00 0. -1.
        -13    1    3    3    0    0 -0.81092106601E+02  0.38544629826E+03 -0.15060201177E+03  0.42169389911E+03  0.00000000000E+00 0.  1.
          4    1    6    6  502    0  0.19977738533E+03  0.55647971505E+02 -0.20105773851E+02  0.20835532766E+03  0.00000000000E+00 0. -1.
          3    1    5    5  503    0 -0.23084407782E+02 -0.53509087208E+02 -0.18724189794E+02  0.61210355169E+02  0.00000000000E+00 0. -1.
         -4    1    5    5    0  503 -0.23908932772E+03 -0.42966858726E+03 -0.42633371421E+03  0.65079892239E+03  0.00000000000E+00 0.  1.
         -3    1    6    6    0  502  0.12982323569E+03  0.33443360930E+02  0.52099421122E+02  0.14382934539E+03  0.00000000000E+00 0.  1.
<mgrwt>
<rscale>  0 0.13911785E+04</rscale>
<asrwt>0</asrwt>
<pdfrwt beam="1">  1        1 0.15981751E+00 0.13911785E+04</pdfrwt>
<pdfrwt beam="2">  1       -1 0.71656342E-01 0.13911785E+04</pdfrwt>
<totfact> 0.27083410E+01</totfact>
</mgrwt>
</event>
<event>
12    1  0.1477245E-007  0.1745647E+04  0.7818608E-02  0.8735750E-01
         -2   -1    0    0    0  501 -0.00000000000E+00  0.00000000000E+00  0.12712629861E+04  0.12712629861E+04  0.00000000000E+00 0.  1.
          2   -1    0    0  501    0  0.00000000000E+00 -0.00000000000E+00 -0.59926328776E+03  0.59926328776E+03  0.00000000000E+00 0. -1.
         23    2    1    2    0    0  0.70880700863E+02  0.15566619941E+02  0.93074161866E+03  0.93794803912E+03  0.90554789912E+02 0.  0.
        254    2    1    2    0    0 -0.70880700863E+02 -0.15566619941E+02 -0.25874192029E+03  0.93257823477E+03  0.89302205417E+03 0.  0.
        -24    2    4    4    0    0 -0.15979738400E+03 -0.38998705174E+03 -0.31891032929E+03  0.53458408281E+03  0.80319605397E+02 0.  0.
         24    2    4    4    0    0  0.88916683133E+02  0.37442043180E+03  0.60168409002E+02  0.39799415196E+03  0.81745160494E+02 0.  0.
         11    1    3    3    0    0  0.64640317785E+02 -0.12119181209E+02  0.84656816672E+03  0.84911889989E+03  0.00000000000E+00 0.  1.
        -11    1    3    3    0    0  0.62403830771E+01  0.27685801149E+02  0.84173451935E+02  0.88829139233E+02  0.00000000000E+00 0. -1.
          2    1    6    6  502    0  0.10012375358E+03  0.29492984324E+03  0.62557237900E+02  0.31768189510E+03  0.00000000000E+00 0. -1.
          1    1    5    5  503    0 -0.53664575648E+02 -0.23572275093E+03 -0.18330468054E+03  0.30339035564E+03  0.00000000000E+00 0. -1.
         -2    1    5    5    0  503 -0.10613280835E+03 -0.15426430081E+03 -0.13560564875E+03  0.23119372717E+03  0.00000000000E+00 0.  1.
         -1    1    6    6    0  502 -0.11207070446E+02  0.79490588561E+02 -0.23888288975E+01  0.80312256856E+02  0.00000000000E+00 0.  1.
<mgrwt>
<rscale>  0 0.17456474E+04</rscale>
<asrwt>0</asrwt>
<pdfrwt beam="1">  1        2 0.92194352E-01 0.17456474E+04</pdfrwt>
<pdfrwt beam="2">  1       -2 0.19557892E+00 0.17456474E+04</pdfrwt>
<totfact> 0.66934182E+00</totfact>
</mgrwt>
</event>
<event>
12    1  0.1477245E-007  0.2123778E+04  0.7818608E-02  0.8550841E-01
         -1   -1    0    0    0  501 -0.00000000000E+00  0.00000000000E+00  0.50880419520E+03  0.50880419520E+03  0.00000000000E+00 0.  1.
          1   -1    0    0  501    0  0.00000000000E+00 -0.00000000000E+00 -0.22161922527E+04  0.22161922527E+04  0.00000000000E+00 0. -1.
         23    2    1    2    0    0  0.76717023078E+03  0.12827337346E+03 -0.11865975069E+04  0.14213069206E+04  0.84234777849E+02 0.  0.
        254    2    1    2    0    0 -0.76717023078E+03 -0.12827337346E+03 -0.52079055064E+03  0.13036895274E+04  0.90740253734E+03 0.  0.
        -24    2    4    4    0    0 -0.73912945828E+03 -0.35787083777E+03 -0.11945704390E+03  0.83373136530E+03  0.80337485118E+02 0.  0.
         24    2    4    4    0    0 -0.28040772496E+02  0.22959746430E+03 -0.40133350674E+03  0.46995816206E+03  0.79314626143E+02 0.  0.
         11    1    3    3    0    0  0.27414399345E+03  0.19071158166E+02 -0.36414995744E+03  0.45620590716E+03  0.00000000000E+00 0. -1.
        -11    1    3    3    0    0  0.49302623733E+03  0.10920221530E+03 -0.82244754945E+03  0.96510101343E+03  0.00000000000E+00 0.  1.
          4    1    6    6  502    0 -0.35949994731E+02  0.21028580139E+03 -0.39360897553E+03  0.44770586997E+03  0.00000000000E+00 0. -1.
          3    1    5    5  503    0 -0.45326698460E+03 -0.25984457689E+03 -0.62238415039E+02  0.52615946610E+03  0.00000000000E+00 0. -1.
         -4    1    5    5    0  503 -0.28586247369E+03 -0.98026260877E+02 -0.57218628863E+02  0.30757189919E+03  0.00000000000E+00 0.  1.
         -3    1    6    6    0  502  0.79092222348E+01  0.19311662915E+02 -0.77245312052E+01  0.22252292090E+02  0.00000000000E+00 0.  1.
<mgrwt>
<rscale>  0 0.21237777E+04</rscale>
<asrwt>0</asrwt>
<pdfrwt beam="1">  1        1 0.34095265E+00 0.21237777E+04</pdfrwt>
<pdfrwt beam="2">  1       -1 0.78277569E-01 0.21237777E+04</pdfrwt>
<totfact> 0.31843446E+00</totfact>
</mgrwt>
</event>
<event>
12    1  0.1477245E-007  0.1611875E+04  0.7818608E-02  0.8813285E-01
          2   -1    0    0  501    0  0.00000000000E+00  0.00000000000E+00  0.11385911238E+04  0.11385911238E+04  0.00000000000E+00 0. -1.
         -2   -1    0    0    0  501 -0.00000000000E+00 -0.00000000000E+00 -0.57047312596E+03  0.57047312596E+03  0.00000000000E+00 0.  1.
         23    2    1    2    0    0 -0.24007390633E+03 -0.10433790223E+03 -0.31602728646E+03  0.41991312206E+03  0.89061248310E+02 0.  0.
        254    2    1    2    0    0  0.24007390633E+03  0.10433790223E+03  0.88414528434E+03  0.12891511277E+04  0.90093055669E+03 0.  0.
        -24    2    4    4    0    0  0.22940304266E+03 -0.24499268470E+03  0.10919007552E+02  0.34538635508E+03  0.80779564331E+02 0.  0.
         24    2    4    4    0    0  0.10670863678E+02  0.34933058693E+03  0.87322627678E+03  0.94376477265E+03  0.77602121959E+02 0.  0.
         11    1    3    3    0    0  0.34178063998E+01 -0.13441330780E+02 -0.53710566340E+01  0.14872761111E+02  0.00000000000E+00 0. -1.
        -11    1    3    3    0    0 -0.24349171273E+03 -0.90896571452E+02 -0.31065622982E+03  0.40504036095E+03  0.00000000000E+00 0.  1.
          4    1    6    6  502    0  0.38067749476E+02  0.17160241038E+03  0.37711521426E+03  0.41606781373E+03  0.00000000000E+00 0. -1.
          1    1    5    5  503    0  0.15550429663E+03 -0.21400476788E+03  0.17687833823E+00  0.26453668598E+03  0.00000000000E+00 0. -1.
         -4    1    5    5    0  503  0.73898746027E+02 -0.30987916824E+02  0.10742129214E+02  0.80849669099E+02  0.00000000000E+00 0.  1.
         -3    1    6    6    0  502 -0.27396885798E+02  0.17772817655E+03  0.49611106253E+03  0.52769695892E+03  0.00000000000E+00 0.  1.
<mgrwt>
<rscale>  0 0.16118755E+04</rscale>
<asrwt>0</asrwt>
<pdfrwt beam="1">  1        2 0.17516786E+00 0.16118755E+04</pdfrwt>
<pdfrwt beam="2">  1       -2 0.87765097E-01 0.16118755E+04</pdfrwt>
<totfact> 0.22136533E+01</totfact>
</mgrwt>
</event>
<event>
12    1  0.1477245E-007  0.1335291E+04  0.7818608E-02  0.9002038E-01
          1   -1    0    0  501    0  0.00000000000E+00  0.00000000000E+00  0.89445929330E+03  0.89445929330E+03  0.00000000000E+00 0. -1.
         -1   -1    0    0    0  501 -0.00000000000E+00 -0.00000000000E+00 -0.49834622608E+03  0.49834622608E+03  0.00000000000E+00 0.  1.
         23    2    1    2    0    0 -0.10031972191E+03  0.17797550700E+03  0.42594635145E+03  0.48089932743E+03  0.89969667699E+02 0.  0.
        254    2    1    2    0    0  0.10031972191E+03 -0.17797550700E+03 -0.29833284232E+02  0.91190619196E+03  0.88822494357E+03 0.  0.
        -24    2    4    4    0    0  0.40407781959E+03 -0.95637948978E+02 -0.27612726770E+03  0.50497002740E+03  0.79517036168E+02 0.  0.
         24    2    4    4    0    0 -0.30375809768E+03 -0.82337558027E+02  0.24629398346E+03  0.40693616455E+03  0.76732394497E+02 0.  0.
         11    1    3    3    0    0 -0.11568583277E+02  0.11188441837E+03  0.22183293850E+03  0.24872034054E+03  0.00000000000E+00 0.  1.
        -11    1    3    3    0    0 -0.88751138636E+02  0.66091088631E+02  0.20411341295E+03  0.23217898689E+03  0.00000000000E+00 0. -1.
          4    1    6    6  502    0 -0.28569377973E+03 -0.63510228216E+02  0.24345561428E+03  0.38069032164E+03  0.00000000000E+00 0. -1.
          1    1    5    5  503    0  0.39296442988E+03 -0.88788050073E+02 -0.28083387119E+03  0.49109268391E+03  0.00000000000E+00 0. -1.
         -2    1    5    5    0  503  0.11113389715E+02 -0.68498989046E+01  0.47066034941E+01  0.13877343493E+02  0.00000000000E+00 0.  1.
         -3    1    6    6    0  502 -0.18064317947E+02 -0.18827329811E+02  0.28383691823E+01  0.26245842915E+02  0.00000000000E+00 0.  1.
<mgrwt>
<rscale>  0 0.13352908E+04</rscale>
<asrwt>0</asrwt>
<pdfrwt beam="1">  1        1 0.13760912E+00 0.13352908E+04</pdfrwt>
<pdfrwt beam="2">  1       -1 0.76668650E-01 0.13352908E+04</pdfrwt>
<totfact> 0.30770597E+01</totfact>
</mgrwt>
</event>
<event>
12    1  0.1477245E-007  0.2729379E+04  0.7818608E-02  0.8325535E-01
         -1   -1    0    0    0  501 -0.00000000000E+00  0.00000000000E+00  0.17369857405E+04  0.17369857405E+04  0.00000000000E+00 0.  1.
          1   -1    0    0  501    0  0.00000000000E+00 -0.00000000000E+00 -0.10721891866E+04  0.10721891866E+04  0.00000000000E+00 0. -1.
         23    2    1    2    0    0  0.33028456221E+03  0.44153777586E+03  0.14160310738E+04  0.15223370417E+04  0.91228104452E+02 0.  0.
        254    2    1    2    0    0 -0.33028456221E+03 -0.44153777586E+03 -0.75123451987E+03  0.12868378855E+04  0.88744292214E+03 0.  0.
        -24    2    4    4    0    0 -0.50758456106E+03  0.20176005898E+02 -0.22734950755E+03  0.56193988941E+03  0.77714109905E+02 0.  0.
         24    2    4    4    0    0  0.17729999886E+03 -0.46171378176E+03 -0.52388501232E+03  0.72489799605E+03  0.80041818329E+02 0.  0.
         11    1    3    3    0    0  0.25528011737E+03  0.29398635136E+03  0.90599041929E+03  0.98611082184E+03  0.00000000000E+00 0.  1.
        -11    1    3    3    0    0  0.75004444838E+02  0.14755142451E+03  0.51004065449E+03  0.53622621985E+03  0.00000000000E+00 0. -1.
          2    1    6    6  502    0  0.12053196407E+03 -0.39133676344E+03 -0.40967283862E+03  0.57922728828E+03  0.00000000000E+00 0. -1.
          1    1    5    5  503    0 -0.44814927772E+03  0.41191486076E+02 -0.18873028656E+03  0.48800987153E+03  0.00000000000E+00 0. -1.
         -2    1    5    5    0  503 -0.59435283343E+02 -0.21015480178E+02 -0.38619220988E+02  0.73930017875E+02  0.00000000000E+00 0.  1.
         -1    1    6    6    0  502  0.56768034792E+02 -0.70377018317E+02 -0.11421217370E+03  0.14567070777E+03  0.00000000000E+00 0.  1.
<mgrwt>
<rscale>  0 0.27293789E+04</rscale>
<asrwt>0</asrwt>
<pdfrwt beam="1">  1        1 0.16495218E+00 0.27293789E+04</pdfrwt>
<pdfrwt beam="2">  1       -1 0.26722858E+00 0.27293789E+04</pdfrwt>
<totfact> 0.62422368E-01</totfact>
</mgrwt>
</event>
<event>
12    1  0.1477245E-007  0.1459738E+04  0.7818608E-02  0.8911677E-01
         -1   -1    0    0    0  501 -0.00000000000E+00  0.00000000000E+00  0.12291558049E+03  0.12291558049E+03  0.00000000000E+00 0.  1.
          1   -1    0    0  501    0  0.00000000000E+00 -0.00000000000E+00 -0.43339385965E+04  0.43339385965E+04  0.00000000000E+00 0. -1.
         23    2    1    2    0    0 -0.23868028131E+03 -0.16258672295E+03 -0.23331837961E+04  0.23527035253E+04  0.89802743459E+02 0.  0.
        254    2    1    2    0    0  0.23868028131E+03  0.16258672295E+03 -0.18778392200E+04  0.21041506517E+04  0.90430476595E+03 0.  0.
        -24    2    4    4    0    0 -0.27993496216E+03  0.13431037721E+03 -0.12242565468E+04  0.12656505796E+04  0.81636001088E+02 0.  0.
         24    2    4    4    0    0  0.51861524347E+03  0.28276345743E+02 -0.65358267314E+03  0.83850007209E+03  0.78426639506E+02 0.  0.
         11    1    3    3    0    0 -0.19270381830E+02  0.11412033417E+02 -0.16773024323E+03  0.16921884238E+03  0.00000000000E+00 0.  1.
        -11    1    3    3    0    0 -0.21940989948E+03 -0.17399875637E+03 -0.21654535528E+04  0.21834846829E+04  0.00000000000E+00 0. -1.
          4    1    6    6  502    0  0.18085212516E+03  0.47338106230E+02 -0.23676831550E+03  0.30167469681E+03  0.00000000000E+00 0. -1.
          3    1    5    5  503    0 -0.33002950269E+02  0.37807956398E+01 -0.24832134784E+03  0.25053339285E+03  0.00000000000E+00 0. -1.
         -4    1    5    5    0  503 -0.24693201189E+03  0.13052958157E+03 -0.97593519898E+03  0.10151171867E+04  0.00000000000E+00 0.  1.
         -3    1    6    6    0  502  0.33776311832E+03 -0.19061760487E+02 -0.41681435764E+03  0.53682537528E+03  0.00000000000E+00 0.  1.
<mgrwt>
<rscale>  0 0.14597378E+04</rscale>
<asrwt>0</asrwt>
<pdfrwt beam="1">  1        1 0.66675979E+00 0.14597378E+04</pdfrwt>
<pdfrwt beam="2">  1       -1 0.18910089E-01 0.14597378E+04</pdfrwt>
<totfact> 0.10579085E+00</totfact>
</mgrwt>
</event>
<event>
12    1  0.1477245E-007  0.1627204E+04  0.7818608E-02  0.8804007E-01
         -1   -1    0    0    0  501 -0.00000000000E+00  0.00000000000E+00  0.48345921497E+03  0.48345921497E+03  0.00000000000E+00 0.  1.
          1   -1    0    0  501    0  0.00000000000E+00 -0.00000000000E+00 -0.13691919455E+04  0.13691919455E+04  0.00000000000E+00 0. -1.
         23    2    1    2    0    0 -0.42197574662E+03  0.23301044669E+03  0.22393180515E+02  0.49134324786E+03  0.92516667062E+02 0.  0.
        254    2    1    2    0    0  0.42197574662E+03 -0.23301044669E+03 -0.90812591103E+03  0.13613079126E+04  0.89224949628E+03 0.  0.
        -24    2    4    4    0    0  0.31773675242E+03  0.31254369885E+03 -0.41174702202E+03  0.61205390065E+03  0.80213213592E+02 0.  0.
         24    2    4    4    0    0  0.10423899420E+03 -0.54555414554E+03 -0.49637888901E+03  0.74925401195E+03  0.80588332481E+02 0.  0.
         13    1    3    3    0    0 -0.25887678183E+03  0.10464774687E+03 -0.18344656121E+02  0.27983006540E+03  0.00000000000E+00 0. -1.
        -13    1    3    3    0    0 -0.16309896479E+03  0.12836269982E+03  0.40737836637E+02  0.21151318246E+03  0.00000000000E+00 0.  1.
          4    1    6    6  502    0  0.74979300639E+02 -0.48159841826E+03 -0.40348692122E+03  0.63274056895E+03  0.00000000000E+00 0. -1.
          1    1    5    5  503    0  0.18112671622E+03  0.13184825672E+03 -0.23551158416E+03  0.32504854468E+03  0.00000000000E+00 0. -1.
         -2    1    5    5    0  503  0.13661003621E+03  0.18069544213E+03 -0.17623543786E+03  0.28700535597E+03  0.00000000000E+00 0.  1.
         -3    1    6    6    0  502  0.29259693559E+02 -0.63955727275E+02 -0.92891967790E+02  0.11651344299E+03  0.00000000000E+00 0.  1.
<mgrwt>
<rscale>  0 0.16272043E+04</rscale>
<asrwt>0</asrwt>
<pdfrwt beam="1">  1        1 0.21064491E+00 0.16272043E+04</pdfrwt>
<pdfrwt beam="2">  1       -1 0.74378342E-01 0.16272043E+04</pdfrwt>
<totfact> 0.14068075E+01</totfact>
</mgrwt>
</event>
<event>
12    1  0.1477245E-007  0.2466213E+04  0.7818608E-02  0.8415122E-01
         -3   -1    0    0    0  501 -0.00000000000E+00  0.00000000000E+00  0.52932786890E+03  0.52932786890E+03  0.00000000000E+00 0.  1.
          3   -1    0    0  501    0  0.00000000000E+00 -0.00000000000E+00 -0.28726074321E+04  0.28726074321E+04  0.00000000000E+00 0. -1.
         23    2    1    2    0    0  0.38385486210E+03  0.42815669801E+03 -0.22498584234E+04  0.23241464190E+04  0.95555944498E+02 0.  0.
        254    2    1    2    0    0 -0.38385486210E+03 -0.42815669801E+03 -0.93421139798E+02  0.10777888820E+04  0.90677375983E+03 0.  0.
        -24    2    4    4    0    0  0.44179093469E+02 -0.49104240770E+03 -0.30982551634E+03  0.58786005755E+03  0.80704140131E+02 0.  0.
         24    2    4    4    0    0 -0.42803395557E+03  0.62885709691E+02  0.21640437654E+03  0.48992882441E+03  0.77664143597E+02 0.  0.
         11    1    3    3    0    0  0.13840444165E+02  0.28070830994E+02 -0.22781137914E+03  0.22995119898E+03  0.00000000000E+00 0.  1.
        -11    1    3    3    0    0  0.37001441794E+03  0.40008586702E+03 -0.20220470443E+04  0.20941952200E+04  0.00000000000E+00 0. -1.
          4    1    6    6  502    0 -0.11849542577E+03  0.51556071328E+02  0.52417088650E+02  0.13945158874E+03  0.00000000000E+00 0. -1.
          3    1    5    5  503    0  0.57485682446E+02 -0.43499344473E+03 -0.25085942251E+03  0.50542492074E+03  0.00000000000E+00 0. -1.
         -4    1    5    5    0  503 -0.13306588977E+02 -0.56048962971E+02 -0.58966093825E+02  0.82435136812E+02  0.00000000000E+00 0.  1.
         -3    1    6    6    0  502 -0.30953852980E+03  0.11329638363E+02  0.16398728789E+03  0.35047723567E+03  0.00000000000E+00 0.  1.
<mgrwt>
<rscale>  0 0.24662126E+04</rscale>
<asrwt>0</asrwt>
<pdfrwt beam="1">  1        3 0.44193960E+00 0.24662126E+04</pdfrwt>
<pdfrwt beam="2">  1       -3 0.81435057E-01 0.24662126E+04</pdfrwt>
<totfact> 0.21883597E-02</totfact>
</mgrwt>
</event>
<event>
12    1  0.1477245E-007  0.2542243E+04  0.7818608E-02  0.8388089E-01
         -2   -1    0    0    0  501 -0.00000000000E+00  0.00000000000E+00  0.12487219225E+04  0.12487219225E+04  0.00000000000E+00 0.  1.
          2   -1    0    0  501    0  0.00000000000E+00 -0.00000000000E+00 -0.12939226330E+04  0.12939226330E+04  0.00000000000E+00 0. -1.
         23    2    1    2    0    0 -0.92303276933E+03 -0.53955230836E+03  0.25411223131E+03  0.11034034967E+04  0.99096234339E+02 0.  0.
        254    2    1    2    0    0  0.92303276933E+03  0.53955230836E+03 -0.29931294184E+03  0.14392410588E+04  0.91581679477E+03 0.  0.
        -24    2    4    4    0    0  0.72671830592E+03 -0.40443345505E+01 -0.42057205256E+03  0.84279221770E+03  0.72677493255E+02 0.  0.
         24    2    4    4    0    0  0.19631446341E+03  0.54359664291E+03  0.12125911072E+03  0.59644884113E+03  0.83730337591E+02 0.  0.
         13    1    3    3    0    0 -0.42528166983E+03 -0.22692937713E+03  0.16147058309E+03  0.50836422977E+03  0.00000000000E+00 0. -1.
        -13    1    3    3    0    0 -0.49775109949E+03 -0.31262293122E+03  0.92641648219E+02  0.59503926690E+03  0.00000000000E+00 0.  1.
          2    1    6    6  502    0  0.92616853372E+02  0.31295067188E+03  0.30578987268E+02  0.32779731393E+03  0.00000000000E+00 0. -1.
          3    1    5    5  503    0  0.66024115648E+03  0.62256415543E+01 -0.35877783306E+03  0.75145104751E+03  0.00000000000E+00 0. -1.
         -4    1    5    5    0  503  0.66477149442E+02 -0.10269976105E+02 -0.61794219506E+02  0.91341170189E+02  0.00000000000E+00 0.  1.
         -1    1    6    6    0  502  0.10369761004E+03  0.23064597103E+03  0.90680123453E+02  0.26865152720E+03  0.00000000000E+00 0.  1.
<mgrwt>
<rscale>  0 0.25422428E+04</rscale>
<asrwt>0</asrwt>
<pdfrwt beam="1">  1        2 0.19906502E+00 0.25422428E+04</pdfrwt>
<pdfrwt beam="2">  1       -2 0.19211107E+00 0.25422428E+04</pdfrwt>
<totfact> 0.22226202E+00</totfact>
</mgrwt>
</event>
<event>
12    1  0.1477245E-007  0.3085326E+04  0.7818608E-02  0.8219777E-01
          1   -1    0    0  501    0  0.00000000000E+00  0.00000000000E+00  0.20005968179E+04  0.20005968179E+04  0.00000000000E+00 0. -1.
         -1   -1    0    0    0  501 -0.00000000000E+00 -0.00000000000E+00 -0.11895494418E+04  0.11895494418E+04  0.00000000000E+00 0.  1.
         23    2    1    2    0    0  0.20108480977E+02  0.66642751177E+03 -0.90029959614E+03  0.11239617840E+04  0.90668349627E+02 0.  0.
        254    2    1    2    0    0 -0.20108480977E+02 -0.66642751177E+03  0.17113469722E+04  0.20661844757E+04  0.94650929674E+03 0.  0.
        -24    2    4    4    0    0 -0.41782403741E+03 -0.56271533772E+03  0.82655092257E+03  0.10866609123E+04  0.80125109366E+02 0.  0.
         24    2    4    4    0    0  0.39771555643E+03 -0.10371217405E+03  0.88479604963E+03  0.97952356339E+03  0.87569874513E+02 0.  0.
         11    1    3    3    0    0  0.41685857517E+02  0.46506973515E+03 -0.67820691447E+03  0.82340281035E+03  0.00000000000E+00 0.  1.
        -11    1    3    3    0    0 -0.21577376541E+02  0.20135777662E+03 -0.22209268167E+03  0.30055897364E+03  0.00000000000E+00 0. -1.
          2    1    6    6  502    0  0.30505769403E+03 -0.65093961263E+02  0.74272313171E+03  0.80556506308E+03  0.00000000000E+00 0. -1.
          1    1    5    5  503    0 -0.98932596225E+02 -0.10153525218E+03  0.12874132744E+03  0.19149776871E+03  0.00000000000E+00 0. -1.
         -2    1    5    5    0  503 -0.31889144118E+03 -0.46118008554E+03  0.69780959513E+03  0.89516314357E+03  0.00000000000E+00 0.  1.
         -1    1    6    6    0  502  0.92657862401E+02 -0.38618212783E+02  0.14207291792E+03  0.17395850031E+03  0.00000000000E+00 0.  1.
<mgrwt>
<rscale>  0 0.30853258E+04</rscale>
<asrwt>0</asrwt>
<pdfrwt beam="1">  1        1 0.30778413E+00 0.30853258E+04</pdfrwt>
<pdfrwt beam="2">  1       -1 0.18300761E+00 0.30853258E+04</pdfrwt>
<totfact> 0.49814475E-01</totfact>
</mgrwt>
</event>
<event>
12    1  0.1477245E-007  0.3170265E+04  0.7818608E-02  0.8196715E-01
         -1   -1    0    0    0  501 -0.00000000000E+00  0.00000000000E+00  0.10103398680E+04  0.10103398680E+04  0.00000000000E+00 0.  1.
          1   -1    0    0  501    0  0.00000000000E+00 -0.00000000000E+00 -0.24869306355E+04  0.24869306355E+04  0.00000000000E+00 0. -1.
         23    2    1    2    0    0  0.13824045914E+04  0.29607347612E+03 -0.10617408087E+04  0.17704641882E+04  0.92455066182E+02 0.  0.
        254    2    1    2    0    0 -0.13824045914E+04 -0.29607347612E+03 -0.41484995880E+03  0.17268063153E+04  0.90058736661E+03 0.  0.
        -24    2    4    4    0    0 -0.12694520282E+04 -0.31053468704E+03 -0.21479946977E+02  0.13095102546E+04  0.80096660201E+02 0.  0.
         24    2    4    4    0    0 -0.11295256312E+03  0.14461210914E+02 -0.39337001182E+03  0.41729606072E+03  0.80178725080E+02 0.  0.
         11    1    3    3    0    0  0.11253506846E+04  0.21247279777E+03 -0.88748272886E+03  0.14488562548E+04  0.00000000000E+00 0. -1.
        -11    1    3    3    0    0  0.25705390679E+03  0.83600678347E+02 -0.17425807984E+03  0.32160793336E+03  0.00000000000E+00 0.  1.
          4    1    6    6  502    0 -0.30031115245E+02 -0.21954142123E+02 -0.20424470275E+03  0.20760479484E+03  0.00000000000E+00 0. -1.
          3    1    5    5  503    0 -0.13305863630E+03 -0.57845166187E+02  0.26229405373E+01  0.14511217648E+03  0.00000000000E+00 0. -1.
         -2    1    5    5    0  503 -0.11363933919E+04 -0.25268952085E+03 -0.24102887515E+02  0.11643980781E+04  0.00000000000E+00 0.  1.
         -3    1    6    6    0  502 -0.82921447879E+02  0.36415353038E+02 -0.18912530907E+03  0.20969126588E+03  0.00000000000E+00 0.  1.
<mgrwt>
<rscale>  0 0.31702651E+04</rscale>
<asrwt>0</asrwt>
<pdfrwt beam="1">  1        1 0.38260471E+00 0.31702651E+04</pdfrwt>
<pdfrwt beam="2">  1       -1 0.15543691E+00 0.31702651E+04</pdfrwt>
<totfact> 0.36731098E-01</totfact>
</mgrwt>
</event>
<event>
12    1  0.1477245E-007  0.1898619E+04  0.7818608E-02  0.8655544E-01
         -1   -1    0    0    0  501 -0.00000000000E+00  0.00000000000E+00  0.46783134559E+03  0.46783134559E+03  0.00000000000E+00 0.  1.
          1   -1    0    0  501    0  0.00000000000E+00 -0.00000000000E+00 -0.19263100955E+04  0.19263100955E+04  0.00000000000E+00 0. -1.
         23    2    1    2    0    0  0.55045626631E+03 -0.28901085941E+03 -0.90690315930E+02  0.63496125507E+03  0.91769733907E+02 0.  0.
        254    2    1    2    0    0 -0.55045626631E+03  0.28901085941E+03 -0.13677884340E+04  0.17591801860E+04  0.91506302995E+03 0.  0.
        -24    2    4    4    0    0 -0.36373424953E+03 -0.16358655284E+03 -0.13156758474E+03  0.42718112687E+03  0.78169823130E+02 0.  0.
         24    2    4    4    0    0 -0.18672201678E+03  0.45259741225E+03 -0.12362208493E+04  0.13319990592E+04  0.79183182243E+02 0.  0.
         13    1    3    3    0    0  0.27590818470E+03 -0.16208230225E+03 -0.90304618487E+02  0.33249198968E+03  0.00000000000E+00 0.  1.
        -13    1    3    3    0    0  0.27454808161E+03 -0.12692855716E+03 -0.38569744270E+00  0.30246926538E+03  0.00000000000E+00 0. -1.
          4    1    6    6  502    0 -0.18248985614E+03  0.45550096847E+03 -0.12262474923E+04  0.13207825681E+04  0.00000000000E+00 0. -1.
          1    1    5    5  503    0 -0.36605894584E+03 -0.15662109154E+03 -0.13283087335E+03  0.41973010263E+03  0.00000000000E+00 0. -1.
         -2    1    5    5    0  503  0.23246963108E+01 -0.69654612994E+01  0.12632886022E+01  0.74510242346E+01  0.00000000000E+00 0.  1.
         -3    1    6    6    0  502 -0.42321606365E+01 -0.29035562210E+01 -0.99733569548E+01  0.11216491044E+02  0.00000000000E+00 0.  1.
<mgrwt>
<rscale>  0 0.18986187E+04</rscale>
<asrwt>0</asrwt>
<pdfrwt beam="1">  1        1 0.29635539E+00 0.18986187E+04</pdfrwt>
<pdfrwt beam="2">  1       -1 0.71974056E-01 0.18986187E+04</pdfrwt>
<totfact> 0.60950031E+00</totfact>
</mgrwt>
</event>
<event>
12    1  0.1477245E-007  0.1791695E+04  0.7818608E-02  0.8710729E-01
         -2   -1    0    0    0  501 -0.00000000000E+00  0.00000000000E+00  0.82831754724E+03  0.82831754724E+03  0.00000000000E+00 0.  1.
          2   -1    0    0  501    0  0.00000000000E+00 -0.00000000000E+00 -0.96888279931E+03  0.96888279931E+03  0.00000000000E+00 0. -1.
         23    2    1    2    0    0  0.14797351466E+03  0.14939634686E+03 -0.70375714233E+03  0.74058864958E+03  0.94773429915E+02 0.  0.
        254    2    1    2    0    0 -0.14797351466E+03 -0.14939634686E+03  0.56319189026E+03  0.10566116970E+04  0.86892332424E+03 0.  0.
        -24    2    4    4    0    0  0.10620846096E+03 -0.30665537047E+03 -0.79116877449E+02  0.34353821927E+03  0.80257550355E+02 0.  0.
         24    2    4    4    0    0 -0.25418197562E+03  0.15725902361E+03  0.64230876770E+03  0.71307347769E+03  0.81082391896E+02 0.  0.
         13    1    3    3    0    0  0.78085522769E+02  0.11425673337E+03 -0.56086096763E+03  0.57768241707E+03  0.00000000000E+00 0. -1.
        -13    1    3    3    0    0  0.69887991891E+02  0.35139613487E+02 -0.14289617470E+03  0.16290623251E+03  0.00000000000E+00 0.  1.
          2    1    6    6  502    0 -0.19188691014E+03  0.10987432993E+03  0.38340031752E+03  0.44259321971E+03  0.00000000000E+00 0. -1.
          3    1    5    5  503    0  0.17917109360E+02 -0.13355669314E+03 -0.28258739141E+01  0.13478278323E+03  0.00000000000E+00 0. -1.
         -4    1    5    5    0  503  0.88291351600E+02 -0.17309867732E+03 -0.76291003535E+02  0.20875543604E+03  0.00000000000E+00 0.  1.
         -1    1    6    6    0  502 -0.62295065480E+02  0.47384693682E+02  0.25890845018E+03  0.27048025797E+03  0.00000000000E+00 0.  1.
<mgrwt>
<rscale>  0 0.17916949E+04</rscale>
<asrwt>0</asrwt>
<pdfrwt beam="1">  1        2 0.14905889E+00 0.17916949E+04</pdfrwt>
<pdfrwt beam="2">  1       -2 0.12743347E+00 0.17916949E+04</pdfrwt>
<totfact> 0.11385594E+01</totfact>
</mgrwt>
</event>
<event>
12    1  0.1477245E-007  0.1260321E+04  0.7818608E-02  0.9061636E-01
          2   -1    0    0  501    0  0.00000000000E+00  0.00000000000E+00  0.98045253795E+03  0.98045253795E+03  0.00000000000E+00 0. -1.
         -2   -1    0    0    0  501 -0.00000000000E+00 -0.00000000000E+00 -0.40501949235E+03  0.40501949235E+03  0.00000000000E+00 0.  1.
         23    2    1    2    0    0 -0.11563854122E+02  0.29537701423E+03  0.13055019787E+03  0.33660708969E+03  0.94232029616E+02 0.  0.
        254    2    1    2    0    0  0.11563854122E+02 -0.29537701423E+03  0.44488284773E+03  0.10488649406E+04  0.90267137552E+03 0.  0.
        -24    2    4    4    0    0  0.34582892866E+02 -0.38315734714E+01  0.66739622892E+03  0.67296776394E+03  0.79102639010E+02 0.  0.
         24    2    4    4    0    0 -0.23019038744E+02 -0.29154544076E+03 -0.22251338119E+03  0.37589717667E+03  0.79106652361E+02 0.  0.
         13    1    3    3    0    0 -0.33236281042E+02  0.12168317040E+03  0.15377845804E+02  0.12707447611E+03  0.00000000000E+00 0. -1.
        -13    1    3    3    0    0  0.21672426919E+02  0.17369384383E+03  0.11517235207E+03  0.20953261359E+03  0.00000000000E+00 0.  1.
          4    1    6    6  502    0 -0.31943313397E+02 -0.20387409494E+03 -0.19411001261E+03  0.28330852238E+03  0.00000000000E+00 0. -1.
          3    1    5    5  503    0  0.22034889188E+02  0.35407360531E+02  0.43058770153E+03  0.43260257308E+03  0.00000000000E+00 0. -1.
         -4    1    5    5    0  503  0.12548003678E+02 -0.39238934002E+02  0.23680852739E+03  0.24036519087E+03  0.00000000000E+00 0.  1.
         -3    1    6    6    0  502  0.89242746532E+01 -0.87671345827E+02 -0.28403368577E+02  0.92588654293E+02  0.00000000000E+00 0.  1.
<mgrwt>
<rscale>  0 0.12603212E+04</rscale>
<asrwt>0</asrwt>
<pdfrwt beam="1">  1        2 0.15083885E+00 0.12603212E+04</pdfrwt>
<pdfrwt beam="2">  1       -2 0.62310691E-01 0.12603212E+04</pdfrwt>
<totfact> 0.60925729E+01</totfact>
</mgrwt>
</event>
<event>
12    1  0.1477245E-007  0.1781164E+04  0.7818608E-02  0.8716381E-01
         -2   -1    0    0    0  501 -0.00000000000E+00  0.00000000000E+00  0.28406134970E+03  0.28406134970E+03  0.00000000000E+00 0.  1.
          2   -1    0    0  501    0  0.00000000000E+00 -0.00000000000E+00 -0.27921315876E+04  0.27921315876E+04  0.00000000000E+00 0. -1.
         23    2    1    2    0    0 -0.27203891944E+03 -0.67645007634E+02  0.10077176027E+03  0.30927315090E+03  0.83149945569E+02 0.  0.
        254    2    1    2    0    0  0.27203891944E+03  0.67645007634E+02 -0.26088419982E+04  0.27669197864E+04  0.87818421315E+03 0.  0.
        -24    2    4    4    0    0  0.25467892880E+02 -0.38217218034E+03 -0.13464533947E+04  0.14021764680E+04  0.80361149386E+02 0.  0.
         24    2    4    4    0    0  0.24657102656E+03  0.44981718798E+03 -0.12623886035E+04  0.13647433185E+04  0.75937903633E+02 0.  0.
         13    1    3    3    0    0 -0.92517375196E+02 -0.43153302470E+02  0.28155722730E+00  0.10208698008E+03  0.00000000000E+00 0. -1.
        -13    1    3    3    0    0 -0.17952154425E+03 -0.24491705163E+02  0.10049020304E+03  0.20718617082E+03  0.00000000000E+00 0.  1.
          4    1    6    6  502    0  0.63975158570E+02  0.13545633866E+03 -0.46152566218E+03  0.48522899485E+03  0.00000000000E+00 0. -1.
          1    1    5    5  503    0  0.39119919039E+02 -0.18651633706E+03 -0.55600316866E+03  0.58775695285E+03  0.00000000000E+00 0. -1.
         -2    1    5    5    0  503 -0.13652026159E+02 -0.19565584328E+03 -0.79045022600E+03  0.81441951512E+03  0.00000000000E+00 0.  1.
         -3    1    6    6    0  502  0.18259586799E+03  0.31436084932E+03 -0.80086294136E+03  0.87951432361E+03  0.00000000000E+00 0.  1.
<mgrwt>
<rscale>  0 0.17811644E+04</rscale>
<asrwt>0</asrwt>
<pdfrwt beam="1">  1        2 0.42955871E+00 0.17811644E+04</pdfrwt>
<pdfrwt beam="2">  1       -2 0.43701746E-01 0.17811644E+04</pdfrwt>
<totfact> 0.11004899E+01</totfact>
</mgrwt>
</event>
<event>
12    1  0.1477245E-007  0.1510224E+04  0.7818608E-02  0.8877683E-01
          1   -1    0    0  501    0  0.00000000000E+00  0.00000000000E+00  0.19785719576E+04  0.19785719576E+04  0.00000000000E+00 0. -1.
         -1   -1    0    0    0  501 -0.00000000000E+00 -0.00000000000E+00 -0.28818458405E+03  0.28818458405E+03  0.00000000000E+00 0.  1.
         23    2    1    2    0    0 -0.46980239378E+03 -0.12938942899E+02  0.66092036757E+03  0.81614894004E+03  0.91660540088E+02 0.  0.
        254    2    1    2    0    0  0.46980239378E+03  0.12938942899E+02  0.10294670060E+04  0.14506076016E+04  0.90751219938E+03 0.  0.
        -24    2    4    4    0    0  0.67380536727E+03  0.21123434297E+03  0.83808342350E+03  0.10987368460E+04  0.78773163847E+02 0.  0.
         24    2    4    4    0    0 -0.20400297349E+03 -0.19829540007E+03  0.19138358249E+03  0.35187075565E+03  0.79038434643E+02 0.  0.
         13    1    3    3    0    0 -0.84279016219E+02 -0.13339182582E+02  0.18455275680E+03  0.20332389532E+03  0.00000000000E+00 0. -1.
        -13    1    3    3    0    0 -0.38552337756E+03  0.40023968303E+00  0.47636761077E+03  0.61282504472E+03  0.00000000000E+00 0.  1.
          2    1    6    6  502    0 -0.16579520426E+03 -0.17320010613E+03  0.19036755810E+03  0.30614724186E+03  0.00000000000E+00 0. -1.
          3    1    5    5  503    0  0.62439983894E+03  0.20789241644E+03  0.75089462328E+03  0.99846740105E+03  0.00000000000E+00 0. -1.
         -4    1    5    5    0  503  0.49405528337E+02  0.33419265303E+01  0.87188800215E+02  0.10026944493E+03  0.00000000000E+00 0.  1.
         -1    1    6    6    0  502 -0.38207769231E+02 -0.25095293946E+02  0.10160243843E+01  0.45723513791E+02  0.00000000000E+00 0.  1.
<mgrwt>
<rscale>  0 0.15102237E+04</rscale>
<asrwt>0</asrwt>
<pdfrwt beam="1">  1        1 0.30439568E+00 0.15102237E+04</pdfrwt>
<pdfrwt beam="2">  1       -1 0.44336091E-01 0.15102237E+04</pdfrwt>
<totfact> 0.15005475E+01</totfact>
</mgrwt>
</event>
<event>
12    1  0.1477245E-007  0.1502341E+04  0.7818608E-02  0.8882898E-01
          2   -1    0    0  501    0  0.00000000000E+00  0.00000000000E+00  0.39163787411E+04  0.39163787411E+04  0.00000000000E+00 0. -1.
         -2   -1    0    0    0  501 -0.00000000000E+00 -0.00000000000E+00 -0.14407620065E+03  0.14407620065E+03  0.00000000000E+00 0.  1.
         23    2    1    2    0    0 -0.11981722152E+03  0.54399202969E+02 -0.17558730447E+02  0.15840618469E+03  0.86422048560E+02 0.  0.
        254    2    1    2    0    0  0.11981722152E+03 -0.54399202969E+02  0.37898612709E+04  0.39020487571E+04  0.91957632092E+03 0.  0.
        -24    2    4    4    0    0  0.26764573842E+03 -0.35804024619E+03  0.30626703198E+04  0.30961745700E+04  0.80749125493E+02 0.  0.
         24    2    4    4    0    0 -0.14782851690E+03  0.30364104322E+03  0.72719095113E+03  0.80587418705E+03  0.81088669972E+02 0.  0.
         13    1    3    3    0    0  0.80231905783E+01 -0.95825191314E+01  0.54042245354E+01  0.13616236734E+02  0.00000000000E+00 0. -1.
        -13    1    3    3    0    0 -0.12784041209E+03  0.63981722100E+02 -0.22962954983E+02  0.14478994796E+03  0.00000000000E+00 0.  1.
          2    1    6    6  502    0 -0.52188799325E+02  0.40898874805E+02  0.16972158034E+03  0.18221362070E+03  0.00000000000E+00 0. -1.
          1    1    5    5  503    0  0.83890668904E+01 -0.12227794761E+02  0.38172668517E+02  0.40951776881E+02  0.00000000000E+00 0. -1.
         -2    1    5    5    0  503  0.25925667153E+03 -0.34581245143E+03  0.30244976513E+04  0.30552227932E+04  0.00000000000E+00 0.  1.
         -1    1    6    6    0  502 -0.95639717579E+02  0.26274216842E+03  0.55746937080E+03  0.62366056635E+03  0.00000000000E+00 0.  1.
<mgrwt>
<rscale>  0 0.15023408E+04</rscale>
<asrwt>0</asrwt>
<pdfrwt beam="1">  1        2 0.60251973E+00 0.15023408E+04</pdfrwt>
<pdfrwt beam="2">  1       -2 0.22165572E-01 0.15023408E+04</pdfrwt>
<totfact> 0.70198046E+00</totfact>
</mgrwt>
</event>
<event>
12    1  0.1477245E-007  0.2123267E+04  0.7818608E-02  0.8551063E-01
         -2   -1    0    0    0  501 -0.00000000000E+00  0.00000000000E+00  0.90401077123E+03  0.90401077123E+03  0.00000000000E+00 0.  1.
          2   -1    0    0  501    0  0.00000000000E+00 -0.00000000000E+00 -0.12467395107E+04  0.12467395107E+04  0.00000000000E+00 0. -1.
         23    2    1    2    0    0  0.46220551248E+00 -0.55115290252E+03 -0.82133642598E+03  0.99337986275E+03  0.91871059018E+02 0.  0.
        254    2    1    2    0    0 -0.46220551248E+00  0.55115290252E+03  0.47860768649E+03  0.11573704192E+04  0.89814878173E+03 0.  0.
        -24    2    4    4    0    0  0.44384734405E+02  0.71796217373E+03  0.95515840024E+02  0.72943167607E+03  0.74213252246E+02 0.  0.
         24    2    4    4    0    0 -0.44846939918E+02 -0.16680927121E+03  0.38309184646E+03  0.42793874314E+03  0.80843206731E+02 0.  0.
         13    1    3    3    0    0 -0.22932295343E+02 -0.11573747513E+03 -0.12588061871E+03  0.17253110875E+03  0.00000000000E+00 0.  1.
        -13    1    3    3    0    0  0.23394500855E+02 -0.43541542739E+03 -0.69545580727E+03  0.82084875400E+03  0.00000000000E+00 0. -1.
          2    1    6    6  502    0  0.77841824364E+01  0.50832555245E+01  0.92243417178E+01  0.13096620291E+02  0.00000000000E+00 0. -1.
          3    1    5    5  503    0  0.13634665373E+02  0.86690150975E+02  0.35154409171E+02  0.94535278389E+02  0.00000000000E+00 0. -1.
         -4    1    5    5    0  503  0.30750069032E+02  0.63127202275E+03  0.60361430853E+02  0.63489639768E+03  0.00000000000E+00 0.  1.
         -1    1    6    6    0  502 -0.52631122354E+02 -0.17189252673E+03  0.37386750474E+03  0.41484212285E+03  0.00000000000E+00 0.  1.
<mgrwt>
<rscale>  0 0.21232672E+04</rscale>
<asrwt>0</asrwt>
<pdfrwt beam="1">  1        2 0.19180608E+00 0.21232672E+04</pdfrwt>
<pdfrwt beam="2">  1       -2 0.13907858E+00 0.21232672E+04</pdfrwt>
<totfact> 0.59716213E+00</totfact>
</mgrwt>
</event>
<event>
12    1  0.1477245E-007  0.4010307E+04  0.7818608E-02  0.8002471E-01
          1   -1    0    0  501    0  0.00000000000E+00  0.00000000000E+00  0.40376471432E+04  0.40376471432E+04  0.00000000000E+00 0. -1.
         -1   -1    0    0    0  501 -0.00000000000E+00 -0.00000000000E+00 -0.99578781418E+03  0.99578781418E+03  0.00000000000E+00 0.  1.
         23    2    1    2    0    0 -0.28624854590E+03  0.41027242278E+03 -0.85673611800E+03  0.99549148437E+03  0.82126905639E+02 0.  0.
        254    2    1    2    0    0  0.28624854590E+03 -0.41027242278E+03  0.38985954471E+04  0.40379434730E+04  0.92502937290E+03 0.  0.
        -24    2    4    4    0    0  0.52714355618E+03 -0.18782033612E+03  0.13001760707E+04  0.14179097521E+04  0.82785523164E+02 0.  0.
         24    2    4    4    0    0 -0.24089501028E+03 -0.22245208666E+03  0.25984193763E+04  0.26200337209E+04  0.72650578247E+02 0.  0.
         13    1    3    3    0    0 -0.24778838747E+02  0.84069287024E+02 -0.17638127233E+03  0.19695682039E+03  0.00000000000E+00 0. -1.
        -13    1    3    3    0    0 -0.26146970716E+03  0.32620313576E+03 -0.68035484567E+03  0.79853466397E+03  0.00000000000E+00 0.  1.
          2    1    6    6  502    0 -0.93642423055E+02 -0.47496344096E+02  0.96215822751E+03  0.96787047732E+03  0.00000000000E+00 0. -1.
          3    1    5    5  503    0  0.26425919346E+03 -0.55526819843E+02  0.67152106067E+03  0.72377944429E+03  0.00000000000E+00 0. -1.
         -4    1    5    5    0  503  0.26288436272E+03 -0.13229351628E+03  0.62865501005E+03  0.69413030785E+03  0.00000000000E+00 0.  1.
         -1    1    6    6    0  502 -0.14725258722E+03 -0.17495574257E+03  0.16362611488E+04  0.16521632436E+04  0.00000000000E+00 0.  1.
<mgrwt>
<rscale>  0 0.40103066E+04</rscale>
<asrwt>0</asrwt>
<pdfrwt beam="1">  1        1 0.62117647E+00 0.40103066E+04</pdfrwt>
<pdfrwt beam="2">  1       -1 0.15319813E+00 0.40103066E+04</pdfrwt>
<totfact> 0.22817708E-02</totfact>
</mgrwt>
</event>
<event>
12    1  0.1477245E-007  0.3287541E+04  0.7818608E-02  0.8166073E-01
          2   -1    0    0  501    0  0.00000000000E+00  0.00000000000E+00  0.19448559788E+04  0.19448559788E+04  0.00000000000E+00 0. -1.
         -2   -1    0    0    0  501 -0.00000000000E+00 -0.00000000000E+00 -0.13892960836E+04  0.13892960836E+04  0.00000000000E+00 0.  1.
         23    2    1    2    0    0 -0.12907333734E+04 -0.36197546322E+03  0.98321447516E+03  0.16650506302E+04  0.93080715426E+02 0.  0.
        254    2    1    2    0    0  0.12907333734E+04  0.36197546322E+03 -0.42765457996E+03  0.16691014323E+04  0.89777072472E+03 0.  0.
        -24    2    4    4    0    0  0.12273347432E+04  0.58152958579E+03 -0.43383470980E+03  0.14278653328E+04  0.77843575582E+02 0.  0.
         24    2    4    4    0    0  0.63398630216E+02 -0.21955412257E+03  0.61801298409E+01  0.24123609942E+03  0.77027674321E+02 0.  0.
         11    1    3    3    0    0 -0.18235722227E+03 -0.60169897978E+02  0.10335328193E+03  0.21807446899E+03  0.00000000000E+00 0.  1.
        -11    1    3    3    0    0 -0.11083761512E+04 -0.30180556524E+03  0.87986119322E+03  0.14469761612E+04  0.00000000000E+00 0. -1.
          4    1    6    6  502    0  0.47968642084E+02 -0.18667678073E+03 -0.23717284852E+02  0.19419505835E+03  0.00000000000E+00 0. -1.
          3    1    5    5  503    0  0.71081852589E+03  0.32902075457E+03 -0.21039388270E+03  0.81103835887E+03  0.00000000000E+00 0. -1.
         -4    1    5    5    0  503  0.51651621732E+03  0.25250883122E+03 -0.22344082709E+03  0.61682697397E+03  0.00000000000E+00 0.  1.
         -3    1    6    6    0  502  0.15429988133E+02 -0.32877341839E+02  0.29897414693E+02  0.47041041076E+02  0.00000000000E+00 0.  1.
<mgrwt>
<rscale>  0 0.32875406E+04</rscale>
<asrwt>0</asrwt>
<pdfrwt beam="1">  1        2 0.29920861E+00 0.32875406E+04</pdfrwt>
<pdfrwt beam="2">  1       -2 0.21373786E+00 0.32875406E+04</pdfrwt>
<totfact> 0.64954708E-01</totfact>
</mgrwt>
</event>
<event>
12    1  0.1477245E-007  0.1472622E+04  0.7818608E-02  0.8902866E-01
          1   -1    0    0  501    0  0.00000000000E+00  0.00000000000E+00  0.82910420131E+03  0.82910420131E+03  0.00000000000E+00 0. -1.
         -1   -1    0    0    0  501 -0.00000000000E+00 -0.00000000000E+00 -0.65390347178E+03  0.65390347178E+03  0.00000000000E+00 0.  1.
         23    2    1    2    0    0 -0.45248292507E+03  0.49968171267E+02 -0.68663639233E+01  0.46402858888E+03  0.89653604095E+02 0.  0.
        254    2    1    2    0    0  0.45248292507E+03 -0.49968171267E+02  0.18206709345E+03  0.10189790842E+04  0.89327058159E+03 0.  0.
        -24    2    4    4    0    0  0.26405866766E+03 -0.34078159355E+03 -0.21274584534E+03  0.48735465653E+03  0.79966818511E+02 0.  0.
         24    2    4    4    0    0  0.18842425741E+03  0.29081342228E+03  0.39481293879E+03  0.53162442769E+03  0.81676974212E+02 0.  0.
         11    1    3    3    0    0 -0.15688542508E+03  0.38813475378E+02  0.34745817126E+02  0.16530817972E+03  0.00000000000E+00 0. -1.
        -11    1    3    3    0    0 -0.29559749998E+03  0.11154695889E+02 -0.41612181049E+02  0.29872040916E+03  0.00000000000E+00 0.  1.
          2    1    6    6  502    0  0.11990908678E+03  0.24715988783E+03  0.30041439289E+03  0.40708108124E+03  0.00000000000E+00 0. -1.
          3    1    5    5  503    0  0.24190466620E+03 -0.26649640106E+03 -0.18752165215E+03  0.40583564325E+03  0.00000000000E+00 0. -1.
         -4    1    5    5    0  503  0.22154001461E+02 -0.74285192491E+02 -0.25224193190E+02  0.81519013281E+02  0.00000000000E+00 0.  1.
         -1    1    6    6    0  502  0.68515170631E+02  0.43653534447E+02  0.94398545903E+02  0.12454334645E+03  0.00000000000E+00 0.  1.
<mgrwt>
<rscale>  0 0.14726223E+04</rscale>
<asrwt>0</asrwt>
<pdfrwt beam="1">  1        1 0.12755449E+00 0.14726223E+04</pdfrwt>
<pdfrwt beam="2">  1       -1 0.10060053E+00 0.14726223E+04</pdfrwt>
<totfact> 0.19023257E+01</totfact>
</mgrwt>
</event>
<event>
12    1  0.1477245E-007  0.1626031E+04  0.7818608E-02  0.8804714E-01
          2   -1    0    0  501    0  0.00000000000E+00  0.00000000000E+00  0.82908639800E+03  0.82908639800E+03  0.00000000000E+00 0. -1.
         -2   -1    0    0    0  501 -0.00000000000E+00 -0.00000000000E+00 -0.79725656706E+03  0.79725656706E+03  0.00000000000E+00 0.  1.
         23    2    1    2    0    0 -0.53428847057E+03 -0.21529422806E+02 -0.16170629144E+03  0.56616382095E+03  0.92004682669E+02 0.  0.
        254    2    1    2    0    0  0.53428847057E+03  0.21529422806E+02  0.19353612238E+03  0.10601791441E+04  0.89476024783E+03 0.  0.
        -24    2    4    4    0    0  0.14340388151E+03  0.15125583948E+03  0.49513762245E+03  0.54339743010E+03  0.81709850490E+02 0.  0.
         24    2    4    4    0    0  0.39088458906E+03 -0.12972641668E+03 -0.30160150007E+03  0.51678171400E+03  0.80499502721E+02 0.  0.
         11    1    3    3    0    0 -0.72799414183E+02  0.25197754061E+02 -0.77176591807E+01  0.77422501757E+02  0.00000000000E+00 0. -1.
        -11    1    3    3    0    0 -0.46148905639E+03 -0.46727176868E+02 -0.15398863226E+03  0.48874131919E+03  0.00000000000E+00 0.  1.
          2    1    6    6  502    0  0.30177891259E+03 -0.11213259149E+03 -0.19360193012E+03  0.37566732291E+03  0.00000000000E+00 0. -1.
          3    1    5    5  503    0 -0.10768117174E+02  0.80113464251E+01  0.28804555334E+02  0.31777923579E+02  0.00000000000E+00 0. -1.
         -4    1    5    5    0  503  0.15417199869E+03  0.14324449306E+03  0.46633306711E+03  0.51161950652E+03  0.00000000000E+00 0.  1.
         -1    1    6    6    0  502  0.89105676465E+02 -0.17593825183E+02 -0.10799956995E+03  0.14111439109E+03  0.00000000000E+00 0.  1.
<mgrwt>
<rscale>  0 0.16260315E+04</rscale>
<asrwt>0</asrwt>
<pdfrwt beam="1">  1        2 0.12755175E+00 0.16260315E+04</pdfrwt>
<pdfrwt beam="2">  1       -2 0.12265486E+00 0.16260315E+04</pdfrwt>
<totfact> 0.15797514E+01</totfact>
</mgrwt>
</event>
<event>
12    1  0.1477245E-007  0.1256201E+04  0.7818608E-02  0.9065038E-01
         -2   -1    0    0    0  501 -0.00000000000E+00  0.00000000000E+00  0.23181541493E+03  0.23181541493E+03  0.00000000000E+00 0.  1.
          2   -1    0    0  501    0  0.00000000000E+00 -0.00000000000E+00 -0.17018303437E+04  0.17018303437E+04  0.00000000000E+00 0. -1.
         23    2    1    2    0    0 -0.29636224659E+02 -0.27720781556E+03 -0.46398833632E+03  0.54898472914E+03  0.91523645932E+02 0.  0.
        254    2    1    2    0    0  0.29636224659E+02  0.27720781556E+03 -0.10060265924E+04  0.13846610295E+04  0.90965607955E+03 0.  0.
        -24    2    4    4    0    0  0.20930759236E+03  0.14544564865E+03 -0.10970992251E+04  0.11291114437E+04  0.79384114118E+02 0.  0.
         24    2    4    4    0    0 -0.17967136770E+03  0.13176216691E+03  0.91072632653E+02  0.25554958583E+03  0.85838787263E+02 0.  0.
         13    1    3    3    0    0  0.80200880156E+01 -0.49160890257E+02 -0.15700106022E+03  0.16471322914E+03  0.00000000000E+00 0.  1.
        -13    1    3    3    0    0 -0.37656312675E+02 -0.22804692530E+03 -0.30698727610E+03  0.38427150000E+03  0.00000000000E+00 0. -1.
          2    1    6    6  502    0 -0.17019661888E+03  0.98294413186E+02  0.52136033503E+02  0.20333924051E+03  0.00000000000E+00 0. -1.
          3    1    5    5  503    0  0.15391203374E+03  0.12175175240E+03 -0.68238367664E+03  0.71004217163E+03  0.00000000000E+00 0. -1.
         -2    1    5    5    0  503  0.55395558614E+02  0.23693896249E+02 -0.41471554846E+03  0.41906927204E+03  0.00000000000E+00 0.  1.
         -1    1    6    6    0  502 -0.94747488134E+01  0.33467753722E+02  0.38936599149E+02  0.52210345312E+02  0.00000000000E+00 0.  1.
<mgrwt>
<rscale>  0 0.12562014E+04</rscale>
<asrwt>0</asrwt>
<pdfrwt beam="1">  1        2 0.26182005E+00 0.12562014E+04</pdfrwt>
<pdfrwt beam="2">  1       -2 0.35663910E-01 0.12562014E+04</pdfrwt>
<totfact> 0.71064156E+01</totfact>
</mgrwt>
</event>
<event>
12    1  0.1477245E-007  0.1815343E+04  0.7818608E-02  0.8698183E-01
          2   -1    0    0  501    0  0.00000000000E+00  0.00000000000E+00  0.96459396398E+03  0.96459396398E+03  0.00000000000E+00 0. -1.
         -2   -1    0    0    0  501 -0.00000000000E+00 -0.00000000000E+00 -0.85410811351E+03  0.85410811351E+03  0.00000000000E+00 0.  1.
         23    2    1    2    0    0 -0.42271156600E+03  0.23870236878E+03 -0.44031817142E+03  0.66166981127E+03  0.90900815049E+02 0.  0.
        254    2    1    2    0    0  0.42271156600E+03 -0.23870236878E+03  0.55080402189E+03  0.11570322662E+04  0.89424532745E+03 0.  0.
        -24    2    4    4    0    0  0.77059143475E+02  0.22574095114E+03  0.51318529731E+03  0.57151543245E+03  0.79835152283E+02 0.  0.
         24    2    4    4    0    0  0.34565242253E+03 -0.46444331992E+03  0.37618724578E+02  0.58551683378E+03  0.78940481275E+02 0.  0.
         11    1    3    3    0    0 -0.37069125515E+03  0.18286177361E+03 -0.33751461474E+03  0.53363522191E+03  0.00000000000E+00 0.  1.
        -11    1    3    3    0    0 -0.52020310856E+02  0.55840595165E+02 -0.10280355667E+03  0.12803458937E+03  0.00000000000E+00 0. -1.
          2    1    6    6  502    0  0.17696501878E+03 -0.30104485844E+03  0.30910803781E+02  0.35057110898E+03  0.00000000000E+00 0. -1.
          1    1    5    5  503    0  0.42342461413E+02  0.19830039912E+03  0.45724107867E+03  0.50018530202E+03  0.00000000000E+00 0. -1.
         -2    1    5    5    0  503  0.34716682061E+02  0.27440552013E+02  0.55944218634E+02  0.71330130427E+02  0.00000000000E+00 0.  1.
         -1    1    6    6    0  502  0.16868740375E+03 -0.16339846147E+03  0.67079207970E+01  0.23494572479E+03  0.00000000000E+00 0.  1.
<mgrwt>
<rscale>  0 0.18153430E+04</rscale>
<asrwt>0</asrwt>
<pdfrwt beam="1">  1        2 0.14839907E+00 0.18153430E+04</pdfrwt>
<pdfrwt beam="2">  1       -2 0.13140125E+00 0.18153430E+04</pdfrwt>
<totfact> 0.10583102E+01</totfact>
</mgrwt>
</event>
<event>
12    1  0.1477245E-007  0.1954786E+04  0.7818608E-02  0.8628056E-01
         -2   -1    0    0    0  501 -0.00000000000E+00  0.00000000000E+00  0.56276927131E+03  0.56276927131E+03  0.00000000000E+00 0.  1.
          2   -1    0    0  501    0  0.00000000000E+00 -0.00000000000E+00 -0.16974936849E+04  0.16974936849E+04  0.00000000000E+00 0. -1.
         23    2    1    2    0    0 -0.15728095071E+03 -0.14162000405E+03 -0.13069538182E+04  0.13269285175E+04  0.88416540366E+02 0.  0.
        254    2    1    2    0    0  0.15728095071E+03  0.14162000405E+03  0.17222940464E+03  0.93333443869E+03  0.89255626356E+03 0.  0.
        -24    2    4    4    0    0 -0.19805362767E+03 -0.15855353415E+03  0.34124551934E+03  0.43252663158E+03  0.79160090519E+02 0.  0.
         24    2    4    4    0    0  0.35533457838E+03  0.30017353820E+03 -0.16901611469E+03  0.50080780712E+03  0.76649833750E+02 0.  0.
         13    1    3    3    0    0 -0.16640900701E+03 -0.12713473687E+03 -0.12512260764E+04  0.12686299276E+04  0.00000000000E+00 0. -1.
        -13    1    3    3    0    0  0.91280562961E+01 -0.14485267184E+02 -0.55727741805E+02  0.58298589896E+02  0.00000000000E+00 0.  1.
          2    1    6    6  502    0  0.14062997487E+03  0.15587685860E+03 -0.48724475700E+02  0.21551904652E+03  0.00000000000E+00 0. -1.
          3    1    5    5  503    0 -0.91878918792E+02 -0.12275306093E+03  0.20860814744E+03  0.25889652154E+03  0.00000000000E+00 0. -1.
         -4    1    5    5    0  503 -0.10617470888E+03 -0.35800473216E+02  0.13263737190E+03  0.17363011004E+03  0.00000000000E+00 0.  1.
         -1    1    6    6    0  502  0.21470460351E+03  0.14429667959E+03 -0.12029163899E+03  0.28528876060E+03  0.00000000000E+00 0.  1.
<mgrwt>
<rscale>  0 0.19547862E+04</rscale>
<asrwt>0</asrwt>
<pdfrwt beam="1">  1        2 0.26115287E+00 0.19547862E+04</pdfrwt>
<pdfrwt beam="2">  1       -2 0.86579888E-01 0.19547862E+04</pdfrwt>
<totfact> 0.10598102E+01</totfact>
</mgrwt>
</event>
<event>
12    1  0.1477245E-007  0.1541658E+04  0.7818608E-02  0.8857214E-01
         -2   -1    0    0    0  501 -0.00000000000E+00  0.00000000000E+00  0.66100386574E+03  0.66100386574E+03  0.00000000000E+00 0.  1.
          2   -1    0    0  501    0  0.00000000000E+00 -0.00000000000E+00 -0.89890155905E+03  0.89890155905E+03  0.00000000000E+00 0. -1.
         23    2    1    2    0    0  0.50370320529E+03  0.55497554288E+02 -0.54661888500E+02  0.51771055626E+03  0.90771143285E+02 0.  0.
        254    2    1    2    0    0 -0.50370320529E+03 -0.55497554288E+02 -0.18323580481E+03  0.10421948685E+04  0.89207504520E+03 0.  0.
        -24    2    4    4    0    0 -0.18641953241E+03  0.22641861105E+03  0.27695812331E+03  0.41110629761E+03  0.79277716763E+02 0.  0.
         24    2    4    4    0    0 -0.31728367288E+03 -0.28191616534E+03 -0.46019392812E+03  0.63108857091E+03  0.79678601272E+02 0.  0.
         13    1    3    3    0    0  0.42532462321E+03  0.78249572780E+02 -0.56083165491E+02  0.43608411138E+03  0.00000000000E+00 0.  1.
        -13    1    3    3    0    0  0.78378582082E+02 -0.22752018493E+02  0.14212769914E+01  0.81626444875E+02  0.00000000000E+00 0. -1.
          2    1    6    6  502    0 -0.15026609569E+03 -0.12741221451E+03 -0.15642608395E+03  0.25156091044E+03  0.00000000000E+00 0. -1.
          1    1    5    5  503    0 -0.17158725027E+03  0.21554932153E+03  0.22409732531E+03  0.35513843171E+03  0.00000000000E+00 0. -1.
         -2    1    5    5    0  503 -0.14832282135E+02  0.10869289522E+02  0.52860798003E+02  0.55967865901E+02  0.00000000000E+00 0.  1.
         -1    1    6    6    0  502 -0.16701757719E+03 -0.15450395083E+03 -0.30376784417E+03  0.37952766048E+03  0.00000000000E+00 0.  1.
<mgrwt>
<rscale>  0 0.15416581E+04</rscale>
<asrwt>0</asrwt>
<pdfrwt beam="1">  1        2 0.13829255E+00 0.15416581E+04</pdfrwt>
<pdfrwt beam="2">  1       -2 0.10169290E+00 0.15416581E+04</pdfrwt>
<totfact> 0.22456593E+01</totfact>
</mgrwt>
</event>
<event>
12    1  0.1477245E-007  0.1381873E+04  0.7818608E-02  0.8967045E-01
          1   -1    0    0  501    0  0.00000000000E+00  0.00000000000E+00  0.15576284371E+04  0.15576284371E+04  0.00000000000E+00 0. -1.
         -1   -1    0    0    0  501 -0.00000000000E+00 -0.00000000000E+00 -0.30648718304E+03  0.30648718304E+03  0.00000000000E+00 0.  1.
         23    2    1    2    0    0 -0.11183155151E+03  0.19630359451E+03  0.78969024647E+03  0.82668673927E+03  0.93588900970E+02 0.  0.
        254    2    1    2    0    0  0.11183155151E+03 -0.19630359451E+03  0.46145100753E+03  0.10374288808E+04  0.90126591707E+03 0.  0.
        -24    2    4    4    0    0  0.39575136307E+03 -0.34653037512E+03  0.46384592688E+03  0.70648517186E+03  0.85239732045E+02 0.  0.
         24    2    4    4    0    0 -0.28391981156E+03  0.15022678061E+03 -0.23949193446E+01  0.33094370896E+03  0.79620712459E+02 0.  0.
         11    1    3    3    0    0 -0.12144627336E+03  0.18900891944E+03  0.77835431304E+03  0.81012900551E+03  0.00000000000E+00 0. -1.
        -11    1    3    3    0    0  0.96147218498E+01  0.72946750637E+01  0.11335933435E+02  0.16557733763E+02  0.00000000000E+00 0.  1.
          4    1    6    6  502    0 -0.18517987678E+03  0.60224846611E+02 -0.21779275647E+02  0.19594120486E+03  0.00000000000E+00 0. -1.
          1    1    5    5  503    0  0.81246567079E+01 -0.34006432405E+02  0.30895321021E+02  0.46657993448E+02  0.00000000000E+00 0. -1.
         -2    1    5    5    0  503  0.38762670636E+03 -0.31252394272E+03  0.43295060586E+03  0.65982717841E+03  0.00000000000E+00 0.  1.
         -3    1    6    6    0  502 -0.98739934779E+02  0.90001934004E+02  0.19384356303E+02  0.13500250410E+03  0.00000000000E+00 0.  1.
<mgrwt>
<rscale>  0 0.13818729E+04</rscale>
<asrwt>0</asrwt>
<pdfrwt beam="1">  1        1 0.23963514E+00 0.13818729E+04</pdfrwt>
<pdfrwt beam="2">  1       -1 0.47151875E-01 0.13818729E+04</pdfrwt>
<totfact> 0.26140213E+01</totfact>
</mgrwt>
</event>
<event>
12    1  0.1477245E-007  0.1567329E+04  0.7818608E-02  0.8840874E-01
         -2   -1    0    0    0  501 -0.00000000000E+00  0.00000000000E+00  0.22449756986E+03  0.22449756986E+03  0.00000000000E+00 0.  1.
          2   -1    0    0  501    0  0.00000000000E+00 -0.00000000000E+00 -0.27355749374E+04  0.27355749374E+04  0.00000000000E+00 0. -1.
         23    2    1    2    0    0  0.40181000513E+03 -0.13122555388E+03 -0.27816926856E+03  0.51421790692E+03  0.91490368952E+02 0.  0.
        254    2    1    2    0    0 -0.40181000513E+03  0.13122555388E+03 -0.22329080990E+04  0.24458546003E+04  0.90424262302E+03 0.  0.
        -24    2    4    4    0    0 -0.35479974974E+03  0.45317415418E+03 -0.89961492157E+03  0.10711024801E+04  0.81876976423E+02 0.  0.
         24    2    4    4    0    0 -0.47010255388E+02 -0.32194860030E+03 -0.13332931774E+04  0.13747521203E+04  0.80073902771E+02 0.  0.
         13    1    3    3    0    0  0.32047390806E+03 -0.84806510592E+02 -0.17491877703E+03  0.37482295627E+03  0.00000000000E+00 0.  1.
        -13    1    3    3    0    0  0.81336097065E+02 -0.46419043292E+02 -0.10325049152E+03  0.13939495065E+03  0.00000000000E+00 0. -1.
          4    1    6    6  502    0 -0.40555002579E+02 -0.30963603772E+03 -0.13161017414E+04  0.13526429603E+04  0.00000000000E+00 0. -1.
          3    1    5    5  503    0 -0.21939516334E+03  0.21479999258E+03 -0.48743908819E+03  0.57608171226E+03  0.00000000000E+00 0. -1.
         -4    1    5    5    0  503 -0.13540458640E+03  0.23837416160E+03 -0.41217583338E+03  0.49502076781E+03  0.00000000000E+00 0.  1.
         -3    1    6    6    0  502 -0.64552528088E+01 -0.12312562577E+02 -0.17191435975E+02  0.22109160023E+02  0.00000000000E+00 0.  1.
<mgrwt>
<rscale>  0 0.15673288E+04</rscale>
<asrwt>0</asrwt>
<pdfrwt beam="1">  1        2 0.42085767E+00 0.15673288E+04</pdfrwt>
<pdfrwt beam="2">  1       -2 0.34538088E-01 0.15673288E+04</pdfrwt>
<totfact> 0.19177713E+01</totfact>
</mgrwt>
</event>
<event>
12    1  0.1477245E-007  0.2213499E+04  0.7818608E-02  0.8512830E-01
         -1   -1    0    0    0  501 -0.00000000000E+00  0.00000000000E+00  0.99732455702E+03  0.99732455702E+03  0.00000000000E+00 0.  1.
          1   -1    0    0  501    0  0.00000000000E+00 -0.00000000000E+00 -0.12281803703E+04  0.12281803703E+04  0.00000000000E+00 0. -1.
         23    2    1    2    0    0 -0.18181988432E+03 -0.88757706685E+03 -0.23991420054E+03  0.94157440531E+03  0.90288521866E+02 0.  0.
        254    2    1    2    0    0  0.18181988432E+03  0.88757706685E+03  0.90583872410E+01  0.12839305220E+04  0.90969446030E+03 0.  0.
        -24    2    4    4    0    0  0.20349466807E+03  0.17659846661E+03 -0.37754256501E+03  0.47043369272E+03  0.78564448143E+02 0.  0.
         24    2    4    4    0    0 -0.21674783751E+02  0.71097860024E+03  0.38660095225E+03  0.81349682931E+03  0.79727214708E+02 0.  0.
         11    1    3    3    0    0 -0.67323728797E+01 -0.89707580802E+02 -0.50046927038E+02  0.10294401296E+03  0.00000000000E+00 0.  1.
        -11    1    3    3    0    0 -0.17508751144E+03 -0.79786948604E+03 -0.18986727350E+03  0.83863039235E+03  0.00000000000E+00 0. -1.
          2    1    6    6  502    0 -0.13842797858E+02  0.70167699195E+03  0.37139070808E+03  0.79402347707E+03  0.00000000000E+00 0. -1.
          3    1    5    5  503    0  0.47357860495E+02  0.81379130028E+01 -0.93654871570E+02  0.10526265980E+03  0.00000000000E+00 0. -1.
         -4    1    5    5    0  503  0.15613680758E+03  0.16846055360E+03 -0.28388769344E+03  0.36517103292E+03  0.00000000000E+00 0.  1.
         -1    1    6    6    0  502 -0.78319858929E+01  0.93016082863E+01  0.15210244168E+02  0.19473352238E+02  0.00000000000E+00 0.  1.
<mgrwt>
<rscale>  0 0.22134990E+04</rscale>
<asrwt>0</asrwt>
<pdfrwt beam="1">  1        1 0.18895083E+00 0.22134990E+04</pdfrwt>
<pdfrwt beam="2">  1       -1 0.15343455E+00 0.22134990E+04</pdfrwt>
<totfact> 0.30453964E+00</totfact>
</mgrwt>
</event>
<event>
12    1  0.1477245E-007  0.1066915E+04  0.7818608E-02  0.9238052E-01
         -1   -1    0    0    0  501 -0.00000000000E+00  0.00000000000E+00  0.95363368171E+02  0.95363368171E+02  0.00000000000E+00 0.  1.
          1   -1    0    0  501    0  0.00000000000E+00 -0.00000000000E+00 -0.29841326316E+04  0.29841326316E+04  0.00000000000E+00 0. -1.
         23    2    1    2    0    0  0.10822044361E+02 -0.22854870225E+02 -0.48674120250E+02  0.10524156844E+03  0.89817348043E+02 0.  0.
        254    2    1    2    0    0 -0.10822044361E+02  0.22854870225E+02 -0.28400951432E+04  0.29742544313E+04  0.88284174018E+03 0.  0.
        -24    2    4    4    0    0  0.12247084162E+03 -0.39868611260E+03 -0.11667947044E+04  0.12416137308E+04  0.79025633443E+02 0.  0.
         24    2    4    4    0    0 -0.13329288598E+03  0.42154098283E+03 -0.16733004388E+04  0.17326407006E+04  0.81520826906E+02 0.  0.
         11    1    3    3    0    0  0.35626761188E+02 -0.19936879056E+02 -0.64018829745E+02  0.75928623201E+02  0.00000000000E+00 0. -1.
        -11    1    3    3    0    0 -0.24804716827E+02 -0.29179911690E+01  0.15344709495E+02  0.29312945244E+02  0.00000000000E+00 0.  1.
          4    1    6    6  502    0 -0.27124525043E+01  0.93614104766E+01 -0.96195833656E+01  0.13694151629E+02  0.00000000000E+00 0. -1.
          3    1    5    5  503    0  0.63267139842E+01 -0.40990169051E+02 -0.19984365270E+03  0.20410219694E+03  0.00000000000E+00 0. -1.
         -4    1    5    5    0  503  0.11614412764E+03 -0.35769594355E+03 -0.96695105171E+03  0.10375115338E+04  0.00000000000E+00 0.  1.
         -3    1    6    6    0  502 -0.13058043348E+03  0.41217957235E+03 -0.16636808554E+04  0.17189465489E+04  0.00000000000E+00 0.  1.
<mgrwt>
<rscale>  0 0.10669151E+04</rscale>
<asrwt>0</asrwt>
<pdfrwt beam="1">  1        1 0.45909732E+00 0.10669151E+04</pdfrwt>
<pdfrwt beam="2">  1       -1 0.14671288E-01 0.10669151E+04</pdfrwt>
<totfact> 0.21306152E+01</totfact>
</mgrwt>
</event>
<event>
12    1  0.1477245E-007  0.1450361E+04  0.7818608E-02  0.8918150E-01
         -2   -1    0    0    0  501 -0.00000000000E+00  0.00000000000E+00  0.63745955233E+03  0.63745955233E+03  0.00000000000E+00 0. -1.
          2   -1    0    0  501    0  0.00000000000E+00 -0.00000000000E+00 -0.82497315073E+03  0.82497315073E+03  0.00000000000E+00 0.  1.
         23    2    1    2    0    0 -0.21834757387E+03  0.76163697534E+02 -0.44534954562E+03  0.51020319204E+03  0.92165652716E+02 0.  0.
        254    2    1    2    0    0  0.21834757387E+03 -0.76163697534E+02  0.25783594723E+03  0.95222951102E+03  0.88700907219E+03 0.  0.
        -24    2    4    4    0    0  0.13042428997E+03  0.33960177533E+03 -0.10652820650E+03  0.38714448438E+03  0.78693911955E+02 0.  0.
         24    2    4    4    0    0  0.87923283894E+02 -0.41576547287E+03  0.36436415372E+03  0.56508502665E+03  0.77255540535E+02 0.  0.
         11    1    3    3    0    0 -0.97364805778E+02  0.16439441288E+02 -0.10524754661E+03  0.14431634246E+03  0.00000000000E+00 0. -1.
        -11    1    3    3    0    0 -0.12098276809E+03  0.59724256246E+02 -0.34010199901E+03  0.36588684957E+03  0.00000000000E+00 0.  1.
          4    1    6    6  502    0 -0.13705441577E+02 -0.56823657509E+02  0.58160831614E+02  0.82458774643E+02  0.00000000000E+00 0. -1.
          1    1    5    5  503    0 -0.16909660011E+01  0.47332680559E+02  0.48586396109E+01  0.47611431335E+02  0.00000000000E+00 0. -1.
         -2    1    5    5    0  503  0.13211525597E+03  0.29226909477E+03 -0.11138684611E+03  0.33953305304E+03  0.00000000000E+00 0.  1.
         -3    1    6    6    0  502  0.10162872547E+03 -0.35894181536E+03  0.30620332211E+03  0.48262625200E+03  0.00000000000E+00 0.  1.
<mgrwt>
<rscale>  0 0.14503614E+04</rscale>
<asrwt>0</asrwt>
<pdfrwt beam="1">  1        2 0.12691895E+00 0.14503614E+04</pdfrwt>
<pdfrwt beam="2">  1       -2 0.98070701E-01 0.14503614E+04</pdfrwt>
<totfact> 0.27731489E+01</totfact>
</mgrwt>
</event>
<event>
12    1  0.1477245E-007  0.2040597E+04  0.7818608E-02  0.8587872E-01
          1   -1    0    0  501    0  0.00000000000E+00  0.00000000000E+00  0.16948424393E+04  0.16948424393E+04  0.00000000000E+00 0. -1.
         -1   -1    0    0    0  501 -0.00000000000E+00 -0.00000000000E+00 -0.61422159974E+03  0.61422159974E+03  0.00000000000E+00 0.  1.
         23    2    1    2    0    0  0.60380972345E+03 -0.35831613419E+02  0.10591466071E+04  0.12231780558E+04  0.92211356169E+02 0.  0.
        254    2    1    2    0    0 -0.60380972345E+03  0.35831613419E+02  0.21474232476E+02  0.10858859833E+04  0.90156371895E+03 0.  0.
        -24    2    4    4    0    0 -0.44564102572E+03 -0.31620063312E+03 -0.25145494035E+03  0.60666622699E+03  0.78965560501E+02 0.  0.
         24    2    4    4    0    0 -0.15816869773E+03  0.35203224654E+03  0.27292917283E+03  0.47921975627E+03  0.78849235081E+02 0.  0.
         11    1    3    3    0    0  0.60097492128E+03 -0.27647126553E+02  0.10523105666E+04  0.12121438644E+04  0.00000000000E+00 0. -1.
        -11    1    3    3    0    0  0.28348021666E+01 -0.81844868656E+01  0.68360405368E+01  0.11034191352E+02  0.00000000000E+00 0.  1.
          4    1    6    6  502    0 -0.17801626521E+02  0.14130406414E+02  0.38366559888E+02  0.44593264176E+02  0.00000000000E+00 0. -1.
          3    1    5    5  503    0 -0.10734567319E+02 -0.46585279374E+00  0.41873025560E+01  0.11531758628E+02  0.00000000000E+00 0. -1.
         -4    1    5    5    0  503 -0.43490645840E+03 -0.31573478033E+03 -0.25564224291E+03  0.59513446836E+03  0.00000000000E+00 0.  1.
         -3    1    6    6    0  502 -0.14036707121E+03  0.33790184013E+03  0.23456261294E+03  0.43462649210E+03  0.00000000000E+00 0.  1.
<mgrwt>
<rscale>  0 0.20405968E+04</rscale>
<asrwt>0</asrwt>
<pdfrwt beam="1">  1        1 0.26074499E+00 0.20405968E+04</pdfrwt>
<pdfrwt beam="2">  1       -1 0.94495631E-01 0.20405968E+04</pdfrwt>
<totfact> 0.48126637E+00</totfact>
</mgrwt>
</event>
<event>
12    1  0.1477245E-007  0.1423221E+04  0.7818608E-02  0.8937179E-01
         -1   -1    0    0    0  501 -0.00000000000E+00  0.00000000000E+00  0.63031095951E+03  0.63031095951E+03  0.00000000000E+00 0.  1.
          1   -1    0    0  501    0  0.00000000000E+00 -0.00000000000E+00 -0.80339650914E+03  0.80339650914E+03  0.00000000000E+00 0. -1.
         23    2    1    2    0    0  0.10484636355E+03  0.38863535279E+03 -0.15092577806E+03  0.43999864463E+03  0.93755103394E+02 0.  0.
        254    2    1    2    0    0 -0.10484636355E+03 -0.38863535279E+03 -0.22159771564E+02  0.99370882402E+03  0.90825986043E+03 0.  0.
        -24    2    4    4    0    0  0.45658941578E+02 -0.38674692818E+03  0.38421794062E+03  0.55292249424E+03  0.80261655479E+02 0.  0.
         24    2    4    4    0    0 -0.15050530513E+03 -0.18884246047E+01 -0.40637771219E+03  0.44078632977E+03  0.80587409272E+02 0.  0.
         11    1    3    3    0    0  0.93913745903E+02  0.38945853455E+03 -0.13963042910E+03  0.42425746727E+03  0.00000000000E+00 0.  1.
        -11    1    3    3    0    0  0.10932617646E+02 -0.82318175980E+00 -0.11295348961E+02  0.15741177369E+02  0.00000000000E+00 0. -1.
          2    1    6    6  502    0 -0.20505197987E+02 -0.22229887301E+02 -0.32333174572E+02  0.44272623728E+02  0.00000000000E+00 0. -1.
          1    1    5    5  503    0  0.47925760739E+02 -0.10146083155E+03  0.11441921453E+03  0.16025896398E+03  0.00000000000E+00 0. -1.
         -2    1    5    5    0  503 -0.22668191607E+01 -0.28528609663E+03  0.26979872609E+03  0.39266353026E+03  0.00000000000E+00 0.  1.
         -1    1    6    6    0  502 -0.13000010714E+03  0.20341462697E+02 -0.37404453761E+03  0.39651370604E+03  0.00000000000E+00 0.  1.
<mgrwt>
<rscale>  0 0.14232212E+04</rscale>
<asrwt>0</asrwt>
<pdfrwt beam="1">  1        1 0.12359946E+00 0.14232212E+04</pdfrwt>
<pdfrwt beam="2">  1       -1 0.96970916E-01 0.14232212E+04</pdfrwt>
<totfact> 0.21857246E+01</totfact>
</mgrwt>
</event>
<event>
12    1  0.1477245E-007  0.4237122E+04  0.7818608E-02  0.7958348E-01
          2   -1    0    0  501    0  0.00000000000E+00  0.00000000000E+00  0.20375505516E+04  0.20375505516E+04  0.00000000000E+00 0. -1.
         -2   -1    0    0    0  501 -0.00000000000E+00 -0.00000000000E+00 -0.22027918379E+04  0.22027918379E+04  0.00000000000E+00 0.  1.
         23    2    1    2    0    0  0.15065245274E+04 -0.12587112727E+04 -0.56335121404E+03  0.20445145129E+04  0.93299428838E+02 0.  0.
        254    2    1    2    0    0 -0.15065245274E+04  0.12587112727E+04  0.39810992776E+03  0.21958278766E+04  0.89955451732E+03 0.  0.
        -24    2    4    4    0    0 -0.13487324785E+04  0.99606432769E+03  0.64123112130E+03  0.17968913911E+04  0.80111652140E+02 0.  0.
         24    2    4    4    0    0 -0.15779204888E+03  0.26264694498E+03 -0.24312119354E+03  0.39893648558E+03  0.78489848903E+02 0.  0.
         13    1    3    3    0    0  0.34373433273E+03 -0.32218925211E+03 -0.16591834906E+03  0.49948784192E+03  0.00000000000E+00 0. -1.
        -13    1    3    3    0    0  0.11627901947E+04 -0.93652202056E+03 -0.39743286498E+03  0.15450266710E+04  0.00000000000E+00 0.  1.
          4    1    6    6  502    0 -0.12301360985E+03  0.22411634129E+03 -0.16210292414E+03  0.30271742708E+03  0.00000000000E+00 0. -1.
          1    1    5    5  503    0 -0.87274608753E+02  0.45313028852E+02  0.49320240458E+02  0.11001188134E+03  0.00000000000E+00 0. -1.
         -2    1    5    5    0  503 -0.12614578698E+04  0.95075129884E+03  0.59191088084E+03  0.16868795097E+04  0.00000000000E+00 0.  1.
         -3    1    6    6    0  502 -0.34778439030E+02  0.38530603687E+02 -0.81018269403E+02  0.96219058502E+02  0.00000000000E+00 0.  1.
<mgrwt>
<rscale>  0 0.42371215E+04</rscale>
<asrwt>0</asrwt>
<pdfrwt beam="1">  1        2 0.31346932E+00 0.42371215E+04</pdfrwt>
<pdfrwt beam="2">  1       -2 0.33889105E+00 0.42371215E+04</pdfrwt>
<totfact> 0.90025578E-02</totfact>
</mgrwt>
</event>
<event>
12    1  0.1564825E-007  0.1417674E+04  0.7818608E-02  0.8941124E-01
         -1   -1    0    0    0  501 -0.00000000000E+00  0.00000000000E+00  0.50316450322E+03  0.50316450322E+03  0.00000000000E+00 0.  1.
          1   -1    0    0  501    0  0.00000000000E+00 -0.00000000000E+00 -0.99858003003E+03  0.99858003003E+03  0.00000000000E+00 0. -1.
         23    2    1    2    0    0  0.29729528838E+02 -0.36223740807E+03 -0.35492510653E+03  0.51611341741E+03  0.91112258782E+02 0.  0.
        254    2    1    2    0    0 -0.29729528838E+02  0.36223740807E+03 -0.14049042029E+03  0.98563111584E+03  0.90533494002E+03 0.  0.
        -24    2    4    4    0    0 -0.12172438166E+03 -0.21303837804E+03 -0.28073689155E+03  0.38135398997E+03  0.80096740148E+02 0.  0.
         24    2    4    4    0    0  0.91994852820E+02  0.57527578611E+03  0.14024647125E+03  0.60427712587E+03  0.77951838462E+02 0.  0.
         13    1    3    3    0    0  0.78619890807E+01 -0.50125603509E+02 -0.10150573882E+03  0.11348040365E+03  0.00000000000E+00 0. -1.
        -13    1    3    3    0    0  0.21867539757E+02 -0.31211180456E+03 -0.25341936770E+03  0.40263301376E+03  0.00000000000E+00 0.  1.
          2    1    6    6  502    0  0.84891546991E+02  0.56196342378E+03  0.12325078212E+03  0.58154984284E+03  0.00000000000E+00 0. -1.
          1    1    5    5  503    0 -0.10826798955E+03 -0.20343104371E+03 -0.22070764786E+03  0.31908934945E+03  0.00000000000E+00 0. -1.
         -2    1    5    5    0  503 -0.13456392106E+02 -0.96073343255E+01 -0.60029243689E+02  0.62264640521E+02  0.00000000000E+00 0.  1.
         -1    1    6    6    0  502  0.71033058293E+01  0.13312362330E+02  0.16995689139E+02  0.22727283027E+02  0.00000000000E+00 0.  1.
<mgrwt>
<rscale>  0 0.14176742E+04</rscale>
<asrwt>0</asrwt>
<pdfrwt beam="1">  1        1 0.15362770E+00 0.14176742E+04</pdfrwt>
<pdfrwt beam="2">  1       -1 0.77409924E-01 0.14176742E+04</pdfrwt>
<totfact> 0.24714464E+01</totfact>
</mgrwt>
</event>
<event>
12    1  0.1477245E-007  0.1458972E+04  0.7818608E-02  0.8912204E-01
          2   -1    0    0  501    0  0.00000000000E+00  0.00000000000E+00  0.54274235247E+03  0.54274235247E+03  0.00000000000E+00 0. -1.
         -2   -1    0    0    0  501 -0.00000000000E+00 -0.00000000000E+00 -0.98048363347E+03  0.98048363347E+03  0.00000000000E+00 0.  1.
         23    2    1    2    0    0 -0.35423638231E+03 -0.24407974707E+03 -0.24157247198E+03  0.50207427404E+03  0.93075130700E+02 0.  0.
        254    2    1    2    0    0  0.35423638231E+03  0.24407974707E+03 -0.19616880901E+03  0.10211517119E+04  0.90510235862E+03 0.  0.
        -24    2    4    4    0    0 -0.21730915337E+02 -0.30362741359E+03 -0.15170242347E+03  0.35044433369E+03  0.84473467790E+02 0.  0.
         24    2    4    4    0    0  0.37596729765E+03  0.54770716066E+03 -0.44466385543E+02  0.67070737821E+03  0.80849149644E+02 0.  0.
         13    1    3    3    0    0 -0.20062748899E+02 -0.16181833466E+01 -0.35089009681E+02  0.40452082902E+02  0.00000000000E+00 0. -1.
        -13    1    3    3    0    0 -0.33417363341E+03 -0.24246156372E+03 -0.20648346230E+03  0.46162219114E+03  0.00000000000E+00 0.  1.
          2    1    6    6  502    0  0.32876075972E+03  0.42447014837E+03 -0.44502638516E+02  0.53873836769E+03  0.00000000000E+00 0. -1.
          3    1    5    5  503    0 -0.26453245278E+02 -0.27292634429E+03 -0.16105449135E+03  0.31800489427E+03  0.00000000000E+00 0. -1.
         -4    1    5    5    0  503  0.47223299407E+01 -0.30701069298E+02  0.93520678789E+01  0.32439439417E+02  0.00000000000E+00 0.  1.
         -1    1    6    6    0  502  0.47206537922E+02  0.12323701229E+03  0.36252973534E-01  0.13196901051E+03  0.00000000000E+00 0.  1.
<mgrwt>
<rscale>  0 0.14589722E+04</rscale>
<asrwt>0</asrwt>
<pdfrwt beam="1">  1        2 0.83498825E-01 0.14589722E+04</pdfrwt>
<pdfrwt beam="2">  1       -2 0.15084363E+00 0.14589722E+04</pdfrwt>
<totfact> 0.15985693E+01</totfact>
</mgrwt>
</event>
<event>
12    1  0.1477245E-007  0.1377381E+04  0.7818608E-02  0.8970356E-01
          1   -1    0    0  501    0  0.00000000000E+00  0.00000000000E+00  0.61780034413E+03  0.61780034413E+03  0.00000000000E+00 0. -1.
         -1   -1    0    0    0  501 -0.00000000000E+00 -0.00000000000E+00 -0.76771526412E+03  0.76771526412E+03  0.00000000000E+00 0.  1.
         23    2    1    2    0    0 -0.94478451919E+01  0.34111341714E+02 -0.43366098785E+03  0.44228103240E+03  0.79358766558E+02 0.  0.
        254    2    1    2    0    0  0.94478451919E+01 -0.34111341714E+02  0.28374606786E+03  0.94323457585E+03  0.89884747797E+03 0.  0.
        -24    2    4    4    0    0 -0.65439195132E+02  0.28503071409E+03 -0.19250516332E+03  0.35890288173E+03  0.78919226883E+02 0.  0.
         24    2    4    4    0    0  0.74887040324E+02 -0.31914205580E+03  0.47625123118E+03  0.58433169412E+03  0.84667425657E+02 0.  0.
         13    1    3    3    0    0  0.11224317164E+02  0.13893119364E+02 -0.17129863447E+02  0.24747450033E+02  0.00000000000E+00 0. -1.
        -13    1    3    3    0    0 -0.20672162355E+02  0.20218222350E+02 -0.41653112440E+03  0.41753358237E+03  0.00000000000E+00 0.  1.
          4    1    6    6  502    0  0.88041775735E+02 -0.31024563056E+03  0.44949103913E+03  0.55321415367E+03  0.00000000000E+00 0. -1.
          3    1    5    5  503    0 -0.69110679735E+02  0.28886046207E+03 -0.19178037446E+03  0.35354824937E+03  0.00000000000E+00 0. -1.
         -4    1    5    5    0  503  0.36714846025E+01 -0.38297479827E+01 -0.72478885797E+00  0.53546323577E+01  0.00000000000E+00 0.  1.
         -3    1    6    6    0  502 -0.13154735411E+02 -0.88964252462E+01  0.26760192044E+02  0.31117540457E+02  0.00000000000E+00 0.  1.
<mgrwt>
<rscale>  0 0.13773812E+04</rscale>
<asrwt>0</asrwt>
<pdfrwt beam="1">  1        1 0.95046207E-01 0.13773812E+04</pdfrwt>
<pdfrwt beam="2">  1       -1 0.11811004E+00 0.13773812E+04</pdfrwt>
<totfact> 0.20641110E+01</totfact>
</mgrwt>
</event>
<event>
12    1  0.1477245E-007  0.2198023E+04  0.7818608E-02  0.8519252E-01
         -2   -1    0    0    0  501 -0.00000000000E+00  0.00000000000E+00  0.12143682992E+04  0.12143682992E+04  0.00000000000E+00 0.  1.
          2   -1    0    0  501    0  0.00000000000E+00 -0.00000000000E+00 -0.99461239811E+03  0.99461239811E+03  0.00000000000E+00 0. -1.
         23    2    1    2    0    0  0.19153659421E+02  0.91426117364E+03  0.10692862999E+03  0.92451621558E+03  0.84000861121E+02 0.  0.
        254    2    1    2    0    0 -0.19153659421E+02 -0.91426117364E+03  0.11282727108E+03  0.12844644817E+04  0.89491823950E+03 0.  0.
        -24    2    4    4    0    0 -0.33876385173E+03 -0.82055139165E+03  0.23272034811E+03  0.92118917728E+03  0.79782243315E+02 0.  0.
         24    2    4    4    0    0  0.31961019231E+03 -0.93709781991E+02 -0.11989307703E+03  0.36327530443E+03  0.81623517577E+02 0.  0.
         11    1    3    3    0    0 -0.18296496851E+02  0.48314457081E+03  0.25359476650E+02  0.48415549274E+03  0.00000000000E+00 0.  1.
        -11    1    3    3    0    0  0.37450156273E+02  0.43111660283E+03  0.81569153341E+02  0.44036072284E+03  0.00000000000E+00 0. -1.
          2    1    6    6  502    0  0.88085204230E+01 -0.89349855635E+01 -0.24114099908E+02  0.27182969180E+02  0.00000000000E+00 0. -1.
          3    1    5    5  503    0 -0.67899410864E+02 -0.12084035054E+03  0.12201657689E+02  0.13914596927E+03  0.00000000000E+00 0. -1.
         -4    1    5    5    0  503 -0.27086444086E+03 -0.69971104111E+03  0.22051869042E+03  0.78204320801E+03  0.00000000000E+00 0.  1.
         -1    1    6    6    0  502  0.31080167188E+03 -0.84774796427E+02 -0.95778977125E+02  0.33609233525E+03  0.00000000000E+00 0.  1.
<mgrwt>
<rscale>  0 0.21980225E+04</rscale>
<asrwt>0</asrwt>
<pdfrwt beam="1">  1        2 0.15301729E+00 0.21980225E+04</pdfrwt>
<pdfrwt beam="2">  1       -2 0.18682589E+00 0.21980225E+04</pdfrwt>
<totfact> 0.37788275E+00</totfact>
</mgrwt>
</event>
<event>
12    1  0.1477245E-007  0.1991362E+04  0.7818608E-02  0.8610670E-01
         -2   -1    0    0    0  501 -0.00000000000E+00  0.00000000000E+00  0.29905035544E+03  0.29905035544E+03  0.00000000000E+00 0.  1.
          2   -1    0    0  501    0  0.00000000000E+00 -0.00000000000E+00 -0.33150957441E+04  0.33150957441E+04  0.00000000000E+00 0. -1.
         23    2    1    2    0    0  0.23858249933E+03  0.69983987611E+03 -0.73034821215E+03  0.10433670363E+04  0.92243157844E+02 0.  0.
        254    2    1    2    0    0 -0.23858249933E+03 -0.69983987611E+03 -0.22856971765E+04  0.25707790633E+04  0.91531194046E+03 0.  0.
        -24    2    4    4    0    0 -0.52862272834E+03 -0.63271986180E+03 -0.19305505181E+04  0.21005228996E+04  0.73448868379E+02 0.  0.
         24    2    4    4    0    0  0.29004022901E+03 -0.67120014317E+02 -0.35514665833E+03  0.47025616364E+03  0.79895430123E+02 0.  0.
         13    1    3    3    0    0  0.87001055433E+02  0.15649249594E+03 -0.20947481459E+03  0.27556992375E+03  0.00000000000E+00 0. -1.
        -13    1    3    3    0    0  0.15158144389E+03  0.54334738017E+03 -0.52087339756E+03  0.76779711250E+03  0.00000000000E+00 0.  1.
          4    1    6    6  502    0  0.22729771307E+03 -0.25720279394E+02 -0.23079126204E+03  0.32494674914E+03  0.00000000000E+00 0. -1.
          1    1    5    5  503    0 -0.43249109070E+03 -0.52982939190E+03 -0.16638004550E+04  0.17988884574E+04  0.00000000000E+00 0. -1.
         -2    1    5    5    0  503 -0.96131637640E+02 -0.10289046989E+03 -0.26675006313E+03  0.30163444222E+03  0.00000000000E+00 0.  1.
         -3    1    6    6    0  502  0.62742515938E+02 -0.41399734923E+02 -0.12435539629E+03  0.14530941451E+03  0.00000000000E+00 0.  1.
<mgrwt>
<rscale>  0 0.19913619E+04</rscale>
<asrwt>0</asrwt>
<pdfrwt beam="1">  1        2 0.51001473E+00 0.19913619E+04</pdfrwt>
<pdfrwt beam="2">  1       -2 0.46007747E-01 0.19913619E+04</pdfrwt>
<totfact> 0.45519987E+00</totfact>
</mgrwt>
</event>
<event>
12    1  0.2619878E-007  0.1815832E+04  0.7818608E-02  0.8697925E-01
          2   -1    0    0  501    0  0.00000000000E+00  0.00000000000E+00  0.19541272737E+04  0.19541272737E+04  0.00000000000E+00 0. -1.
         -2   -1    0    0    0  501 -0.00000000000E+00 -0.00000000000E+00 -0.42183115514E+03  0.42183115514E+03  0.00000000000E+00 0.  1.
         23    2    1    2    0    0  0.20588792425E+03 -0.50351086669E+03  0.11532355462E+04  0.12778288628E+04  0.83554457353E+02 0.  0.
        254    2    1    2    0    0 -0.20588792425E+03  0.50351086669E+03  0.37906057236E+03  0.10981295660E+04  0.87537911563E+03 0.  0.
        -24    2    4    4    0    0 -0.46707362659E+03  0.43363336778E+03  0.21888257773E+02  0.64313434662E+03  0.83348795212E+02 0.  0.
         24    2    4    4    0    0  0.26118570234E+03  0.69877498907E+02  0.35717231458E+03  0.45499521943E+03  0.79672777233E+02 0.  0.
         13    1    3    3    0    0  0.21284323133E+03 -0.46787640276E+03  0.10807793461E+04  0.11967850953E+04  0.00000000000E+00 0. -1.
        -13    1    3    3    0    0 -0.69553070817E+01 -0.35634463928E+02  0.72456200073E+02  0.81043767465E+02  0.00000000000E+00 0.  1.
          2    1    6    6  502    0  0.24766985307E+03  0.77591881380E+02  0.30464862150E+03  0.40021449094E+03  0.00000000000E+00 0. -1.
          1    1    5    5  503    0 -0.46675334811E+03  0.42629258300E+03  0.29157092817E+02  0.63279869655E+03  0.00000000000E+00 0. -1.
         -4    1    5    5    0  503 -0.32027848247E+00  0.73407847749E+01 -0.72688350439E+01  0.10335650067E+02  0.00000000000E+00 0.  1.
         -1    1    6    6    0  502  0.13515849278E+02 -0.77143824730E+01  0.52523693080E+02  0.54780728486E+02  0.00000000000E+00 0.  1.
<mgrwt>
<rscale>  0 0.18158323E+04</rscale>
<asrwt>0</asrwt>
<pdfrwt beam="1">  1        2 0.30063496E+00 0.18158323E+04</pdfrwt>
<pdfrwt beam="2">  1       -2 0.64897102E-01 0.18158323E+04</pdfrwt>
<totfact> 0.14634110E+01</totfact>
</mgrwt>
</event>
<event>
12    1  0.1477245E-007  0.2178248E+04  0.7818608E-02  0.8527537E-01
         -1   -1    0    0    0  501 -0.00000000000E+00  0.00000000000E+00  0.92765329404E+03  0.92765329404E+03  0.00000000000E+00 0. -1.
          1   -1    0    0  501    0  0.00000000000E+00 -0.00000000000E+00 -0.12787004521E+04  0.12787004521E+04  0.00000000000E+00 0.  1.
         23    2    1    2    0    0  0.89042590610E+03 -0.28690012433E+02 -0.26417726929E+03  0.93370239264E+03  0.91263998161E+02 0.  0.
        254    2    1    2    0    0 -0.89042590610E+03  0.28690012433E+02 -0.86869888763E+02  0.12726513535E+04  0.90466219048E+03 0.  0.
        -24    2    4    4    0    0 -0.33387449058E+03  0.29409995309E+03  0.29738718241E+03  0.54085797554E+03  0.78238453276E+02 0.  0.
         24    2    4    4    0    0 -0.55655141551E+03 -0.26540994066E+03 -0.38425707117E+03  0.73179337795E+03  0.87613563755E+02 0.  0.
         13    1    3    3    0    0  0.26358387703E+03 -0.85434861058E+01 -0.35279930480E+02  0.26607165366E+03  0.00000000000E+00 0.  1.
        -13    1    3    3    0    0  0.62684202906E+03 -0.20146526327E+02 -0.22889733881E+03  0.66763073898E+03  0.00000000000E+00 0. -1.
          4    1    6    6  502    0 -0.23600260323E+03 -0.16080105028E+03 -0.17279234482E+03  0.33378346414E+03  0.00000000000E+00 0. -1.
          1    1    5    5  503    0 -0.17702894617E+03  0.17104143660E+03  0.11932263666E+03  0.27355495323E+03  0.00000000000E+00 0. -1.
         -2    1    5    5    0  503 -0.15684554442E+03  0.12305851649E+03  0.17806454575E+03  0.26730302231E+03  0.00000000000E+00 0.  1.
         -3    1    6    6    0  502 -0.32054881228E+03 -0.10460889038E+03 -0.21146472635E+03  0.39800991381E+03  0.00000000000E+00 0.  1.
<mgrwt>
<rscale>  0 0.21782476E+04</rscale>
<asrwt>0</asrwt>
<pdfrwt beam="1">  1        1 0.19672315E+00 0.21782476E+04</pdfrwt>
<pdfrwt beam="2">  1       -1 0.14271589E+00 0.21782476E+04</pdfrwt>
<totfact> 0.34108855E+00</totfact>
</mgrwt>
</event>
<event>
12    1  0.1477245E-007  0.1799336E+04  0.7818608E-02  0.8706653E-01
         -2   -1    0    0    0  501 -0.00000000000E+00  0.00000000000E+00  0.30254590102E+03  0.30254590102E+03  0.00000000000E+00 0.  1.
          2   -1    0    0  501    0  0.00000000000E+00 -0.00000000000E+00 -0.26753042823E+04  0.26753042823E+04  0.00000000000E+00 0. -1.
         23    2    1    2    0    0  0.85028066781E+02  0.20332141552E+03 -0.19194632551E+04  0.19343682751E+04  0.94191644459E+02 0.  0.
        254    2    1    2    0    0 -0.85028066781E+02 -0.20332141552E+03 -0.45329512611E+03  0.10434819081E+04  0.91367863668E+03 0.  0.
        -24    2    4    4    0    0  0.37664989949E+03  0.77806100764E+02 -0.19792256642E+03  0.43968063969E+03  0.78909989987E+02 0.  0.
         24    2    4    4    0    0 -0.46167796627E+03 -0.28112751628E+03 -0.25537255970E+03  0.60380126846E+03  0.84744336684E+02 0.  0.
         13    1    3    3    0    0  0.53138685781E+02  0.80769508085E+02 -0.11963810588E+04  0.12002812467E+04  0.00000000000E+00 0. -1.
        -13    1    3    3    0    0  0.31889381000E+02  0.12255190743E+03 -0.72308219633E+03  0.73408702841E+03  0.00000000000E+00 0.  1.
          4    1    6    6  502    0 -0.71536653489E+02 -0.70178212677E+02 -0.21875237563E+02  0.10257192767E+03  0.00000000000E+00 0. -1.
          3    1    5    5  503    0  0.83084805217E+02  0.41200095323E+02 -0.75203211868E+02  0.11939872607E+03  0.00000000000E+00 0. -1.
         -4    1    5    5    0  503  0.29356509427E+03  0.36606005441E+02 -0.12271935455E+03  0.32028191362E+03  0.00000000000E+00 0.  1.
         -3    1    6    6    0  502 -0.39014131278E+03 -0.21094930361E+03 -0.23349732213E+03  0.50122934079E+03  0.00000000000E+00 0.  1.
<mgrwt>
<rscale>  0 0.17993358E+04</rscale>
<asrwt>0</asrwt>
<pdfrwt beam="1">  1        2 0.41158527E+00 0.17993358E+04</pdfrwt>
<pdfrwt beam="2">  1       -2 0.46545524E-01 0.17993358E+04</pdfrwt>
<totfact> 0.11370808E+01</totfact>
</mgrwt>
</event>
<event>
12    1  0.1477245E-007  0.1217306E+04  0.7818608E-02  0.9097842E-01
          1   -1    0    0  501    0  0.00000000000E+00  0.00000000000E+00  0.19824164144E+04  0.19824164144E+04  0.00000000000E+00 0. -1.
         -1   -1    0    0    0  501 -0.00000000000E+00 -0.00000000000E+00 -0.18687205546E+03  0.18687205546E+03  0.00000000000E+00 0.  1.
         23    2    1    2    0    0  0.89108499732E+02 -0.23992754707E+03  0.47098932310E+03  0.54404592896E+03  0.93002568678E+02 0.  0.
        254    2    1    2    0    0 -0.89108499732E+02  0.23992754707E+03  0.13245550358E+04  0.16252425409E+04  0.90634525495E+03 0.  0.
        -24    2    4    4    0    0 -0.45230888796E+03  0.24083301732E+03  0.49887746216E+03  0.71986586525E+03  0.82123500514E+02 0.  0.
         24    2    4    4    0    0  0.36320038823E+03 -0.90547025859E+00  0.82567757364E+03  0.90537667561E+03  0.77769706369E+02 0.  0.
         13    1    3    3    0    0  0.15255546125E+02 -0.19875970406E+02  0.12448931030E+03  0.12698572465E+03  0.00000000000E+00 0. -1.
        -13    1    3    3    0    0  0.73852953607E+02 -0.22005157666E+03  0.34650001280E+03  0.41706020431E+03  0.00000000000E+00 0.  1.
          2    1    6    6  502    0  0.12923666885E+03  0.29465295239E+02  0.35358871046E+03  0.37761792379E+03  0.00000000000E+00 0. -1.
          3    1    5    5  503    0 -0.32025653595E+02 -0.39773190005E+00  0.49636055234E+02  0.59072317189E+02  0.00000000000E+00 0. -1.
         -4    1    5    5    0  503 -0.42028323437E+03  0.24123074922E+03  0.44924140692E+03  0.66079354806E+03  0.00000000000E+00 0.  1.
         -1    1    6    6    0  502  0.23396371938E+03 -0.30370765497E+02  0.47208886318E+03  0.52775875182E+03  0.00000000000E+00 0.  1.
<mgrwt>
<rscale>  0 0.12173056E+04</rscale>
<asrwt>0</asrwt>
<pdfrwt beam="1">  1        1 0.30498712E+00 0.12173056E+04</pdfrwt>
<pdfrwt beam="2">  1       -1 0.28749548E-01 0.12173056E+04</pdfrwt>
<totfact> 0.33344941E+01</totfact>
</mgrwt>
</event>
<event>
12    1  0.1477245E-007  0.1736152E+04  0.7818608E-02  0.8741010E-01
         -1   -1    0    0    0  501 -0.00000000000E+00  0.00000000000E+00  0.59231113259E+03  0.59231113259E+03  0.00000000000E+00 0.  1.
          1   -1    0    0  501    0  0.00000000000E+00 -0.00000000000E+00 -0.12722300154E+04  0.12722300154E+04  0.00000000000E+00 0. -1.
         23    2    1    2    0    0 -0.17850699673E+03  0.60233014515E+03 -0.23222448090E+03  0.67603874310E+03  0.91835837255E+02 0.  0.
        254    2    1    2    0    0  0.17850699673E+03 -0.60233014515E+03 -0.44769440193E+03  0.11885024049E+04  0.90412462488E+03 0.  0.
        -24    2    4    4    0    0 -0.34738134401E+03 -0.37471193271E+03 -0.15519624705E+03  0.53986983007E+03  0.79314107425E+02 0.  0.
         24    2    4    4    0    0  0.52588834073E+03 -0.22761821244E+03 -0.29249815488E+03  0.64863257485E+03  0.82464834870E+02 0.  0.
         13    1    3    3    0    0 -0.92361481882E+02  0.19929024784E+03 -0.11290232712E+03  0.24697000160E+03  0.00000000000E+00 0. -1.
        -13    1    3    3    0    0 -0.86145514846E+02  0.40303989731E+03 -0.11932215378E+03  0.42906874150E+03  0.00000000000E+00 0.  1.
          2    1    6    6  502    0  0.37182941394E+03 -0.15973993101E+03 -0.16319078788E+03  0.43635443378E+03  0.00000000000E+00 0. -1.
          1    1    5    5  503    0 -0.14885602489E+03 -0.15226411680E+03 -0.10536885618E+03  0.23758171913E+03  0.00000000000E+00 0. -1.
         -2    1    5    5    0  503 -0.19852531911E+03 -0.22244781591E+03 -0.49827390874E+02  0.30228811093E+03  0.00000000000E+00 0.  1.
         -1    1    6    6    0  502  0.15405892679E+03 -0.67878281424E+02 -0.12930736700E+03  0.21227814106E+03  0.00000000000E+00 0.  1.
<mgrwt>
<rscale>  0 0.17361521E+04</rscale>
<asrwt>0</asrwt>
<pdfrwt beam="1">  1        1 0.19572769E+00 0.17361521E+04</pdfrwt>
<pdfrwt beam="2">  1       -1 0.91124791E-01 0.17361521E+04</pdfrwt>
<totfact> 0.10559441E+01</totfact>
</mgrwt>
</event>
<event>
12    1  0.1477245E-007  0.1317782E+04  0.7818608E-02  0.9015582E-01
         -2   -1    0    0    0  501 -0.00000000000E+00  0.00000000000E+00  0.12393761376E+03  0.12393761376E+03  0.00000000000E+00 0.  1.
          2   -1    0    0  501    0  0.00000000000E+00 -0.00000000000E+00 -0.35028675880E+04  0.35028675880E+04  0.00000000000E+00 0. -1.
         23    2    1    2    0    0  0.29050351650E+03 -0.44077314309E+01 -0.13374580685E+04  0.13720252765E+04  0.96164198456E+02 0.  0.
        254    2    1    2    0    0 -0.29050351650E+03  0.44077314309E+01 -0.20414719057E+04  0.22547799252E+04  0.91214760229E+03 0.  0.
        -24    2    4    4    0    0  0.29441368809E+03 -0.73443832225E+02 -0.40154684113E+03  0.51014087148E+03  0.83249185660E+02 0.  0.
         24    2    4    4    0    0 -0.58491720459E+03  0.77851563656E+02 -0.16399250645E+04  0.17446390537E+04  0.78880975729E+02 0.  0.
         13    1    3    3    0    0  0.12650008654E+03 -0.28542346583E+02 -0.41495791521E+03  0.43474936324E+03  0.00000000000E+00 0. -1.
        -13    1    3    3    0    0  0.16400342996E+03  0.24134615152E+02 -0.92250015333E+03  0.93727591327E+03  0.00000000000E+00 0.  1.
          4    1    6    6  502    0 -0.51884678218E+03  0.56555354039E+02 -0.15045276597E+04  0.15924835855E+04  0.00000000000E+00 0. -1.
          1    1    5    5  503    0  0.29598248575E+03 -0.63889096800E+02 -0.39738382565E+03  0.49960119440E+03  0.00000000000E+00 0. -1.
         -2    1    5    5    0  503 -0.15687976592E+01 -0.95547354249E+01 -0.41630154777E+01  0.10539677082E+02  0.00000000000E+00 0.  1.
         -3    1    6    6    0  502 -0.66070422409E+02  0.21296209617E+02 -0.13539740483E+03  0.15215546818E+03  0.00000000000E+00 0.  1.
<mgrwt>
<rscale>  0 0.13177815E+04</rscale>
<asrwt>0</asrwt>
<pdfrwt beam="1">  1        2 0.53890270E+00 0.13177815E+04</pdfrwt>
<pdfrwt beam="2">  1       -2 0.19067326E-01 0.13177815E+04</pdfrwt>
<totfact> 0.18789334E+01</totfact>
</mgrwt>
</event>
<event>
12    1  0.1477245E-007  0.2074951E+04  0.7818608E-02  0.8572359E-01
          1   -1    0    0  501    0  0.00000000000E+00  0.00000000000E+00  0.69007796640E+03  0.69007796640E+03  0.00000000000E+00 0. -1.
         -1   -1    0    0    0  501 -0.00000000000E+00 -0.00000000000E+00 -0.15597590342E+04  0.15597590342E+04  0.00000000000E+00 0.  1.
         23    2    1    2    0    0 -0.57895978471E+03  0.60464240573E+03 -0.44284214742E+03  0.95158582400E+03  0.92841487414E+02 0.  0.
        254    2    1    2    0    0  0.57895978471E+03 -0.60464240573E+03 -0.42683892035E+03  0.12982511766E+04  0.89581124262E+03 0.  0.
        -24    2    4    4    0    0  0.30611861012E+03 -0.76376904226E+03 -0.92810172145E+02  0.83173048093E+03  0.78167202039E+02 0.  0.
         24    2    4    4    0    0  0.27284117459E+03  0.15912663653E+03 -0.33402874821E+03  0.46652069564E+03  0.79389935278E+02 0.  0.
         13    1    3    3    0    0 -0.11806082817E+03  0.86397880437E+02 -0.10536548023E+03  0.18029097957E+03  0.00000000000E+00 0. -1.
        -13    1    3    3    0    0 -0.46089895654E+03  0.51824452529E+03 -0.33747666719E+03  0.77129484442E+03  0.00000000000E+00 0.  1.
          4    1    6    6  502    0  0.12865852658E+03  0.10586900163E+03 -0.13142732321E+03  0.21221310811E+03  0.00000000000E+00 0. -1.
          1    1    5    5  503    0  0.18816184725E+03 -0.47906922035E+03 -0.95860355979E+02  0.52354694775E+03  0.00000000000E+00 0. -1.
         -2    1    5    5    0  503  0.11795676287E+03 -0.28469982191E+03  0.30501838333E+01  0.30818353318E+03  0.00000000000E+00 0.  1.
         -3    1    6    6    0  502  0.14418264801E+03  0.53257634901E+02 -0.20260142500E+03  0.25430758753E+03  0.00000000000E+00 0.  1.
<mgrwt>
<rscale>  0 0.20749509E+04</rscale>
<asrwt>0</asrwt>
<pdfrwt beam="1">  1        1 0.10616584E+00 0.20749509E+04</pdfrwt>
<pdfrwt beam="2">  1       -1 0.23996293E+00 0.20749509E+04</pdfrwt>
<totfact> 0.20814322E+00</totfact>
</mgrwt>
</event>
<event>
12    1  0.1477245E-007  0.2148550E+04  0.7818608E-02  0.8540153E-01
         -4   -1    0    0    0  501 -0.00000000000E+00  0.00000000000E+00  0.80399766551E+03  0.80399766551E+03  0.00000000000E+00 0.  1.
          4   -1    0    0  501    0  0.00000000000E+00 -0.00000000000E+00 -0.14354099428E+04  0.14354099428E+04  0.00000000000E+00 0. -1.
         23    2    1    2    0    0  0.73770627218E+03 -0.36720282382E+03  0.50291356045E+02  0.83380168837E+03  0.11682284537E+03 0.  0.
        254    2    1    2    0    0 -0.73770627218E+03  0.36720282382E+03 -0.68170363334E+03  0.14056059200E+04  0.91211824928E+03 0.  0.
        -24    2    4    4    0    0  0.19638473708E+03  0.10851636671E+03 -0.47548913012E+02  0.24460315848E+03  0.85011994501E+02 0.  0.
         24    2    4    4    0    0 -0.93409100925E+03  0.25868645711E+03 -0.63415472033E+03  0.11610027615E+04  0.79564478076E+02 0.  0.
         13    1    3    3    0    0  0.62862154566E+03 -0.35615414879E+03  0.38529419630E+02  0.72352977931E+03  0.00000000000E+00 0.  1.
        -13    1    3    3    0    0  0.10908472651E+03 -0.11048675026E+02  0.11761936415E+02  0.11027190905E+03  0.00000000000E+00 0. -1.
          4    1    6    6  502    0 -0.48217739364E+03  0.94190725855E+02 -0.33482423645E+03  0.59453696361E+03  0.00000000000E+00 0. -1.
          1    1    5    5  503    0  0.62618546908E+02  0.82208194640E+02 -0.14787142761E+02  0.10439314764E+03  0.00000000000E+00 0. -1.
         -2    1    5    5    0  503  0.13376619017E+03  0.26308172068E+02 -0.32761770251E+02  0.14021001084E+03  0.00000000000E+00 0.  1.
         -3    1    6    6    0  502 -0.45191361561E+03  0.16449573126E+03 -0.29933048387E+03  0.56646579787E+03  0.00000000000E+00 0.  1.
<mgrwt>
<rscale>  0 0.21485495E+04</rscale>
<asrwt>0</asrwt>
<pdfrwt beam="1">  1        4 0.22083230E+00 0.21485495E+04</pdfrwt>
<pdfrwt beam="2">  1       -4 0.12369195E+00 0.21485495E+04</pdfrwt>
<totfact> 0.86760241E-02</totfact>
</mgrwt>
</event>
<event>
12    1  0.1477245E-007  0.2033250E+04  0.7818608E-02  0.8591231E-01
          2   -1    0    0  501    0  0.00000000000E+00  0.00000000000E+00  0.15889633426E+04  0.15889633426E+04  0.00000000000E+00 0.  1.
         -2   -1    0    0    0  501 -0.00000000000E+00 -0.00000000000E+00 -0.65044037284E+03  0.65044037284E+03  0.00000000000E+00 0. -1.
         23    2    1    2    0    0 -0.86268747048E+03 -0.12577933845E+03  0.39856883068E+03  0.96284290491E+03  0.90328473033E+02 0.  0.
        254    2    1    2    0    0  0.86268747048E+03  0.12577933845E+03  0.53995413913E+03  0.12765608106E+04  0.76026766144E+03 0.  0.
        -24    2    4    4    0    0  0.78125782395E+03  0.24628303631E+03  0.67355939973E+03  0.10633593433E+04  0.77664061866E+02 0.  0.
         24    2    4    4    0    0  0.81429646534E+02 -0.12050369786E+03 -0.13360526060E+03  0.21320146730E+03  0.80327899674E+02 0.  0.
         13    1    3    3    0    0 -0.80927013155E+03 -0.13970655656E+03  0.37145678959E+03  0.90134134172E+03  0.00000000000E+00 0.  1.
        -13    1    3    3    0    0 -0.53417338927E+02  0.13927218105E+02  0.27112041087E+02  0.61501563184E+02  0.00000000000E+00 0. -1.
          2    1    6    6  502    0  0.93739683233E+02 -0.11551929976E+03 -0.10631637430E+03  0.18285242211E+03  0.00000000000E+00 0. -1.
          3    1    5    5  503    0  0.60332673547E+03  0.15547740011E+03  0.51392797091E+03  0.80764988142E+03  0.00000000000E+00 0. -1.
         -4    1    5    5    0  503  0.17793108848E+03  0.90805636198E+02  0.15963142882E+03  0.25570946185E+03  0.00000000000E+00 0.  1.
         -1    1    6    6    0  502 -0.12310036699E+02 -0.49843981013E+01 -0.27288886306E+02  0.30349045187E+02  0.00000000000E+00 0.  1.
<mgrwt>
<rscale>  0 0.20332495E+04</rscale>
<asrwt>0</asrwt>
<pdfrwt beam="1">  1        2 0.24445590E+00 0.20332495E+04</pdfrwt>
<pdfrwt beam="2">  1       -2 0.10006775E+00 0.20332495E+04</pdfrwt>
<totfact> 0.86443584E+00</totfact>
</mgrwt>
</event>
<event>
12    1  0.1477245E-007  0.1455257E+04  0.7818608E-02  0.8914764E-01
          2   -1    0    0  501    0  0.00000000000E+00  0.00000000000E+00  0.15058410943E+04  0.15058410943E+04  0.00000000000E+00 0. -1.
         -2   -1    0    0    0  501 -0.00000000000E+00 -0.00000000000E+00 -0.35159294440E+03  0.35159294440E+03  0.00000000000E+00 0.  1.
         23    2    1    2    0    0  0.21942691266E+03  0.10912608175E+01 -0.12443521614E+03  0.27026148521E+03  0.96993744759E+02 0.  0.
        254    2    1    2    0    0 -0.21942691266E+03 -0.10912608175E+01  0.12786833661E+04  0.15871725535E+04  0.91429546816E+03 0.  0.
        -24    2    4    4    0    0  0.31720712757E+03  0.17147723417E+03  0.54988211096E+03  0.66231084950E+03  0.79123459118E+02 0.  0.
         24    2    4    4    0    0 -0.53663404023E+03 -0.17256849499E+03  0.72880125510E+03  0.92486170400E+03  0.80386090235E+02 0.  0.
         11    1    3    3    0    0  0.73326097121E+02 -0.74715269310E+01 -0.96235260407E+02  0.12121784349E+03  0.00000000000E+00 0.  1.
        -11    1    3    3    0    0  0.14610081554E+03  0.85627877486E+01 -0.28199955734E+02  0.14904364172E+03  0.00000000000E+00 0. -1.
          4    1    6    6  502    0 -0.47543289284E+03 -0.17620006689E+03  0.63157785641E+03  0.80992190233E+03  0.00000000000E+00 0. -1.
          3    1    5    5  503    0  0.26174434653E+03  0.14107824260E+03  0.39035785771E+03  0.49070605311E+03  0.00000000000E+00 0. -1.
         -4    1    5    5    0  503  0.55462781037E+02  0.30398991573E+02  0.15952425325E+03  0.17160479639E+03  0.00000000000E+00 0.  1.
         -3    1    6    6    0  502 -0.61201147388E+02  0.36315718994E+01  0.97223398690E+02  0.11493980167E+03  0.00000000000E+00 0.  1.
<mgrwt>
<rscale>  0 0.14552568E+04</rscale>
<asrwt>0</asrwt>
<pdfrwt beam="1">  1        2 0.23166786E+00 0.14552568E+04</pdfrwt>
<pdfrwt beam="2">  1       -2 0.54091223E-01 0.14552568E+04</pdfrwt>
<totfact> 0.39298289E+01</totfact>
</mgrwt>
</event>
<event>
12    1  0.1477245E-007  0.1900524E+04  0.7818608E-02  0.8654595E-01
          1   -1    0    0  501    0  0.00000000000E+00  0.00000000000E+00  0.24746888057E+04  0.24746888057E+04  0.00000000000E+00 0. -1.
         -1   -1    0    0    0  501 -0.00000000000E+00 -0.00000000000E+00 -0.36489366440E+03  0.36489366440E+03  0.00000000000E+00 0.  1.
         23    2    1    2    0    0  0.68710403711E+03  0.20058699998E+02  0.11619924713E+04  0.13531784234E+04  0.91383986524E+02 0.  0.
        254    2    1    2    0    0 -0.68710403711E+03 -0.20058699998E+02  0.94780266999E+03  0.14864040467E+04  0.91572527508E+03 0.  0.
        -24    2    4    4    0    0 -0.28562068181E+03  0.37695571227E+03  0.14451472508E+03  0.50089877461E+03  0.79625961507E+02 0.  0.
         24    2    4    4    0    0 -0.40148335530E+03 -0.39701441227E+03  0.80328794492E+03  0.98550527206E+03  0.84497282038E+02 0.  0.
         13    1    3    3    0    0  0.63193772532E+03  0.26056780689E+02  0.10135151156E+04  0.11946703035E+04  0.00000000000E+00 0. -1.
        -13    1    3    3    0    0  0.55166311791E+02 -0.59980806907E+01  0.14847735563E+03  0.15850811987E+03  0.00000000000E+00 0.  1.
          2    1    6    6  502    0 -0.11361346260E+03 -0.15808324736E+03  0.31631148402E+03  0.37141794100E+03  0.00000000000E+00 0. -1.
          3    1    5    5  503    0 -0.23224890680E+03  0.25441351794E+03  0.12145858059E+03  0.36526425998E+03  0.00000000000E+00 0. -1.
         -4    1    5    5    0  503 -0.53371775011E+02  0.12254219433E+03  0.23056144491E+02  0.13563451462E+03  0.00000000000E+00 0.  1.
         -1    1    6    6    0  502 -0.28786989270E+03 -0.23893116491E+03  0.48697646090E+03  0.61408733105E+03  0.00000000000E+00 0.  1.
<mgrwt>
<rscale>  0 0.19005244E+04</rscale>
<asrwt>0</asrwt>
<pdfrwt beam="1">  1        1 0.38072134E+00 0.19005244E+04</pdfrwt>
<pdfrwt beam="2">  1       -1 0.56137488E-01 0.19005244E+04</pdfrwt>
<totfact> 0.42399971E+00</totfact>
</mgrwt>
</event>
<event>
12    1  0.1477245E-007  0.3066633E+04  0.7818608E-02  0.8224955E-01
         -2   -1    0    0    0  501 -0.00000000000E+00  0.00000000000E+00  0.78836288797E+03  0.78836288797E+03  0.00000000000E+00 0. -1.
          2   -1    0    0  501    0  0.00000000000E+00 -0.00000000000E+00 -0.29822049050E+04  0.29822049050E+04  0.00000000000E+00 0.  1.
         23    2    1    2    0    0 -0.11511565010E+04 -0.90389950524E+02 -0.30279486492E+02  0.11583965407E+04  0.87373137962E+02 0.  0.
        254    2    1    2    0    0  0.11511565010E+04  0.90389950524E+02 -0.21635625305E+04  0.26121712522E+04  0.89950219254E+03 0.  0.
        -24    2    4    4    0    0  0.10075575075E+04  0.26608040731E+03 -0.21254231521E+04  0.23684827308E+04  0.79472993283E+02 0.  0.
         24    2    4    4    0    0  0.14359899359E+03 -0.17569045679E+03 -0.38139378385E+02  0.24368852138E+03  0.80260050476E+02 0.  0.
         11    1    3    3    0    0 -0.70394895587E+03 -0.17649443813E+02  0.18696464413E+01  0.70417265704E+03  0.00000000000E+00 0. -1.
        -11    1    3    3    0    0 -0.44720754517E+03 -0.72740506711E+02 -0.32149132933E+02  0.45422388370E+03  0.00000000000E+00 0.  1.
          4    1    6    6  502    0  0.25344243669E+02  0.38340624747E+01 -0.21315332023E+01  0.25721083881E+02  0.00000000000E+00 0. -1.
          3    1    5    5  503    0  0.11360086394E+03  0.38585971013E+02 -0.30335511348E+03  0.32621826791E+03  0.00000000000E+00 0. -1.
         -4    1    5    5    0  503  0.89395664351E+03  0.22749443630E+03 -0.18220680386E+04  0.20422644629E+04  0.00000000000E+00 0.  1.
         -3    1    6    6    0  502  0.11825474992E+03 -0.17952451926E+03 -0.36007845183E+02  0.21796743750E+03  0.00000000000E+00 0.  1.
<mgrwt>
<rscale>  0 0.30666331E+04</rscale>
<asrwt>0</asrwt>
<pdfrwt beam="1">  1        2 0.45880075E+00 0.30666331E+04</pdfrwt>
<pdfrwt beam="2">  1       -2 0.12128660E+00 0.30666331E+04</pdfrwt>
<totfact> 0.78591340E-01</totfact>
</mgrwt>
</event>
<event>
12    1  0.1477245E-007  0.1650934E+04  0.7818608E-02  0.8789854E-01
         -1   -1    0    0    0  501 -0.00000000000E+00  0.00000000000E+00  0.11606924247E+04  0.11606924247E+04  0.00000000000E+00 0.  1.
          1   -1    0    0  501    0  0.00000000000E+00 -0.00000000000E+00 -0.58705942366E+03  0.58705942366E+03  0.00000000000E+00 0. -1.
         23    2    1    2    0    0 -0.36350085722E+03 -0.20840383963E+03  0.63075119537E+03  0.76246066777E+03  0.89073934762E+02 0.  0.
        254    2    1    2    0    0  0.36350085722E+03  0.20840383963E+03 -0.57118194336E+02  0.98529118060E+03  0.88992763125E+03 0.  0.
        -24    2    4    4    0    0  0.58047322382E+03  0.82266658381E+02  0.19254965967E+03  0.62249240752E+03  0.81880762914E+02 0.  0.
         24    2    4    4    0    0 -0.21697236659E+03  0.12613718125E+03 -0.24966785400E+03  0.36279877308E+03  0.79380829337E+02 0.  0.
         11    1    3    3    0    0 -0.13787697864E+01  0.38605074023E+01 -0.76715245030E+00  0.41704971417E+01  0.00000000000E+00 0. -1.
        -11    1    3    3    0    0 -0.36212208744E+03 -0.21226434703E+03  0.63151834782E+03  0.75829017063E+03  0.00000000000E+00 0.  1.
          2    1    6    6  502    0 -0.16763954996E+02  0.13851188137E+02 -0.63904227342E+02  0.67502858252E+02  0.00000000000E+00 0. -1.
          1    1    5    5  503    0  0.34886927671E+03  0.46138182995E+02  0.15725690333E+03  0.38544550562E+03  0.00000000000E+00 0. -1.
         -2    1    5    5    0  503  0.23160394711E+03  0.36128475387E+02  0.35292756340E+02  0.23704690190E+03  0.00000000000E+00 0.  1.
         -1    1    6    6    0  502 -0.20020841160E+03  0.11228599311E+03 -0.18576362666E+03  0.29529591482E+03  0.00000000000E+00 0.  1.
<mgrwt>
<rscale>  0 0.16509336E+04</rscale>
<asrwt>0</asrwt>
<pdfrwt beam="1">  1        1 0.90316835E-01 0.16509336E+04</pdfrwt>
<pdfrwt beam="2">  1       -1 0.17856806E+00 0.16509336E+04</pdfrwt>
<totfact> 0.71962003E+00</totfact>
</mgrwt>
</event>
<event>
12    1  0.1477245E-007  0.1546774E+04  0.7818608E-02  0.8853931E-01
          1   -1    0    0  501    0  0.00000000000E+00  0.00000000000E+00  0.67636798914E+03  0.67636798914E+03  0.00000000000E+00 0. -1.
         -1   -1    0    0    0  501 -0.00000000000E+00 -0.00000000000E+00 -0.88432228617E+03  0.88432228617E+03  0.00000000000E+00 0.  1.
         23    2    1    2    0    0  0.12065435538E+03  0.15528816059E+03 -0.52364068713E+03  0.56710264604E+03  0.93455634635E+02 0.  0.
        254    2    1    2    0    0 -0.12065435538E+03 -0.15528816059E+03  0.31568639010E+03  0.99358762927E+03  0.92135041860E+03 0.  0.
        -24    2    4    4    0    0  0.32111126817E+03 -0.11806927941E+02  0.39573498057E+03  0.51509488991E+03  0.73923749017E+02 0.  0.
         24    2    4    4    0    0 -0.44176562355E+03 -0.14348123265E+03 -0.80048590468E+02  0.47849273936E+03  0.82485116911E+02 0.  0.
         11    1    3    3    0    0  0.11303093035E+03  0.12412655188E+03 -0.32409320218E+03  0.36499287089E+03  0.00000000000E+00 0. -1.
        -11    1    3    3    0    0  0.76234250310E+01  0.31161608704E+02 -0.19954748494E+03  0.20210977516E+03  0.00000000000E+00 0.  1.
          2    1    6    6  502    0 -0.14390442326E+03 -0.26244664162E+02  0.80148221695E+01  0.14649744982E+03  0.00000000000E+00 0. -1.
          1    1    5    5  503    0  0.47835392036E+02  0.24554151485E+02  0.57119179392E+02  0.78445724809E+02  0.00000000000E+00 0. -1.
         -2    1    5    5    0  503  0.27327587614E+03 -0.36361079426E+02  0.33861580117E+03  0.43664916510E+03  0.00000000000E+00 0.  1.
         -1    1    6    6    0  502 -0.29786120030E+03 -0.11723656848E+03 -0.88063412638E+02  0.33199528954E+03  0.00000000000E+00 0.  1.
<mgrwt>
<rscale>  0 0.15467738E+04</rscale>
<asrwt>0</asrwt>
<pdfrwt beam="1">  1        1 0.10405661E+00 0.15467738E+04</pdfrwt>
<pdfrwt beam="2">  1       -1 0.13604958E+00 0.15467738E+04</pdfrwt>
<totfact> 0.12490926E+01</totfact>
</mgrwt>
</event>
<event>
12    1  0.1477245E-007  0.1858853E+04  0.7818608E-02  0.8675613E-01
          2   -1    0    0  501    0  0.00000000000E+00  0.00000000000E+00  0.13831127901E+04  0.13831127901E+04  0.00000000000E+00 0.  1.
         -2   -1    0    0    0  501 -0.00000000000E+00 -0.00000000000E+00 -0.62455783497E+03  0.62455783497E+03  0.00000000000E+00 0. -1.
         23    2    1    2    0    0 -0.34330752795E+03  0.22952714938E+03 -0.33258143314E+03  0.53800990007E+03  0.91112413292E+02 0.  0.
        254    2    1    2    0    0  0.34330752795E+03 -0.22952714938E+03  0.10911363882E+04  0.14696607250E+04  0.89374563370E+03 0.  0.
        -24    2    4    4    0    0  0.13042785120E+03  0.32877799068E+03  0.27603606819E+03  0.45575034747E+03  0.80037970705E+02 0.  0.
         24    2    4    4    0    0  0.21287967675E+03 -0.55830514006E+03  0.81510032005E+03  0.10139103775E+04  0.81260911182E+02 0.  0.
         11    1    3    3    0    0 -0.28423063890E+03  0.20731642253E+03 -0.23965902331E+03  0.42568016467E+03  0.00000000000E+00 0. -1.
        -11    1    3    3    0    0 -0.59076889046E+02  0.22210726858E+02 -0.92922409828E+02  0.11232973540E+03  0.00000000000E+00 0.  1.
          2    1    6    6  502    0  0.92162621053E+02 -0.34663061328E+03  0.50851220351E+03  0.62227919128E+03  0.00000000000E+00 0. -1.
          3    1    5    5  503    0  0.11856889330E+03  0.19499119720E+03  0.17950635227E+03  0.29034923790E+03  0.00000000000E+00 0. -1.
         -4    1    5    5    0  503  0.11858957901E+02  0.13378679348E+03  0.96529715915E+02  0.16540110957E+03  0.00000000000E+00 0.  1.
         -1    1    6    6    0  502  0.12071705570E+03 -0.21167452678E+03  0.30658811653E+03  0.39163118622E+03  0.00000000000E+00 0.  1.
<mgrwt>
<rscale>  0 0.18588533E+04</rscale>
<asrwt>0</asrwt>
<pdfrwt beam="1">  1        2 0.21278658E+00 0.18588533E+04</pdfrwt>
<pdfrwt beam="2">  1       -2 0.96085821E-01 0.18588533E+04</pdfrwt>
<totfact> 0.12619834E+01</totfact>
</mgrwt>
</event>
<event>
12    1  0.1477245E-007  0.1685482E+04  0.7818608E-02  0.8769688E-01
          2   -1    0    0  501    0  0.00000000000E+00  0.00000000000E+00  0.34090305009E+04  0.34090305009E+04  0.00000000000E+00 0. -1.
         -2   -1    0    0    0  501 -0.00000000000E+00 -0.00000000000E+00 -0.20833255777E+03  0.20833255777E+03  0.00000000000E+00 0.  1.
         23    2    1    2    0    0  0.13799478236E+03 -0.23897554674E+03  0.22807135152E+04  0.22995096308E+04  0.99692185776E+02 0.  0.
        254    2    1    2    0    0 -0.13799478236E+03  0.23897554674E+03  0.91998442802E+03  0.13178534279E+04  0.90233831673E+03 0.  0.
        -24    2    4    4    0    0 -0.37910647540E+03  0.26652668094E+03  0.95045622681E+03  0.10603964046E+04  0.79468889805E+02 0.  0.
         24    2    4    4    0    0  0.24111169304E+03 -0.27551134200E+02 -0.30471798792E+02  0.25745702335E+03  0.80384543517E+02 0.  0.
         13    1    3    3    0    0  0.59689892072E+02 -0.91189813887E+02  0.13070467899E+04  0.13115829278E+04  0.00000000000E+00 0. -1.
        -13    1    3    3    0    0  0.78304890286E+02 -0.14778573286E+03  0.97366672521E+03  0.98792670298E+03  0.00000000000E+00 0.  1.
          2    1    6    6  502    0  0.64361705716E+02  0.26894272762E+02 -0.18278889060E+02  0.72109977502E+02  0.00000000000E+00 0. -1.
          3    1    5    5  503    0 -0.37655879807E+03  0.26890981294E+03  0.92069206919E+03  0.10304285042E+04  0.00000000000E+00 0. -1.
         -4    1    5    5    0  503 -0.25476773258E+01 -0.23831320006E+01  0.29764157616E+02  0.29967900435E+02  0.00000000000E+00 0.  1.
         -1    1    6    6    0  502  0.17674998732E+03 -0.54445406962E+02 -0.12192909731E+02  0.18534704585E+03  0.00000000000E+00 0.  1.
<mgrwt>
<rscale>  0 0.16854816E+04</rscale>
<asrwt>0</asrwt>
<pdfrwt beam="1">  1        2 0.52446619E+00 0.16854816E+04</pdfrwt>
<pdfrwt beam="2">  1       -2 0.32051165E-01 0.16854816E+04</pdfrwt>
<totfact> 0.81836671E+00</totfact>
</mgrwt>
</event>
<event>
12    1  0.1477245E-007  0.1791642E+04  0.7818608E-02  0.8710757E-01
         -2   -1    0    0    0  501 -0.00000000000E+00  0.00000000000E+00  0.75245277093E+03  0.75245277093E+03  0.00000000000E+00 0.  1.
          2   -1    0    0  501    0  0.00000000000E+00 -0.00000000000E+00 -0.10665063903E+04  0.10665063903E+04  0.00000000000E+00 0. -1.
         23    2    1    2    0    0 -0.58216936616E+03  0.14911994158E+03  0.15319778925E+03  0.62691046614E+03  0.91592805705E+02 0.  0.
        254    2    1    2    0    0  0.58216936616E+03 -0.14911994158E+03 -0.46725140866E+03  0.11920486951E+04  0.91733215619E+03 0.  0.
        -24    2    4    4    0    0  0.35104067827E+03  0.24077374124E+03 -0.57485852068E+03  0.71971816626E+03  0.79563608386E+02 0.  0.
         24    2    4    4    0    0  0.23112868789E+03 -0.38989368282E+03  0.10760711202E+03  0.47233052886E+03  0.77969761273E+02 0.  0.
         13    1    3    3    0    0 -0.12629267195E+03  0.11503043851E+02  0.65410539740E+02  0.14269091673E+03  0.00000000000E+00 0. -1.
        -13    1    3    3    0    0 -0.45587669421E+03  0.13761689773E+03  0.87787249507E+02  0.48421954942E+03  0.00000000000E+00 0.  1.
          2    1    6    6  502    0  0.92358716061E+02 -0.22100247774E+03  0.35418877448E+02  0.24212956135E+03  0.00000000000E+00 0. -1.
          3    1    5    5  503    0  0.26641683440E+03  0.13933166899E+03 -0.41142251834E+03  0.50956818212E+03  0.00000000000E+00 0. -1.
         -4    1    5    5    0  503  0.84623843873E+02  0.10144207224E+03 -0.16343600234E+03  0.21014998414E+03  0.00000000000E+00 0.  1.
         -1    1    6    6    0  502  0.13876997183E+03 -0.16889120508E+03  0.72188234569E+02  0.23020096751E+03  0.00000000000E+00 0.  1.
<mgrwt>
<rscale>  0 0.17916425E+04</rscale>
<asrwt>0</asrwt>
<pdfrwt beam="1">  1        2 0.16407791E+00 0.17916425E+04</pdfrwt>
<pdfrwt beam="2">  1       -2 0.11576196E+00 0.17916425E+04</pdfrwt>
<totfact> 0.12529513E+01</totfact>
</mgrwt>
</event>
<event>
12    1  0.1477245E-007  0.1202781E+04  0.7818608E-02  0.9110426E-01
         -1   -1    0    0    0  501 -0.00000000000E+00  0.00000000000E+00  0.11674839474E+03  0.11674839474E+03  0.00000000000E+00 0.  1.
          1   -1    0    0  501    0  0.00000000000E+00 -0.00000000000E+00 -0.30978624923E+04  0.30978624923E+04  0.00000000000E+00 0. -1.
         23    2    1    2    0    0 -0.15225059756E+03 -0.28905081033E+03 -0.67942155506E+03  0.75957477354E+03  0.92787777777E+02 0.  0.
        254    2    1    2    0    0  0.15225059756E+03  0.28905081033E+03 -0.23016925425E+04  0.24550361135E+04  0.78910274550E+03 0.  0.
        -24    2    4    4    0    0  0.15614073910E+03  0.19204332264E+03 -0.14984621587E+03  0.29946600041E+03  0.77236188494E+02 0.  0.
         24    2    4    4    0    0 -0.38901415459E+01  0.97007487685E+02 -0.21518463267E+04  0.21555701131E+04  0.81328427451E+02 0.  0.
         13    1    3    3    0    0 -0.15676492218E+03 -0.29089078701E+03 -0.67839315402E+03  0.75459258028E+03  0.00000000000E+00 0.  1.
        -13    1    3    3    0    0  0.45143246223E+01  0.18399766791E+01 -0.10284010437E+01  0.49821932602E+01  0.00000000000E+00 0. -1.
          4    1    6    6  502    0  0.18903007653E+02  0.10107666752E+03 -0.16634201533E+04  0.16665954586E+04  0.00000000000E+00 0. -1.
          1    1    5    5  503    0 -0.36565351112E+01  0.30639669691E+01 -0.18863457075E+02  0.19457341941E+02  0.00000000000E+00 0. -1.
         -2    1    5    5    0  503  0.15979727421E+03  0.18897935568E+03 -0.13098275880E+03  0.28000865847E+03  0.00000000000E+00 0.  1.
         -3    1    6    6    0  502 -0.22793149199E+02 -0.40691798326E+01 -0.48842617338E+03  0.48897465448E+03  0.00000000000E+00 0.  1.
<mgrwt>
<rscale>  0 0.12027809E+04</rscale>
<asrwt>0</asrwt>
<pdfrwt beam="1">  1        1 0.47659422E+00 0.12027809E+04</pdfrwt>
<pdfrwt beam="2">  1       -1 0.17961292E-01 0.12027809E+04</pdfrwt>
<totfact> 0.12445534E+01</totfact>
</mgrwt>
</event>
<event>
12    1  0.1833755E-007  0.1915868E+04  0.7818608E-02  0.8646998E-01
          1   -1    0    0  501    0  0.00000000000E+00  0.00000000000E+00  0.23150023924E+04  0.23150023924E+04  0.00000000000E+00 0. -1.
         -1   -1    0    0    0  501 -0.00000000000E+00 -0.00000000000E+00 -0.39638734215E+03  0.39638734215E+03  0.00000000000E+00 0.  1.
         23    2    1    2    0    0  0.24221483677E+03 -0.48420737733E+03  0.31687573217E+02  0.54977336920E+03  0.90121272598E+02 0.  0.
        254    2    1    2    0    0 -0.24221483677E+03  0.48420737733E+03  0.18869274770E+04  0.21616163653E+04  0.90496695847E+03 0.  0.
        -24    2    4    4    0    0  0.28703805036E+03  0.28768349175E+03  0.11947591381E+04  0.12648825236E+04  0.85590692626E+02 0.  0.
         24    2    4    4    0    0 -0.52925288713E+03  0.19652388557E+03  0.69216833892E+03  0.89673384172E+03  0.79399731455E+02 0.  0.
         11    1    3    3    0    0  0.23940673986E+03 -0.46954486804E+03  0.14842490407E+02  0.52726489520E+03  0.00000000000E+00 0.  1.
        -11    1    3    3    0    0  0.28080969173E+01 -0.14662509290E+02  0.16845082810E+02  0.22508474001E+02  0.00000000000E+00 0. -1.
          2    1    6    6  502    0 -0.41853219774E+03  0.18727742066E+03  0.54205643599E+03  0.70997690993E+03  0.00000000000E+00 0. -1.
          1    1    5    5  503    0  0.26578771009E+03  0.27238721152E+03  0.11632009084E+04  0.12238767312E+04  0.00000000000E+00 0. -1.
         -2    1    5    5    0  503  0.21250340271E+02  0.15296280232E+02  0.31558229731E+02  0.41005792448E+02  0.00000000000E+00 0.  1.
         -1    1    6    6    0  502 -0.11072068939E+03  0.92464649117E+01  0.15011190293E+03  0.18675693180E+03  0.00000000000E+00 0.  1.
<mgrwt>
<rscale>  0 0.19158681E+04</rscale>
<asrwt>0</asrwt>
<pdfrwt beam="1">  1        1 0.35615421E+00 0.19158681E+04</pdfrwt>
<pdfrwt beam="2">  1       -1 0.60982669E-01 0.19158681E+04</pdfrwt>
<totfact> 0.46329564E+00</totfact>
</mgrwt>
</event>
<event>
12    1  0.1477245E-007  0.1909947E+04  0.7818608E-02  0.8649921E-01
          1   -1    0    0  501    0  0.00000000000E+00  0.00000000000E+00  0.14051104788E+04  0.14051104788E+04  0.00000000000E+00 0.  1.
         -1   -1    0    0    0  501 -0.00000000000E+00 -0.00000000000E+00 -0.64904090965E+03  0.64904090965E+03  0.00000000000E+00 0. -1.
         23    2    1    2    0    0 -0.23839431165E+03  0.39022376243E+03  0.92284487530E+03  0.10331161557E+04  0.81116549940E+02 0.  0.
        254    2    1    2    0    0  0.23839431165E+03 -0.39022376243E+03 -0.16677530616E+03  0.10210352328E+04  0.89754805509E+03 0.  0.
        -24    2    4    4    0    0  0.37534451594E+03 -0.10942649226E+03 -0.44426712041E+03  0.59625365769E+03  0.72715109635E+02 0.  0.
         24    2    4    4    0    0 -0.13695020429E+03 -0.28079727017E+03  0.27749181425E+03  0.42478157506E+03  0.76388573412E+02 0.  0.
         13    1    3    3    0    0 -0.11478247264E+03  0.14403541446E+03  0.29927894670E+03  0.35141016574E+03  0.00000000000E+00 0. -1.
        -13    1    3    3    0    0 -0.12361183901E+03  0.24618834796E+03  0.62356592860E+03  0.68170598994E+03  0.00000000000E+00 0.  1.
          4    1    6    6  502    0 -0.83627684392E+02 -0.95357396321E+02  0.88240406918E+02  0.15450887367E+03  0.00000000000E+00 0. -1.
          3    1    5    5  503    0  0.16536063811E+03 -0.81668266408E+02 -0.18164452510E+03  0.25886015505E+03  0.00000000000E+00 0. -1.
         -4    1    5    5    0  503  0.20998387783E+03 -0.27758225850E+02 -0.26262259532E+03  0.33739350264E+03  0.00000000000E+00 0.  1.
         -3    1    6    6    0  502 -0.53322519901E+02 -0.18543987385E+03  0.18925140733E+03  0.27027270139E+03  0.00000000000E+00 0.  1.
<mgrwt>
<rscale>  0 0.19099468E+04</rscale>
<asrwt>0</asrwt>
<pdfrwt beam="1">  1        1 0.21617084E+00 0.19099468E+04</pdfrwt>
<pdfrwt beam="2">  1       -1 0.99852448E-01 0.19099468E+04</pdfrwt>
<totfact> 0.68121091E+00</totfact>
</mgrwt>
</event>
<event>
12    1  0.1477245E-007  0.1418612E+04  0.7818608E-02  0.8940455E-01
          1   -1    0    0  501    0  0.00000000000E+00  0.00000000000E+00  0.41196228632E+03  0.41196228632E+03  0.00000000000E+00 0. -1.
         -1   -1    0    0    0  501 -0.00000000000E+00 -0.00000000000E+00 -0.12212648931E+04  0.12212648931E+04  0.00000000000E+00 0.  1.
         23    2    1    2    0    0 -0.30541677621E+03  0.25759674865E+03 -0.16262093974E+02  0.41052578662E+03  0.92905724678E+02 0.  0.
        254    2    1    2    0    0  0.30541677621E+03 -0.25759674865E+03 -0.79304051276E+03  0.12227013928E+04  0.84050576968E+03 0.  0.
        -24    2    4    4    0    0 -0.26071236395E+03 -0.22311747985E+03 -0.24257042130E+03  0.42840727690E+03  0.83306896975E+02 0.  0.
         24    2    4    4    0    0  0.56612914015E+03 -0.34479268803E+02 -0.55047009146E+03  0.79429411586E+03  0.78707036449E+02 0.  0.
         13    1    3    3    0    0 -0.43810938900E+02  0.62732338523E+02  0.27691151526E+02  0.81372873470E+02  0.00000000000E+00 0.  1.
        -13    1    3    3    0    0 -0.26160583731E+03  0.19486441013E+03 -0.43953245500E+02  0.32915291315E+03  0.00000000000E+00 0. -1.
          4    1    6    6  502    0  0.22262315685E+02 -0.53566676718E+01 -0.48395307596E+02  0.53538867989E+02  0.00000000000E+00 0. -1.
          1    1    5    5  503    0 -0.12784192151E+03 -0.70791931438E+02 -0.67377274686E+02  0.16091846257E+03  0.00000000000E+00 0. -1.
         -2    1    5    5    0  503 -0.13287044244E+03 -0.15232554841E+03 -0.17519314662E+03  0.26748881434E+03  0.00000000000E+00 0.  1.
         -3    1    6    6    0  502  0.54386682447E+03 -0.29122601131E+02 -0.50207478386E+03  0.74075524787E+03  0.00000000000E+00 0.  1.
<mgrwt>
<rscale>  0 0.14186121E+04</rscale>
<asrwt>0</asrwt>
<pdfrwt beam="1">  1        1 0.63378814E-01 0.14186121E+04</pdfrwt>
<pdfrwt beam="2">  1       -1 0.18788690E+00 0.14186121E+04</pdfrwt>
<totfact> 0.10267544E+01</totfact>
</mgrwt>
</event>
<event>
12    1  0.1477245E-007  0.1431200E+04  0.7818608E-02  0.8931539E-01
          1   -1    0    0  501    0  0.00000000000E+00  0.00000000000E+00  0.12360428004E+04  0.12360428004E+04  0.00000000000E+00 0. -1.
         -1   -1    0    0    0  501 -0.00000000000E+00 -0.00000000000E+00 -0.41429272141E+03  0.41429272141E+03  0.00000000000E+00 0.  1.
         23    2    1    2    0    0  0.30244246981E+03  0.13418908926E+03 -0.80192363707E+02  0.35292304336E+03  0.92982256981E+02 0.  0.
        254    2    1    2    0    0 -0.30244246981E+03 -0.13418908926E+03  0.90194244268E+03  0.12974124784E+04  0.87195229803E+03 0.  0.
        -24    2    4    4    0    0 -0.16654979004E+03  0.33489886494E+03  0.18118264647E+03  0.42319397889E+03  0.79811716465E+02 0.  0.
         24    2    4    4    0    0 -0.13589267978E+03 -0.46908795420E+03  0.72075979621E+03  0.87421849953E+03  0.79075735258E+02 0.  0.
         13    1    3    3    0    0  0.19719606575E+03  0.10291886115E+03 -0.10107275472E+02  0.22266732438E+03  0.00000000000E+00 0. -1.
        -13    1    3    3    0    0  0.10524640406E+03  0.31270228106E+02 -0.70085088235E+02  0.13025571898E+03  0.00000000000E+00 0.  1.
          2    1    6    6  502    0 -0.60177793583E+02 -0.32338173317E+03  0.44688477008E+03  0.55489017824E+03  0.00000000000E+00 0. -1.
          3    1    5    5  503    0 -0.64423758088E+02  0.11221275938E+03  0.10500022710E+03  0.16663484529E+03  0.00000000000E+00 0. -1.
         -4    1    5    5    0  503 -0.10212603195E+03  0.22268610556E+03  0.76182419370E+02  0.25655913360E+03  0.00000000000E+00 0.  1.
         -1    1    6    6    0  502 -0.75714886194E+02 -0.14570622103E+03  0.27387502613E+03  0.31932832129E+03  0.00000000000E+00 0.  1.
<mgrwt>
<rscale>  0 0.14312002E+04</rscale>
<asrwt>0</asrwt>
<pdfrwt beam="1">  1        1 0.19016043E+00 0.14312002E+04</pdfrwt>
<pdfrwt beam="2">  1       -1 0.63737342E-01 0.14312002E+04</pdfrwt>
<totfact> 0.24423877E+01</totfact>
</mgrwt>
</event>
<event>
12    1  0.1477245E-007  0.1217321E+04  0.7818608E-02  0.9097829E-01
          2   -1    0    0  501    0  0.00000000000E+00  0.00000000000E+00  0.58561841737E+03  0.58561841737E+03  0.00000000000E+00 0. -1.
         -2   -1    0    0    0  501 -0.00000000000E+00 -0.00000000000E+00 -0.63260957178E+03  0.63260957178E+03  0.00000000000E+00 0.  1.
         23    2    1    2    0    0 -0.92120134528E+02 -0.27887851303E+02  0.24122574416E+03  0.27838077716E+03  0.10021050848E+03 0.  0.
        254    2    1    2    0    0  0.92120134528E+02  0.27887851303E+02 -0.28821689856E+03  0.93984721200E+03  0.88937053574E+03 0.  0.
        -24    2    4    4    0    0  0.19825393360E+03  0.42288289883E+03 -0.19376373034E+03  0.51226802142E+03  0.82094910112E+02 0.  0.
         24    2    4    4    0    0 -0.10613379907E+03 -0.39499504752E+03 -0.94453168222E+02  0.42757919058E+03  0.81345512199E+02 0.  0.
         13    1    3    3    0    0 -0.67332280798E+02 -0.63580242159E+02  0.18877861418E+03  0.21026994175E+03  0.00000000000E+00 0. -1.
        -13    1    3    3    0    0 -0.24787853729E+02  0.35692390855E+02  0.52447129977E+02  0.68110835410E+02  0.00000000000E+00 0.  1.
          2    1    6    6  502    0 -0.85423404697E+02 -0.34367351930E+03 -0.52214854596E+02  0.35795954657E+03  0.00000000000E+00 0. -1.
          1    1    5    5  503    0  0.16462251696E+03  0.39741232183E+03 -0.16279665208E+03  0.45993464380E+03  0.00000000000E+00 0. -1.
         -2    1    5    5    0  503  0.33631416636E+02  0.25470576993E+02 -0.30967078263E+02  0.52333377623E+02  0.00000000000E+00 0.  1.
         -1    1    6    6    0  502 -0.20710394372E+02 -0.51321528226E+02 -0.42238313626E+02  0.69619644012E+02  0.00000000000E+00 0.  1.
<mgrwt>
<rscale>  0 0.12173213E+04</rscale>
<asrwt>0</asrwt>
<pdfrwt beam="1">  1        2 0.90095141E-01 0.12173213E+04</pdfrwt>
<pdfrwt beam="2">  1       -2 0.97324549E-01 0.12173213E+04</pdfrwt>
<totfact> 0.44342124E+01</totfact>
</mgrwt>
</event>
<event>
12    1  0.1477245E-007  0.2173121E+04  0.7818608E-02  0.8529700E-01
         -3   -1    0    0    0  501 -0.00000000000E+00  0.00000000000E+00  0.12029107326E+04  0.12029107326E+04  0.00000000000E+00 0.  1.
          3   -1    0    0  501    0  0.00000000000E+00 -0.00000000000E+00 -0.98146433388E+03  0.98146433388E+03  0.00000000000E+00 0. -1.
         23    2    1    2    0    0 -0.10422400216E+03  0.75315852771E+03 -0.38219084031E+03  0.85603417194E+03  0.92813008945E+02 0.  0.
        254    2    1    2    0    0  0.10422400216E+03 -0.75315852771E+03  0.60363723898E+03  0.13283408945E+04  0.90664282120E+03 0.  0.
        -24    2    4    4    0    0 -0.23579630360E+03 -0.32237789633E+03 -0.11250475198E+03  0.42269102221E+03  0.80516931189E+02 0.  0.
         24    2    4    4    0    0  0.34002030577E+03 -0.43078063138E+03  0.71614199096E+03  0.90564987229E+03  0.78463872256E+02 0.  0.
         11    1    3    3    0    0 -0.35373043317E+01 -0.15560927030E+01  0.45286144889E+00  0.38908906342E+01  0.00000000000E+00 0.  1.
        -11    1    3    3    0    0 -0.10068669783E+03  0.75471462041E+03 -0.38264370176E+03  0.85214328131E+03  0.00000000000E+00 0. -1.
          4    1    6    6  502    0  0.30299376018E+03 -0.34393085765E+03  0.61848437303E+03  0.76981593465E+03  0.00000000000E+00 0. -1.
          3    1    5    5  503    0 -0.19006663968E+03 -0.22624029075E+03 -0.11265992735E+03  0.31623133291E+03  0.00000000000E+00 0. -1.
         -4    1    5    5    0  503 -0.45729663918E+02 -0.96137605577E+02  0.15517537273E+00  0.10645968931E+03  0.00000000000E+00 0.  1.
         -3    1    6    6    0  502  0.37026545586E+02 -0.86849773730E+02  0.97657617929E+02  0.13583393764E+03  0.00000000000E+00 0.  1.
<mgrwt>
<rscale>  0 0.21731212E+04</rscale>
<asrwt>0</asrwt>
<pdfrwt beam="1">  1        3 0.15099451E+00 0.21731212E+04</pdfrwt>
<pdfrwt beam="2">  1       -3 0.18506319E+00 0.21731212E+04</pdfrwt>
<totfact> 0.13908239E-01</totfact>
</mgrwt>
</event>
<event>
12    1  0.1477245E-007  0.1946496E+04  0.7818608E-02  0.8632052E-01
          2   -1    0    0  501    0  0.00000000000E+00  0.00000000000E+00  0.92159108506E+03  0.92159108506E+03  0.00000000000E+00 0. -1.
         -2   -1    0    0    0  501 -0.00000000000E+00 -0.00000000000E+00 -0.10278005086E+04  0.10278005086E+04  0.00000000000E+00 0.  1.
         23    2    1    2    0    0  0.42771791533E+03 -0.55644315956E+03  0.25793887251E+03  0.75331799207E+03  0.91563804559E+02 0.  0.
        254    2    1    2    0    0 -0.42771791533E+03  0.55644315956E+03 -0.36414829602E+03  0.11960736016E+04  0.89744998409E+03 0.  0.
        -24    2    4    4    0    0 -0.66056632985E+03  0.26695247459E+03 -0.81103498060E+02  0.72222054046E+03  0.86100126846E+02 0.  0.
         24    2    4    4    0    0  0.23284841452E+03  0.28949068497E+03 -0.28304479796E+03  0.47385306110E+03  0.79994531304E+02 0.  0.
         13    1    3    3    0    0  0.39921553584E+03 -0.53638499710E+03  0.22532930419E+03  0.70558855185E+03  0.00000000000E+00 0. -1.
        -13    1    3    3    0    0  0.28502379492E+02 -0.20058162462E+02  0.32609568320E+02  0.47729440224E+02  0.00000000000E+00 0.  1.
          4    1    6    6  502    0  0.41558458495E+02  0.33271949105E+02 -0.76478974289E+02  0.93183483397E+02  0.00000000000E+00 0. -1.
          3    1    5    5  503    0 -0.18924475115E+03  0.93506737588E+02  0.12061486593E+02  0.21142981169E+03  0.00000000000E+00 0. -1.
         -4    1    5    5    0  503 -0.47132157870E+03  0.17344573701E+03 -0.93164984653E+02  0.51079072877E+03  0.00000000000E+00 0.  1.
         -3    1    6    6    0  502  0.19128995602E+03  0.25621873586E+03 -0.20656582367E+03  0.38066957770E+03  0.00000000000E+00 0.  1.
<mgrwt>
<rscale>  0 0.19464961E+04</rscale>
<asrwt>0</asrwt>
<pdfrwt beam="1">  1        2 0.14178324E+00 0.19464961E+04</pdfrwt>
<pdfrwt beam="2">  1       -2 0.15812315E+00 0.19464961E+04</pdfrwt>
<totfact> 0.68802709E+00</totfact>
</mgrwt>
</event>
<event>
12    1  0.1477245E-007  0.1658106E+04  0.7818608E-02  0.8785625E-01
         -2   -1    0    0    0  501 -0.00000000000E+00  0.00000000000E+00  0.42174912656E+03  0.42174912656E+03  0.00000000000E+00 0.  1.
          2   -1    0    0  501    0  0.00000000000E+00 -0.00000000000E+00 -0.16297107659E+04  0.16297107659E+04  0.00000000000E+00 0. -1.
         23    2    1    2    0    0  0.31321988089E+03 -0.27969166413E+03 -0.93575212057E+03  0.10298052108E+04  0.92372183181E+02 0.  0.
        254    2    1    2    0    0 -0.31321988089E+03  0.27969166413E+03 -0.27220951878E+03  0.10216546817E+04  0.89069980674E+03 0.  0.
        -24    2    4    4    0    0 -0.47956148109E+02  0.17231921320E+03  0.31074359381E+03  0.36727449085E+03  0.79594391497E+02 0.  0.
         24    2    4    4    0    0 -0.26526373279E+03  0.10737245093E+03 -0.58295311259E+03  0.65438019083E+03  0.80532052765E+02 0.  0.
         11    1    3    3    0    0  0.27125917056E+03 -0.26944188620E+03 -0.87844337819E+03  0.95804135419E+03  0.00000000000E+00 0. -1.
        -11    1    3    3    0    0  0.41960710334E+02 -0.10249777931E+02 -0.57308742375E+02  0.71763856585E+02  0.00000000000E+00 0.  1.
          4    1    6    6  502    0 -0.94492038287E+02  0.66830859006E+01 -0.24350744960E+03  0.26128392019E+03  0.00000000000E+00 0. -1.
          1    1    5    5  503    0 -0.25152242849E+02  0.99953861310E+02  0.10132236539E+03  0.14453245808E+03  0.00000000000E+00 0. -1.
         -2    1    5    5    0  503 -0.22803905259E+02  0.72365351888E+02  0.20942122842E+03  0.22274203277E+03  0.00000000000E+00 0.  1.
         -3    1    6    6    0  502 -0.17077169450E+03  0.10068936503E+03 -0.33944566299E+03  0.39309627065E+03  0.00000000000E+00 0.  1.
<mgrwt>
<rscale>  0 0.16581063E+04</rscale>
<asrwt>0</asrwt>
<pdfrwt beam="1">  1        2 0.25072473E+00 0.16581063E+04</pdfrwt>
<pdfrwt beam="2">  1       -2 0.64884481E-01 0.16581063E+04</pdfrwt>
<totfact> 0.22453027E+01</totfact>
</mgrwt>
</event>
<event>
12    1  0.1477245E-007  0.1870735E+04  0.7818608E-02  0.8669562E-01
          1   -1    0    0  501    0  0.00000000000E+00  0.00000000000E+00  0.16953817989E+04  0.16953817989E+04  0.00000000000E+00 0. -1.
         -1   -1    0    0    0  501 -0.00000000000E+00 -0.00000000000E+00 -0.51605628648E+03  0.51605628648E+03  0.00000000000E+00 0.  1.
         23    2    1    2    0    0 -0.50315607034E+03 -0.68741688261E+02  0.10354871802E+04  0.11569716304E+04  0.91968486760E+02 0.  0.
        254    2    1    2    0    0  0.50315607034E+03  0.68741688261E+02  0.14383833223E+03  0.10544664549E+04  0.91286285271E+03 0.  0.
        -24    2    4    4    0    0 -0.72633621165E+02 -0.28662915263E+03  0.20784365749E+03  0.37047005212E+03  0.81345924890E+02 0.  0.
         24    2    4    4    0    0  0.57578969151E+03  0.35537084089E+03 -0.64005325263E+02  0.68399640278E+03  0.77020737154E+02 0.  0.
         13    1    3    3    0    0 -0.49107031474E+03 -0.77286111862E+02  0.10238167252E+04  0.11381229652E+04  0.00000000000E+00 0. -1.
        -13    1    3    3    0    0 -0.12085755602E+02  0.85444236019E+01  0.11670454994E+02  0.18848665282E+02  0.00000000000E+00 0.  1.
          4    1    6    6  502    0  0.21334024980E+03  0.14114617378E+03 -0.60925213353E+02  0.26296042702E+03  0.00000000000E+00 0. -1.
          3    1    5    5  503    0 -0.52139901031E+02 -0.10562043797E+03  0.44879104351E+02  0.12604911822E+03  0.00000000000E+00 0. -1.
         -4    1    5    5    0  503 -0.20493720134E+02 -0.18100871466E+03  0.16296455314E+03  0.24442093390E+03  0.00000000000E+00 0.  1.
         -1    1    6    6    0  502  0.36244944171E+03  0.21422466711E+03 -0.30801119100E+01  0.42103597576E+03  0.00000000000E+00 0.  1.
<mgrwt>
<rscale>  0 0.18707351E+04</rscale>
<asrwt>0</asrwt>
<pdfrwt beam="1">  1        1 0.26082797E+00 0.18707351E+04</pdfrwt>
<pdfrwt beam="2">  1       -1 0.79393276E-01 0.18707351E+04</pdfrwt>
<totfact> 0.71381806E+00</totfact>
</mgrwt>
</event>
<event>
12    1  0.1477245E-007  0.2610907E+04  0.7818608E-02  0.8364506E-01
         -1   -1    0    0    0  501 -0.00000000000E+00  0.00000000000E+00  0.22779587853E+04  0.22779587853E+04  0.00000000000E+00 0.  1.
          1   -1    0    0  501    0  0.00000000000E+00 -0.00000000000E+00 -0.74813002892E+03  0.74813002892E+03  0.00000000000E+00 0. -1.
         23    2    1    2    0    0  0.59240495986E+03 -0.94527531025E+03  0.99683024872E+03  0.14987659661E+04  0.90220994026E+02 0.  0.
        254    2    1    2    0    0 -0.59240495986E+03  0.94527531025E+03  0.53299850770E+03  0.15273228481E+04  0.89673776804E+03 0.  0.
        -24    2    4    4    0    0 -0.85403562352E+02  0.41117714924E+03 -0.21175973523E+03  0.47716991604E+03  0.80551392263E+02 0.  0.
         24    2    4    4    0    0 -0.50700139751E+03  0.53409816101E+03  0.74475824293E+03  0.10501529321E+04  0.76453107996E+02 0.  0.
         11    1    3    3    0    0  0.68503550519E+02 -0.11772458868E+03  0.16335410268E+03  0.21268845309E+03  0.00000000000E+00 0. -1.
        -11    1    3    3    0    0  0.52390140934E+03 -0.82755072157E+03  0.83347614603E+03  0.12860775130E+04  0.00000000000E+00 0.  1.
          4    1    6    6  502    0 -0.13752955225E+03  0.10429748097E+03  0.19739857914E+03  0.26221849920E+03  0.00000000000E+00 0. -1.
          3    1    5    5  503    0 -0.66028853734E+02  0.28995578421E+03 -0.10783291315E+03  0.31632594500E+03  0.00000000000E+00 0. -1.
         -4    1    5    5    0  503 -0.19374708618E+02  0.12122136502E+03 -0.10392682208E+03  0.16084397104E+03  0.00000000000E+00 0.  1.
         -3    1    6    6    0  502 -0.36947184526E+03  0.42980068004E+03  0.54735966379E+03  0.78793443290E+03  0.00000000000E+00 0.  1.
<mgrwt>
<rscale>  0 0.26109074E+04</rscale>
<asrwt>0</asrwt>
<pdfrwt beam="1">  1        1 0.11509693E+00 0.26109074E+04</pdfrwt>
<pdfrwt beam="2">  1       -1 0.35045519E+00 0.26109074E+04</pdfrwt>
<totfact> 0.33386945E-01</totfact>
</mgrwt>
</event>
<event>
12    1  0.1477245E-007  0.2573862E+04  0.7818608E-02  0.8377134E-01
          1   -1    0    0  501    0  0.00000000000E+00  0.00000000000E+00  0.18095580362E+04  0.18095580362E+04  0.00000000000E+00 0. -1.
         -1   -1    0    0    0  501 -0.00000000000E+00 -0.00000000000E+00 -0.91524645276E+03  0.91524645276E+03  0.00000000000E+00 0.  1.
         23    2    1    2    0    0  0.46992404092E+03 -0.14116793430E+03  0.14690861759E+04  0.15517607253E+04  0.94816488513E+02 0.  0.
        254    2    1    2    0    0 -0.46992404092E+03  0.14116793430E+03 -0.57477459247E+03  0.11730437636E+04  0.89716712453E+03 0.  0.
        -24    2    4    4    0    0 -0.21367310681E+02  0.41259370631E+01 -0.68086845818E+03  0.68608696346E+03  0.81608080203E+02 0.  0.
         24    2    4    4    0    0 -0.44855673024E+03  0.13704199724E+03  0.10609386571E+03  0.48695680018E+03  0.76729183800E+02 0.  0.
         13    1    3    3    0    0  0.28354942940E+03 -0.10486392414E+03  0.10282337424E+04  0.10717561992E+04  0.00000000000E+00 0. -1.
        -13    1    3    3    0    0  0.18637461152E+03 -0.36304010169E+02  0.44085243349E+03  0.48000452611E+03  0.00000000000E+00 0.  1.
          2    1    6    6  502    0 -0.34374444242E+03  0.77895381001E+02  0.10036585734E+03  0.36647133229E+03  0.00000000000E+00 0. -1.
          1    1    5    5  503    0 -0.21462185193E+02 -0.48801948938E+01 -0.67495223976E+03  0.67531101550E+03  0.00000000000E+00 0. -1.
         -2    1    5    5    0  503  0.94874512054E-01  0.90061319569E+01 -0.59162184240E+01  0.10775947960E+02  0.00000000000E+00 0.  1.
         -1    1    6    6    0  502 -0.10481228782E+03  0.59146616239E+02  0.57280083708E+01  0.12048546788E+03  0.00000000000E+00 0.  1.
<mgrwt>
<rscale>  0 0.25738621E+04</rscale>
<asrwt>0</asrwt>
<pdfrwt beam="1">  1        1 0.27839354E+00 0.25738621E+04</pdfrwt>
<pdfrwt beam="2">  1       -1 0.14080715E+00 0.25738621E+04</pdfrwt>
<totfact> 0.14627283E+00</totfact>
</mgrwt>
</event>
<event>
12    1  0.1477245E-007  0.2338777E+04  0.7818608E-02  0.8462787E-01
         -1   -1    0    0    0  501 -0.00000000000E+00  0.00000000000E+00  0.82330827636E+03  0.82330827636E+03  0.00000000000E+00 0.  1.
          1   -1    0    0  501    0  0.00000000000E+00 -0.00000000000E+00 -0.16609446852E+04  0.16609446852E+04  0.00000000000E+00 0. -1.
         23    2    1    2    0    0 -0.72200140641E+03 -0.23463435904E+03 -0.10402527743E+04  0.12910928043E+04  0.91953692467E+02 0.  0.
        254    2    1    2    0    0  0.72200140641E+03  0.23463435904E+03  0.20261636542E+03  0.11931601573E+04  0.89790782163E+03 0.  0.
        -24    2    4    4    0    0 -0.19694125780E+03  0.28030747621E+02 -0.37395235770E+02  0.21778617719E+03  0.80379310030E+02 0.  0.
         24    2    4    4    0    0  0.91894266421E+03  0.20660361142E+03  0.24001160119E+03  0.97537398011E+03  0.81290589967E+02 0.  0.
         11    1    3    3    0    0 -0.37407980542E+03 -0.15482587425E+03 -0.49645521098E+03  0.64060481475E+03  0.00000000000E+00 0. -1.
        -11    1    3    3    0    0 -0.34792160098E+03 -0.79808484791E+02 -0.54379756327E+03  0.65048798951E+03  0.00000000000E+00 0.  1.
          4    1    6    6  502    0  0.85369516536E+03  0.18620467757E+03  0.24306328296E+03  0.90694397668E+03  0.00000000000E+00 0. -1.
          3    1    5    5  503    0 -0.15665934895E+03  0.93246962731E+01 -0.59921009280E+02  0.16798699035E+03  0.00000000000E+00 0. -1.
         -4    1    5    5    0  503 -0.40281908849E+02  0.18706051348E+02  0.22525773510E+02  0.49799186838E+02  0.00000000000E+00 0.  1.
         -3    1    6    6    0  502  0.65247498847E+02  0.20398933850E+02 -0.30516817721E+01  0.68430003431E+02  0.00000000000E+00 0.  1.
<mgrwt>
<rscale>  0 0.23387770E+04</rscale>
<asrwt>0</asrwt>
<pdfrwt beam="1">  1        1 0.25552995E+00 0.23387770E+04</pdfrwt>
<pdfrwt beam="2">  1       -1 0.12666281E+00 0.23387770E+04</pdfrwt>
<totfact> 0.24720256E+00</totfact>
</mgrwt>
</event>
<event>
12    1  0.1477245E-007  0.1224403E+04  0.7818608E-02  0.9091761E-01
         -1   -1    0    0    0  501 -0.00000000000E+00  0.00000000000E+00  0.56738145805E+03  0.56738145805E+03  0.00000000000E+00 0.  1.
          1   -1    0    0  501    0  0.00000000000E+00 -0.00000000000E+00 -0.66056222214E+03  0.66056222214E+03  0.00000000000E+00 0. -1.
         23    2    1    2    0    0  0.21335958066E+03  0.71358293097E+02  0.19392869867E+03  0.31070203803E+03  0.91176200934E+02 0.  0.
        254    2    1    2    0    0 -0.21335958066E+03 -0.71358293097E+02 -0.28710946275E+03  0.91724164216E+03  0.84159733237E+03 0.  0.
        -24    2    4    4    0    0 -0.22799886930E+03 -0.81484738532E+02  0.25986922630E+03  0.36424760251E+03  0.80753044147E+02 0.  0.
         24    2    4    4    0    0  0.14639288638E+02  0.10126445435E+02 -0.54697868905E+03  0.55299403965E+03  0.79371707456E+02 0.  0.
         11    1    3    3    0    0  0.67542247304E+01  0.23196960691E+02  0.13705503308E+01  0.24199110422E+02  0.00000000000E+00 0. -1.
        -11    1    3    3    0    0  0.20660535593E+03  0.48161332406E+02  0.19255814834E+03  0.28650292761E+03  0.00000000000E+00 0.  1.
          4    1    6    6  502    0  0.45201996345E+02  0.11654067023E+02 -0.24026848396E+03  0.24476107153E+03  0.00000000000E+00 0. -1.
          3    1    5    5  503    0 -0.12274271254E+03 -0.34226509804E+02  0.79688553777E+02  0.15029136056E+03  0.00000000000E+00 0. -1.
         -4    1    5    5    0  503 -0.10525615676E+03 -0.47258228727E+02  0.18018067252E+03  0.21395624195E+03  0.00000000000E+00 0.  1.
         -3    1    6    6    0  502 -0.30562707707E+02 -0.15276215882E+01 -0.30671020509E+03  0.30823296812E+03  0.00000000000E+00 0.  1.
<mgrwt>
<rscale>  0 0.12244031E+04</rscale>
<asrwt>0</asrwt>
<pdfrwt beam="1">  1        1 0.10162496E+00 0.12244031E+04</pdfrwt>
<pdfrwt beam="2">  1       -1 0.87289455E-01 0.12244031E+04</pdfrwt>
<totfact> 0.37975599E+01</totfact>
</mgrwt>
</event>
<event>
12    1  0.1477245E-007  0.1481301E+04  0.7818608E-02  0.8896984E-01
         -2   -1    0    0    0  501 -0.00000000000E+00  0.00000000000E+00  0.11514579960E+04  0.11514579960E+04  0.00000000000E+00 0. -1.
          2   -1    0    0  501    0  0.00000000000E+00 -0.00000000000E+00 -0.47640724243E+03  0.47640724243E+03  0.00000000000E+00 0.  1.
         23    2    1    2    0    0  0.31643130327E+03 -0.24079426725E+03  0.41906007753E+03  0.58481875622E+03  0.91054819819E+02 0.  0.
        254    2    1    2    0    0 -0.31643130327E+03  0.24079426725E+03  0.25599067607E+03  0.10430464822E+04  0.92967956256E+03 0.  0.
        -24    2    4    4    0    0 -0.27199316972E+03 -0.27447585211E+03 -0.10378494104E+03  0.40792250212E+03  0.79449203759E+02 0.  0.
         24    2    4    4    0    0 -0.44438133552E+02  0.51527011937E+03  0.35977561711E+03  0.63512398012E+03  0.80411018119E+02 0.  0.
         11    1    3    3    0    0  0.99942893407E+02 -0.62953665731E+02  0.70273495538E+02  0.13744129709E+03  0.00000000000E+00 0.  1.
        -11    1    3    3    0    0  0.21648840987E+03 -0.17784060152E+03  0.34878658199E+03  0.44737745912E+03  0.00000000000E+00 0. -1.
          4    1    6    6  502    0  0.16618656813E+02  0.33908042568E+02  0.19654103620E+02  0.42570164366E+02  0.00000000000E+00 0. -1.
          3    1    5    5  503    0 -0.10237353470E+03 -0.10452671631E+03  0.82034252614E-01  0.14630851567E+03  0.00000000000E+00 0. -1.
         -4    1    5    5    0  503 -0.16961963502E+03 -0.16994913580E+03 -0.10386697530E+03  0.26161398644E+03  0.00000000000E+00 0.  1.
         -3    1    6    6    0  502 -0.61056790365E+02  0.48136207680E+03  0.34012151349E+03  0.59255381576E+03  0.00000000000E+00 0.  1.
<mgrwt>
<rscale>  0 0.14813007E+04</rscale>
<asrwt>0</asrwt>
<pdfrwt beam="1">  1        2 0.73293422E-01 0.14813007E+04</pdfrwt>
<pdfrwt beam="2">  1       -2 0.17714738E+00 0.14813007E+04</pdfrwt>
<totfact> 0.11946887E+01</totfact>
</mgrwt>
</event>
<event>
12    1  0.1477245E-007  0.1623023E+04  0.7818608E-02  0.8806528E-01
          1   -1    0    0  501    0  0.00000000000E+00  0.00000000000E+00  0.14517653524E+04  0.14517653524E+04  0.00000000000E+00 0. -1.
         -1   -1    0    0    0  501 -0.00000000000E+00 -0.00000000000E+00 -0.45362074731E+03  0.45362074731E+03  0.00000000000E+00 0.  1.
         23    2    1    2    0    0 -0.11908568639E+03 -0.68446959333E+02  0.98838104472E+03  0.10010665028E+04  0.79816454763E+02 0.  0.
        254    2    1    2    0    0  0.11908568639E+03  0.68446959333E+02  0.97635603698E+01  0.90431959694E+03  0.89377414337E+03 0.  0.
        -24    2    4    4    0    0 -0.97430915614E+02  0.42041563061E+03  0.14457461569E+03  0.46228185780E+03  0.80997597335E+02 0.  0.
         24    2    4    4    0    0  0.21651660200E+03 -0.35196867127E+03 -0.13481105532E+03  0.44203773914E+03  0.80386302843E+02 0.  0.
         11    1    3    3    0    0 -0.58803637212E+02  0.74324141869E+01  0.29013372410E+03  0.29612613257E+03  0.00000000000E+00 0.  1.
        -11    1    3    3    0    0 -0.60282049174E+02 -0.75879373520E+02  0.69824732062E+03  0.70494037020E+03  0.00000000000E+00 0. -1.
          4    1    6    6  502    0 -0.52682419970E+01 -0.11742598488E+02  0.29026963795E+01  0.13193507466E+02  0.00000000000E+00 0. -1.
          1    1    5    5  503    0 -0.50181778068E+02  0.81811575951E+02  0.17579471093E+02  0.97572448025E+02  0.00000000000E+00 0. -1.
         -2    1    5    5    0  503 -0.47249137547E+02  0.33860405466E+03  0.12699514460E+03  0.36470940978E+03  0.00000000000E+00 0.  1.
         -3    1    6    6    0  502  0.22178484400E+03 -0.34022607279E+03 -0.13771375170E+03  0.42884423167E+03  0.00000000000E+00 0.  1.
<mgrwt>
<rscale>  0 0.16230230E+04</rscale>
<asrwt>0</asrwt>
<pdfrwt beam="1">  1        1 0.22334851E+00 0.16230230E+04</pdfrwt>
<pdfrwt beam="2">  1       -1 0.69787808E-01 0.16230230E+04</pdfrwt>
<totfact> 0.14052038E+01</totfact>
</mgrwt>
</event>
<event>
12    1  0.1477245E-007  0.1115110E+04  0.7818608E-02  0.9190588E-01
         -2   -1    0    0    0  501 -0.00000000000E+00  0.00000000000E+00  0.18205076950E+03  0.18205076950E+03  0.00000000000E+00 0. -1.
          2   -1    0    0  501    0  0.00000000000E+00 -0.00000000000E+00 -0.17075873910E+04  0.17075873910E+04  0.00000000000E+00 0.  1.
         23    2    1    2    0    0  0.10558442510E+03 -0.73824419659E+01 -0.51624510392E+03  0.53493388845E+03  0.91884092271E+02 0.  0.
        254    2    1    2    0    0 -0.10558442510E+03  0.73824419659E+01 -0.10092915175E+04  0.13547042720E+04  0.89741391007E+03 0.  0.
        -24    2    4    4    0    0  0.71314753581E+02  0.36271170348E+03 -0.15420508239E+03  0.40850531110E+03  0.80323146348E+02 0.  0.
         24    2    4    4    0    0 -0.17689917868E+03 -0.35532926152E+03 -0.85508643516E+03  0.94619896093E+03  0.81039857893E+02 0.  0.
         11    1    3    3    0    0  0.49652830719E+02 -0.19354273619E+02 -0.41695498530E+03  0.42034682260E+03  0.00000000000E+00 0.  1.
        -11    1    3    3    0    0  0.55931594378E+02  0.11971831653E+02 -0.99290118627E+02  0.11458706585E+03  0.00000000000E+00 0. -1.
          2    1    6    6  502    0 -0.16310902325E+03 -0.33277096609E+03 -0.73390086802E+03  0.82216272928E+03  0.00000000000E+00 0. -1.
          3    1    5    5  503    0  0.19876674173E+02  0.17830936590E+03 -0.34446207799E+02  0.18269059466E+03  0.00000000000E+00 0. -1.
         -4    1    5    5    0  503  0.51438079408E+02  0.18440233758E+03 -0.11975887459E+03  0.22581471644E+03  0.00000000000E+00 0.  1.
         -1    1    6    6    0  502 -0.13790155424E+02 -0.22558295430E+02 -0.12118556714E+03  0.12403623165E+03  0.00000000000E+00 0.  1.
<mgrwt>
<rscale>  0 0.11151100E+04</rscale>
<asrwt>0</asrwt>
<pdfrwt beam="1">  1        2 0.26270575E+00 0.11151100E+04</pdfrwt>
<pdfrwt beam="2">  1       -2 0.28007811E-01 0.11151100E+04</pdfrwt>
<totfact> 0.11224426E+02</totfact>
</mgrwt>
</event>
<event>
12    1  0.1477245E-007  0.1904872E+04  0.7818608E-02  0.8652435E-01
         -1   -1    0    0    0  501 -0.00000000000E+00  0.00000000000E+00  0.77332748140E+03  0.77332748140E+03  0.00000000000E+00 0.  1.
          1   -1    0    0  501    0  0.00000000000E+00 -0.00000000000E+00 -0.11730273269E+04  0.11730273269E+04  0.00000000000E+00 0. -1.
         23    2    1    2    0    0 -0.61211568048E+03  0.30919131340E+02  0.26562987415E+03  0.67508913820E+03  0.97696036250E+02 0.  0.
        254    2    1    2    0    0  0.61211568048E+03 -0.30919131340E+02 -0.66532971961E+03  0.12712656701E+04  0.89320275923E+03 0.  0.
        -24    2    4    4    0    0  0.54562169129E+03  0.31559325925E+03 -0.17000188626E+03  0.65776896574E+03  0.80356926698E+02 0.  0.
         24    2    4    4    0    0  0.66493989190E+02 -0.34651239059E+03 -0.49532783336E+03  0.61349670432E+03  0.80847116747E+02 0.  0.
         11    1    3    3    0    0 -0.19543405790E+03 -0.65764045475E+01  0.39400646619E+02  0.19947463758E+03  0.00000000000E+00 0. -1.
        -11    1    3    3    0    0 -0.41668162258E+03  0.37495535888E+02  0.22622922753E+03  0.47561450062E+03  0.00000000000E+00 0.  1.
          4    1    6    6  502    0  0.38198288400E+02 -0.21358777336E+03 -0.36834886376E+03  0.42750407203E+03  0.00000000000E+00 0. -1.
          1    1    5    5  503    0  0.49138964737E+03  0.27831395377E+03 -0.12603934037E+03  0.57862626775E+03  0.00000000000E+00 0. -1.
         -2    1    5    5    0  503  0.54232043917E+02  0.37279305474E+02 -0.43962545883E+02  0.79142697986E+02  0.00000000000E+00 0.  1.
         -3    1    6    6    0  502  0.28295700790E+02 -0.13292461723E+03 -0.12697896959E+03  0.18599263229E+03  0.00000000000E+00 0.  1.
<mgrwt>
<rscale>  0 0.19048719E+04</rscale>
<asrwt>0</asrwt>
<pdfrwt beam="1">  1        1 0.18046574E+00 0.19048719E+04</pdfrwt>
<pdfrwt beam="2">  1       -1 0.11897346E+00 0.19048719E+04</pdfrwt>
<totfact> 0.66142599E+00</totfact>
</mgrwt>
</event>
<event>
12    1  0.1477245E-007  0.1393817E+04  0.7818608E-02  0.8958307E-01
          2   -1    0    0  501    0  0.00000000000E+00  0.00000000000E+00  0.16855918664E+04  0.16855918664E+04  0.00000000000E+00 0. -1.
         -2   -1    0    0    0  501 -0.00000000000E+00 -0.00000000000E+00 -0.28813690761E+03  0.28813690761E+03  0.00000000000E+00 0.  1.
         23    2    1    2    0    0  0.46722553019E+02  0.24182504752E+03 -0.39759911927E+02  0.26512607719E+03  0.89714188630E+02 0.  0.
        254    2    1    2    0    0 -0.46722553019E+02 -0.24182504752E+03  0.14372148707E+04  0.17086026968E+04  0.89054715785E+03 0.  0.
        -24    2    4    4    0    0 -0.46741311829E+02 -0.53183014683E+03  0.54589902468E+03  0.76792202812E+03  0.81672766641E+02 0.  0.
         24    2    4    4    0    0  0.18758810278E-01  0.29000509931E+03  0.89131584601E+03  0.94068066867E+03  0.79581562399E+02 0.  0.
         13    1    3    3    0    0  0.33108430411E+02  0.13319880644E+03 -0.66378399697E+02  0.15246042814E+03  0.00000000000E+00 0.  1.
        -13    1    3    3    0    0  0.13614122608E+02  0.10862624108E+03  0.26618487770E+02  0.11266564906E+03  0.00000000000E+00 0. -1.
          2    1    6    6  502    0 -0.33672499398E+02  0.22314524177E+03  0.68330039183E+03  0.71960201613E+03  0.00000000000E+00 0. -1.
          1    1    5    5  503    0  0.98569355742E+01 -0.33728664400E+03  0.34619952672E+03  0.48343929474E+03  0.00000000000E+00 0. -1.
         -2    1    5    5    0  503 -0.56598247403E+02 -0.19454350283E+03  0.19969949797E+03  0.28448273338E+03  0.00000000000E+00 0.  1.
         -1    1    6    6    0  502  0.33691258208E+02  0.66859857547E+02  0.20801545418E+03  0.22107865254E+03  0.00000000000E+00 0.  1.
<mgrwt>
<rscale>  0 0.13938167E+04</rscale>
<asrwt>0</asrwt>
<pdfrwt beam="1">  1        2 0.25932182E+00 0.13938167E+04</pdfrwt>
<pdfrwt beam="2">  1       -2 0.44328756E-01 0.13938167E+04</pdfrwt>
<totfact> 0.46938767E+01</totfact>
</mgrwt>
</event>
<event>
12    1  0.1477245E-007  0.1425346E+04  0.7818608E-02  0.8935673E-01
         -1   -1    0    0    0  501 -0.00000000000E+00  0.00000000000E+00  0.20903190287E+03  0.20903190287E+03  0.00000000000E+00 0.  1.
          1   -1    0    0  501    0  0.00000000000E+00 -0.00000000000E+00 -0.24297858239E+04  0.24297858239E+04  0.00000000000E+00 0. -1.
         23    2    1    2    0    0  0.35321943521E+03  0.77719857129E+02 -0.10727555338E+04  0.11347646908E+04  0.77987965464E+02 0.  0.
        254    2    1    2    0    0 -0.35321943521E+03 -0.77719857129E+02 -0.11479983873E+04  0.15040530359E+04  0.90192621213E+03 0.  0.
        -24    2    4    4    0    0 -0.56582144249E+03 -0.29947936226E+02 -0.34472077465E+03  0.66804877425E+03  0.80037295322E+02 0.  0.
         24    2    4    4    0    0  0.21260200727E+03 -0.47771920902E+02 -0.80327761263E+03  0.83600426169E+03  0.78526636792E+02 0.  0.
         11    1    3    3    0    0  0.30910611364E+02  0.28206286181E+01 -0.18005012261E+03  0.18270596184E+03  0.00000000000E+00 0.  1.
        -11    1    3    3    0    0  0.32230882385E+03  0.74899228511E+02 -0.89270541116E+03  0.95205872901E+03  0.00000000000E+00 0. -1.
          2    1    6    6  502    0  0.17570559441E+03 -0.62023653642E+02 -0.72137220667E+03  0.74504848840E+03  0.00000000000E+00 0. -1.
          1    1    5    5  503    0 -0.47204283372E+03 -0.49833785377E+02 -0.26678427800E+03  0.54450132601E+03  0.00000000000E+00 0. -1.
         -2    1    5    5    0  503 -0.93778608765E+02  0.19885849151E+02 -0.77936496650E+02  0.12354744825E+03  0.00000000000E+00 0.  1.
         -1    1    6    6    0  502  0.36896412864E+02  0.14251732739E+02 -0.81905405962E+02  0.90955773286E+02  0.00000000000E+00 0.  1.
<mgrwt>
<rscale>  0 0.14253459E+04</rscale>
<asrwt>0</asrwt>
<pdfrwt beam="1">  1        1 0.37381321E+00 0.14253459E+04</pdfrwt>
<pdfrwt beam="2">  1       -1 0.32158754E-01 0.14253459E+04</pdfrwt>
<totfact> 0.13346121E+01</totfact>
</mgrwt>
</event>
<event>
12    1  0.1477245E-007  0.1525031E+04  0.7818608E-02  0.8867976E-01
         -1   -1    0    0    0  501 -0.00000000000E+00  0.00000000000E+00  0.51178615082E+03  0.51178615082E+03  0.00000000000E+00 0.  1.
          1   -1    0    0  501    0  0.00000000000E+00 -0.00000000000E+00 -0.11360799680E+04  0.11360799680E+04  0.00000000000E+00 0. -1.
         23    2    1    2    0    0 -0.19670748938E+03  0.41680471938E+02 -0.71212000605E+03  0.74575175592E+03  0.92734461343E+02 0.  0.
        254    2    1    2    0    0  0.19670748938E+03 -0.41680471938E+02  0.87826188895E+02  0.90211436288E+03  0.87502330606E+03 0.  0.
        -24    2    4    4    0    0 -0.13952019322E+03  0.42631556809E+02  0.39608018512E+03  0.43044528812E+03  0.84381864561E+02 0.  0.
         24    2    4    4    0    0  0.33622768259E+03 -0.84312028747E+02 -0.30825399622E+03  0.47166907476E+03  0.85402676574E+02 0.  0.
         11    1    3    3    0    0 -0.12137926022E+02  0.34018307394E+02 -0.13774201913E+03  0.14239887051E+03  0.00000000000E+00 0.  1.
        -11    1    3    3    0    0 -0.18456956336E+03  0.76621645441E+01 -0.57437798692E+03  0.60335288542E+03  0.00000000000E+00 0. -1.
          4    1    6    6  502    0  0.29237459494E+03 -0.62047282744E+02 -0.22175803277E+03  0.37216850237E+03  0.00000000000E+00 0. -1.
          1    1    5    5  503    0 -0.32637001128E+02  0.22785610275E+02  0.33840458626E+02  0.52244947299E+02  0.00000000000E+00 0. -1.
         -2    1    5    5    0  503 -0.10688319209E+03  0.19845946534E+02  0.36223972649E+03  0.37820034082E+03  0.00000000000E+00 0.  1.
         -3    1    6    6    0  502  0.43853087653E+02 -0.22264746003E+02 -0.86495963459E+02  0.99500572391E+02  0.00000000000E+00 0.  1.
<mgrwt>
<rscale>  0 0.15250311E+04</rscale>
<asrwt>0</asrwt>
<pdfrwt beam="1">  1        1 0.17478153E+00 0.15250311E+04</pdfrwt>
<pdfrwt beam="2">  1       -1 0.78736331E-01 0.15250311E+04</pdfrwt>
<totfact> 0.18560697E+01</totfact>
</mgrwt>
</event>
<event>
12    1  0.1477245E-007  0.1829189E+04  0.7818608E-02  0.8690929E-01
          1   -1    0    0  501    0  0.00000000000E+00  0.00000000000E+00  0.39364675525E+03  0.39364675525E+03  0.00000000000E+00 0. -1.
         -1   -1    0    0    0  501 -0.00000000000E+00 -0.00000000000E+00 -0.21249585578E+04  0.21249585578E+04  0.00000000000E+00 0.  1.
         23    2    1    2    0    0 -0.60953600451E+03  0.21911689608E+03 -0.32018104477E+03  0.72763681939E+03  0.85983048060E+02 0.  0.
        254    2    1    2    0    0  0.60953600451E+03 -0.21911689608E+03 -0.14111307578E+04  0.17909684937E+04  0.89259832781E+03 0.  0.
        -24    2    4    4    0    0 -0.22666360784E+03 -0.50892036709E+02 -0.31539272529E+03  0.39995659450E+03  0.80785616251E+02 0.  0.
         24    2    4    4    0    0  0.83619961236E+03 -0.16822485937E+03 -0.10957380325E+04  0.13910118992E+04  0.82114997267E+02 0.  0.
         13    1    3    3    0    0 -0.57286285508E+03  0.21863522175E+03 -0.28270526306E+03  0.67520032337E+03  0.00000000000E+00 0. -1.
        -13    1    3    3    0    0 -0.36673149431E+02  0.48167433261E+00 -0.37475781717E+02  0.52436496018E+02  0.00000000000E+00 0.  1.
          4    1    6    6  502    0  0.21244146544E+03 -0.26103512408E+02 -0.22526945504E+03  0.31073959673E+03  0.00000000000E+00 0. -1.
          1    1    5    5  503    0 -0.59594066187E+01  0.13159082088E+02 -0.92397695029E+01  0.17147866022E+02  0.00000000000E+00 0. -1.
         -2    1    5    5    0  503 -0.22070420123E+03 -0.64051118797E+02 -0.30615295579E+03  0.38280872847E+03  0.00000000000E+00 0.  1.
         -3    1    6    6    0  502  0.62375814692E+03 -0.14212134696E+03 -0.87046857745E+03  0.10802723024E+04  0.00000000000E+00 0.  1.
<mgrwt>
<rscale>  0 0.18291889E+04</rscale>
<asrwt>0</asrwt>
<pdfrwt beam="1">  1        1 0.60561038E-01 0.18291889E+04</pdfrwt>
<pdfrwt beam="2">  1       -1 0.32691671E+00 0.18291889E+04</pdfrwt>
<totfact> 0.12745708E+00</totfact>
</mgrwt>
</event>
<event>
12    1  0.1477245E-007  0.2505917E+04  0.7818608E-02  0.8400881E-01
          2   -1    0    0  501    0  0.00000000000E+00  0.00000000000E+00  0.14489947433E+04  0.14489947433E+04  0.00000000000E+00 0. -1.
         -2   -1    0    0    0  501 -0.00000000000E+00 -0.00000000000E+00 -0.10834442375E+04  0.10834442375E+04  0.00000000000E+00 0.  1.
         23    2    1    2    0    0 -0.95957461910E+02  0.24111738727E+03 -0.91065193312E+03  0.95125846790E+03  0.90886195355E+02 0.  0.
        254    2    1    2    0    0  0.95957461910E+02 -0.24111738727E+03  0.12762024389E+04  0.15811805130E+04  0.89671273027E+03 0.  0.
        -24    2    4    4    0    0  0.43582901740E+03 -0.22144888438E+03  0.39609516074E+03  0.63415159766E+03  0.79185425735E+02 0.  0.
         24    2    4    4    0    0 -0.33987155549E+03 -0.19668502900E+02  0.88010727817E+03  0.94702891533E+03  0.79846234393E+02 0.  0.
         13    1    3    3    0    0 -0.32432281890E+02  0.18132614414E+03 -0.54281676397E+03  0.57321990781E+03  0.00000000000E+00 0. -1.
        -13    1    3    3    0    0 -0.63525180020E+02  0.59791243137E+02 -0.36783516915E+03  0.37803856009E+03  0.00000000000E+00 0.  1.
          2    1    6    6  502    0 -0.40907012230E+02 -0.24716648473E+02  0.16867993161E+03  0.17532032309E+03  0.00000000000E+00 0. -1.
          1    1    5    5  503    0  0.24527343476E+03 -0.14309199710E+03  0.18347133288E+03  0.33807707320E+03  0.00000000000E+00 0. -1.
         -2    1    5    5    0  503  0.19055558264E+03 -0.78356887276E+02  0.21262382787E+03  0.29607452446E+03  0.00000000000E+00 0.  1.
         -1    1    6    6    0  502 -0.29896454326E+03  0.50481455738E+01  0.71142734656E+03  0.77170859224E+03  0.00000000000E+00 0.  1.
<mgrwt>
<rscale>  0 0.25059170E+04</rscale>
<asrwt>0</asrwt>
<pdfrwt beam="1">  1        2 0.22292227E+00 0.25059170E+04</pdfrwt>
<pdfrwt beam="2">  1       -2 0.16668373E+00 0.25059170E+04</pdfrwt>
<totfact> 0.27232102E+00</totfact>
</mgrwt>
</event>
<event>
12    1  0.1477245E-007  0.1340344E+04  0.7818608E-02  0.8998170E-01
         -1   -1    0    0    0  501 -0.00000000000E+00  0.00000000000E+00  0.36206851132E+03  0.36206851132E+03  0.00000000000E+00 0.  1.
          1   -1    0    0  501    0  0.00000000000E+00 -0.00000000000E+00 -0.12404579045E+04  0.12404579045E+04  0.00000000000E+00 0. -1.
         23    2    1    2    0    0  0.19662648464E+03 -0.18989573860E+03 -0.51094501775E+03  0.58651318086E+03  0.90611997881E+02 0.  0.
        254    2    1    2    0    0 -0.19662648464E+03  0.18989573860E+03 -0.36744437547E+03  0.10160132350E+04  0.90694275377E+03 0.  0.
        -24    2    4    4    0    0 -0.50937104594E+03  0.20500550355E+03 -0.41058625534E+03  0.69030261574E+03  0.80315062659E+02 0.  0.
         24    2    4    4    0    0  0.31274456131E+03 -0.15109764952E+02  0.43141879873E+02  0.32571061925E+03  0.78668418505E+02 0.  0.
         11    1    3    3    0    0  0.14936108565E+03 -0.14326669116E+03 -0.29332251792E+03  0.35898771319E+03  0.00000000000E+00 0.  1.
        -11    1    3    3    0    0  0.47265398988E+02 -0.46629047441E+02 -0.21762249983E+03  0.22752546767E+03  0.00000000000E+00 0. -1.
          4    1    6    6  502    0  0.21062859619E+03 -0.30466691777E+02 -0.24376140952E+01  0.21283459964E+03  0.00000000000E+00 0. -1.
          1    1    5    5  503    0 -0.45642429769E+03  0.19103387207E+03 -0.39569516782E+03  0.63355484817E+03  0.00000000000E+00 0. -1.
         -2    1    5    5    0  503 -0.52946748256E+02  0.13971631484E+02 -0.14891087521E+02  0.56747767575E+02  0.00000000000E+00 0.  1.
         -3    1    6    6    0  502  0.10211596512E+03  0.15356926825E+02  0.45579493968E+02  0.11287601962E+03  0.00000000000E+00 0.  1.
<mgrwt>
<rscale>  0 0.13403444E+04</rscale>
<asrwt>0</asrwt>
<pdfrwt beam="1">  1        1 0.19083968E+00 0.13403444E+04</pdfrwt>
<pdfrwt beam="2">  1       -1 0.55702847E-01 0.13403444E+04</pdfrwt>
<totfact> 0.31875379E+01</totfact>
</mgrwt>
</event>
<event>
12    1  0.1477245E-007  0.1572417E+04  0.7818608E-02  0.8837675E-01
          2   -1    0    0  501    0  0.00000000000E+00  0.00000000000E+00  0.20827941688E+04  0.20827941688E+04  0.00000000000E+00 0. -1.
         -2   -1    0    0    0  501 -0.00000000000E+00 -0.00000000000E+00 -0.29677628279E+03  0.29677628279E+03  0.00000000000E+00 0.  1.
         23    2    1    2    0    0  0.17395918666E+03 -0.48632397960E+03  0.44500460853E+03  0.69077361034E+03  0.11120372009E+03 0.  0.
        254    2    1    2    0    0 -0.17395918666E+03  0.48632397960E+03  0.13410132775E+04  0.16887968413E+04  0.88709940194E+03 0.  0.
        -24    2    4    4    0    0 -0.33678912337E+03 -0.95146890938E+02  0.24601073143E+03  0.43509426604E+03  0.79409671272E+02 0.  0.
         24    2    4    4    0    0  0.16282993671E+03  0.58147087054E+03  0.10950025461E+04  0.12537025753E+04  0.90097778395E+02 0.  0.
         13    1    3    3    0    0  0.32630600081E+02 -0.22712906015E+03  0.15476680345E+03  0.27677631668E+03  0.00000000000E+00 0.  1.
        -13    1    3    3    0    0  0.14132858658E+03 -0.25919491945E+03  0.29023780508E+03  0.41399729365E+03  0.00000000000E+00 0. -1.
          4    1    6    6  502    0  0.16947907866E+03  0.57870022336E+03  0.10859142790E+04  0.12421058441E+04  0.00000000000E+00 0. -1.
          3    1    5    5  503    0 -0.26995444860E+03 -0.44581711420E+02  0.20437323216E+03  0.34151332527E+03  0.00000000000E+00 0. -1.
         -4    1    5    5    0  503 -0.66834674763E+02 -0.50565179518E+02  0.41637499271E+02  0.93580940772E+02  0.00000000000E+00 0.  1.
         -3    1    6    6    0  502 -0.66491419545E+01  0.27706471778E+01  0.90882670664E+01  0.11596731125E+02  0.00000000000E+00 0.  1.
<mgrwt>
<rscale>  0 0.15724171E+04</rscale>
<asrwt>0</asrwt>
<pdfrwt beam="1">  1        2 0.32042986E+00 0.15724171E+04</pdfrwt>
<pdfrwt beam="2">  1       -2 0.45657891E-01 0.15724171E+04</pdfrwt>
<totfact> 0.26271824E+01</totfact>
</mgrwt>
</event>
<event>
12    1  0.1477245E-007  0.3058353E+04  0.7818608E-02  0.8227261E-01
         -3   -1    0    0    0  501 -0.00000000000E+00  0.00000000000E+00  0.19739783111E+04  0.19739783111E+04  0.00000000000E+00 0.  1.
          3   -1    0    0  501    0  0.00000000000E+00 -0.00000000000E+00 -0.11846032068E+04  0.11846032068E+04  0.00000000000E+00 0. -1.
         23    2    1    2    0    0  0.13669136888E+04 -0.66279309550E+02  0.87000261799E+02  0.13742480478E+04  0.90236754410E+02 0.  0.
        254    2    1    2    0    0 -0.13669136888E+04  0.66279309550E+02  0.70237484252E+03  0.17843334702E+04  0.90425081359E+03 0.  0.
        -24    2    4    4    0    0 -0.85341069591E+02 -0.21675186970E+03 -0.74434031480E+02  0.25743654961E+03  0.80428109875E+02 0.  0.
         24    2    4    4    0    0 -0.12815726192E+04  0.28303117925E+03  0.77680887400E+03  0.15268969205E+04  0.73804827540E+02 0.  0.
         13    1    3    3    0    0  0.11151336983E+04 -0.74361392196E+02  0.99483244339E+02  0.11220292767E+04  0.00000000000E+00 0.  1.
        -13    1    3    3    0    0  0.25177999046E+03  0.80820826462E+01 -0.12482982541E+02  0.25221877112E+03  0.00000000000E+00 0. -1.
          4    1    6    6  502    0 -0.81028674223E+03  0.17905426115E+03  0.44949272296E+03  0.94375247871E+03  0.00000000000E+00 0. -1.
          1    1    5    5  503    0 -0.47291394742E+02 -0.11812340081E+03  0.15511009686E+01  0.12724786737E+03  0.00000000000E+00 0. -1.
         -2    1    5    5    0  503 -0.38049674849E+02 -0.98628468882E+02 -0.75985132449E+02  0.13018868224E+03  0.00000000000E+00 0.  1.
         -3    1    6    6    0  502 -0.47128587696E+03  0.10397691810E+03  0.32731615104E+03  0.58314444184E+03  0.00000000000E+00 0.  1.
<mgrwt>
<rscale>  0 0.30583532E+04</rscale>
<asrwt>0</asrwt>
<pdfrwt beam="1">  1        3 0.18224665E+00 0.30583532E+04</pdfrwt>
<pdfrwt beam="2">  1       -3 0.30368897E+00 0.30583532E+04</pdfrwt>
<totfact> 0.15353422E-02</totfact>
</mgrwt>
</event>
<event>
12    1  0.1477245E-007  0.1949633E+04  0.7818608E-02  0.8630538E-01
          1   -1    0    0  501    0  0.00000000000E+00  0.00000000000E+00  0.10417108288E+04  0.10417108288E+04  0.00000000000E+00 0. -1.
         -1   -1    0    0    0  501 -0.00000000000E+00 -0.00000000000E+00 -0.91221808490E+03  0.91221808490E+03  0.00000000000E+00 0.  1.
         23    2    1    2    0    0 -0.46814309907E+03 -0.44727492886E+03 -0.35984580492E+03  0.74647488949E+03  0.92319738561E+02 0.  0.
        254    2    1    2    0    0  0.46814309907E+03  0.44727492886E+03  0.48933854880E+03  0.12074540242E+04  0.89402470993E+03 0.  0.
        -24    2    4    4    0    0 -0.24303984298E+03  0.17681742380E+02  0.19639061168E+03  0.32308963473E+03  0.80228613493E+02 0.  0.
         24    2    4    4    0    0  0.71118294205E+03  0.42959318648E+03  0.29294793713E+03  0.88436438945E+03  0.77138813348E+02 0.  0.
         13    1    3    3    0    0 -0.60000820387E+01 -0.12216989743E+02  0.48557776413E+01  0.14451103741E+02  0.00000000000E+00 0. -1.
        -13    1    3    3    0    0 -0.46214301703E+03 -0.43505793912E+03 -0.36470158256E+03  0.73202378575E+03  0.00000000000E+00 0.  1.
          4    1    6    6  502    0  0.47506490430E+03  0.29460581006E+03  0.15889629175E+03  0.58114307890E+03  0.00000000000E+00 0. -1.
          1    1    5    5  503    0 -0.23589542512E+03  0.27379421566E+02  0.16419584554E+03  0.28871536157E+03  0.00000000000E+00 0. -1.
         -2    1    5    5    0  503 -0.71444178659E+01 -0.96976791855E+01  0.32194766137E+02  0.34374273154E+02  0.00000000000E+00 0.  1.
         -3    1    6    6    0  502  0.23611803775E+03  0.13498737642E+03  0.13405164538E+03  0.30322131055E+03  0.00000000000E+00 0.  1.
<mgrwt>
<rscale>  0 0.19496333E+04</rscale>
<asrwt>0</asrwt>
<pdfrwt beam="1">  1        1 0.16026321E+00 0.19496333E+04</pdfrwt>
<pdfrwt beam="2">  1       -1 0.14034124E+00 0.19496333E+04</pdfrwt>
<totfact> 0.54500286E+00</totfact>
</mgrwt>
</event>
<event>
12    1  0.1477245E-007  0.2670067E+04  0.7818608E-02  0.8344783E-01
          1   -1    0    0  501    0  0.00000000000E+00  0.00000000000E+00  0.11236091794E+04  0.11236091794E+04  0.00000000000E+00 0. -1.
         -1   -1    0    0    0  501 -0.00000000000E+00 -0.00000000000E+00 -0.15862407699E+04  0.15862407699E+04  0.00000000000E+00 0.  1.
         23    2    1    2    0    0 -0.94454161377E+03 -0.47224285128E+03  0.32766598626E+03  0.11094977657E+04  0.91913670445E+02 0.  0.
        254    2    1    2    0    0  0.94454161377E+03  0.47224285128E+03 -0.79029757682E+03  0.16003521836E+04  0.90630275339E+03 0.  0.
        -24    2    4    4    0    0  0.51227139634E+03  0.61772636350E+03 -0.16631788920E+03  0.82330515697E+03  0.78497755134E+02 0.  0.
         24    2    4    4    0    0  0.43227021744E+03 -0.14548351222E+03 -0.62397968762E+03  0.77704702660E+03  0.80177539060E+02 0.  0.
         13    1    3    3    0    0 -0.75161059567E+03 -0.34027086797E+03  0.23310147177E+03  0.85734418249E+03  0.00000000000E+00 0. -1.
        -13    1    3    3    0    0 -0.19293101810E+03 -0.13197198331E+03  0.94564514498E+02  0.25215358321E+03  0.00000000000E+00 0.  1.
          4    1    6    6  502    0  0.62524986303E+02 -0.16178339377E+02 -0.47881061220E+02  0.80397192741E+02  0.00000000000E+00 0. -1.
          3    1    5    5  503    0  0.15670630268E+03  0.19726315531E+03 -0.15666568721E+02  0.25241842072E+03  0.00000000000E+00 0. -1.
         -4    1    5    5    0  503  0.35556509366E+03  0.42046320819E+03 -0.15065132048E+03  0.57088673626E+03  0.00000000000E+00 0.  1.
         -3    1    6    6    0  502  0.36974523113E+03 -0.12930517284E+03 -0.57609862640E+03  0.69664983386E+03  0.00000000000E+00 0.  1.
<mgrwt>
<rscale>  0 0.26700672E+04</rscale>
<asrwt>0</asrwt>
<pdfrwt beam="1">  1        1 0.17286295E+00 0.26700672E+04</pdfrwt>
<pdfrwt beam="2">  1       -1 0.24403704E+00 0.26700672E+04</pdfrwt>
<totfact> 0.81266706E-01</totfact>
</mgrwt>
</event>
<event>
12    1  0.1477245E-007  0.1826009E+04  0.7818608E-02  0.8692589E-01
          1   -1    0    0  501    0  0.00000000000E+00  0.00000000000E+00  0.92972035467E+03  0.92972035467E+03  0.00000000000E+00 0. -1.
         -1   -1    0    0    0  501 -0.00000000000E+00 -0.00000000000E+00 -0.89658907923E+03  0.89658907923E+03  0.00000000000E+00 0.  1.
         23    2    1    2    0    0  0.23250018635E+03  0.50156085286E+03  0.42241953102E+03  0.70181184199E+03  0.92097641605E+02 0.  0.
        254    2    1    2    0    0 -0.23250018635E+03 -0.50156085286E+03 -0.38928825558E+03  0.11244975919E+04  0.89851536576E+03 0.  0.
        -24    2    4    4    0    0 -0.40513327343E+03 -0.17219135177E+03 -0.55162498075E+03  0.71027044419E+03  0.80069679941E+02 0.  0.
         24    2    4    4    0    0  0.17263308708E+03 -0.32936950109E+03  0.16233672517E+03  0.41422714772E+03  0.83333466027E+02 0.  0.
         13    1    3    3    0    0  0.50897518391E+02  0.12185277265E+03  0.54808646271E+02  0.14297777201E+03  0.00000000000E+00 0.  1.
        -13    1    3    3    0    0  0.18160266796E+03  0.37970808021E+03  0.36761088475E+03  0.55883406998E+03  0.00000000000E+00 0. -1.
          2    1    6    6  502    0  0.65054842269E+02 -0.20202232832E+03  0.69005964675E+02  0.22317476740E+03  0.00000000000E+00 0. -1.
          3    1    5    5  503    0 -0.28510431963E+03 -0.11176565762E+03 -0.43716659878E+03  0.53375150621E+03  0.00000000000E+00 0. -1.
         -4    1    5    5    0  503 -0.12002895379E+03 -0.60425694155E+02 -0.11445838197E+03  0.17651893798E+03  0.00000000000E+00 0.  1.
         -1    1    6    6    0  502  0.10757824481E+03 -0.12734717277E+03  0.93330760498E+02  0.19105238032E+03  0.00000000000E+00 0.  1.
<mgrwt>
<rscale>  0 0.18260089E+04</rscale>
<asrwt>0</asrwt>
<pdfrwt beam="1">  1        1 0.14303390E+00 0.18260089E+04</pdfrwt>
<pdfrwt beam="2">  1       -1 0.13793678E+00 0.18260089E+04</pdfrwt>
<totfact> 0.70610242E+00</totfact>
</mgrwt>
</event>
<event>
12    1  0.1477245E-007  0.1581592E+04  0.7818608E-02  0.8831937E-01
          2   -1    0    0  501    0  0.00000000000E+00  0.00000000000E+00  0.13149119834E+04  0.13149119834E+04  0.00000000000E+00 0. -1.
         -2   -1    0    0    0  501 -0.00000000000E+00 -0.00000000000E+00 -0.47558936190E+03  0.47558936190E+03  0.00000000000E+00 0.  1.
         23    2    1    2    0    0  0.15665974830E+03 -0.13633226821E+03  0.83715378447E+03  0.86726449121E+03  0.90512290707E+02 0.  0.
        254    2    1    2    0    0 -0.15665974830E+03  0.13633226821E+03  0.21688370519E+01  0.92323685410E+03  0.89957368838E+03 0.  0.
        -24    2    4    4    0    0 -0.24133706815E+02  0.45803977513E+03  0.20857282320E+03  0.51074612397E+03  0.83523105619E+02 0.  0.
         24    2    4    4    0    0 -0.13252604149E+03 -0.32170750692E+03 -0.20640398614E+03  0.41249073013E+03  0.80542692208E+02 0.  0.
         11    1    3    3    0    0  0.58396745453E+02 -0.30610870506E+02  0.43553224173E+03  0.44049465248E+03  0.00000000000E+00 0. -1.
        -11    1    3    3    0    0  0.98263002847E+02 -0.10572139771E+03  0.40162154274E+03  0.42676983874E+03  0.00000000000E+00 0.  1.
          2    1    6    6  502    0 -0.88274591182E+02 -0.27613292903E+03 -0.14499650203E+03  0.32413852524E+03  0.00000000000E+00 0. -1.
          1    1    5    5  503    0  0.93601800047E+00 -0.36495691179E+01  0.25758784345E+01  0.45640589559E+01  0.00000000000E+00 0. -1.
         -2    1    5    5    0  503 -0.25069724816E+02  0.46168934425E+03  0.20599694476E+03  0.50618206502E+03  0.00000000000E+00 0.  1.
         -1    1    6    6    0  502 -0.44251450303E+02 -0.45574577883E+02 -0.61407484117E+02  0.88352204889E+02  0.00000000000E+00 0.  1.
<mgrwt>
<rscale>  0 0.15815918E+04</rscale>
<asrwt>0</asrwt>
<pdfrwt beam="1">  1        2 0.20229415E+00 0.15815918E+04</pdfrwt>
<pdfrwt beam="2">  1       -2 0.73167595E-01 0.15815918E+04</pdfrwt>
<totfact> 0.26245782E+01</totfact>
</mgrwt>
</event>
<event>
12    1  0.1477245E-007  0.1585292E+04  0.7818608E-02  0.8829635E-01
          2   -1    0    0  501    0  0.00000000000E+00  0.00000000000E+00  0.61627205312E+03  0.61627205312E+03  0.00000000000E+00 0.  1.
         -2   -1    0    0    0  501 -0.00000000000E+00 -0.00000000000E+00 -0.10194969040E+04  0.10194969040E+04  0.00000000000E+00 0. -1.
         23    2    1    2    0    0 -0.58119859609E+02  0.24059189809E+03 -0.65374437039E+03  0.70278732594E+03  0.72566825542E+02 0.  0.
        254    2    1    2    0    0  0.58119859609E+02 -0.24059189809E+03  0.25051951955E+03  0.93298163115E+03  0.86396314440E+03 0.  0.
        -24    2    4    4    0    0 -0.16807139479E+02 -0.55414784086E+03  0.10592119909E+03  0.57004208268E+03  0.79789511479E+02 0.  0.
         24    2    4    4    0    0  0.74926999089E+02  0.31355594277E+03  0.14459832046E+03  0.36293954847E+03  0.82976244351E+02 0.  0.
         11    1    3    3    0    0 -0.65582196528E+02  0.19354068043E+03 -0.58045440148E+03  0.61537495211E+03  0.00000000000E+00 0. -1.
        -11    1    3    3    0    0  0.74623369184E+01  0.47051217653E+02 -0.73289968910E+02  0.87412373825E+02  0.00000000000E+00 0.  1.
          4    1    6    6  502    0 -0.88944715525E+01  0.51343773845E+02  0.25743547873E+00  0.52109125975E+02  0.00000000000E+00 0. -1.
          3    1    5    5  503    0  0.17825948372E+01 -0.22831685076E+02 -0.11442193073E+02  0.25600532613E+02  0.00000000000E+00 0. -1.
         -4    1    5    5    0  503 -0.18589734317E+02 -0.53131615578E+03  0.11736339217E+03  0.54444155006E+03  0.00000000000E+00 0.  1.
         -3    1    6    6    0  502  0.83821470641E+02  0.26221216892E+03  0.14434088498E+03  0.31083042250E+03  0.00000000000E+00 0.  1.
<mgrwt>
<rscale>  0 0.15852917E+04</rscale>
<asrwt>0</asrwt>
<pdfrwt beam="1">  1        2 0.94811085E-01 0.15852917E+04</pdfrwt>
<pdfrwt beam="2">  1       -2 0.15684568E+00 0.15852917E+04</pdfrwt>
<totfact> 0.12244793E+01</totfact>
</mgrwt>
</event>
<event>
12    1  0.1477245E-007  0.1338716E+04  0.7818608E-02  0.8999414E-01
         -1   -1    0    0    0  501 -0.00000000000E+00  0.00000000000E+00  0.54542275866E+03  0.54542275866E+03  0.00000000000E+00 0.  1.
          1   -1    0    0  501    0  0.00000000000E+00 -0.00000000000E+00 -0.82145503736E+03  0.82145503736E+03  0.00000000000E+00 0. -1.
         23    2    1    2    0    0 -0.11577147746E+03 -0.68380234286E+02  0.25988097653E+03  0.30674477867E+03  0.92061641561E+02 0.  0.
        254    2    1    2    0    0  0.11577147746E+03  0.68380234286E+02 -0.53591325523E+03  0.10601330173E+04  0.90476522142E+03 0.  0.
        -24    2    4    4    0    0 -0.32165712949E+02  0.44033155428E+03 -0.95772733104E+02  0.45993098074E+03  0.86241404493E+02 0.  0.
         24    2    4    4    0    0  0.14793719041E+03 -0.37195132000E+03 -0.44014052213E+03  0.60020203661E+03  0.79281831296E+02 0.  0.
         11    1    3    3    0    0 -0.16111863484E+02  0.22771597726E+02  0.44980008902E+02  0.52927677152E+02  0.00000000000E+00 0. -1.
        -11    1    3    3    0    0 -0.99659613981E+02 -0.91151832012E+02  0.21490096763E+03  0.25381710152E+03  0.00000000000E+00 0.  1.
          4    1    6    6  502    0  0.12176657825E+03 -0.21122528715E+03 -0.28805450775E+03  0.37738391718E+03  0.00000000000E+00 0. -1.
          1    1    5    5  503    0 -0.61358661947E+02  0.27945657093E+03 -0.68057050631E+02  0.29409628112E+03  0.00000000000E+00 0. -1.
         -2    1    5    5    0  503  0.29192948998E+02  0.16087498336E+03 -0.27715682473E+02  0.16583469961E+03  0.00000000000E+00 0.  1.
         -3    1    6    6    0  502  0.26170612160E+02 -0.16072603285E+03 -0.15208601438E+03  0.22281811943E+03  0.00000000000E+00 0.  1.
<mgrwt>
<rscale>  0 0.13387162E+04</rscale>
<asrwt>0</asrwt>
<pdfrwt beam="1">  1        1 0.12637770E+00 0.13387162E+04</pdfrwt>
<pdfrwt beam="2">  1       -1 0.83911194E-01 0.13387162E+04</pdfrwt>
<totfact> 0.29227975E+01</totfact>
</mgrwt>
</event>
<event>
12    1  0.1477245E-007  0.1323235E+04  0.7818608E-02  0.9011340E-01
          4   -1    0    0  501    0  0.00000000000E+00  0.00000000000E+00  0.40992669535E+03  0.40992669535E+03  0.00000000000E+00 0. -1.
         -4   -1    0    0    0  501 -0.00000000000E+00 -0.00000000000E+00 -0.10678442766E+04  0.10678442766E+04  0.00000000000E+00 0.  1.
         23    2    1    2    0    0 -0.20718620129E+03 -0.25348780252E+03 -0.24679531082E+03  0.42259836153E+03  0.10246590502E+03 0.  0.
        254    2    1    2    0    0  0.20718620129E+03  0.25348780252E+03 -0.41112227039E+03  0.10551726104E+04  0.91497843060E+03 0.  0.
        -24    2    4    4    0    0  0.11945504199E+03  0.12780976235E+03  0.28194139769E+03  0.34089141139E+03  0.78173910103E+02 0.  0.
         24    2    4    4    0    0  0.87731159302E+02  0.12567804016E+03 -0.69306366808E+03  0.71428119900E+03  0.79803866681E+02 0.  0.
         11    1    3    3    0    0 -0.12629514143E+03 -0.19693654237E+03 -0.12313676366E+03  0.26438064799E+03  0.00000000000E+00 0. -1.
        -11    1    3    3    0    0 -0.80891059859E+02 -0.56551260151E+02 -0.12365854717E+03  0.15821771354E+03  0.00000000000E+00 0.  1.
          4    1    6    6  502    0  0.73150581609E+02  0.10304675698E+03 -0.65826018947E+03  0.67028062687E+03  0.00000000000E+00 0. -1.
          3    1    5    5  503    0  0.12801000195E+03  0.10051066858E+03  0.24576919716E+03  0.29477356288E+03  0.00000000000E+00 0. -1.
         -4    1    5    5    0  503 -0.85549599604E+01  0.27299093772E+02  0.36172200524E+02  0.46117848513E+02  0.00000000000E+00 0.  1.
         -3    1    6    6    0  502  0.14580577693E+02  0.22631283179E+02 -0.34803478604E+02  0.44000572123E+02  0.00000000000E+00 0.  1.
<mgrwt>
<rscale>  0 0.13232352E+04</rscale>
<asrwt>0</asrwt>
<pdfrwt beam="1">  1        4 0.63065646E-01 0.13232352E+04</pdfrwt>
<pdfrwt beam="2">  1       -4 0.16428373E+00 0.13232352E+04</pdfrwt>
<totfact> 0.10702365E+00</totfact>
</mgrwt>
</event>
<event>
12    1  0.1477245E-007  0.1410616E+04  0.7818608E-02  0.8946170E-01
         -2   -1    0    0    0  501 -0.00000000000E+00  0.00000000000E+00  0.89499096488E+03  0.89499096488E+03  0.00000000000E+00 0.  1.
          2   -1    0    0  501    0  0.00000000000E+00 -0.00000000000E+00 -0.55582580416E+03  0.55582580416E+03  0.00000000000E+00 0. -1.
         23    2    1    2    0    0 -0.41176713074E+03  0.24154788441E+02  0.11556547283E+03  0.43772219477E+03  0.90053970044E+02 0.  0.
        254    2    1    2    0    0  0.41176713074E+03 -0.24154788441E+02  0.22359968788E+03  0.10130945743E+04  0.89790209502E+03 0.  0.
        -24    2    4    4    0    0  0.67820953296E+02 -0.88929755768E+02 -0.32820360032E+03  0.35433774056E+03  0.73003068117E+02 0.  0.
         24    2    4    4    0    0  0.34394617744E+03  0.64774967326E+02  0.55180328820E+03  0.65875683372E+03  0.83539976844E+02 0.  0.
         11    1    3    3    0    0 -0.10878081610E+03  0.28564079922E+01 -0.95324393378E+01  0.10923503292E+03  0.00000000000E+00 0. -1.
        -11    1    3    3    0    0 -0.30298631464E+03  0.21298380449E+02  0.12509791217E+03  0.32848716185E+03  0.00000000000E+00 0.  1.
          4    1    6    6  502    0  0.15665404335E+03  0.83643186839E+01  0.18098979161E+03  0.23951566920E+03  0.00000000000E+00 0. -1.
          3    1    5    5  503    0  0.13648920495E+02 -0.85167839817E+01 -0.15508066722E+03  0.15591293078E+03  0.00000000000E+00 0. -1.
         -4    1    5    5    0  503  0.54172032801E+02 -0.80412971786E+02 -0.17312293310E+03  0.19842480977E+03  0.00000000000E+00 0.  1.
         -3    1    6    6    0  502  0.18729213409E+03  0.56410648642E+02  0.37081349659E+03  0.41924116451E+03  0.00000000000E+00 0.  1.
<mgrwt>
<rscale>  0 0.14106156E+04</rscale>
<asrwt>0</asrwt>
<pdfrwt beam="1">  1        2 0.85511662E-01 0.14106156E+04</pdfrwt>
<pdfrwt beam="2">  1       -2 0.13769092E+00 0.14106156E+04</pdfrwt>
<totfact> 0.19815762E+01</totfact>
</mgrwt>
</event>
<event>
12    1  0.1477245E-007  0.3272224E+04  0.7818608E-02  0.8169999E-01
          1   -1    0    0  501    0  0.00000000000E+00  0.00000000000E+00  0.18650314273E+04  0.18650314273E+04  0.00000000000E+00 0.  1.
         -1   -1    0    0    0  501 -0.00000000000E+00 -0.00000000000E+00 -0.14352906765E+04  0.14352906765E+04  0.00000000000E+00 0. -1.
         23    2    1    2    0    0 -0.14851240075E+04  0.12974987266E+03  0.23104127009E+03  0.15113300731E+04  0.91160156973E+02 0.  0.
        254    2    1    2    0    0  0.14851240075E+04 -0.12974987266E+03  0.19869948071E+03  0.17889920307E+04  0.96880475600E+03 0.  0.
        -24    2    4    4    0    0  0.55310613025E+03  0.25652075383E+03  0.43075545248E+03  0.75057826478E+03  0.78026811089E+02 0.  0.
         24    2    4    4    0    0  0.93201787726E+03 -0.38627062649E+03 -0.23205597177E+03  0.10384137659E+04  0.81184080055E+02 0.  0.
         13    1    3    3    0    0 -0.39099389423E+03  0.58860860445E+02  0.29145539296E+02  0.39647230505E+03  0.00000000000E+00 0. -1.
        -13    1    3    3    0    0 -0.10941301133E+04  0.70889012211E+02  0.20189573080E+03  0.11148577680E+04  0.00000000000E+00 0.  1.
          2    1    6    6  502    0  0.63520898618E+03 -0.22876807098E+03 -0.17654863850E+03  0.69785006139E+03  0.00000000000E+00 0. -1.
          3    1    5    5  503    0  0.44256665230E+03  0.17932190923E+03  0.36206883903E+03  0.59926240751E+03  0.00000000000E+00 0. -1.
         -4    1    5    5    0  503  0.11053947795E+03  0.77198844604E+02  0.68686613450E+02  0.15131585727E+03  0.00000000000E+00 0.  1.
         -1    1    6    6    0  502  0.29680889108E+03 -0.15750255551E+03 -0.55507333274E+02  0.34056370456E+03  0.00000000000E+00 0.  1.
<mgrwt>
<rscale>  0 0.32722238E+04</rscale>
<asrwt>0</asrwt>
<pdfrwt beam="1">  1        1 0.28692791E+00 0.32722238E+04</pdfrwt>
<pdfrwt beam="2">  1       -1 0.22081395E+00 0.32722238E+04</pdfrwt>
<totfact> 0.33257592E-01</totfact>
</mgrwt>
</event>
<event>
12    1  0.1477245E-007  0.1481984E+04  0.7818608E-02  0.8896522E-01
          2   -1    0    0  501    0  0.00000000000E+00  0.00000000000E+00  0.29579886109E+04  0.29579886109E+04  0.00000000000E+00 0. -1.
         -2   -1    0    0    0  501 -0.00000000000E+00 -0.00000000000E+00 -0.18562247133E+03  0.18562247133E+03  0.00000000000E+00 0.  1.
         23    2    1    2    0    0 -0.77508457251E+02 -0.39219596767E+02 -0.81840168368E+02  0.14998743952E+03  0.90844268605E+02 0.  0.
        254    2    1    2    0    0  0.77508457251E+02  0.39219596767E+02  0.28542063079E+04  0.29936236427E+04  0.89874530777E+03 0.  0.
        -24    2    4    4    0    0  0.12501804413E+03 -0.32360645478E+03  0.22840830369E+04  0.23116185864E+04  0.78705275417E+02 0.  0.
         24    2    4    4    0    0 -0.47509586881E+02  0.36282605155E+03  0.57012327103E+03  0.68200505636E+03  0.78679401329E+02 0.  0.
         13    1    3    3    0    0 -0.21076111311E+02 -0.13825135950E+02  0.19074585897E+02  0.31609756076E+02  0.00000000000E+00 0. -1.
        -13    1    3    3    0    0 -0.56432345940E+02 -0.25394460818E+02 -0.10091475427E+03  0.11837768344E+03  0.00000000000E+00 0.  1.
          2    1    6    6  502    0 -0.36937172050E+01  0.23742091474E+03  0.31615890401E+03  0.39539699909E+03  0.00000000000E+00 0. -1.
          3    1    5    5  503    0 -0.12352376143E+01 -0.91373947004E+02  0.57701649874E+03  0.58420780877E+03  0.00000000000E+00 0. -1.
         -4    1    5    5    0  503  0.12625328175E+03 -0.23223250778E+03  0.17070665382E+04  0.17274107776E+04  0.00000000000E+00 0.  1.
         -1    1    6    6    0  502 -0.43815869676E+02  0.12540513681E+03  0.25396436702E+03  0.28660805727E+03  0.00000000000E+00 0.  1.
<mgrwt>
<rscale>  0 0.14819840E+04</rscale>
<asrwt>0</asrwt>
<pdfrwt beam="1">  1        2 0.45507514E+00 0.14819840E+04</pdfrwt>
<pdfrwt beam="2">  1       -2 0.28557305E-01 0.14819840E+04</pdfrwt>
<totfact> 0.20257775E+01</totfact>
</mgrwt>
</event>
<event>
12    1  0.1477245E-007  0.1519034E+04  0.7818608E-02  0.8871893E-01
          1   -1    0    0  501    0  0.00000000000E+00  0.00000000000E+00  0.91190280237E+03  0.91190280237E+03  0.00000000000E+00 0. -1.
         -1   -1    0    0    0  501 -0.00000000000E+00 -0.00000000000E+00 -0.63259577187E+03  0.63259577187E+03  0.00000000000E+00 0.  1.
         23    2    1    2    0    0 -0.42691470375E+03 -0.20354249022E+03 -0.22871794110E+02  0.48216053494E+03  0.90939281312E+02 0.  0.
        254    2    1    2    0    0  0.42691470375E+03  0.20354249022E+03  0.30217882461E+03  0.10623380393E+04  0.90197802528E+03 0.  0.
        -24    2    4    4    0    0  0.66201246838E+03  0.29796572152E+03  0.12068950053E+03  0.74023168617E+03  0.79579609061E+02 0.  0.
         24    2    4    4    0    0 -0.23509776463E+03 -0.94423231302E+02  0.18148932408E+03  0.32210635313E+03  0.81408982485E+02 0.  0.
         11    1    3    3    0    0 -0.18148843235E+03 -0.12421199205E+03  0.19449150254E+02  0.22078256157E+03  0.00000000000E+00 0. -1.
        -11    1    3    3    0    0 -0.24542627140E+03 -0.79330498163E+02 -0.42320944364E+02  0.26137797337E+03  0.00000000000E+00 0.  1.
          4    1    6    6  502    0 -0.22289916940E+03 -0.79125873008E+02  0.18728955949E+03  0.30169905965E+03  0.00000000000E+00 0. -1.
          1    1    5    5  503    0  0.49710936445E+03  0.25945652060E+03  0.84641933089E+02  0.56709757815E+03  0.00000000000E+00 0. -1.
         -2    1    5    5    0  503  0.16490310393E+03  0.38509200920E+02  0.36047567440E+02  0.17313410802E+03  0.00000000000E+00 0.  1.
         -3    1    6    6    0  502 -0.12198595229E+02 -0.15297358294E+02 -0.58002354142E+01  0.20407293481E+02  0.00000000000E+00 0.  1.
<mgrwt>
<rscale>  0 0.15190337E+04</rscale>
<asrwt>0</asrwt>
<pdfrwt beam="1">  1        1 0.14029274E+00 0.15190337E+04</pdfrwt>
<pdfrwt beam="2">  1       -1 0.97322427E-01 0.15190337E+04</pdfrwt>
<totfact> 0.17429917E+01</totfact>
</mgrwt>
</event>
<event>
12    1  0.1477245E-007  0.1198082E+04  0.7818608E-02  0.9114537E-01
         -1   -1    0    0    0  501 -0.00000000000E+00  0.00000000000E+00  0.10287949974E+04  0.10287949974E+04  0.00000000000E+00 0.  1.
          1   -1    0    0  501    0  0.00000000000E+00 -0.00000000000E+00 -0.34880644497E+03  0.34880644497E+03  0.00000000000E+00 0. -1.
         23    2    1    2    0    0 -0.16923395627E+03 -0.19278611595E+03  0.19317959898E+03  0.33388550436E+03  0.91403249943E+02 0.  0.
        254    2    1    2    0    0  0.16923395627E+03  0.19278611595E+03  0.48680895341E+03  0.10437159380E+04  0.88687844916E+03 0.  0.
        -24    2    4    4    0    0 -0.61319283198E+02  0.46708242480E+03  0.61708043703E+02  0.48204905097E+03  0.81469987321E+02 0.  0.
         24    2    4    4    0    0  0.23055323947E+03 -0.27429630885E+03  0.42510090970E+03  0.56166688699E+03  0.79785006323E+02 0.  0.
         13    1    3    3    0    0  0.10399894334E+02 -0.12468882558E+02  0.21208665239E+02  0.26710266109E+02  0.00000000000E+00 0.  1.
        -13    1    3    3    0    0 -0.17963385061E+03 -0.18031723339E+03  0.17197093374E+03  0.30717523825E+03  0.00000000000E+00 0. -1.
          2    1    6    6  502    0  0.67622185392E+02 -0.65313647153E+02  0.16762093526E+03  0.19218587461E+03  0.00000000000E+00 0. -1.
          1    1    5    5  503    0  0.82482450689E+01  0.63596545040E+01  0.77654550358E+01  0.12991575887E+02  0.00000000000E+00 0. -1.
         -2    1    5    5    0  503 -0.69567528267E+02  0.46072277029E+03  0.53942588668E+02  0.46905747508E+03  0.00000000000E+00 0.  1.
         -1    1    6    6    0  502  0.16293105408E+03 -0.20898266170E+03  0.25747997445E+03  0.36948101239E+03  0.00000000000E+00 0.  1.
<mgrwt>
<rscale>  0 0.11980823E+04</rscale>
<asrwt>0</asrwt>
<pdfrwt beam="1">  1        1 0.53662530E-01 0.11980823E+04</pdfrwt>
<pdfrwt beam="2">  1       -1 0.15827615E+00 0.11980823E+04</pdfrwt>
<totfact> 0.21449411E+01</totfact>
</mgrwt>
</event>
<event>
12    1  0.1477245E-007  0.1487433E+04  0.7818608E-02  0.8892853E-01
         -2   -1    0    0    0  501 -0.00000000000E+00  0.00000000000E+00  0.86845471324E+03  0.86845471324E+03  0.00000000000E+00 0.  1.
          2   -1    0    0  501    0  0.00000000000E+00 -0.00000000000E+00 -0.63689459931E+03  0.63689459931E+03  0.00000000000E+00 0. -1.
         23    2    1    2    0    0 -0.12401704420E+02  0.36904331496E+03  0.37463213221E+03  0.53374245343E+03  0.90470998250E+02 0.  0.
        254    2    1    2    0    0  0.12401704420E+02 -0.36904331496E+03 -0.14307201827E+03  0.97160685912E+03  0.88724490175E+03 0.  0.
        -24    2    4    4    0    0  0.29207700217E+03  0.14414933730E+03 -0.18018802944E+03  0.38051213334E+03  0.78954107087E+02 0.  0.
         24    2    4    4    0    0 -0.27967529775E+03 -0.51319265226E+03  0.37116011164E+02  0.59109472578E+03  0.80189812631E+02 0.  0.
         11    1    3    3    0    0 -0.66708479688E+01  0.65605668117E-01  0.23245606632E+02  0.24183935668E+02  0.00000000000E+00 0. -1.
        -11    1    3    3    0    0 -0.57308564508E+01  0.36897770929E+03  0.35138652558E+03  0.50955851776E+03  0.00000000000E+00 0.  1.
          4    1    6    6  502    0 -0.13093670648E+03 -0.31613617535E+03  0.37292009954E+02  0.34420516625E+03  0.00000000000E+00 0. -1.
          1    1    5    5  503    0  0.23310231467E+03  0.94071608186E+02 -0.16761982103E+03  0.30213003984E+03  0.00000000000E+00 0. -1.
         -2    1    5    5    0  503  0.58974687503E+02  0.50077729116E+02 -0.12568208408E+02  0.78382093504E+02  0.00000000000E+00 0.  1.
         -3    1    6    6    0  502 -0.14873859128E+03 -0.19705647691E+03 -0.17599879041E+00  0.24688955952E+03  0.00000000000E+00 0.  1.
<mgrwt>
<rscale>  0 0.14874328E+04</rscale>
<asrwt>0</asrwt>
<pdfrwt beam="1">  1        2 0.97983785E-01 0.14874328E+04</pdfrwt>
<pdfrwt beam="2">  1       -2 0.13360842E+00 0.14874328E+04</pdfrwt>
<totfact> 0.18056024E+01</totfact>
</mgrwt>
</event>
<event>
12    1  0.1477245E-007  0.1723214E+04  0.7818608E-02  0.8748234E-01
         -2   -1    0    0    0  501 -0.00000000000E+00  0.00000000000E+00  0.59138589906E+03  0.59138589906E+03  0.00000000000E+00 0.  1.
          2   -1    0    0  501    0  0.00000000000E+00 -0.00000000000E+00 -0.12553002233E+04  0.12553002233E+04  0.00000000000E+00 0. -1.
         23    2    1    2    0    0  0.98208033006E+02 -0.39796045996E+03  0.25946595583E+03  0.49355601474E+03  0.90871403730E+02 0.  0.
        254    2    1    2    0    0 -0.98208033006E+02  0.39796045996E+03 -0.92338028006E+03  0.13531301076E+04  0.90017365052E+03 0.  0.
        -24    2    4    4    0    0 -0.40264797283E+03 -0.21320186843E+02 -0.62463919314E+03  0.74883368916E+03  0.89430598878E+02 0.  0.
         24    2    4    4    0    0  0.30443993982E+03  0.41928064680E+03 -0.29874108692E+03  0.60429641846E+03  0.86301718442E+02 0.  0.
         11    1    3    3    0    0  0.84488880286E+02 -0.15818800687E+03  0.10099447495E+03  0.20581958211E+03  0.00000000000E+00 0. -1.
        -11    1    3    3    0    0  0.13719152720E+02 -0.23977245309E+03  0.15847148088E+03  0.28773643263E+03  0.00000000000E+00 0.  1.
          2    1    6    6  502    0  0.21049938779E+03  0.34846953627E+03 -0.22021449997E+03  0.46285573991E+03  0.00000000000E+00 0. -1.
          3    1    5    5  503    0 -0.34984597170E+03 -0.45419195207E+02 -0.56097981974E+03  0.66268655137E+03  0.00000000000E+00 0. -1.
         -4    1    5    5    0  503 -0.52802001122E+02  0.24099008364E+02 -0.63659373404E+02  0.86147137786E+02  0.00000000000E+00 0.  1.
         -1    1    6    6    0  502  0.93940552030E+02  0.70811110528E+02 -0.78526586948E+02  0.14144067855E+03  0.00000000000E+00 0.  1.
<mgrwt>
<rscale>  0 0.17232143E+04</rscale>
<asrwt>0</asrwt>
<pdfrwt beam="1">  1        2 0.19312311E+00 0.17232143E+04</pdfrwt>
<pdfrwt beam="2">  1       -2 0.90982446E-01 0.17232143E+04</pdfrwt>
<totfact> 0.17192505E+01</totfact>
</mgrwt>
</event>
<event>
12    1  0.1477245E-007  0.1967201E+04  0.7818608E-02  0.8622110E-01
         -1   -1    0    0    0  501 -0.00000000000E+00  0.00000000000E+00  0.83708603405E+03  0.83708603405E+03  0.00000000000E+00 0.  1.
          1   -1    0    0  501    0  0.00000000000E+00 -0.00000000000E+00 -0.11557596885E+04  0.11557596885E+04  0.00000000000E+00 0. -1.
         23    2    1    2    0    0  0.37834899703E+00 -0.55536711801E+03  0.42120427203E+03  0.70292634912E+03  0.90882531854E+02 0.  0.
        254    2    1    2    0    0 -0.37834899703E+00  0.55536711801E+03 -0.73987792646E+03  0.12899193734E+04  0.89891037648E+03 0.  0.
        -24    2    4    4    0    0  0.13850296991E+02  0.13833454538E+03 -0.83865452392E+03  0.85379891672E+03  0.79390821415E+02 0.  0.
         24    2    4    4    0    0 -0.14228645988E+02  0.41703257263E+03  0.98776597460E+02  0.43612045670E+03  0.79533738394E+02 0.  0.
         13    1    3    3    0    0  0.24597959956E+01 -0.36315256476E+03  0.32774173275E+03  0.48918348222E+03  0.00000000000E+00 0.  1.
        -13    1    3    3    0    0 -0.20814469985E+01 -0.19221455325E+03  0.93462539276E+02  0.21374286690E+03  0.00000000000E+00 0. -1.
          2    1    6    6  502    0 -0.43332665442E+02  0.33170119083E+03  0.81841554330E+02  0.34438559770E+03  0.00000000000E+00 0. -1.
          1    1    5    5  503    0 -0.88024893206E+01  0.12140289382E+03 -0.76977721671E+03  0.77934145906E+03  0.00000000000E+00 0. -1.
         -2    1    5    5    0  503  0.22652786311E+02  0.16931651553E+02 -0.68877307208E+02  0.74457457653E+02  0.00000000000E+00 0.  1.
         -3    1    6    6    0  502  0.29104019454E+02  0.85331381806E+02  0.16935043130E+02  0.91734858997E+02  0.00000000000E+00 0.  1.
<mgrwt>
<rscale>  0 0.19672014E+04</rscale>
<asrwt>0</asrwt>
<pdfrwt beam="1">  1        1 0.17780918E+00 0.19672014E+04</pdfrwt>
<pdfrwt beam="2">  1       -1 0.12878247E+00 0.19672014E+04</pdfrwt>
<totfact> 0.55653856E+00</totfact>
</mgrwt>
</event>
<event>
12    1  0.1477245E-007  0.1872160E+04  0.7818608E-02  0.8668840E-01
          1   -1    0    0  501    0  0.00000000000E+00  0.00000000000E+00  0.17653230107E+04  0.17653230107E+04  0.00000000000E+00 0. -1.
         -1   -1    0    0    0  501 -0.00000000000E+00 -0.00000000000E+00 -0.49636553545E+03  0.49636553545E+03  0.00000000000E+00 0.  1.
         23    2    1    2    0    0 -0.45228629001E+03 -0.37350873975E+03  0.96544038504E+03  0.11332946911E+04  0.90609343106E+02 0.  0.
        254    2    1    2    0    0  0.45228629001E+03  0.37350873975E+03  0.30351709017E+03  0.11283938550E+04  0.91491988783E+03 0.  0.
        -24    2    4    4    0    0 -0.13104335212E+03  0.16993263972E+03 -0.21781560575E+03  0.31596115579E+03  0.79613765658E+02 0.  0.
         24    2    4    4    0    0  0.58332964213E+03  0.20357610003E+03  0.52133269593E+03  0.81243269920E+03  0.80885171639E+02 0.  0.
         13    1    3    3    0    0 -0.31649761526E+03 -0.21645446076E+03  0.67454620100E+03  0.77590969277E+03  0.00000000000E+00 0. -1.
        -13    1    3    3    0    0 -0.13578867474E+03 -0.15705427899E+03  0.29089418404E+03  0.35738499835E+03  0.00000000000E+00 0.  1.
          4    1    6    6  502    0  0.13269617662E+03  0.14215292843E+02  0.94828266450E+02  0.16371545425E+03  0.00000000000E+00 0. -1.
          1    1    5    5  503    0 -0.95686232380E+02  0.89820412669E+02 -0.17428210301E+03  0.21816923026E+03  0.00000000000E+00 0. -1.
         -2    1    5    5    0  503 -0.35357119739E+02  0.80112227050E+02 -0.43533502740E+02  0.97791925535E+02  0.00000000000E+00 0.  1.
         -3    1    6    6    0  502  0.45063346550E+03  0.18936080719E+03  0.42650442948E+03  0.64871724495E+03  0.00000000000E+00 0.  1.
<mgrwt>
<rscale>  0 0.18721597E+04</rscale>
<asrwt>0</asrwt>
<pdfrwt beam="1">  1        1 0.27158815E+00 0.18721597E+04</pdfrwt>
<pdfrwt beam="2">  1       -1 0.76363929E-01 0.18721597E+04</pdfrwt>
<totfact> 0.69440607E+00</totfact>
</mgrwt>
</event>
<event>
12    1  0.1477245E-007  0.1248994E+04  0.7818608E-02  0.9071021E-01
          2   -1    0    0  501    0  0.00000000000E+00  0.00000000000E+00  0.93397997323E+03  0.93397997323E+03  0.00000000000E+00 0.  1.
         -2   -1    0    0    0  501 -0.00000000000E+00 -0.00000000000E+00 -0.41756418013E+03  0.41756418013E+03  0.00000000000E+00 0. -1.
         23    2    1    2    0    0  0.27539213143E+03  0.26666033160E+02  0.31177878504E+03  0.42676450153E+03  0.91487843944E+02 0.  0.
        254    2    1    2    0    0 -0.27539213143E+03 -0.26666033160E+02  0.20463700805E+03  0.92477965183E+03  0.85836425601E+03 0.  0.
        -24    2    4    4    0    0 -0.56228351488E+02 -0.42365466291E+03  0.42250221696E+02  0.43660169386E+03  0.78683269736E+02 0.  0.
         24    2    4    4    0    0 -0.21916377994E+03  0.39698862975E+03  0.16238678636E+03  0.48817795797E+03  0.79470218797E+02 0.  0.
         13    1    3    3    0    0  0.19570618405E+02  0.89012125107E+01 -0.19242688627E+01  0.21585724439E+02  0.00000000000E+00 0. -1.
        -13    1    3    3    0    0  0.25582151302E+03  0.17764820649E+02  0.31370305390E+03  0.40517877709E+03  0.00000000000E+00 0.  1.
          2    1    6    6  502    0 -0.19334178981E+03  0.38594789183E+03  0.14614325928E+03  0.45573531257E+03  0.00000000000E+00 0. -1.
          1    1    5    5  503    0 -0.34889776435E+02 -0.32675582713E+03  0.64581539691E+02  0.33489915248E+03  0.00000000000E+00 0. -1.
         -2    1    5    5    0  503 -0.21338575052E+02 -0.96898835776E+02 -0.22331317995E+02  0.10170254138E+03  0.00000000000E+00 0.  1.
         -1    1    6    6    0  502 -0.25821990133E+02  0.11040737916E+02  0.16243527078E+02  0.32442645393E+02  0.00000000000E+00 0.  1.
<mgrwt>
<rscale>  0 0.12489941E+04</rscale>
<asrwt>0</asrwt>
<pdfrwt beam="1">  1        2 0.14368923E+00 0.12489941E+04</pdfrwt>
<pdfrwt beam="2">  1       -2 0.64240643E-01 0.12489941E+04</pdfrwt>
<totfact> 0.61283705E+01</totfact>
</mgrwt>
</event>
<event>
12    1  0.1477245E-007  0.1774270E+04  0.7818608E-02  0.8720103E-01
         -1   -1    0    0    0  501 -0.00000000000E+00  0.00000000000E+00  0.53611778642E+03  0.53611778642E+03  0.00000000000E+00 0.  1.
          1   -1    0    0  501    0  0.00000000000E+00 -0.00000000000E+00 -0.14679764041E+04  0.14679764041E+04  0.00000000000E+00 0. -1.
         23    2    1    2    0    0 -0.23564107285E+03 -0.72277238048E+02 -0.10475273189E+04  0.10798316962E+04  0.89287703753E+02 0.  0.
        254    2    1    2    0    0  0.23564107285E+03  0.72277238048E+02  0.11566870119E+03  0.92426249428E+03  0.88325035836E+03 0.  0.
        -24    2    4    4    0    0 -0.26979024704E+03 -0.85590571566E+02 -0.14569304592E+03  0.32852617225E+03  0.81181641290E+02 0.  0.
         24    2    4    4    0    0  0.50543131989E+03  0.15786780961E+03  0.26136174711E+03  0.59573632204E+03  0.78795546203E+02 0.  0.
         13    1    3    3    0    0 -0.22620831155E+03 -0.42575281552E+02 -0.94771551455E+03  0.97526793823E+03  0.00000000000E+00 0. -1.
        -13    1    3    3    0    0 -0.94327612986E+01 -0.29701956495E+02 -0.99811804341E+02  0.10456375802E+03  0.00000000000E+00 0.  1.
          2    1    6    6  502    0  0.45453182197E+03  0.12092725258E+03  0.24687965395E+03  0.53119877742E+03  0.00000000000E+00 0. -1.
          3    1    5    5  503    0 -0.22237955755E+03 -0.35166756860E+02 -0.10780704262E+03  0.24962316969E+03  0.00000000000E+00 0. -1.
         -4    1    5    5    0  503 -0.47410689489E+02 -0.50423814706E+02 -0.37886003297E+02  0.78903002561E+02  0.00000000000E+00 0.  1.
         -1    1    6    6    0  502  0.50899497922E+02  0.36940557033E+02  0.14482093160E+02  0.64537544615E+02  0.00000000000E+00 0.  1.
<mgrwt>
<rscale>  0 0.17742697E+04</rscale>
<asrwt>0</asrwt>
<pdfrwt beam="1">  1        1 0.22584252E+00 0.17742697E+04</pdfrwt>
<pdfrwt beam="2">  1       -1 0.82479660E-01 0.17742697E+04</pdfrwt>
<totfact> 0.95142524E+00</totfact>
</mgrwt>
</event>
<event>
12    1  0.1477245E-007  0.1569463E+04  0.7818608E-02  0.8839531E-01
          2   -1    0    0  501    0  0.00000000000E+00  0.00000000000E+00  0.24629672585E+04  0.24629672585E+04  0.00000000000E+00 0.  1.
         -2   -1    0    0    0  501 -0.00000000000E+00 -0.00000000000E+00 -0.25002493855E+03  0.25002493855E+03  0.00000000000E+00 0. -1.
         23    2    1    2    0    0  0.32480703068E+03  0.13917996232E+03  0.14176204683E+04  0.14638588177E+04  0.91455873741E+02 0.  0.
        254    2    1    2    0    0 -0.32480703068E+03 -0.13917996232E+03  0.79532185162E+03  0.12491333793E+04  0.89606176274E+03 0.  0.
        -24    2    4    4    0    0  0.40180321033E+02 -0.28360039181E+03 -0.61025019360E+02  0.30380138446E+03  0.80793488485E+02 0.  0.
         24    2    4    4    0    0 -0.36498735172E+03  0.14442042948E+03  0.85634687098E+03  0.94533199489E+03  0.79054346887E+02 0.  0.
         11    1    3    3    0    0  0.13388474989E+03  0.95330608090E+02  0.53094310687E+03  0.55579999444E+03  0.00000000000E+00 0. -1.
        -11    1    3    3    0    0  0.19092228080E+03  0.43849354234E+02  0.88667736146E+03  0.90805882326E+03  0.00000000000E+00 0.  1.
          4    1    6    6  502    0 -0.33680175605E+02  0.34409884693E+02  0.14798325109E+03  0.15561952640E+03  0.00000000000E+00 0. -1.
          3    1    5    5  503    0 -0.46226988457E+01 -0.20226196310E+03 -0.59667364681E+02  0.21093000135E+03  0.00000000000E+00 0. -1.
         -4    1    5    5    0  503  0.44803019879E+02 -0.81338428710E+02 -0.13576546787E+01  0.92871383115E+02  0.00000000000E+00 0.  1.
         -3    1    6    6    0  502 -0.33130717611E+03  0.11001054479E+03  0.70836361988E+03  0.78971246849E+03  0.00000000000E+00 0.  1.
<mgrwt>
<rscale>  0 0.15694626E+04</rscale>
<asrwt>0</asrwt>
<pdfrwt beam="1">  1        2 0.37891802E+00 0.15694626E+04</pdfrwt>
<pdfrwt beam="2">  1       -2 0.38465377E-01 0.15694626E+04</pdfrwt>
<totfact> 0.22488441E+01</totfact>
</mgrwt>
</event>
<event>
12    1  0.1477245E-007  0.2030069E+04  0.7818608E-02  0.8592690E-01
         -2   -1    0    0    0  501 -0.00000000000E+00  0.00000000000E+00  0.81908839502E+03  0.81908839502E+03  0.00000000000E+00 0.  1.
          2   -1    0    0  501    0  0.00000000000E+00 -0.00000000000E+00 -0.12578557568E+04  0.12578557568E+04  0.00000000000E+00 0. -1.
         23    2    1    2    0    0  0.24966947510E+03  0.51239971658E+03 -0.70672232309E+03  0.91253305850E+03  0.91497675085E+02 0.  0.
        254    2    1    2    0    0 -0.24966947510E+03 -0.51239971658E+03  0.26795496129E+03  0.11644110933E+04  0.97936970378E+03 0.  0.
        -24    2    4    4    0    0 -0.10914848890E+03 -0.58378981656E+02  0.57507388276E+03  0.59294290245E+03  0.74497092574E+02 0.  0.
         24    2    4    4    0    0 -0.14052098620E+03 -0.45402073492E+03 -0.30711892147E+03  0.57146819089E+03  0.79830357458E+02 0.  0.
         11    1    3    3    0    0 -0.49488068468E+01  0.40348659442E+02 -0.57561705820E+02  0.70468822786E+02  0.00000000000E+00 0.  1.
        -11    1    3    3    0    0  0.25461828195E+03  0.47205105714E+03 -0.64916061727E+03  0.84206423571E+03  0.00000000000E+00 0. -1.
          2    1    6    6  502    0 -0.57949275159E+02 -0.31069433609E+03 -0.21342894210E+03  0.38136728005E+03  0.00000000000E+00 0. -1.
          1    1    5    5  503    0 -0.10588109588E+03 -0.68383919390E+02  0.56294912577E+03  0.57688723777E+03  0.00000000000E+00 0. -1.
         -2    1    5    5    0  503 -0.32673930287E+01  0.10004937734E+02  0.12124756993E+02  0.16055664683E+02  0.00000000000E+00 0.  1.
         -1    1    6    6    0  502 -0.82571711038E+02 -0.14332639883E+03 -0.93689979372E+02  0.19010091084E+03  0.00000000000E+00 0.  1.
<mgrwt>
<rscale>  0 0.20300690E+04</rscale>
<asrwt>0</asrwt>
<pdfrwt beam="1">  1        2 0.19351627E+00 0.20300690E+04</pdfrwt>
<pdfrwt beam="2">  1       -2 0.12601360E+00 0.20300690E+04</pdfrwt>
<totfact> 0.76216177E+00</totfact>
</mgrwt>
</event>
<event>
12    1  0.1477245E-007  0.2604321E+04  0.7818608E-02  0.8366735E-01
          2   -1    0    0  501    0  0.00000000000E+00  0.00000000000E+00  0.16233272038E+04  0.16233272038E+04  0.00000000000E+00 0. -1.
         -2   -1    0    0    0  501 -0.00000000000E+00 -0.00000000000E+00 -0.10445347333E+04  0.10445347333E+04  0.00000000000E+00 0.  1.
         23    2    1    2    0    0 -0.35037871248E+03  0.10797970787E+04  0.36888235387E+03  0.11976195971E+04  0.97424509781E+02 0.  0.
        254    2    1    2    0    0  0.35037871248E+03 -0.10797970787E+04  0.20991011658E+03  0.14702423400E+04  0.91039733531E+03 0.  0.
        -24    2    4    4    0    0  0.56099323056E+03 -0.32034782350E+03  0.18983257927E+03  0.67804142443E+03  0.79797445648E+02 0.  0.
         24    2    4    4    0    0 -0.21061451808E+03 -0.75944925515E+03  0.20077537310E+02  0.79220091560E+03  0.77830179171E+02 0.  0.
         11    1    3    3    0    0 -0.23062872441E+03  0.68441445256E+03  0.28283544540E+03  0.77563434721E+03  0.00000000000E+00 0. -1.
        -11    1    3    3    0    0 -0.11974998807E+03  0.39538262609E+03  0.86046908477E+02  0.42198524988E+03  0.00000000000E+00 0.  1.
          2    1    6    6  502    0 -0.20019655460E+03 -0.62068367851E+03  0.46038833448E+01  0.65218715487E+03  0.00000000000E+00 0. -1.
          3    1    5    5  503    0  0.36081334581E+03 -0.17659984861E+03  0.87141024487E+02  0.41105636498E+03  0.00000000000E+00 0. -1.
         -4    1    5    5    0  503  0.20017988475E+03 -0.14374797489E+03  0.10269155479E+03  0.26698505945E+03  0.00000000000E+00 0.  1.
         -1    1    6    6    0  502 -0.10417963477E+02 -0.13876557665E+03  0.15473653965E+02  0.14001376073E+03  0.00000000000E+00 0.  1.
<mgrwt>
<rscale>  0 0.26043208E+04</rscale>
<asrwt>0</asrwt>
<pdfrwt beam="1">  1        2 0.24974265E+00 0.26043208E+04</pdfrwt>
<pdfrwt beam="2">  1       -2 0.16069765E+00 0.26043208E+04</pdfrwt>
<totfact> 0.23823389E+00</totfact>
</mgrwt>
</event>
<event>
12    1  0.1477245E-007  0.1682566E+04  0.7818608E-02  0.8771370E-01
         -2   -1    0    0    0  501 -0.00000000000E+00  0.00000000000E+00  0.24390690027E+03  0.24390690027E+03  0.00000000000E+00 0.  1.
          2   -1    0    0  501    0  0.00000000000E+00 -0.00000000000E+00 -0.29017518823E+04  0.29017518823E+04  0.00000000000E+00 0. -1.
         23    2    1    2    0    0 -0.10995292481E+03  0.10318062292E+03 -0.18048842831E+04  0.18134919047E+04  0.91704559423E+02 0.  0.
        254    2    1    2    0    0  0.10995292481E+03 -0.10318062292E+03 -0.85296069888E+03  0.13321668779E+04  0.10121219047E+04 0.  0.
        -24    2    4    4    0    0  0.18955990694E+03 -0.32894097551E+03 -0.97656557479E+03  0.10509884925E+04  0.82227524724E+02 0.  0.
         24    2    4    4    0    0 -0.79606982128E+02  0.22576035259E+03  0.12360487591E+03  0.28117838537E+03  0.80486710979E+02 0.  0.
         11    1    3    3    0    0  0.20140989830E+01  0.49272567711E+02 -0.37727750420E+03  0.38048673787E+03  0.00000000000E+00 0.  1.
        -11    1    3    3    0    0 -0.11196702379E+03  0.53908055206E+02 -0.14276067789E+04  0.14330051668E+04  0.00000000000E+00 0. -1.
          4    1    6    6  502    0 -0.13350171397E+02  0.72087952084E+02  0.79442492839E+02  0.10810184818E+03  0.00000000000E+00 0. -1.
          3    1    5    5  503    0  0.13998590165E+01 -0.12302203244E+02 -0.91601563479E+02  0.92434572762E+02  0.00000000000E+00 0. -1.
         -4    1    5    5    0  503  0.18816004792E+03 -0.31663877226E+03 -0.88496401131E+03  0.95855391974E+03  0.00000000000E+00 0.  1.
         -3    1    6    6    0  502 -0.66256810731E+02  0.15367240051E+03  0.44162383072E+02  0.17307653719E+03  0.00000000000E+00 0.  1.
<mgrwt>
<rscale>  0 0.16825663E+04</rscale>
<asrwt>0</asrwt>
<pdfrwt beam="1">  1        2 0.44642338E+00 0.16825663E+04</pdfrwt>
<pdfrwt beam="2">  1       -2 0.37524138E-01 0.16825663E+04</pdfrwt>
<totfact> 0.12846157E+01</totfact>
</mgrwt>
</event>
<event>
12    1  0.1477245E-007  0.2340186E+04  0.7818608E-02  0.8462243E-01
         -2   -1    0    0    0  501 -0.00000000000E+00  0.00000000000E+00  0.16167757201E+04  0.16167757201E+04  0.00000000000E+00 0.  1.
          2   -1    0    0  501    0  0.00000000000E+00 -0.00000000000E+00 -0.84681990913E+03  0.84681990913E+03  0.00000000000E+00 0. -1.
         23    2    1    2    0    0  0.57884851123E+03 -0.11497296955E+03 -0.51578111826E+03  0.78904683347E+03  0.90996487786E+02 0.  0.
        254    2    1    2    0    0 -0.57884851123E+03  0.11497296955E+03  0.12857369292E+04  0.16745487957E+04  0.89594075444E+03 0.  0.
        -24    2    4    4    0    0 -0.37523551049E+03 -0.34226638444E+03  0.38936575347E+03  0.64482547987E+03  0.79033178275E+02 0.  0.
         24    2    4    4    0    0 -0.20361300073E+03  0.45723935400E+03  0.89637117572E+03  0.10297233158E+04  0.79515668949E+02 0.  0.
         11    1    3    3    0    0  0.40562764251E+02  0.13096459002E+01 -0.68356368174E+02  0.79496201708E+02  0.00000000000E+00 0.  1.
        -11    1    3    3    0    0  0.53828574698E+03 -0.11628261546E+03 -0.44742475008E+03  0.70955063177E+03  0.00000000000E+00 0. -1.
          4    1    6    6  502    0 -0.54401185005E+02  0.12654763487E+03  0.32391020116E+03  0.35198240188E+03  0.00000000000E+00 0. -1.
          1    1    5    5  503    0 -0.26558074199E+02 -0.25826836631E+02  0.57728995419E+01  0.37492441434E+02  0.00000000000E+00 0. -1.
         -2    1    5    5    0  503 -0.34867743630E+03 -0.31643954781E+03  0.38359285392E+03  0.60733303844E+03  0.00000000000E+00 0.  1.
         -3    1    6    6    0  502 -0.14921181573E+03  0.33069171913E+03  0.57246097456E+03  0.67774091395E+03  0.00000000000E+00 0.  1.
<mgrwt>
<rscale>  0 0.23401862E+04</rscale>
<asrwt>0</asrwt>
<pdfrwt beam="1">  1        2 0.13027999E+00 0.23401862E+04</pdfrwt>
<pdfrwt beam="2">  1       -2 0.24873473E+00 0.23401862E+04</pdfrwt>
<totfact> 0.18857271E+00</totfact>
</mgrwt>
</event>
<event>
12    1  0.1477245E-007  0.1664047E+04  0.7818608E-02  0.8782140E-01
         -2   -1    0    0    0  501 -0.00000000000E+00  0.00000000000E+00  0.67537782369E+03  0.67537782369E+03  0.00000000000E+00 0. -1.
          2   -1    0    0  501    0  0.00000000000E+00 -0.00000000000E+00 -0.10250006751E+04  0.10250006751E+04  0.00000000000E+00 0.  1.
         23    2    1    2    0    0 -0.19161773677E+03  0.53695675517E+03  0.14633337550E+03  0.59548930075E+03  0.90300257749E+02 0.  0.
        254    2    1    2    0    0  0.19161773677E+03 -0.53695675517E+03 -0.49595622688E+03  0.11048891980E+04  0.80608166268E+03 0.  0.
        -24    2    4    4    0    0  0.19673475337E+03  0.15494443411E+03 -0.25937602545E+03  0.36925897058E+03  0.79774205931E+02 0.  0.
         24    2    4    4    0    0 -0.51170165997E+01 -0.69190118928E+03 -0.23658020143E+03  0.73563022742E+03  0.80176057535E+02 0.  0.
         13    1    3    3    0    0 -0.88302782355E+02  0.25785041627E+03  0.11642305510E+03  0.29637568440E+03  0.00000000000E+00 0. -1.
        -13    1    3    3    0    0 -0.10331495441E+03  0.27910633890E+03  0.29910320405E+02  0.29911361635E+03  0.00000000000E+00 0.  1.
          4    1    6    6  502    0 -0.14527385873E+02 -0.64133069192E+03 -0.19808433508E+03  0.67138178791E+03  0.00000000000E+00 0. -1.
          1    1    5    5  503    0  0.14339818936E+03  0.85108705364E+02 -0.21103760838E+03  0.26896729279E+03  0.00000000000E+00 0. -1.
         -2    1    5    5    0  503  0.53336564011E+02  0.69835728744E+02 -0.48338417077E+02  0.10029167780E+03  0.00000000000E+00 0.  1.
         -3    1    6    6    0  502  0.94103692731E+01 -0.50570497365E+02 -0.38495866353E+02  0.64248439513E+02  0.00000000000E+00 0.  1.
<mgrwt>
<rscale>  0 0.16640465E+04</rscale>
<asrwt>0</asrwt>
<pdfrwt beam="1">  1        2 0.15769241E+00 0.16640465E+04</pdfrwt>
<pdfrwt beam="2">  1       -2 0.10390428E+00 0.16640465E+04</pdfrwt>
<totfact> 0.17465999E+01</totfact>
</mgrwt>
</event>
<event>
12    1  0.1477245E-007  0.1867464E+04  0.7818608E-02  0.8671223E-01
          2   -1    0    0  501    0  0.00000000000E+00  0.00000000000E+00  0.36130311421E+04  0.36130311421E+04  0.00000000000E+00 0.  1.
         -2   -1    0    0    0  501 -0.00000000000E+00 -0.00000000000E+00 -0.24130864869E+03  0.24130864869E+03  0.00000000000E+00 0. -1.
         23    2    1    2    0    0 -0.61344173304E+03 -0.25605618424E+03  0.10191440250E+04  0.12202712405E+04  0.92367892189E+02 0.  0.
        254    2    1    2    0    0  0.61344173304E+03  0.25605618424E+03  0.23525784684E+04  0.26340685503E+04  0.98072225836E+03 0.  0.
        -24    2    4    4    0    0 -0.37692178370E+02  0.43840267842E+03  0.56104973926E+03  0.71753483531E+03  0.80385453934E+02 0.  0.
         24    2    4    4    0    0  0.65113391141E+03 -0.18234649418E+03  0.17915287292E+04  0.19165337150E+04  0.79376813823E+02 0.  0.
         11    1    3    3    0    0 -0.27563427009E+03 -0.68486522000E+02  0.40400165912E+03  0.49384410001E+03  0.00000000000E+00 0. -1.
        -11    1    3    3    0    0 -0.33780746295E+03 -0.18756966224E+03  0.61514236587E+03  0.72642714054E+03  0.00000000000E+00 0.  1.
          2    1    6    6  502    0  0.62528188536E+03 -0.18719009262E+03  0.16902306688E+04  0.18118767289E+04  0.00000000000E+00 0. -1.
          1    1    5    5  503    0 -0.49043956259E+02  0.40163029783E+03  0.47979322388E+03  0.62762548025E+03  0.00000000000E+00 0. -1.
         -2    1    5    5    0  503  0.11351777889E+02  0.36772380595E+02  0.81256515379E+02  0.89909355061E+02  0.00000000000E+00 0.  1.
         -3    1    6    6    0  502  0.25852026055E+02  0.48435984407E+01  0.10129806041E+03  0.10465698610E+03  0.00000000000E+00 0.  1.
<mgrwt>
<rscale>  0 0.18674642E+04</rscale>
<asrwt>0</asrwt>
<pdfrwt beam="1">  1        2 0.55585090E+00 0.18674642E+04</pdfrwt>
<pdfrwt beam="2">  1       -2 0.37124410E-01 0.18674642E+04</pdfrwt>
<totfact> 0.43755261E+00</totfact>
</mgrwt>
</event>
<event>
12    1  0.1477245E-007  0.1692515E+04  0.7818608E-02  0.8765645E-01
          2   -1    0    0  501    0  0.00000000000E+00  0.00000000000E+00  0.11214956722E+04  0.11214956722E+04  0.00000000000E+00 0. -1.
         -2   -1    0    0    0  501 -0.00000000000E+00 -0.00000000000E+00 -0.63856866091E+03  0.63856866091E+03  0.00000000000E+00 0.  1.
         23    2    1    2    0    0 -0.49925243225E+03  0.31603727494E+03  0.63939458512E+02  0.60123610743E+03  0.90906832908E+02 0.  0.
        254    2    1    2    0    0  0.49925243225E+03 -0.31603727494E+03  0.41898755275E+03  0.11588282257E+04  0.90454393866E+03 0.  0.
        -24    2    4    4    0    0  0.44802974850E+03  0.96079128375E+02  0.54658046894E+03  0.71762487276E+03  0.79204763297E+02 0.  0.
         24    2    4    4    0    0  0.51222683755E+02 -0.41211640331E+03 -0.12759291619E+03  0.44120335290E+03  0.76920433813E+02 0.  0.
         11    1    3    3    0    0 -0.18939477343E+03  0.12689767371E+03  0.68961091934E+02  0.23817857166E+03  0.00000000000E+00 0. -1.
        -11    1    3    3    0    0 -0.30985765882E+03  0.18913960122E+03 -0.50216334223E+01  0.36305753578E+03  0.00000000000E+00 0.  1.
          2    1    6    6  502    0 -0.15368199352E+02 -0.14491869654E+03 -0.60408266225E+02  0.15775540811E+03  0.00000000000E+00 0. -1.
          3    1    5    5  503    0  0.41848001579E+03  0.68983741844E+02  0.48680604395E+03  0.64565037341E+03  0.00000000000E+00 0. -1.
         -4    1    5    5    0  503  0.29549732711E+02  0.27095386531E+02  0.59774424989E+02  0.71974499354E+02  0.00000000000E+00 0.  1.
         -1    1    6    6    0  502  0.66590883106E+02 -0.26719770677E+03 -0.67184649964E+02  0.28344794479E+03  0.00000000000E+00 0.  1.
<mgrwt>
<rscale>  0 0.16925153E+04</rscale>
<asrwt>0</asrwt>
<pdfrwt beam="1">  1        2 0.17253780E+00 0.16925153E+04</pdfrwt>
<pdfrwt beam="2">  1       -2 0.98241332E-01 0.16925153E+04</pdfrwt>
<totfact> 0.17334498E+01</totfact>
</mgrwt>
</event>
<event>
12    1  0.1477245E-007  0.1235380E+04  0.7818608E-02  0.9082440E-01
         -1   -1    0    0    0  501 -0.00000000000E+00  0.00000000000E+00  0.31196834455E+03  0.31196834455E+03  0.00000000000E+00 0.  1.
          1   -1    0    0  501    0  0.00000000000E+00 -0.00000000000E+00 -0.12230120490E+04  0.12230120490E+04  0.00000000000E+00 0. -1.
         23    2    1    2    0    0 -0.62650301678E+02  0.14695202717E+03 -0.50176653197E+03  0.53420516020E+03  0.89919641840E+02 0.  0.
        254    2    1    2    0    0  0.62650301678E+02 -0.14695202717E+03 -0.40927717249E+03  0.10007752334E+04  0.89917923975E+03 0.  0.
        -24    2    4    4    0    0 -0.19594193566E+03 -0.34978699352E+03 -0.50223662113E+03  0.64778775326E+03  0.81505623647E+02 0.  0.
         24    2    4    4    0    0  0.25859223734E+03  0.20283496635E+03  0.92959448634E+02  0.35298748010E+03  0.89144451496E+02 0.  0.
         13    1    3    3    0    0 -0.26959564183E+02  0.43128814939E+02 -0.30204840703E+03  0.30630075575E+03  0.00000000000E+00 0.  1.
        -13    1    3    3    0    0 -0.35690737495E+02  0.10382321223E+03 -0.19971812494E+03  0.22790440445E+03  0.00000000000E+00 0. -1.
          2    1    6    6  502    0  0.20722000442E+03  0.12600953572E+03  0.95201283581E+02  0.26054139349E+03  0.00000000000E+00 0. -1.
          1    1    5    5  503    0 -0.81451139877E+02 -0.10554995561E+03 -0.22101833854E+03  0.25811661567E+03  0.00000000000E+00 0. -1.
         -2    1    5    5    0  503 -0.11449079578E+03 -0.24423703791E+03 -0.28121828259E+03  0.38967113759E+03  0.00000000000E+00 0.  1.
         -1    1    6    6    0  502  0.51372232912E+02  0.76825430628E+02 -0.22418349473E+01  0.92446086610E+02  0.00000000000E+00 0.  1.
<mgrwt>
<rscale>  0 0.12353802E+04</rscale>
<asrwt>0</asrwt>
<pdfrwt beam="1">  1        1 0.18815570E+00 0.12353802E+04</pdfrwt>
<pdfrwt beam="2">  1       -1 0.47995130E-01 0.12353802E+04</pdfrwt>
<totfact> 0.44014910E+01</totfact>
</mgrwt>
</event>
<event>
12    1  0.1477245E-007  0.1828079E+04  0.7818608E-02  0.8691508E-01
          2   -1    0    0  501    0  0.00000000000E+00  0.00000000000E+00  0.67755477721E+03  0.67755477721E+03  0.00000000000E+00 0. -1.
         -2   -1    0    0    0  501 -0.00000000000E+00 -0.00000000000E+00 -0.12330632104E+04  0.12330632104E+04  0.00000000000E+00 0.  1.
         23    2    1    2    0    0  0.18189376259E+03  0.52074072967E+03 -0.63571575788E+03  0.84689284315E+03  0.94003800751E+02 0.  0.
        254    2    1    2    0    0 -0.18189376259E+03 -0.52074072967E+03  0.80207324659E+02  0.10637251445E+04  0.90599211900E+03 0.  0.
        -24    2    4    4    0    0 -0.44402783145E+03  0.20139270379E+02  0.75185687078E+02  0.45767591578E+03  0.79044614158E+02 0.  0.
         24    2    4    4    0    0  0.26213406886E+03 -0.54088000005E+03  0.50216375809E+01  0.60604922872E+03  0.77491975527E+02 0.  0.
         13    1    3    3    0    0  0.15869024062E+03  0.45485192068E+03 -0.50035763747E+03  0.69457226232E+03  0.00000000000E+00 0. -1.
        -13    1    3    3    0    0  0.23203521974E+02  0.65888808985E+02 -0.13535812042E+03  0.15232058083E+03  0.00000000000E+00 0.  1.
          4    1    6    6  502    0  0.22142812368E+03 -0.38296311622E+03 -0.80921804455E+01  0.44244394642E+03  0.00000000000E+00 0. -1.
          1    1    5    5  503    0 -0.40011121678E+03  0.34552676029E+01  0.86465033833E+02  0.40936185307E+03  0.00000000000E+00 0. -1.
         -2    1    5    5    0  503 -0.43916614669E+02  0.16684002777E+02 -0.11279346755E+02  0.48314062713E+02  0.00000000000E+00 0.  1.
         -3    1    6    6    0  502  0.40705945187E+02 -0.15791688383E+03  0.13113818026E+02  0.16360528229E+03  0.00000000000E+00 0.  1.
<mgrwt>
<rscale>  0 0.18280786E+04</rscale>
<asrwt>0</asrwt>
<pdfrwt beam="1">  1        2 0.10423920E+00 0.18280786E+04</pdfrwt>
<pdfrwt beam="2">  1       -2 0.18970203E+00 0.18280786E+04</pdfrwt>
<totfact> 0.62574258E+00</totfact>
</mgrwt>
</event>
<event>
12    1  0.1477245E-007  0.2500117E+04  0.7818608E-02  0.8402944E-01
          2   -1    0    0  501    0  0.00000000000E+00  0.00000000000E+00  0.25448426543E+04  0.25448426543E+04  0.00000000000E+00 0. -1.
         -2   -1    0    0    0  501 -0.00000000000E+00 -0.00000000000E+00 -0.61404441999E+03  0.61404441999E+03  0.00000000000E+00 0.  1.
         23    2    1    2    0    0  0.98002724550E+03 -0.30108552383E+03  0.12815034968E+04  0.16443517989E+04  0.10264371270E+03 0.  0.
        254    2    1    2    0    0 -0.98002724550E+03  0.30108552383E+03  0.64929473752E+03  0.15145352754E+04  0.90616088503E+03 0.  0.
        -24    2    4    4    0    0 -0.72250884810E+03 -0.21817811728E+03  0.50598030979E+03  0.91225945889E+03  0.81120404289E+02 0.  0.
         24    2    4    4    0    0 -0.25751839740E+03  0.51926364112E+03  0.14331442772E+03  0.60227581647E+03  0.79035940715E+02 0.  0.
         11    1    3    3    0    0  0.50016219757E+03 -0.14513578719E+03  0.56993705018E+03  0.77204589356E+03  0.00000000000E+00 0.  1.
        -11    1    3    3    0    0  0.47986504793E+03 -0.15594973664E+03  0.71156644662E+03  0.87230590537E+03  0.00000000000E+00 0. -1.
          4    1    6    6  502    0 -0.10097155586E+03  0.28442403318E+03  0.57121612977E+02  0.30717285754E+03  0.00000000000E+00 0. -1.
          3    1    5    5  503    0 -0.65873308804E+03 -0.18147816291E+03  0.43481414429E+03  0.80989316886E+03  0.00000000000E+00 0. -1.
         -4    1    5    5    0  503 -0.63775760064E+02 -0.36699954371E+02  0.71166165504E+02  0.10236629003E+03  0.00000000000E+00 0.  1.
         -3    1    6    6    0  502 -0.15654684154E+03  0.23483960794E+03  0.86192814746E+02  0.29510295893E+03  0.00000000000E+00 0.  1.
<mgrwt>
<rscale>  0 0.25001171E+04</rscale>
<asrwt>0</asrwt>
<pdfrwt beam="1">  1        2 0.39151425E+00 0.25001171E+04</pdfrwt>
<pdfrwt beam="2">  1       -2 0.94468374E-01 0.25001171E+04</pdfrwt>
<totfact> 0.27604331E+00</totfact>
</mgrwt>
</event>
<event>
12    1  0.1477245E-007  0.1829876E+04  0.7818608E-02  0.8690571E-01
          1   -1    0    0  501    0  0.00000000000E+00  0.00000000000E+00  0.13107563076E+04  0.13107563076E+04  0.00000000000E+00 0. -1.
         -1   -1    0    0    0  501 -0.00000000000E+00 -0.00000000000E+00 -0.63864774730E+03  0.63864774730E+03  0.00000000000E+00 0.  1.
         23    2    1    2    0    0 -0.23410167121E+03 -0.18778551950E+03  0.91531017552E+03  0.96750907968E+03  0.90631716567E+02 0.  0.
        254    2    1    2    0    0  0.23410167121E+03  0.18778551950E+03 -0.24320161524E+03  0.98189497520E+03  0.90272017972E+03 0.  0.
        -24    2    4    4    0    0 -0.41844912761E+02 -0.33301121278E+03 -0.15343882141E+02  0.34514218901E+03  0.78995135016E+02 0.  0.
         24    2    4    4    0    0  0.27594658398E+03  0.52079673228E+03 -0.22785773310E+03  0.63675278618E+03  0.78480638513E+02 0.  0.
         11    1    3    3    0    0 -0.19609448198E+03 -0.10915074156E+03  0.70236876164E+03  0.73735256667E+03  0.00000000000E+00 0. -1.
        -11    1    3    3    0    0 -0.38007189235E+02 -0.78634777935E+02  0.21294141389E+03  0.23015651301E+03  0.00000000000E+00 0.  1.
          2    1    6    6  502    0  0.92154319735E+01  0.58641264955E+00 -0.78462832193E+01  0.12117434820E+02  0.00000000000E+00 0. -1.
          1    1    5    5  503    0 -0.19318959799E+02 -0.12039141110E+02 -0.44638795670E+01  0.23196752945E+02  0.00000000000E+00 0. -1.
         -2    1    5    5    0  503 -0.22525952961E+02 -0.32097207167E+03 -0.10880002574E+02  0.32194543607E+03  0.00000000000E+00 0.  1.
         -1    1    6    6    0  502  0.26673115200E+03  0.52021031963E+03 -0.22001144988E+03  0.62463535136E+03  0.00000000000E+00 0.  1.
<mgrwt>
<rscale>  0 0.18298760E+04</rscale>
<asrwt>0</asrwt>
<pdfrwt beam="1">  1        1 0.20165482E+00 0.18298760E+04</pdfrwt>
<pdfrwt beam="2">  1       -1 0.98253500E-01 0.18298760E+04</pdfrwt>
<totfact> 0.82997607E+00</totfact>
</mgrwt>
</event>
<event>
12    1  0.1477245E-007  0.2183773E+04  0.7818608E-02  0.8525212E-01
         -1   -1    0    0    0  501 -0.00000000000E+00  0.00000000000E+00  0.12037651422E+04  0.12037651422E+04  0.00000000000E+00 0.  1.
          1   -1    0    0  501    0  0.00000000000E+00 -0.00000000000E+00 -0.99040634680E+03  0.99040634680E+03  0.00000000000E+00 0. -1.
         23    2    1    2    0    0  0.81333981939E+03 -0.12612362898E+03  0.50676960606E+03  0.97084483241E+03  0.91079214963E+02 0.  0.
        254    2    1    2    0    0 -0.81333981939E+03  0.12612362898E+03 -0.29341081063E+03  0.12233266566E+04  0.85615966585E+03 0.  0.
        -24    2    4    4    0    0 -0.52768321641E+03  0.44454149474E+03  0.67699921339E+01  0.69472448382E+03  0.80805681808E+02 0.  0.
         24    2    4    4    0    0 -0.28565660298E+03 -0.31841786576E+03 -0.30018080276E+03  0.52860217280E+03  0.79511701550E+02 0.  0.
         11    1    3    3    0    0  0.32826192745E+03 -0.16139161583E+02  0.16857713673E+03  0.36937056810E+03  0.00000000000E+00 0. -1.
        -11    1    3    3    0    0  0.48507789194E+03 -0.10998446739E+03  0.33819246933E+03  0.60147426431E+03  0.00000000000E+00 0.  1.
          2    1    6    6  502    0 -0.13155651971E+03 -0.20421939232E+03 -0.15685738502E+03  0.28916589929E+03  0.00000000000E+00 0. -1.
          3    1    5    5  503    0 -0.40812199629E+03  0.38422128363E+03 -0.18861796662E+01  0.56052931799E+03  0.00000000000E+00 0. -1.
         -4    1    5    5    0  503 -0.11956122012E+03  0.60320211104E+02  0.86561718001E+01  0.13419516583E+03  0.00000000000E+00 0.  1.
         -1    1    6    6    0  502 -0.15410008327E+03 -0.11419847344E+03 -0.14332341775E+03  0.23943627352E+03  0.00000000000E+00 0.  1.
<mgrwt>
<rscale>  0 0.21837735E+04</rscale>
<asrwt>0</asrwt>
<pdfrwt beam="1">  1        1 0.15237021E+00 0.21837735E+04</pdfrwt>
<pdfrwt beam="2">  1       -1 0.18519464E+00 0.21837735E+04</pdfrwt>
<totfact> 0.26856230E+00</totfact>
</mgrwt>
</event>
<event>
12    1  0.1477245E-007  0.1349448E+04  0.7818608E-02  0.8991246E-01
         -2   -1    0    0    0  501 -0.00000000000E+00  0.00000000000E+00  0.13958629793E+03  0.13958629793E+03  0.00000000000E+00 0. -1.
          2   -1    0    0  501    0  0.00000000000E+00 -0.00000000000E+00 -0.32614424065E+04  0.32614424065E+04  0.00000000000E+00 0.  1.
         23    2    1    2    0    0 -0.14153746479E+03 -0.21383040478E+03 -0.15148993213E+04  0.15391605061E+04  0.91317107414E+02 0.  0.
        254    2    1    2    0    0  0.14153746479E+03  0.21383040478E+03 -0.16069567873E+04  0.18618681983E+04  0.90470258961E+03 0.  0.
        -24    2    4    4    0    0 -0.30887442567E+03  0.11540480666E+03 -0.11823385225E+04  0.12300380534E+04  0.79671518641E+02 0.  0.
         24    2    4    4    0    0  0.45041189047E+03  0.98425598118E+02 -0.42461826476E+03  0.63183014483E+03  0.79688090140E+02 0.  0.
         13    1    3    3    0    0 -0.32165913159E+02 -0.15766699530E+00 -0.17913767175E+03  0.18200268203E+03  0.00000000000E+00 0. -1.
        -13    1    3    3    0    0 -0.10937155163E+03 -0.21367273779E+03 -0.13357616495E+04  0.13571578241E+04  0.00000000000E+00 0.  1.
          4    1    6    6  502    0  0.21701742463E+03  0.73510837384E+02 -0.16843978261E+03  0.28438067124E+03  0.00000000000E+00 0. -1.
          1    1    5    5  503    0 -0.89274699797E+02  0.21513892725E+00 -0.37463818014E+03  0.38512826997E+03  0.00000000000E+00 0. -1.
         -2    1    5    5    0  503 -0.21959972588E+03  0.11518966774E+03 -0.80770034237E+03  0.84490978348E+03  0.00000000000E+00 0.  1.
         -3    1    6    6    0  502  0.23339446584E+03  0.24914760733E+02 -0.25617848215E+03  0.34744947360E+03  0.00000000000E+00 0.  1.
<mgrwt>
<rscale>  0 0.13494483E+04</rscale>
<asrwt>0</asrwt>
<pdfrwt beam="1">  1        2 0.50176033E+00 0.13494483E+04</pdfrwt>
<pdfrwt beam="2">  1       -2 0.21474817E-01 0.13494483E+04</pdfrwt>
<totfact> 0.22071735E+01</totfact>
</mgrwt>
</event>
<event>
12    1  0.1477245E-007  0.1021926E+04  0.7818608E-02  0.9284819E-01
          2   -1    0    0  501    0  0.00000000000E+00  0.00000000000E+00  0.99860324361E+03  0.99860324361E+03  0.00000000000E+00 0. -1.
         -2   -1    0    0    0  501 -0.00000000000E+00 -0.00000000000E+00 -0.26144825759E+03  0.26144825759E+03  0.00000000000E+00 0.  1.
         23    2    1    2    0    0  0.41315860236E+02 -0.16073603955E+02  0.15297969971E+03  0.18308357219E+03  0.90285352250E+02 0.  0.
        254    2    1    2    0    0 -0.41315860236E+02  0.16073603955E+02  0.58417528631E+03  0.10769679290E+04  0.90367792599E+03 0.  0.
        -24    2    4    4    0    0  0.28131490014E+03 -0.21280596390E+03 -0.56426891911E+01  0.36144877817E+03  0.78669739974E+02 0.  0.
         24    2    4    4    0    0 -0.32263076038E+03  0.22887956785E+03  0.58981797550E+03  0.71551915084E+03  0.87212079855E+02 0.  0.
         11    1    3    3    0    0  0.61612022988E+02 -0.13013308237E+02  0.14955843552E+03  0.16227480767E+03  0.00000000000E+00 0. -1.
        -11    1    3    3    0    0 -0.20296162752E+02 -0.30602957179E+01  0.34212641919E+01  0.20808764524E+02  0.00000000000E+00 0.  1.
          4    1    6    6  502    0 -0.28764053107E+03  0.21619819612E+03  0.48229209331E+03  0.60173449160E+03  0.00000000000E+00 0. -1.
          3    1    5    5  503    0  0.17386776664E+03 -0.13504797059E+03 -0.41553080196E+02  0.22404154326E+03  0.00000000000E+00 0. -1.
         -4    1    5    5    0  503  0.10744713350E+03 -0.77757993307E+02  0.35910391005E+02  0.13740723490E+03  0.00000000000E+00 0.  1.
         -3    1    6    6    0  502 -0.34990229309E+02  0.12681371735E+02  0.10752588220E+03  0.11378465924E+03  0.00000000000E+00 0.  1.
<mgrwt>
<rscale>  0 0.10219258E+04</rscale>
<asrwt>0</asrwt>
<pdfrwt beam="1">  1        2 0.15363127E+00 0.10219258E+04</pdfrwt>
<pdfrwt beam="2">  1       -2 0.40222809E-01 0.10219258E+04</pdfrwt>
<totfact> 0.14713102E+02</totfact>
</mgrwt>
</event>
<event>
12    1  0.1477245E-007  0.2168373E+04  0.7818608E-02  0.8531708E-01
          1   -1    0    0  501    0  0.00000000000E+00  0.00000000000E+00  0.74036092458E+03  0.74036092458E+03  0.00000000000E+00 0. -1.
         -1   -1    0    0    0  501 -0.00000000000E+00 -0.00000000000E+00 -0.15876853999E+04  0.15876853999E+04  0.00000000000E+00 0.  1.
         23    2    1    2    0    0 -0.48432376176E+03  0.48559196596E+03 -0.96457836509E+03  0.11870147156E+04  0.90683234514E+02 0.  0.
        254    2    1    2    0    0  0.48432376176E+03 -0.48559196596E+03  0.11725388982E+03  0.11410316088E+04  0.90434263090E+03 0.  0.
        -24    2    4    4    0    0  0.19863152865E+03 -0.59449938356E+03 -0.22943885448E+03  0.67211532284E+03  0.78821431191E+02 0.  0.
         24    2    4    4    0    0  0.28569223312E+03  0.10890741760E+03  0.34669274430E+03  0.46891628600E+03  0.78776561535E+02 0.  0.
         11    1    3    3    0    0 -0.43530579460E+03  0.44263261956E+03 -0.91211723978E+03  0.11033461061E+04  0.00000000000E+00 0.  1.
        -11    1    3    3    0    0 -0.49017967167E+02  0.42959346404E+02 -0.52461125310E+02  0.83668609511E+02  0.00000000000E+00 0. -1.
          4    1    6    6  502    0  0.25330666903E+03  0.72133388083E+02  0.31481487986E+03  0.41045816209E+03  0.00000000000E+00 0. -1.
          1    1    5    5  503    0  0.76384830492E+02 -0.22554294029E+03 -0.46885201471E+02  0.24269833613E+03  0.00000000000E+00 0. -1.
         -4    1    5    5    0  503  0.12224669815E+03 -0.36895644327E+03 -0.18255365301E+03  0.42941698671E+03  0.00000000000E+00 0.  1.
         -3    1    6    6    0  502  0.32385564093E+02  0.36774029519E+02  0.31877864445E+02  0.58458123903E+02  0.00000000000E+00 0.  1.
<mgrwt>
<rscale>  0 0.21683729E+04</rscale>
<asrwt>0</asrwt>
<pdfrwt beam="1">  1        1 0.11390168E+00 0.21683729E+04</pdfrwt>
<pdfrwt beam="2">  1       -1 0.24425929E+00 0.21683729E+04</pdfrwt>
<totfact> 0.17368028E+00</totfact>
</mgrwt>
</event>
<event>
12    1  0.1477245E-007  0.1652893E+04  0.7818608E-02  0.8788697E-01
         -1   -1    0    0    0  501 -0.00000000000E+00  0.00000000000E+00  0.62802477048E+03  0.62802477048E+03  0.00000000000E+00 0.  1.
          1   -1    0    0  501    0  0.00000000000E+00 -0.00000000000E+00 -0.10875592573E+04  0.10875592573E+04  0.00000000000E+00 0. -1.
         23    2    1    2    0    0 -0.51708657425E+03 -0.22608487408E+03 -0.28945893052E+02  0.56984371959E+03  0.73424140903E+02 0.  0.
        254    2    1    2    0    0  0.51708657425E+03  0.22608487408E+03 -0.43058859376E+03  0.11457403082E+04  0.89934499563E+03 0.  0.
        -24    2    4    4    0    0  0.34331881550E+03 -0.27844264159E+03  0.10009309124E+02  0.44919311475E+03  0.79222183359E+02 0.  0.
         24    2    4    4    0    0  0.17376775875E+03  0.50452751566E+03 -0.44059790289E+03  0.69654719344E+03  0.79424382972E+02 0.  0.
         13    1    3    3    0    0 -0.47440300020E+03 -0.18858645489E+03 -0.39568055720E+02  0.51204363935E+03  0.00000000000E+00 0.  1.
        -13    1    3    3    0    0 -0.42683574052E+02 -0.37498419182E+02  0.10622162668E+02  0.57800080231E+02  0.00000000000E+00 0. -1.
          4    1    6    6  502    0  0.62735280646E+02  0.99559135875E+02 -0.12151790020E+03  0.16915772830E+03  0.00000000000E+00 0. -1.
          1    1    5    5  503    0  0.56088821230E+01 -0.22447896013E+02  0.10532473315E+02  0.25422442609E+02  0.00000000000E+00 0. -1.
         -2    1    5    5    0  503  0.33770993338E+03 -0.25599474558E+03 -0.52316419117E+00  0.42377067214E+03  0.00000000000E+00 0.  1.
         -3    1    6    6    0  502  0.11103247811E+03  0.40496837979E+03 -0.31908000269E+03  0.52738946514E+03  0.00000000000E+00 0.  1.
<mgrwt>
<rscale>  0 0.16528934E+04</rscale>
<asrwt>0</asrwt>
<pdfrwt beam="1">  1        1 0.16731681E+00 0.16528934E+04</pdfrwt>
<pdfrwt beam="2">  1       -1 0.96619197E-01 0.16528934E+04</pdfrwt>
<totfact> 0.12760148E+01</totfact>
</mgrwt>
</event>
<event>
12    1  0.1477245E-007  0.1213975E+04  0.7818608E-02  0.9100711E-01
          2   -1    0    0  501    0  0.00000000000E+00  0.00000000000E+00  0.61021060087E+03  0.61021060087E+03  0.00000000000E+00 0. -1.
         -2   -1    0    0    0  501 -0.00000000000E+00 -0.00000000000E+00 -0.60378138076E+03  0.60378138076E+03  0.00000000000E+00 0.  1.
         23    2    1    2    0    0  0.16931940960E+02  0.50903757659E+02 -0.26032205349E+03  0.28079200368E+03  0.90546643391E+02 0.  0.
        254    2    1    2    0    0 -0.16931940960E+02 -0.50903757659E+02  0.26675127359E+03  0.93319997795E+03  0.89265226920E+03 0.  0.
        -24    2    4    4    0    0  0.94811583334E+02 -0.44006474666E+03  0.24879383702E+03  0.52034649363E+03  0.78840868249E+02 0.  0.
         24    2    4    4    0    0 -0.11174352429E+03  0.38916098900E+03  0.17957436574E+02  0.41285348432E+03  0.78693325040E+02 0.  0.
         13    1    3    3    0    0  0.22002313075E+02  0.60952609434E+02 -0.26156058994E+03  0.26946848533E+03  0.00000000000E+00 0.  1.
        -13    1    3    3    0    0 -0.50703721154E+01 -0.10048851774E+02  0.12385364454E+01  0.11323518353E+02  0.00000000000E+00 0. -1.
          2    1    6    6  502    0 -0.11295042160E+03  0.32394995622E+03 -0.66577016632E+01  0.34314092858E+03  0.00000000000E+00 0. -1.
          3    1    5    5  503    0  0.97350551782E+02 -0.44034315356E+03  0.25171314225E+03  0.51646754864E+03  0.00000000000E+00 0. -1.
         -4    1    5    5    0  503 -0.25389684480E+01  0.27840689665E+00 -0.29193052330E+01  0.38789449885E+01  0.00000000000E+00 0.  1.
         -1    1    6    6    0  502  0.12068973101E+01  0.65211032778E+02  0.24615138237E+02  0.69712555738E+02  0.00000000000E+00 0.  1.
<mgrwt>
<rscale>  0 0.12139750E+04</rscale>
<asrwt>0</asrwt>
<pdfrwt beam="1">  1        2 0.93878555E-01 0.12139750E+04</pdfrwt>
<pdfrwt beam="2">  1       -2 0.92889443E-01 0.12139750E+04</pdfrwt>
<totfact> 0.47065749E+01</totfact>
</mgrwt>
</event>
<event>
12    1  0.1477245E-007  0.1629158E+04  0.7818608E-02  0.8802832E-01
         -1   -1    0    0    0  501 -0.00000000000E+00  0.00000000000E+00  0.40586860985E+03  0.40586860985E+03  0.00000000000E+00 0.  1.
          1   -1    0    0  501    0  0.00000000000E+00 -0.00000000000E+00 -0.16348623156E+04  0.16348623156E+04  0.00000000000E+00 0. -1.
         23    2    1    2    0    0  0.87010531230E+01  0.31805290966E+03  0.14236669861E+03  0.36046185810E+03  0.91821090208E+02 0.  0.
        254    2    1    2    0    0 -0.87010531230E+01 -0.31805290966E+03 -0.13713604044E+04  0.16802690674E+04  0.91730116014E+03 0.  0.
        -24    2    4    4    0    0 -0.22062286250E+03 -0.54000179090E+03 -0.57479655851E+03  0.82281490207E+03  0.79730155861E+02 0.  0.
         24    2    4    4    0    0  0.21192180938E+03  0.22194888125E+03 -0.79656384585E+03  0.85745416528E+03  0.80879699995E+02 0.  0.
         11    1    3    3    0    0  0.45431356476E+01 -0.48148662130E+00 -0.72071704182E+01  0.85331832463E+01  0.00000000000E+00 0. -1.
        -11    1    3    3    0    0  0.41579174754E+01  0.31853439628E+03  0.14957386903E+03  0.35192867486E+03  0.00000000000E+00 0.  1.
          4    1    6    6  502    0  0.99746797639E+02  0.11397245419E+03 -0.50093367036E+03  0.52332942403E+03  0.00000000000E+00 0. -1.
          3    1    5    5  503    0 -0.16195102045E+03 -0.47155233635E+03 -0.48882151082E+03  0.69823793107E+03  0.00000000000E+00 0. -1.
         -4    1    5    5    0  503 -0.58671842048E+02 -0.68449454549E+02 -0.85975047688E+02  0.12457697100E+03  0.00000000000E+00 0.  1.
         -3    1    6    6    0  502  0.11217501174E+03  0.10797642706E+03 -0.29563017548E+03  0.33412474125E+03  0.00000000000E+00 0.  1.
<mgrwt>
<rscale>  0 0.16291584E+04</rscale>
<asrwt>0</asrwt>
<pdfrwt beam="1">  1        1 0.25151728E+00 0.16291584E+04</pdfrwt>
<pdfrwt beam="2">  1       -1 0.62441324E-01 0.16291584E+04</pdfrwt>
<totfact> 0.13150363E+01</totfact>
</mgrwt>
</event>
<event>
12    1  0.1477245E-007  0.2301913E+04  0.7818608E-02  0.8477167E-01
          1   -1    0    0  501    0  0.00000000000E+00  0.00000000000E+00  0.22387744886E+04  0.22387744886E+04  0.00000000000E+00 0. -1.
         -1   -1    0    0    0  501 -0.00000000000E+00 -0.00000000000E+00 -0.59170816485E+03  0.59170816485E+03  0.00000000000E+00 0.  1.
         23    2    1    2    0    0 -0.34269723379E+03  0.84451053319E+03  0.27961182168E+03  0.95684826484E+03  0.82075552860E+02 0.  0.
        254    2    1    2    0    0  0.34269723379E+03 -0.84451053319E+03  0.13674545021E+04  0.18736343886E+04  0.89996365051E+03 0.  0.
        -24    2    4    4    0    0 -0.42322919989E+02 -0.82591175043E+03  0.64872252344E+03  0.10539836823E+04  0.78225578509E+02 0.  0.
         24    2    4    4    0    0  0.38502015378E+03 -0.18598782759E+02  0.71873197864E+03  0.81965070630E+03  0.81640612871E+02 0.  0.
         13    1    3    3    0    0 -0.14309403761E+03  0.39162312147E+03  0.16784547071E+03  0.44946265129E+03  0.00000000000E+00 0. -1.
        -13    1    3    3    0    0 -0.19960319617E+03  0.45288741173E+03  0.11176635097E+03  0.50738561355E+03  0.00000000000E+00 0.  1.
          4    1    6    6  502    0  0.23049671093E+03  0.18919734445E+02  0.36930547117E+03  0.43574444476E+03  0.00000000000E+00 0. -1.
          1    1    5    5  503    0 -0.86581121762E+01 -0.55284000521E+03  0.47204293172E+03  0.72700176318E+03  0.00000000000E+00 0. -1.
         -2    1    5    5    0  503 -0.33664807813E+02 -0.27307174522E+03  0.17667959172E+03  0.32698191915E+03  0.00000000000E+00 0.  1.
         -3    1    6    6    0  502  0.15452344285E+03 -0.37518517205E+02  0.34942650748E+03  0.38390626154E+03  0.00000000000E+00 0.  1.
<mgrwt>
<rscale>  0 0.23019132E+04</rscale>
<asrwt>0</asrwt>
<pdfrwt beam="1">  1        1 0.34442684E+00 0.23019132E+04</pdfrwt>
<pdfrwt beam="2">  1       -1 0.91032026E-01 0.23019132E+04</pdfrwt>
<totfact> 0.21813264E+00</totfact>
</mgrwt>
</event>
<event>
12    1  0.1477245E-007  0.1436121E+04  0.7818608E-02  0.8928080E-01
          2   -1    0    0  501    0  0.00000000000E+00  0.00000000000E+00  0.22072026405E+04  0.22072026405E+04  0.00000000000E+00 0. -1.
         -2   -1    0    0    0  501 -0.00000000000E+00 -0.00000000000E+00 -0.23360373965E+03  0.23360373965E+03  0.00000000000E+00 0.  1.
         23    2    1    2    0    0  0.25993896869E+02 -0.99674289317E+02  0.13094242142E+04  0.13168337072E+04  0.94066960138E+02 0.  0.
        254    2    1    2    0    0 -0.25993896869E+02  0.99674289317E+02  0.66417468669E+03  0.11239726730E+04  0.90087507937E+03 0.  0.
        -24    2    4    4    0    0 -0.14150585023E+03  0.32541216039E+03  0.75864312520E+03  0.84187043164E+03  0.85378290392E+02 0.  0.
         24    2    4    4    0    0  0.11551195336E+03 -0.22573787107E+03 -0.94468438510E+02  0.28210224138E+03  0.79729485830E+02 0.  0.
         11    1    3    3    0    0  0.45824877487E+02 -0.88590561023E+02  0.12349563634E+04  0.12389775730E+04  0.00000000000E+00 0. -1.
        -11    1    3    3    0    0 -0.19830980618E+02 -0.11083728294E+02  0.74467850762E+02  0.77856134134E+02  0.00000000000E+00 0.  1.
          4    1    6    6  502    0  0.11479392332E+03 -0.15612018093E+03 -0.52333571463E+02  0.20072358712E+03  0.00000000000E+00 0. -1.
          3    1    5    5  503    0 -0.74608975694E+02  0.89358433364E+02  0.29863997816E+03  0.32052654402E+03  0.00000000000E+00 0. -1.
         -2    1    5    5    0  503 -0.66896874537E+02  0.23605372703E+03  0.46000314704E+03  0.52134388762E+03  0.00000000000E+00 0.  1.
         -3    1    6    6    0  502  0.71803004413E+00 -0.69617690144E+02 -0.42134867046E+02  0.81378654260E+02  0.00000000000E+00 0.  1.
<mgrwt>
<rscale>  0 0.14361209E+04</rscale>
<asrwt>0</asrwt>
<pdfrwt beam="1">  1        2 0.33956962E+00 0.14361209E+04</pdfrwt>
<pdfrwt beam="2">  1       -2 0.35939038E-01 0.14361209E+04</pdfrwt>
<totfact> 0.36210661E+01</totfact>
</mgrwt>
</event>
<event>
12    1  0.1477245E-007  0.1306693E+04  0.7818608E-02  0.9024275E-01
          1   -1    0    0  501    0  0.00000000000E+00  0.00000000000E+00  0.14286366415E+04  0.14286366415E+04  0.00000000000E+00 0. -1.
         -1   -1    0    0    0  501 -0.00000000000E+00 -0.00000000000E+00 -0.29878940232E+03  0.29878940232E+03  0.00000000000E+00 0.  1.
         23    2    1    2    0    0  0.15660989139E+03  0.15358075137E+03 -0.30297091655E+02  0.23902899334E+03  0.90018001648E+02 0.  0.
        254    2    1    2    0    0 -0.15660989139E+03 -0.15358075137E+03  0.11601443308E+04  0.14883970505E+04  0.90624345858E+03 0.  0.
        -24    2    4    4    0    0 -0.56547101625E+02  0.34406606941E+03  0.22852603026E+03  0.42451624747E+03  0.80067865184E+02 0.  0.
         24    2    4    4    0    0 -0.10006278977E+03 -0.49764682077E+03  0.93161830056E+03  0.10638808030E+04  0.79150394355E+02 0.  0.
         11    1    3    3    0    0 -0.10699479727E+02  0.20693326503E+02 -0.54696117363E+01  0.23929255750E+02  0.00000000000E+00 0. -1.
        -11    1    3    3    0    0  0.16730937112E+03  0.13288742486E+03 -0.24827479919E+02  0.21509973759E+03  0.00000000000E+00 0.  1.
          2    1    6    6  502    0 -0.24233885785E+02 -0.13260686609E+03  0.18009424306E+03  0.22495732603E+03  0.00000000000E+00 0. -1.
          3    1    5    5  503    0 -0.29919901529E+02  0.24984223586E+03  0.20306890441E+03  0.32334706317E+03  0.00000000000E+00 0. -1.
         -4    1    5    5    0  503 -0.26627200096E+02  0.94223833550E+02  0.25457125859E+02  0.10116918429E+03  0.00000000000E+00 0.  1.
         -1    1    6    6    0  502 -0.75828903984E+02 -0.36503995469E+03  0.75152405751E+03  0.83892347697E+03  0.00000000000E+00 0.  1.
<mgrwt>
<rscale>  0 0.13066928E+04</rscale>
<asrwt>0</asrwt>
<pdfrwt beam="1">  1        1 0.21979025E+00 0.13066928E+04</pdfrwt>
<pdfrwt beam="2">  1       -1 0.45967601E-01 0.13066928E+04</pdfrwt>
<totfact> 0.33894330E+01</totfact>
</mgrwt>
</event>
<event>
12    1  0.1477245E-007  0.2788603E+04  0.7818608E-02  0.8306815E-01
          1   -1    0    0  501    0  0.00000000000E+00  0.00000000000E+00  0.32759556232E+04  0.32759556232E+04  0.00000000000E+00 0. -1.
         -1   -1    0    0    0  501 -0.00000000000E+00 -0.00000000000E+00 -0.59343805647E+03  0.59343805647E+03  0.00000000000E+00 0.  1.
         23    2    1    2    0    0 -0.69817989109E+03  0.11655113466E+03  0.26305424534E+04  0.27251131333E+04  0.73815059708E+02 0.  0.
        254    2    1    2    0    0  0.69817989109E+03 -0.11655113466E+03  0.51975113318E+02  0.11442805463E+04  0.89757296582E+03 0.  0.
        -24    2    4    4    0    0  0.58430229619E+03 -0.24874470328E+03  0.39388482635E+03  0.75147859139E+03  0.79320338787E+02 0.  0.
         24    2    4    4    0    0  0.11387759491E+03  0.13219356863E+03 -0.34190971304E+03  0.39280195493E+03  0.83353930453E+02 0.  0.
         13    1    3    3    0    0 -0.31001945700E+02  0.21298545421E+02  0.15081822818E+03  0.15543772588E+03  0.00000000000E+00 0.  1.
        -13    1    3    3    0    0 -0.66717794539E+03  0.95252589235E+02  0.24797242252E+04  0.25696754075E+04  0.00000000000E+00 0. -1.
          4    1    6    6  502    0 -0.65811122907E+01  0.14519747701E+01  0.74071006467E+00  0.67799646840E+01  0.00000000000E+00 0. -1.
          3    1    5    5  503    0  0.28022587397E+02 -0.23023614457E+02  0.42503044907E+02  0.55873616792E+02  0.00000000000E+00 0. -1.
         -4    1    5    5    0  503  0.55627970879E+03 -0.22572108883E+03  0.35138178145E+03  0.69560497460E+03  0.00000000000E+00 0.  1.
         -3    1    6    6    0  502  0.12045870720E+03  0.13074159386E+03 -0.34265042310E+03  0.38602199025E+03  0.00000000000E+00 0.  1.
<mgrwt>
<rscale>  0 0.27886030E+04</rscale>
<asrwt>0</asrwt>
<pdfrwt beam="1">  1        1 0.50399316E+00 0.27886030E+04</pdfrwt>
<pdfrwt beam="2">  1       -1 0.91298164E-01 0.27886030E+04</pdfrwt>
<totfact> 0.37755772E-01</totfact>
</mgrwt>
</event>
<event>
12    1  0.1477245E-007  0.3456409E+04  0.7818608E-02  0.8124199E-01
         -2   -1    0    0    0  501 -0.00000000000E+00  0.00000000000E+00  0.17149141218E+04  0.17149141218E+04  0.00000000000E+00 0.  1.
          2   -1    0    0  501    0  0.00000000000E+00 -0.00000000000E+00 -0.17415978650E+04  0.17415978650E+04  0.00000000000E+00 0. -1.
         23    2    1    2    0    0 -0.61116184266E+03 -0.95241875950E+03  0.11385608844E+04  0.16078586508E+04  0.90929984425E+02 0.  0.
        254    2    1    2    0    0  0.61116184266E+03  0.95241875950E+03 -0.11652446276E+04  0.18486533360E+04  0.88266858057E+03 0.  0.
        -24    2    4    4    0    0  0.76256554956E+03  0.42849376634E+03 -0.63386719089E+03  0.10830721394E+04  0.78386978054E+02 0.  0.
         24    2    4    4    0    0 -0.15140370691E+03  0.52392499316E+03 -0.53137743668E+03  0.76558119654E+03  0.79574539685E+02 0.  0.
         11    1    3    3    0    0 -0.38888131639E+03 -0.60519591690E+03  0.66078726838E+03  0.97679608421E+03  0.00000000000E+00 0.  1.
        -11    1    3    3    0    0 -0.22228052627E+03 -0.34722284260E+03  0.47777361598E+03  0.63106256656E+03  0.00000000000E+00 0. -1.
          2    1    6    6  502    0 -0.83927096012E+02  0.38214621032E+03 -0.41331664512E+03  0.56913103293E+03  0.00000000000E+00 0. -1.
          1    1    5    5  503    0  0.23860046427E+03  0.16916779036E+03 -0.23718227090E+03  0.37656785905E+03  0.00000000000E+00 0. -1.
         -2    1    5    5    0  503  0.52396508530E+03  0.25932597598E+03 -0.39668491999E+03  0.70650428037E+03  0.00000000000E+00 0.  1.
         -1    1    6    6    0  502 -0.67476610894E+02  0.14177878284E+03 -0.11806079156E+03  0.19645016362E+03  0.00000000000E+00 0.  1.
<mgrwt>
<rscale>  0 0.34564090E+04</rscale>
<asrwt>0</asrwt>
<pdfrwt beam="1">  1        2 0.26793813E+00 0.34564090E+04</pdfrwt>
<pdfrwt beam="2">  1       -2 0.26383294E+00 0.34564090E+04</pdfrwt>
<totfact> 0.40532476E-01</totfact>
</mgrwt>
</event>
<event>
12    1  0.1477245E-007  0.1758535E+04  0.7818608E-02  0.8728666E-01
          2   -1    0    0  501    0  0.00000000000E+00  0.00000000000E+00  0.25056165278E+04  0.25056165278E+04  0.00000000000E+00 0. -1.
         -2   -1    0    0    0  501 -0.00000000000E+00 -0.00000000000E+00 -0.30855124291E+03  0.30855124291E+03  0.00000000000E+00 0.  1.
         23    2    1    2    0    0  0.31191973567E+03 -0.20003012647E+03  0.16804088349E+04  0.17230773242E+04  0.88969881026E+02 0.  0.
        254    2    1    2    0    0 -0.31191973567E+03  0.20003012647E+03  0.51665644997E+03  0.10910904465E+04  0.88670090908E+03 0.  0.
        -24    2    4    4    0    0 -0.27861013849E+03 -0.24861604104E+03 -0.24515545093E+02  0.38281154987E+03  0.80685349541E+02 0.  0.
         24    2    4    4    0    0 -0.33309597178E+02  0.44864616751E+03  0.54117199507E+03  0.70827889664E+03  0.79993464083E+02 0.  0.
         13    1    3    3    0    0 -0.44726776428E+01 -0.10828984155E+02  0.36234426246E+02  0.38081562317E+02  0.00000000000E+00 0.  1.
        -13    1    3    3    0    0  0.31639241331E+03 -0.18920114231E+03  0.16441744086E+04  0.16849957618E+04  0.00000000000E+00 0. -1.
          4    1    6    6  502    0  0.33907854802E+01  0.21045203641E+03  0.30715266814E+03  0.37234972620E+03  0.00000000000E+00 0. -1.
          3    1    5    5  503    0 -0.27566715357E+02  0.53114238251E+00 -0.81131090590E+01  0.28740710610E+02  0.00000000000E+00 0. -1.
         -4    1    5    5    0  503 -0.25104342313E+03 -0.24914718342E+03 -0.16402436034E+02  0.35407083926E+03  0.00000000000E+00 0.  1.
         -3    1    6    6    0  502 -0.36700382659E+02  0.23819413109E+03  0.23401932692E+03  0.33592917043E+03  0.00000000000E+00 0.  1.
<mgrwt>
<rscale>  0 0.17585347E+04</rscale>
<asrwt>0</asrwt>
<pdfrwt beam="1">  1        2 0.38547945E+00 0.17585347E+04</pdfrwt>
<pdfrwt beam="2">  1       -2 0.47469424E-01 0.17585347E+04</pdfrwt>
<totfact> 0.13782633E+01</totfact>
</mgrwt>
</event>
<event>
12    1  0.1477245E-007  0.2305548E+04  0.7818608E-02  0.8475737E-01
         -2   -1    0    0    0  501 -0.00000000000E+00  0.00000000000E+00  0.16157069232E+04  0.16157069232E+04  0.00000000000E+00 0.  1.
          2   -1    0    0  501    0  0.00000000000E+00 -0.00000000000E+00 -0.82248085609E+03  0.82248085609E+03  0.00000000000E+00 0. -1.
         23    2    1    2    0    0 -0.97427394141E+03  0.18188390516E+02  0.31241734302E+03  0.10273706808E+04  0.91353101267E+02 0.  0.
        254    2    1    2    0    0  0.97427394141E+03 -0.18188390516E+02  0.48080872410E+03  0.14108170985E+04  0.89982627532E+03 0.  0.
        -24    2    4    4    0    0  0.95927719230E+03 -0.18975582676E+03  0.10080412297E+03  0.98625346153E+03  0.79463285314E+02 0.  0.
         24    2    4    4    0    0  0.14996749103E+02  0.17156743625E+03  0.38000460112E+03  0.42456363695E+03  0.78679713294E+02 0.  0.
         13    1    3    3    0    0 -0.93613955924E+03  0.10701963314E+02  0.31659740098E+03  0.98828423072E+03  0.00000000000E+00 0. -1.
        -13    1    3    3    0    0 -0.38134382166E+02  0.74864272022E+01 -0.41800579619E+01  0.39086450082E+02  0.00000000000E+00 0.  1.
          2    1    6    6  502    0 -0.31481163924E+02  0.89819288278E+02  0.18329431408E+03  0.20653177432E+03  0.00000000000E+00 0. -1.
          3    1    5    5  503    0  0.42108868897E+03 -0.46534811256E+02  0.59416046745E+02  0.42779836284E+03  0.00000000000E+00 0. -1.
         -4    1    5    5    0  503  0.53818850333E+03 -0.14322101550E+03  0.41388076229E+02  0.55845509869E+03  0.00000000000E+00 0.  1.
         -1    1    6    6    0  502  0.46477913027E+02  0.81748147967E+02  0.19671028704E+03  0.21803186263E+03  0.00000000000E+00 0.  1.
<mgrwt>
<rscale>  0 0.23055481E+04</rscale>
<asrwt>0</asrwt>
<pdfrwt beam="1">  1        2 0.12653552E+00 0.23055481E+04</pdfrwt>
<pdfrwt beam="2">  1       -2 0.24857030E+00 0.23055481E+04</pdfrwt>
<totfact> 0.19719846E+00</totfact>
</mgrwt>
</event>
<event>
12    1  0.1477245E-007  0.1331118E+04  0.7818608E-02  0.9005246E-01
          1   -1    0    0  501    0  0.00000000000E+00  0.00000000000E+00  0.13918552762E+04  0.13918552762E+04  0.00000000000E+00 0. -1.
         -1   -1    0    0    0  501 -0.00000000000E+00 -0.00000000000E+00 -0.31825764047E+03  0.31825764047E+03  0.00000000000E+00 0.  1.
         23    2    1    2    0    0  0.28906173012E+03  0.21144049009E+03  0.31795223490E+03  0.48747709524E+03  0.90975436424E+02 0.  0.
        254    2    1    2    0    0 -0.28906173012E+03 -0.21144049009E+03  0.75564540079E+03  0.12226358214E+04  0.89194989510E+03 0.  0.
        -24    2    4    4    0    0 -0.26164656098E+03  0.19291960482E+03  0.73698881856E+03  0.80948957692E+03  0.80274277654E+02 0.  0.
         24    2    4    4    0    0 -0.27415169141E+02 -0.40436009491E+03  0.18656582231E+02  0.41314624449E+03  0.77994060139E+02 0.  0.
         11    1    3    3    0    0  0.21849696611E+03  0.18553711859E+03  0.20747137323E+03  0.35384928612E+03  0.00000000000E+00 0.  1.
        -11    1    3    3    0    0  0.70564764004E+02  0.25903371500E+02  0.11048086168E+03  0.13362780912E+03  0.00000000000E+00 0. -1.
          2    1    6    6  502    0 -0.24959803249E+02 -0.40026392821E+03  0.28657059233E+02  0.40206396387E+03  0.00000000000E+00 0. -1.
          1    1    5    5  503    0 -0.22065545773E+03  0.12138411404E+03  0.57474362015E+03  0.62749754029E+03  0.00000000000E+00 0. -1.
         -4    1    5    5    0  503 -0.40991103249E+02  0.71535490785E+02  0.16224519841E+03  0.18199203662E+03  0.00000000000E+00 0.  1.
         -1    1    6    6    0  502 -0.24553658919E+01 -0.40961667064E+01 -0.10000477002E+02  0.11082280615E+02  0.00000000000E+00 0.  1.
<mgrwt>
<rscale>  0 0.13311177E+04</rscale>
<asrwt>0</asrwt>
<pdfrwt beam="1">  1        1 0.21413158E+00 0.13311177E+04</pdfrwt>
<pdfrwt beam="2">  1       -1 0.48962715E-01 0.13311177E+04</pdfrwt>
<totfact> 0.31871326E+01</totfact>
</mgrwt>
</event>
<event>
12    1  0.1477245E-007  0.1204174E+04  0.7818608E-02  0.9109211E-01
         -2   -1    0    0    0  501 -0.00000000000E+00  0.00000000000E+00  0.11957520392E+04  0.11957520392E+04  0.00000000000E+00 0.  1.
          2   -1    0    0  501    0  0.00000000000E+00 -0.00000000000E+00 -0.30316387728E+03  0.30316387728E+03  0.00000000000E+00 0. -1.
         23    2    1    2    0    0  0.27260512646E+03  0.91869835410E+02  0.16381801905E+03  0.34331277489E+03  0.90959861485E+02 0.  0.
        254    2    1    2    0    0 -0.27260512646E+03 -0.91869835410E+02  0.72877014283E+03  0.11556031416E+04  0.84944633620E+03 0.  0.
        -24    2    4    4    0    0 -0.45508553919E+03 -0.25356242147E+03  0.19043202825E+03  0.55920129899E+03  0.71028063815E+02 0.  0.
         24    2    4    4    0    0  0.18248041272E+03  0.16169258606E+03  0.53833811457E+03  0.59640184257E+03  0.80272279199E+02 0.  0.
         13    1    3    3    0    0  0.40691367366E+02  0.24635186421E+02 -0.62401884000E+01  0.47975199212E+02  0.00000000000E+00 0. -1.
        -13    1    3    3    0    0  0.23191375910E+03  0.67234648989E+02  0.17005820745E+03  0.29533757567E+03  0.00000000000E+00 0.  1.
          4    1    6    6  502    0  0.18747252501E+03  0.14896531134E+03  0.47908795082E+03  0.53559488070E+03  0.00000000000E+00 0. -1.
          3    1    5    5  503    0 -0.39200505714E+03 -0.22440833419E+03  0.13850590874E+03  0.47245206321E+03  0.00000000000E+00 0. -1.
         -4    1    5    5    0  503 -0.63080482042E+02 -0.29154087277E+02  0.51926119512E+02  0.86749235773E+02  0.00000000000E+00 0.  1.
         -3    1    6    6    0  502 -0.49921122853E+01  0.12727274715E+02  0.59250163755E+02  0.60806961869E+02  0.00000000000E+00 0.  1.
<mgrwt>
<rscale>  0 0.12041741E+04</rscale>
<asrwt>0</asrwt>
<pdfrwt beam="1">  1        2 0.46640597E-01 0.12041741E+04</pdfrwt>
<pdfrwt beam="2">  1       -2 0.18396185E+00 0.12041741E+04</pdfrwt>
<totfact> 0.18211675E+01</totfact>
</mgrwt>
</event>
<event>
12    1  0.1477245E-007  0.3189388E+04  0.7818608E-02  0.8191625E-01
          2   -1    0    0  501    0  0.00000000000E+00  0.00000000000E+00  0.28423692438E+04  0.28423692438E+04  0.00000000000E+00 0. -1.
         -2   -1    0    0    0  501 -0.00000000000E+00 -0.00000000000E+00 -0.89469347072E+03  0.89469347072E+03  0.00000000000E+00 0.  1.
         23    2    1    2    0    0 -0.12994164908E+04  0.41133184403E+03  0.27383558372E+03  0.13932826285E+04  0.92592945223E+02 0.  0.
        254    2    1    2    0    0  0.12994164908E+04 -0.41133184403E+03  0.16738401894E+04  0.23437800861E+04  0.91317413994E+03 0.  0.
        -24    2    4    4    0    0  0.12457079468E+04 -0.11829154221E+03  0.10053788234E+04  0.16074660071E+04  0.85902316538E+02 0.  0.
         24    2    4    4    0    0  0.53708543973E+02 -0.29304030181E+03  0.66846136600E+03  0.73631407891E+03  0.80997523299E+02 0.  0.
         11    1    3    3    0    0 -0.11942031748E+04  0.35669372486E+03  0.26644658152E+03  0.12744981039E+04  0.00000000000E+00 0.  1.
        -11    1    3    3    0    0 -0.10521331595E+03  0.54638119169E+02  0.73890022031E+01  0.11878452456E+03  0.00000000000E+00 0. -1.
          2    1    6    6  502    0  0.13827850613E+02 -0.21996177980E+03  0.42062021051E+03  0.47486393368E+03  0.00000000000E+00 0. -1.
          3    1    5    5  503    0  0.83077413597E+03 -0.60360221711E+02  0.71457677444E+03  0.10974739122E+04  0.00000000000E+00 0. -1.
         -4    1    5    5    0  503  0.41493381082E+03 -0.57931320502E+02  0.29080204894E+03  0.50999209496E+03  0.00000000000E+00 0.  1.
         -1    1    6    6    0  502  0.39880693360E+02 -0.73078522016E+02  0.24784115549E+03  0.26145014523E+03  0.00000000000E+00 0.  1.
<mgrwt>
<rscale>  0 0.31893882E+04</rscale>
<asrwt>0</asrwt>
<pdfrwt beam="1">  1        2 0.43728757E+00 0.31893882E+04</pdfrwt>
<pdfrwt beam="2">  1       -2 0.13764515E+00 0.31893882E+04</pdfrwt>
<totfact> 0.68899295E-01</totfact>
</mgrwt>
</event>
<event>
12    1  0.1477245E-007  0.2780137E+04  0.7818608E-02  0.8309462E-01
          1   -1    0    0  501    0  0.00000000000E+00  0.00000000000E+00  0.11250018793E+04  0.11250018793E+04  0.00000000000E+00 0. -1.
         -1   -1    0    0    0  501 -0.00000000000E+00 -0.00000000000E+00 -0.17175888239E+04  0.17175888239E+04  0.00000000000E+00 0.  1.
         23    2    1    2    0    0  0.10781702511E+04  0.39012091988E+03 -0.75720648254E+03  0.13770644905E+04  0.91101763038E+02 0.  0.
        254    2    1    2    0    0 -0.10781702511E+04 -0.39012091988E+03  0.16461953793E+03  0.14655262127E+04  0.89778731629E+03 0.  0.
        -24    2    4    4    0    0 -0.51602660404E+03 -0.52077656839E+03  0.39685724992E+03  0.83819351280E+03  0.87068925679E+02 0.  0.
         24    2    4    4    0    0 -0.56214364705E+03  0.13065564851E+03 -0.23223771199E+03  0.62733269987E+03  0.80842953047E+02 0.  0.
         11    1    3    3    0    0  0.42407172865E+03  0.11097062068E+03 -0.31164187008E+03  0.53784009229E+03  0.00000000000E+00 0. -1.
        -11    1    3    3    0    0  0.65409852245E+03  0.27915029920E+03 -0.44556461246E+03  0.83922439817E+03  0.00000000000E+00 0.  1.
          4    1    6    6  502    0 -0.33125670497E+03  0.83982879678E+02 -0.94925725530E+02  0.35467593946E+03  0.00000000000E+00 0. -1.
          3    1    5    5  503    0 -0.47846046543E+03 -0.50606504952E+03  0.38668238305E+03  0.79658616401E+03  0.00000000000E+00 0. -1.
         -4    1    5    5    0  503 -0.37566138611E+02 -0.14711518875E+02  0.10174866867E+02  0.41607348792E+02  0.00000000000E+00 0.  1.
         -3    1    6    6    0  502 -0.23088694208E+03  0.46672768833E+02 -0.13731198646E+03  0.27265676041E+03  0.00000000000E+00 0.  1.
<mgrwt>
<rscale>  0 0.27801372E+04</rscale>
<asrwt>0</asrwt>
<pdfrwt beam="1">  1        1 0.17307721E+00 0.27801372E+04</pdfrwt>
<pdfrwt beam="2">  1       -1 0.26424443E+00 0.27801372E+04</pdfrwt>
<totfact> 0.59289942E-01</totfact>
</mgrwt>
</event>
<event>
12    1  0.1477245E-007  0.1370001E+04  0.7818608E-02  0.8975824E-01
         -2   -1    0    0    0  501 -0.00000000000E+00  0.00000000000E+00  0.19687505953E+04  0.19687505953E+04  0.00000000000E+00 0.  1.
          2   -1    0    0  501    0  0.00000000000E+00 -0.00000000000E+00 -0.23833687549E+03  0.23833687549E+03  0.00000000000E+00 0. -1.
         23    2    1    2    0    0  0.19165047718E+03 -0.16664925416E+03  0.39101960220E+02  0.27310807882E+03  0.92505027463E+02 0.  0.
        254    2    1    2    0    0 -0.19165047718E+03  0.16664925416E+03  0.16913117596E+04  0.19339793920E+04  0.90290583183E+03 0.  0.
        -24    2    4    4    0    0 -0.24180236757E+03  0.23141460095E+03  0.17629915332E+04  0.17962953408E+04  0.80726097819E+02 0.  0.
         24    2    4    4    0    0  0.50151890391E+02 -0.64765346790E+02 -0.71679773581E+02  0.13768405117E+03  0.84315750317E+02 0.  0.
         13    1    3    3    0    0  0.54701561920E+02 -0.10765724558E+03  0.25095400002E+02  0.12333743351E+03  0.00000000000E+00 0.  1.
        -13    1    3    3    0    0  0.13694891526E+03 -0.58992008578E+02  0.14006560218E+02  0.14977064531E+03  0.00000000000E+00 0. -1.
          2    1    6    6  502    0  0.69126593960E+02 -0.43790248571E+02 -0.72588364611E+02  0.10938529398E+03  0.00000000000E+00 0. -1.
          3    1    5    5  503    0 -0.21964414372E+03  0.17156426718E+03  0.14998211783E+04  0.15254971041E+04  0.00000000000E+00 0. -1.
         -4    1    5    5    0  503 -0.22158223855E+02  0.59850333774E+02  0.26317035487E+03  0.27079823673E+03  0.00000000000E+00 0.  1.
         -1    1    6    6    0  502 -0.18974703569E+02 -0.20975098219E+02  0.90859102992E+00  0.28298757190E+02  0.00000000000E+00 0.  1.
<mgrwt>
<rscale>  0 0.13700013E+04</rscale>
<asrwt>0</asrwt>
<pdfrwt beam="1">  1        2 0.36667213E-01 0.13700013E+04</pdfrwt>
<pdfrwt beam="2">  1       -2 0.30288470E+00 0.13700013E+04</pdfrwt>
<totfact> 0.42500522E+00</totfact>
</mgrwt>
</event>
<event>
12    1  0.1477245E-007  0.2040091E+04  0.7818608E-02  0.8588103E-01
         -1   -1    0    0    0  501 -0.00000000000E+00  0.00000000000E+00  0.97945455541E+03  0.97945455541E+03  0.00000000000E+00 0.  1.
          1   -1    0    0  501    0  0.00000000000E+00 -0.00000000000E+00 -0.10623189577E+04  0.10623189577E+04  0.00000000000E+00 0. -1.
         23    2    1    2    0    0  0.58163817370E+03  0.86381082470E+02 -0.60743267214E+03  0.85090974825E+03  0.96479489849E+02 0.  0.
        254    2    1    2    0    0 -0.58163817370E+03 -0.86381082470E+02  0.52456826987E+03  0.11908637648E+04  0.89287176018E+03 0.  0.
        -24    2    4    4    0    0 -0.23250562852E+03  0.30210829081E+03  0.53512749827E+03  0.66179505000E+03  0.79265138197E+02 0.  0.
         24    2    4    4    0    0 -0.34913254518E+03 -0.38848937328E+03 -0.10559228404E+02  0.52906871483E+03  0.83574400736E+02 0.  0.
         13    1    3    3    0    0  0.19835127284E+02  0.31216226519E+01 -0.10686964167E+01  0.20107682969E+02  0.00000000000E+00 0.  1.
        -13    1    3    3    0    0  0.56180304642E+03  0.83259459818E+02 -0.60636397573E+03  0.83080206528E+03  0.00000000000E+00 0. -1.
          2    1    6    6  502    0 -0.23593937525E+03 -0.20973068535E+03 -0.27089648926E+02  0.31684096681E+03  0.00000000000E+00 0. -1.
          3    1    5    5  503    0 -0.42362319194E+02  0.37062435772E+02  0.13004201358E+03  0.14170079579E+03  0.00000000000E+00 0. -1.
         -4    1    5    5    0  503 -0.19014330933E+03  0.26504585503E+03  0.40508548470E+03  0.52009425421E+03  0.00000000000E+00 0.  1.
         -1    1    6    6    0  502 -0.11319316993E+03 -0.17875868793E+03  0.16530420522E+02  0.21222774803E+03  0.00000000000E+00 0.  1.
<mgrwt>
<rscale>  0 0.20400913E+04</rscale>
<asrwt>0</asrwt>
<pdfrwt beam="1">  1        1 0.16343369E+00 0.20400913E+04</pdfrwt>
<pdfrwt beam="2">  1       -1 0.15068532E+00 0.20400913E+04</pdfrwt>
<totfact> 0.43146803E+00</totfact>
</mgrwt>
</event>
<event>
12    1  0.1477245E-007  0.3559439E+04  0.7818608E-02  0.8099846E-01
          2   -1    0    0  501    0  0.00000000000E+00  0.00000000000E+00  0.18567848143E+04  0.18567848143E+04  0.00000000000E+00 0. -1.
         -2   -1    0    0    0  501 -0.00000000000E+00 -0.00000000000E+00 -0.17058525279E+04  0.17058525279E+04  0.00000000000E+00 0.  1.
         23    2    1    2    0    0  0.15174520602E+04 -0.21367225701E+02 -0.62195141370E+03  0.16426717772E+04  0.91813361648E+02 0.  0.
        254    2    1    2    0    0 -0.15174520602E+04  0.21367225701E+02  0.77288370004E+03  0.19199655650E+04  0.88645431007E+03 0.  0.
        -24    2    4    4    0    0 -0.15150544514E+04  0.11709023171E+03  0.87667071238E+03  0.17561535133E+04  0.80146812010E+02 0.  0.
         24    2    4    4    0    0 -0.23976088016E+01 -0.95723006004E+02 -0.10378701233E+03  0.16381205169E+03  0.83030126726E+02 0.  0.
         11    1    3    3    0    0  0.10091679477E+04  0.17361053045E+02 -0.44517147353E+03  0.11031314490E+04  0.00000000000E+00 0. -1.
        -11    1    3    3    0    0  0.50828411243E+03 -0.38728278746E+02 -0.17677994016E+03  0.53954032821E+03  0.00000000000E+00 0.  1.
          2    1    6    6  502    0 -0.76068995732E+01 -0.93524397774E+02 -0.11668252839E+03  0.14973139394E+03  0.00000000000E+00 0. -1.
          3    1    5    5  503    0 -0.77355032738E+03  0.93935553568E+02  0.47345345691E+03  0.91179064103E+03  0.00000000000E+00 0. -1.
         -4    1    5    5    0  503 -0.74150412399E+03  0.23154678137E+02  0.40321725547E+03  0.84436287230E+03  0.00000000000E+00 0.  1.
         -1    1    6    6    0  502  0.52092907715E+01 -0.21986082298E+01  0.12895516053E+02  0.14080657754E+02  0.00000000000E+00 0.  1.
<mgrwt>
<rscale>  0 0.35594388E+04</rscale>
<asrwt>0</asrwt>
<pdfrwt beam="1">  1        2 0.28565920E+00 0.35594388E+04</pdfrwt>
<pdfrwt beam="2">  1       -2 0.26243885E+00 0.35594388E+04</pdfrwt>
<totfact> 0.35376899E-01</totfact>
</mgrwt>
</event>
<event>
12    1  0.1477245E-007  0.1923205E+04  0.7818608E-02  0.8643391E-01
          1   -1    0    0  501    0  0.00000000000E+00  0.00000000000E+00  0.11806163768E+04  0.11806163768E+04  0.00000000000E+00 0. -1.
         -1   -1    0    0    0  501 -0.00000000000E+00 -0.00000000000E+00 -0.78321736425E+03  0.78321736425E+03  0.00000000000E+00 0.  1.
         23    2    1    2    0    0  0.27748505768E+03 -0.16283742382E+03 -0.53612162391E+03  0.63200740285E+03  0.92157353505E+02 0.  0.
        254    2    1    2    0    0 -0.27748505768E+03  0.16283742382E+03  0.93352063645E+03  0.13318263382E+04  0.89374864059E+03 0.  0.
        -24    2    4    4    0    0 -0.33046317185E+02 -0.22923718863E+03  0.81104083724E+03  0.84730671259E+03  0.80620579250E+02 0.  0.
         24    2    4    4    0    0 -0.24443874050E+03  0.39207461245E+03  0.12247979920E+03  0.48451962558E+03  0.79279043765E+02 0.  0.
         11    1    3    3    0    0  0.44229650399E+02 -0.34898082132E+02 -0.17241585008E+03  0.18138732996E+03  0.00000000000E+00 0.  1.
        -11    1    3    3    0    0  0.23325540728E+03 -0.12793934168E+03 -0.36370577383E+03  0.45062007289E+03  0.00000000000E+00 0. -1.
          4    1    6    6  502    0 -0.17125959704E+02  0.23636938537E+01  0.80676930967E+01  0.19078082092E+02  0.00000000000E+00 0. -1.
          1    1    5    5  503    0  0.10067620292E+02 -0.20226212602E+02  0.17419915893E+03  0.17565820114E+03  0.00000000000E+00 0. -1.
         -2    1    5    5    0  503 -0.43113937477E+02 -0.20901097603E+03  0.63684167831E+03  0.67164851146E+03  0.00000000000E+00 0.  1.
         -3    1    6    6    0  502 -0.22731278079E+03  0.38971091859E+03  0.11441210611E+03  0.46544154349E+03  0.00000000000E+00 0.  1.
<mgrwt>
<rscale>  0 0.19232049E+04</rscale>
<asrwt>0</asrwt>
<pdfrwt beam="1">  1        1 0.18163329E+00 0.19232049E+04</pdfrwt>
<pdfrwt beam="2">  1       -1 0.12049498E+00 0.19232049E+04</pdfrwt>
<totfact> 0.63193984E+00</totfact>
</mgrwt>
</event>
<event>
12    1  0.1477245E-007  0.1995886E+04  0.7818608E-02  0.8608546E-01
          2   -1    0    0  501    0  0.00000000000E+00  0.00000000000E+00  0.83666319317E+03  0.83666319317E+03  0.00000000000E+00 0. -1.
         -2   -1    0    0    0  501 -0.00000000000E+00 -0.00000000000E+00 -0.11903120508E+04  0.11903120508E+04  0.00000000000E+00 0.  1.
         23    2    1    2    0    0 -0.11582011882E+02  0.40668410277E+03  0.55011694762E+03  0.69033329653E+03  0.91680433031E+02 0.  0.
        254    2    1    2    0    0  0.11582011882E+02 -0.40668410277E+03 -0.90376580526E+03  0.13366419475E+04  0.89682381909E+03 0.  0.
        -24    2    4    4    0    0  0.15095648292E+02  0.26833714391E+03 -0.13708235132E+03  0.31192885239E+03  0.79217021612E+02 0.  0.
         24    2    4    4    0    0 -0.35136364101E+01 -0.67502124668E+03 -0.76668345394E+03  0.10247130951E+04  0.81039370335E+02 0.  0.
         11    1    3    3    0    0  0.13468670455E+01  0.11665049333E+03  0.94739626477E+02  0.15028222939E+03  0.00000000000E+00 0.  1.
        -11    1    3    3    0    0 -0.12928878928E+02  0.29003360944E+03  0.45537732114E+03  0.54005106715E+03  0.00000000000E+00 0. -1.
          4    1    6    6  502    0  0.76790544877E+01 -0.13604391324E+03 -0.11018782801E+03  0.17523775749E+03  0.00000000000E+00 0. -1.
          3    1    5    5  503    0 -0.10411135335E+02  0.11441501330E+02 -0.27339270804E+02  0.31412345021E+02  0.00000000000E+00 0. -1.
         -4    1    5    5    0  503  0.25506783627E+02  0.25689564257E+03 -0.10974308052E+03  0.28051650737E+03  0.00000000000E+00 0.  1.
         -1    1    6    6    0  502 -0.11192690898E+02 -0.53897733344E+03 -0.65649562593E+03  0.84947533758E+03  0.00000000000E+00 0.  1.
<mgrwt>
<rscale>  0 0.19958861E+04</rscale>
<asrwt>0</asrwt>
<pdfrwt beam="1">  1        2 0.12871741E+00 0.19958861E+04</pdfrwt>
<pdfrwt beam="2">  1       -2 0.18312493E+00 0.19958861E+04</pdfrwt>
<totfact> 0.51987431E+00</totfact>
</mgrwt>
</event>
<event>
12    1  0.1477245E-007  0.1527923E+04  0.7818608E-02  0.8866094E-01
          1   -1    0    0  501    0  0.00000000000E+00  0.00000000000E+00  0.64190506888E+03  0.64190506888E+03  0.00000000000E+00 0. -1.
         -1   -1    0    0    0  501 -0.00000000000E+00 -0.00000000000E+00 -0.90922717890E+03  0.90922717890E+03  0.00000000000E+00 0.  1.
         23    2    1    2    0    0  0.27971159703E+03 -0.24922689662E+03  0.23229022068E+03  0.45043122491E+03  0.92611652812E+02 0.  0.
        254    2    1    2    0    0 -0.27971159703E+03  0.24922689662E+03 -0.49961233071E+03  0.11007010229E+04  0.90640919967E+03 0.  0.
        -24    2    4    4    0    0  0.25027564818E+03  0.71920132954E+02 -0.46074187847E+03  0.53481551275E+03  0.77033424651E+02 0.  0.
         24    2    4    4    0    0 -0.52998724521E+03  0.17730676367E+03 -0.38870452239E+02  0.56588551012E+03  0.79945794020E+02 0.  0.
         11    1    3    3    0    0  0.27105573502E+03 -0.21389511747E+03  0.22807268894E+03  0.41381092809E+03  0.00000000000E+00 0. -1.
        -11    1    3    3    0    0  0.86558620072E+01 -0.35331779154E+02  0.42175317421E+01  0.36620296822E+02  0.00000000000E+00 0.  1.
          4    1    6    6  502    0 -0.39972815570E+03  0.16790324819E+03 -0.20972852911E+02  0.43406676879E+03  0.00000000000E+00 0. -1.
          3    1    5    5  503    0  0.17437874424E+03  0.12566559988E+02 -0.31038035042E+03  0.35623282667E+03  0.00000000000E+00 0. -1.
         -4    1    5    5    0  503  0.75896903943E+02  0.59353572966E+02 -0.15036152805E+03  0.17858268609E+03  0.00000000000E+00 0.  1.
         -3    1    6    6    0  502 -0.13025908951E+03  0.94035154740E+01 -0.17897599327E+02  0.13181874133E+03  0.00000000000E+00 0.  1.
<mgrwt>
<rscale>  0 0.15279235E+04</rscale>
<asrwt>0</asrwt>
<pdfrwt beam="1">  1        1 0.98754627E-01 0.15279235E+04</pdfrwt>
<pdfrwt beam="2">  1       -1 0.13988110E+00 0.15279235E+04</pdfrwt>
<totfact> 0.12582330E+01</totfact>
</mgrwt>
</event>
<event>
12    1  0.1477245E-007  0.2373060E+04  0.7818608E-02  0.8449659E-01
          2   -1    0    0  501    0  0.00000000000E+00  0.00000000000E+00  0.32547973117E+03  0.32547973117E+03  0.00000000000E+00 0. -1.
         -2   -1    0    0    0  501 -0.00000000000E+00 -0.00000000000E+00 -0.43254719224E+04  0.43254719224E+04  0.00000000000E+00 0.  1.
         23    2    1    2    0    0 -0.83974643004E+03  0.56734269949E+03 -0.15619586269E+04  0.18641767227E+04  0.91587640472E+02 0.  0.
        254    2    1    2    0    0  0.83974643004E+03 -0.56734269949E+03 -0.24380335643E+04  0.27867749308E+04  0.89165859448E+03 0.  0.
        -24    2    4    4    0    0  0.45877312437E+03 -0.74322399491E+03 -0.19512143454E+04  0.21392177968E+04  0.78489963410E+02 0.  0.
         24    2    4    4    0    0  0.38097330566E+03  0.17588129542E+03 -0.48681921890E+03  0.64755713401E+03  0.79135328453E+02 0.  0.
         11    1    3    3    0    0 -0.79262636837E+02  0.41506747639E+02 -0.98009140821E+02  0.13270707360E+03  0.00000000000E+00 0.  1.
        -11    1    3    3    0    0 -0.76048379320E+03  0.52583595185E+03 -0.14639494861E+04  0.17314696491E+04  0.00000000000E+00 0. -1.
          2    1    6    6  502    0  0.17318278577E+03  0.96202779167E+02 -0.28525855266E+03  0.34730346078E+03  0.00000000000E+00 0. -1.
          1    1    5    5  503    0  0.11929601602E+03 -0.15025439934E+03 -0.48693872026E+03  0.52337103593E+03  0.00000000000E+00 0. -1.
         -2    1    5    5    0  503  0.33947710835E+03 -0.59296959556E+03 -0.14642756251E+04  0.16158467609E+04  0.00000000000E+00 0.  1.
         -1    1    6    6    0  502  0.20779051990E+03  0.79678516251E+02 -0.20156066623E+03  0.30025367322E+03  0.00000000000E+00 0.  1.
<mgrwt>
<rscale>  0 0.23730600E+04</rscale>
<asrwt>0</asrwt>
<pdfrwt beam="1">  1        2 0.50073807E-01 0.23730600E+04</pdfrwt>
<pdfrwt beam="2">  1       -2 0.66545718E+00 0.23730600E+04</pdfrwt>
<totfact> 0.26550783E-02</totfact>
</mgrwt>
</event>
<event>
12    1  0.1477245E-007  0.2326263E+04  0.7818608E-02  0.8467637E-01
          2   -1    0    0  501    0  0.00000000000E+00  0.00000000000E+00  0.18035732004E+04  0.18035732004E+04  0.00000000000E+00 0. -1.
         -2   -1    0    0    0  501 -0.00000000000E+00 -0.00000000000E+00 -0.75010805520E+03  0.75010805520E+03  0.00000000000E+00 0.  1.
         23    2    1    2    0    0 -0.87577841943E+03  0.41272130693E+02  0.83186416028E+03  0.12120545056E+04  0.91580100180E+02 0.  0.
        254    2    1    2    0    0  0.87577841943E+03 -0.41272130693E+02  0.22160098491E+03  0.13416267500E+04  0.99104193202E+03 0.  0.
        -24    2    4    4    0    0  0.89554358249E+03  0.19426434765E+03  0.43126382407E+03  0.10159906552E+04  0.80694365647E+02 0.  0.
         24    2    4    4    0    0 -0.19765163060E+02 -0.23553647834E+03 -0.20966283916E+03  0.32563609475E+03  0.78817928051E+02 0.  0.
         11    1    3    3    0    0  0.13075592935E+01 -0.28451349322E+01  0.16003141937E+01  0.35164626554E+01  0.00000000000E+00 0.  1.
        -11    1    3    3    0    0 -0.87708597872E+03  0.44117265625E+02  0.83026384608E+03  0.12085380430E+04  0.00000000000E+00 0. -1.
          2    1    6    6  502    0 -0.89701240009E+01 -0.11612996002E+01  0.24220458476E+01  0.93636556665E+01  0.00000000000E+00 0. -1.
          3    1    5    5  503    0  0.45741823730E+03  0.94273720426E+02  0.26398249237E+03  0.53647528783E+03  0.00000000000E+00 0. -1.
         -4    1    5    5    0  503  0.43812534519E+03  0.99990627220E+02  0.16728133170E+03  0.47951536739E+03  0.00000000000E+00 0.  1.
         -1    1    6    6    0  502 -0.10795039060E+02 -0.23437517874E+03 -0.21208488501E+03  0.31627243909E+03  0.00000000000E+00 0.  1.
<mgrwt>
<rscale>  0 0.23262629E+04</rscale>
<asrwt>0</asrwt>
<pdfrwt beam="1">  1        2 0.27747280E+00 0.23262629E+04</pdfrwt>
<pdfrwt beam="2">  1       -2 0.11540124E+00 0.23262629E+04</pdfrwt>
<totfact> 0.45433936E+00</totfact>
</mgrwt>
</event>
<event>
12    1  0.1477245E-007  0.2395583E+04  0.7818608E-02  0.8441159E-01
          2   -1    0    0  501    0  0.00000000000E+00  0.00000000000E+00  0.18331391022E+04  0.18331391022E+04  0.00000000000E+00 0. -1.
         -2   -1    0    0    0  501 -0.00000000000E+00 -0.00000000000E+00 -0.78264892453E+03  0.78264892453E+03  0.00000000000E+00 0.  1.
         23    2    1    2    0    0 -0.90592624975E+03 -0.45061138882E+03  0.32571997210E+03  0.10667889783E+04  0.90510940150E+02 0.  0.
        254    2    1    2    0    0  0.90592624975E+03  0.45061138882E+03  0.72477020553E+03  0.15489990484E+04  0.92214597943E+03 0.  0.
        -24    2    4    4    0    0  0.10120812331E+04  0.32143085251E+03  0.81675570764E+03  0.13420530338E+04  0.79939004533E+02 0.  0.
         24    2    4    4    0    0 -0.10615498330E+03  0.12918053631E+03 -0.91985502109E+02  0.20694601455E+03  0.80055161595E+02 0.  0.
         11    1    3    3    0    0 -0.74382356332E+03 -0.39031998404E+03  0.23922173674E+03  0.87341297369E+03  0.00000000000E+00 0.  1.
        -11    1    3    3    0    0 -0.16210268643E+03 -0.60291404786E+02  0.86498235363E+02  0.19337600461E+03  0.00000000000E+00 0. -1.
          2    1    6    6  502    0 -0.75767899393E+02  0.90109263565E+02 -0.19744084293E+02  0.11937454847E+03  0.00000000000E+00 0. -1.
          3    1    5    5  503    0  0.49915302251E+03  0.11963496209E+03  0.37509241944E+03  0.63573625598E+03  0.00000000000E+00 0. -1.
         -4    1    5    5    0  503  0.51292821054E+03  0.20179589042E+03  0.44166328819E+03  0.70631677786E+03  0.00000000000E+00 0.  1.
         -1    1    6    6    0  502 -0.30387083907E+02  0.39071272748E+02 -0.72241417817E+02  0.87571466076E+02  0.00000000000E+00 0.  1.
<mgrwt>
<rscale>  0 0.23955829E+04</rscale>
<asrwt>0</asrwt>
<pdfrwt beam="1">  1        2 0.28202140E+00 0.23955829E+04</pdfrwt>
<pdfrwt beam="2">  1       -2 0.12040753E+00 0.23955829E+04</pdfrwt>
<totfact> 0.39178137E+00</totfact>
</mgrwt>
</event>
<event>
12    1  0.1477245E-007  0.1345453E+04  0.7818608E-02  0.8994277E-01
          1   -1    0    0  501    0  0.00000000000E+00  0.00000000000E+00  0.15457498504E+04  0.15457498504E+04  0.00000000000E+00 0. -1.
         -1   -1    0    0    0  501 -0.00000000000E+00 -0.00000000000E+00 -0.29277760586E+03  0.29277760586E+03  0.00000000000E+00 0.  1.
         23    2    1    2    0    0 -0.13504837940E+03  0.31461380444E+03  0.18008467785E+03  0.39735969684E+03  0.90798275049E+02 0.  0.
        254    2    1    2    0    0  0.13504837940E+03 -0.31461380444E+03  0.10728875667E+04  0.14411677595E+04  0.89925350671E+03 0.  0.
        -24    2    4    4    0    0  0.44761277205E+02 -0.61708851898E+03  0.59070101171E+03  0.85900642913E+03  0.78501897217E+02 0.  0.
         24    2    4    4    0    0  0.90287102198E+02  0.30247471454E+03  0.48218655501E+03  0.58216133032E+03  0.82250999542E+02 0.  0.
         13    1    3    3    0    0 -0.64704374497E+02  0.89678057121E+02  0.98108302060E+02  0.14783115010E+03  0.00000000000E+00 0.  1.
        -13    1    3    3    0    0 -0.70344004906E+02  0.22493574732E+03  0.81976375794E+02  0.24952854673E+03  0.00000000000E+00 0. -1.
          4    1    6    6  502    0 -0.94560871841E+01  0.48278051488E+02  0.44820105623E+02  0.66550955729E+02  0.00000000000E+00 0. -1.
          3    1    5    5  503    0  0.60085307896E+02 -0.30797911536E+03  0.31267704814E+03  0.44297665419E+03  0.00000000000E+00 0. -1.
         -4    1    5    5    0  503 -0.15324030690E+02 -0.30910940362E+03  0.27802396357E+03  0.41602977495E+03  0.00000000000E+00 0.  1.
         -3    1    6    6    0  502  0.99743189382E+02  0.25419666305E+03  0.43736644939E+03  0.51561037459E+03  0.00000000000E+00 0.  1.
<mgrwt>
<rscale>  0 0.13454530E+04</rscale>
<asrwt>0</asrwt>
<pdfrwt beam="1">  1        1 0.23780767E+00 0.13454530E+04</pdfrwt>
<pdfrwt beam="2">  1       -1 0.45042709E-01 0.13454530E+04</pdfrwt>
<totfact> 0.29109985E+01</totfact>
</mgrwt>
</event>
<event>
12    1  0.1477245E-007  0.1214962E+04  0.7818608E-02  0.9099860E-01
         -2   -1    0    0    0  501 -0.00000000000E+00  0.00000000000E+00  0.51656181415E+03  0.51656181415E+03  0.00000000000E+00 0.  1.
          2   -1    0    0  501    0  0.00000000000E+00 -0.00000000000E+00 -0.71440282988E+03  0.71440282988E+03  0.00000000000E+00 0. -1.
         23    2    1    2    0    0  0.19723258337E+03 -0.14751140767E+03  0.68711001836E+02  0.27168634201E+03  0.91825700783E+02 0.  0.
        254    2    1    2    0    0 -0.19723258337E+03  0.14751140767E+03 -0.26655201757E+03  0.95927830202E+03  0.88797780114E+03 0.  0.
        -24    2    4    4    0    0 -0.32471814569E+03 -0.11497214610E+02 -0.52378117430E+03  0.62160889374E+03  0.80478805514E+02 0.  0.
         24    2    4    4    0    0  0.12748556232E+03  0.15900862228E+03  0.25722915673E+03  0.33766940828E+03  0.79482574547E+02 0.  0.
         11    1    3    3    0    0  0.21496407343E+02 -0.21947746766E+02 -0.21626861176E+02  0.37570204166E+02  0.00000000000E+00 0. -1.
        -11    1    3    3    0    0  0.17573617603E+03 -0.12556366091E+03  0.90337863012E+02  0.23411613784E+03  0.00000000000E+00 0.  1.
          2    1    6    6  502    0  0.10127957288E+03  0.98672023913E+02  0.22157004582E+03  0.26284407049E+03  0.00000000000E+00 0. -1.
          1    1    5    5  503    0 -0.17911429505E+03  0.15133027860E+02 -0.34900479230E+03  0.39257519569E+03  0.00000000000E+00 0. -1.
         -2    1    5    5    0  503 -0.14560385064E+03 -0.26630242470E+02 -0.17477638201E+03  0.22903369805E+03  0.00000000000E+00 0.  1.
         -1    1    6    6    0  502  0.26205989435E+02  0.60336598368E+02  0.35659110915E+02  0.74825337795E+02  0.00000000000E+00 0.  1.
<mgrwt>
<rscale>  0 0.12149621E+04</rscale>
<asrwt>0</asrwt>
<pdfrwt beam="1">  1        2 0.10990813E+00 0.12149621E+04</pdfrwt>
<pdfrwt beam="2">  1       -2 0.79471048E-01 0.12149621E+04</pdfrwt>
<totfact> 0.55248445E+01</totfact>
</mgrwt>
</event>
<event>
12    1  0.1477245E-007  0.1823990E+04  0.7818608E-02  0.8693645E-01
         -1   -1    0    0    0  501 -0.00000000000E+00  0.00000000000E+00  0.86465616542E+03  0.86465616542E+03  0.00000000000E+00 0. -1.
          1   -1    0    0  501    0  0.00000000000E+00 -0.00000000000E+00 -0.96192514345E+03  0.96192514345E+03  0.00000000000E+00 0.  1.
         23    2    1    2    0    0  0.60547488359E+03  0.31958218118E+03 -0.10309687888E+03  0.70040921424E+03  0.10588435090E+03 0.  0.
        254    2    1    2    0    0 -0.60547488359E+03 -0.31958218118E+03  0.58279008466E+01  0.11261720946E+04  0.89414597081E+03 0.  0.
        -24    2    4    4    0    0 -0.33774023728E+03  0.13078333004E+03 -0.33166889754E+03  0.49761993104E+03  0.80303118766E+02 0.  0.
         24    2    4    4    0    0 -0.26773464632E+03 -0.45036551122E+03  0.33749679838E+03  0.62855216359E+03  0.81625969527E+02 0.  0.
         13    1    3    3    0    0  0.25027657322E+02  0.10137130300E+02 -0.27094340906E+02  0.38252429346E+02  0.00000000000E+00 0. -1.
        -13    1    3    3    0    0  0.58044722627E+03  0.30944505088E+03 -0.76002537973E+02  0.66215678489E+03  0.00000000000E+00 0.  1.
          4    1    6    6  502    0 -0.13857552805E+03 -0.26207813389E+03  0.23485684432E+03  0.37821404332E+03  0.00000000000E+00 0. -1.
          1    1    5    5  503    0 -0.20374786776E+03  0.11517411916E+03 -0.23494641593E+03  0.33162944637E+03  0.00000000000E+00 0. -1.
         -2    1    5    5    0  503 -0.13399236952E+03  0.15609210880E+02 -0.96722481604E+02  0.16599048467E+03  0.00000000000E+00 0.  1.
         -3    1    6    6    0  502 -0.12915911826E+03 -0.18828737733E+03  0.10263995406E+03  0.25033812027E+03  0.00000000000E+00 0.  1.
<mgrwt>
<rscale>  0 0.18239896E+04</rscale>
<asrwt>0</asrwt>
<pdfrwt beam="1">  1        1 0.14798848E+00 0.18239896E+04</pdfrwt>
<pdfrwt beam="2">  1       -1 0.13302403E+00 0.18239896E+04</pdfrwt>
<totfact> 0.73054647E+00</totfact>
</mgrwt>
</event>
<event>
12    1  0.1477245E-007  0.1580465E+04  0.7818608E-02  0.8832640E-01
          2   -1    0    0  501    0  0.00000000000E+00  0.00000000000E+00  0.12567555237E+04  0.12567555237E+04  0.00000000000E+00 0.  1.
         -2   -1    0    0    0  501 -0.00000000000E+00 -0.00000000000E+00 -0.49688861108E+03  0.49688861108E+03  0.00000000000E+00 0. -1.
         23    2    1    2    0    0 -0.52312243530E+03 -0.61225397286E+02  0.27399295052E+03  0.60059166259E+03  0.90733547562E+02 0.  0.
        254    2    1    2    0    0  0.52312243530E+03  0.61225397286E+02  0.48587396207E+03  0.11530524722E+04  0.90335533704E+03 0.  0.
        -24    2    4    4    0    0 -0.95125642652E+02 -0.15178806180E+03 -0.14545956617E+03  0.24112778416E+03  0.69968702337E+02 0.  0.
         24    2    4    4    0    0  0.61824807795E+03  0.21301345908E+03  0.63133352825E+03  0.91192468800E+03  0.73615168719E+02 0.  0.
         13    1    3    3    0    0 -0.27813106651E+03 -0.66730388408E+02  0.18102240282E+03  0.33849511845E+03  0.00000000000E+00 0.  1.
        -13    1    3    3    0    0 -0.24499136879E+03  0.55049911216E+01  0.92970547699E+02  0.26209654413E+03  0.00000000000E+00 0. -1.
          4    1    6    6  502    0  0.79213093396E+02  0.53681469731E+02  0.82866593556E+02  0.12658312164E+03  0.00000000000E+00 0. -1.
          3    1    5    5  503    0 -0.46089617997E+02 -0.45362088166E+02 -0.16213175639E+02  0.66669625724E+02  0.00000000000E+00 0. -1.
         -4    1    5    5    0  503 -0.49036024655E+02 -0.10642597363E+03 -0.12924639054E+03  0.17445815843E+03  0.00000000000E+00 0.  1.
         -3    1    6    6    0  502  0.53903498455E+03  0.15933198935E+03  0.54846693469E+03  0.78534156636E+03  0.00000000000E+00 0.  1.
<mgrwt>
<rscale>  0 0.15804651E+04</rscale>
<asrwt>0</asrwt>
<pdfrwt beam="1">  1        2 0.19334700E+00 0.15804651E+04</pdfrwt>
<pdfrwt beam="2">  1       -2 0.76444402E-01 0.15804651E+04</pdfrwt>
<totfact> 0.25762148E+01</totfact>
</mgrwt>
</event>
<event>
12    1  0.1477245E-007  0.1786729E+04  0.7818608E-02  0.8713389E-01
          1   -1    0    0  501    0  0.00000000000E+00  0.00000000000E+00  0.95112730035E+03  0.95112730035E+03  0.00000000000E+00 0. -1.
         -1   -1    0    0    0  501 -0.00000000000E+00 -0.00000000000E+00 -0.83910998615E+03  0.83910998615E+03  0.00000000000E+00 0.  1.
         23    2    1    2    0    0  0.47779064245E+03 -0.23914234940E+03 -0.18635297753E+03  0.57265165593E+03  0.87917720193E+02 0.  0.
        254    2    1    2    0    0 -0.47779064245E+03  0.23914234940E+03  0.29837029173E+03  0.12175856306E+04  0.10526238528E+04 0.  0.
        -24    2    4    4    0    0 -0.18212299229E+03 -0.39191736997E+03  0.27102426977E+03  0.51630054574E+03  0.79649792981E+02 0.  0.
         24    2    4    4    0    0 -0.29566765016E+03  0.63105971937E+03  0.27346021958E+02  0.70128508482E+03  0.73465886753E+02 0.  0.
         13    1    3    3    0    0  0.25425584819E+03 -0.10590494554E+03 -0.53910632949E+02  0.28065681922E+03  0.00000000000E+00 0.  1.
        -13    1    3    3    0    0  0.22353479426E+03 -0.13323740386E+03 -0.13244234458E+03  0.29199483672E+03  0.00000000000E+00 0. -1.
          2    1    6    6  502    0 -0.61503614606E+02  0.19582404422E+03  0.27243757075E+02  0.20705548340E+03  0.00000000000E+00 0. -1.
          3    1    5    5  503    0 -0.19191072419E+01 -0.53406019213E+02  0.52531279496E+02  0.74936114033E+02  0.00000000000E+00 0. -1.
         -4    1    5    5    0  503 -0.18020388505E+03 -0.33851135076E+03  0.21849299028E+03  0.44136443171E+03  0.00000000000E+00 0.  1.
         -1    1    6    6    0  502 -0.23416403555E+03  0.43523567515E+03  0.10226488309E+00  0.49422960143E+03  0.00000000000E+00 0.  1.
<mgrwt>
<rscale>  0 0.17867293E+04</rscale>
<asrwt>0</asrwt>
<pdfrwt beam="1">  1        1 0.14632728E+00 0.17867293E+04</pdfrwt>
<pdfrwt beam="2">  1       -1 0.12909384E+00 0.17867293E+04</pdfrwt>
<totfact> 0.80668549E+00</totfact>
</mgrwt>
</event>
<event>
12    1  0.1477245E-007  0.1364283E+04  0.7818608E-02  0.8980086E-01
          1   -1    0    0  501    0  0.00000000000E+00  0.00000000000E+00  0.16601475742E+04  0.16601475742E+04  0.00000000000E+00 0. -1.
         -1   -1    0    0    0  501 -0.00000000000E+00 -0.00000000000E+00 -0.28028656288E+03  0.28028656288E+03  0.00000000000E+00 0.  1.
         23    2    1    2    0    0 -0.32516326158E+03 -0.20683058497E+02  0.64805812564E+03  0.73138716885E+03  0.93749245155E+02 0.  0.
        254    2    1    2    0    0  0.32516326158E+03  0.20683058497E+02  0.73180288569E+03  0.12090469682E+04  0.90559382303E+03 0.  0.
        -24    2    4    4    0    0  0.28458737063E+03 -0.41241907825E+03  0.48883081117E+03  0.70438693669E+03  0.78268301348E+02 0.  0.
         24    2    4    4    0    0  0.40575890948E+02  0.43310213675E+03  0.24297207452E+03  0.50466003155E+03  0.80140218791E+02 0.  0.
         11    1    3    3    0    0 -0.31734131800E+03 -0.15624625742E+02  0.64840507858E+03  0.72206563896E+03  0.00000000000E+00 0. -1.
        -11    1    3    3    0    0 -0.78219435787E+01 -0.50584327550E+01 -0.34695293573E+00  0.93215298972E+01  0.00000000000E+00 0.  1.
          2    1    6    6  502    0  0.15963775979E+02  0.40243597310E+03  0.21645910800E+03  0.45723527863E+03  0.00000000000E+00 0. -1.
          3    1    5    5  503    0  0.14545531576E+03 -0.26086572421E+03  0.32493140037E+03  0.44134860360E+03  0.00000000000E+00 0. -1.
         -4    1    5    5    0  503  0.13913205487E+03 -0.15155335404E+03  0.16389941080E+03  0.26303833309E+03  0.00000000000E+00 0.  1.
         -1    1    6    6    0  502  0.24612114969E+02  0.30666163654E+02  0.26512966518E+02  0.47424752926E+02  0.00000000000E+00 0.  1.
<mgrwt>
<rscale>  0 0.13642830E+04</rscale>
<asrwt>0</asrwt>
<pdfrwt beam="1">  1        1 0.25540731E+00 0.13642830E+04</pdfrwt>
<pdfrwt beam="2">  1       -1 0.43121011E-01 0.13642830E+04</pdfrwt>
<totfact> 0.26311733E+01</totfact>
</mgrwt>
</event>
<event>
12    1  0.1477245E-007  0.1554851E+04  0.7818608E-02  0.8848775E-01
          2   -1    0    0  501    0  0.00000000000E+00  0.00000000000E+00  0.42112555899E+04  0.42112555899E+04  0.00000000000E+00 0.  1.
         -2   -1    0    0    0  501 -0.00000000000E+00 -0.00000000000E+00 -0.14351781650E+03  0.14351781650E+03  0.00000000000E+00 0. -1.
         23    2    1    2    0    0  0.31627802795E+03 -0.39198881773E+03  0.15947339143E+04  0.16748739172E+04  0.91320079788E+02 0.  0.
        254    2    1    2    0    0 -0.31627802795E+03  0.39198881773E+03  0.24730038591E+04  0.26798994892E+04  0.90134685931E+03 0.  0.
        -24    2    4    4    0    0  0.47024411185E+02 -0.21793923342E+03  0.24374930833E+03  0.33898237262E+03  0.76069172007E+02 0.  0.
         24    2    4    4    0    0 -0.36330243913E+03  0.60992805114E+03  0.22292545508E+04  0.23409171165E+04  0.79474553191E+02 0.  0.
         13    1    3    3    0    0  0.26592217453E+03 -0.32691802648E+03  0.14289546343E+04  0.14897990958E+04  0.00000000000E+00 0.  1.
        -13    1    3    3    0    0  0.50355853416E+02 -0.65070791242E+02  0.16577927997E+03  0.18507482139E+03  0.00000000000E+00 0. -1.
          4    1    6    6  502    0 -0.12334051512E+03  0.16472196463E+03  0.74281701608E+03  0.77079395929E+03  0.00000000000E+00 0. -1.
          3    1    5    5  503    0  0.40581414744E+02 -0.40586063067E+02  0.48625920214E+02  0.75223399648E+02  0.00000000000E+00 0. -1.
         -4    1    5    5    0  503  0.64429964402E+01 -0.17735317035E+03  0.19512338812E+03  0.26375897298E+03  0.00000000000E+00 0.  1.
         -3    1    6    6    0  502 -0.23996192402E+03  0.44520608651E+03  0.14864375347E+04  0.15701231573E+04  0.00000000000E+00 0.  1.
<mgrwt>
<rscale>  0 0.15548507E+04</rscale>
<asrwt>0</asrwt>
<pdfrwt beam="1">  1        2 0.64788538E+00 0.15548507E+04</pdfrwt>
<pdfrwt beam="2">  1       -2 0.22079667E-01 0.15548507E+04</pdfrwt>
<totfact> 0.40281982E+00</totfact>
</mgrwt>
</event>
<event>
12    1  0.1477245E-007  0.2757460E+04  0.7818608E-02  0.8316598E-01
         -1   -1    0    0    0  501 -0.00000000000E+00  0.00000000000E+00  0.14103183441E+04  0.14103183441E+04  0.00000000000E+00 0.  1.
          1   -1    0    0  501    0  0.00000000000E+00 -0.00000000000E+00 -0.13478493441E+04  0.13478493441E+04  0.00000000000E+00 0. -1.
         23    2    1    2    0    0 -0.81534535452E+03 -0.27202682113E+03 -0.85295336282E+03  0.12144795035E+04  0.92975194489E+02 0.  0.
        254    2    1    2    0    0  0.81534535452E+03  0.27202682113E+03  0.91542236280E+03  0.15436881847E+04  0.89787998685E+03 0.  0.
        -24    2    4    4    0    0  0.10039241481E+04  0.22894192977E+03  0.79074400565E+03  0.13008391090E+04  0.81413773808E+02 0.  0.
         24    2    4    4    0    0 -0.18857879361E+03  0.43084891353E+02  0.12467835714E+03  0.24284907574E+03  0.77541676417E+02 0.  0.
         13    1    3    3    0    0 -0.37647027877E+03 -0.86462770234E+02 -0.34336456691E+03  0.51682192992E+03  0.00000000000E+00 0.  1.
        -13    1    3    3    0    0 -0.43887507575E+03 -0.18556405089E+03 -0.50958879591E+03  0.69765757361E+03  0.00000000000E+00 0. -1.
          2    1    6    6  502    0 -0.14692503396E+03  0.61795695048E+02  0.11397301228E+03  0.19594775084E+03  0.00000000000E+00 0. -1.
          3    1    5    5  503    0  0.92069460166E+03  0.20077918390E+03  0.69510874798E+03  0.11709684034E+04  0.00000000000E+00 0. -1.
         -4    1    5    5    0  503  0.83229546473E+02  0.28162745877E+02  0.95635257671E+02  0.12987070559E+03  0.00000000000E+00 0.  1.
         -1    1    6    6    0  502 -0.41653759651E+02 -0.18710803696E+02  0.10705344859E+02  0.46901324891E+02  0.00000000000E+00 0.  1.
<mgrwt>
<rscale>  0 0.27574602E+04</rscale>
<asrwt>0</asrwt>
<pdfrwt beam="1">  1        1 0.20736144E+00 0.27574602E+04</pdfrwt>
<pdfrwt beam="2">  1       -1 0.21697205E+00 0.27574602E+04</pdfrwt>
<totfact> 0.83802064E-01</totfact>
</mgrwt>
</event>
<event>
12    1  0.1477245E-007  0.1450415E+04  0.7818608E-02  0.8918113E-01
          1   -1    0    0  501    0  0.00000000000E+00  0.00000000000E+00  0.86707553214E+03  0.86707553214E+03  0.00000000000E+00 0. -1.
         -1   -1    0    0    0  501 -0.00000000000E+00 -0.00000000000E+00 -0.60655103231E+03  0.60655103231E+03  0.00000000000E+00 0.  1.
         23    2    1    2    0    0  0.37892079774E+03  0.14374434134E+03 -0.10197636444E+03  0.42777285898E+03  0.91362100182E+02 0.  0.
        254    2    1    2    0    0 -0.37892079774E+03 -0.14374434134E+03  0.36250086427E+03  0.10458537055E+04  0.89339783414E+03 0.  0.
        -24    2    4    4    0    0 -0.47864117808E+03 -0.42874365712E+03  0.13931283748E+03  0.66264083296E+03  0.82257558589E+02 0.  0.
         24    2    4    4    0    0  0.99720380338E+02  0.28499931578E+03  0.22318802678E+03  0.38321287252E+03  0.76618836557E+02 0.  0.
         11    1    3    3    0    0  0.36105210261E+03  0.12895156446E+03 -0.72367768281E+02  0.39015922475E+03  0.00000000000E+00 0. -1.
        -11    1    3    3    0    0  0.17868695133E+02  0.14792776885E+02 -0.29608596154E+02  0.37613634229E+02  0.00000000000E+00 0.  1.
          4    1    6    6  502    0  0.73195153851E+02  0.19248623761E+03  0.19329049250E+03  0.28243529650E+03  0.00000000000E+00 0. -1.
          3    1    5    5  503    0 -0.25184064192E+03 -0.17921726400E+03  0.43875671238E+02  0.31219803197E+03  0.00000000000E+00 0. -1.
         -4    1    5    5    0  503 -0.22680053615E+03 -0.24952639312E+03  0.95437166243E+02  0.35044280099E+03  0.00000000000E+00 0.  1.
         -3    1    6    6    0  502  0.26525226488E+02  0.92513078170E+02  0.29897534283E+02  0.10077757602E+03  0.00000000000E+00 0.  1.
<mgrwt>
<rscale>  0 0.14504145E+04</rscale>
<asrwt>0</asrwt>
<pdfrwt beam="1">  1        1 0.13339624E+00 0.14504145E+04</pdfrwt>
<pdfrwt beam="2">  1       -1 0.93315544E-01 0.14504145E+04</pdfrwt>
<totfact> 0.20982481E+01</totfact>
</mgrwt>
</event>
<event>
12    1  0.1477245E-007  0.1869834E+04  0.7818608E-02  0.8670019E-01
          2   -1    0    0  501    0  0.00000000000E+00  0.00000000000E+00  0.13003127491E+04  0.13003127491E+04  0.00000000000E+00 0. -1.
         -2   -1    0    0    0  501 -0.00000000000E+00 -0.00000000000E+00 -0.67219976277E+03  0.67219976277E+03  0.00000000000E+00 0.  1.
         23    2    1    2    0    0  0.44263143245E+03 -0.63352660356E+02  0.82459891445E+03  0.94231749719E+03  0.89792823918E+02 0.  0.
        254    2    1    2    0    0 -0.44263143245E+03  0.63352660356E+02 -0.19648592816E+03  0.10301950147E+04  0.90706058435E+03 0.  0.
        -24    2    4    4    0    0  0.76239252356E+02  0.37159393999E+03  0.81191967166E+01  0.38792997692E+03  0.80803872429E+02 0.  0.
         24    2    4    4    0    0 -0.51887068481E+03 -0.30824127964E+03 -0.20460512488E+03  0.64226503773E+03  0.80010296503E+02 0.  0.
         13    1    3    3    0    0  0.14853808696E+03 -0.57278414247E+02  0.34004381375E+03  0.37546527840E+03  0.00000000000E+00 0.  1.
        -13    1    3    3    0    0  0.29409334549E+03 -0.60742461083E+01  0.48455510071E+03  0.56685221879E+03  0.00000000000E+00 0. -1.
          4    1    6    6  502    0 -0.14318338882E+03 -0.45811229574E+02 -0.43464351774E+02  0.15649057948E+03  0.00000000000E+00 0. -1.
          1    1    5    5  503    0  0.63795151771E+02  0.19449065213E+03 -0.28476619321E+02  0.20665757427E+03  0.00000000000E+00 0. -1.
         -2    1    5    5    0  503  0.12444100585E+02  0.17710328787E+03  0.36595816037E+02  0.18127240265E+03  0.00000000000E+00 0.  1.
         -3    1    6    6    0  502 -0.37568729598E+03 -0.26243005006E+03 -0.16114077310E+03  0.48577445826E+03  0.00000000000E+00 0.  1.
<mgrwt>
<rscale>  0 0.18698341E+04</rscale>
<asrwt>0</asrwt>
<pdfrwt beam="1">  1        2 0.20004811E+00 0.18698341E+04</pdfrwt>
<pdfrwt beam="2">  1       -2 0.10341535E+00 0.18698341E+04</pdfrwt>
<totfact> 0.11829436E+01</totfact>
</mgrwt>
</event>
<event>
12    1  0.1477245E-007  0.2575935E+04  0.7818608E-02  0.8376422E-01
          1   -1    0    0  501    0  0.00000000000E+00  0.00000000000E+00  0.35345483344E+04  0.35345483344E+04  0.00000000000E+00 0. -1.
         -1   -1    0    0    0  501 -0.00000000000E+00 -0.00000000000E+00 -0.46932754252E+03  0.46932754252E+03  0.00000000000E+00 0.  1.
         23    2    1    2    0    0 -0.31977598104E+03  0.29849922572E+03  0.29773526864E+04  0.30106676557E+04  0.90178978242E+02 0.  0.
        254    2    1    2    0    0  0.31977598104E+03 -0.29849922572E+03  0.87868105476E+02  0.99320822121E+03  0.88734621254E+03 0.  0.
        -24    2    4    4    0    0 -0.28573004041E+03 -0.71305812238E+02  0.14713936505E+03  0.33846927070E+03  0.78646548632E+02 0.  0.
         24    2    4    4    0    0  0.60550602145E+03 -0.22719341348E+03 -0.59271259579E+02  0.65473895051E+03  0.83160218629E+02 0.  0.
         11    1    3    3    0    0 -0.28225368394E+03  0.29551145124E+03  0.27576214365E+04  0.27877356666E+04  0.00000000000E+00 0. -1.
        -11    1    3    3    0    0 -0.37522297105E+02  0.29877744829E+01  0.21973124995E+03  0.22293198914E+03  0.00000000000E+00 0.  1.
          4    1    6    6  502    0  0.58535010499E+02 -0.27649141850E+02 -0.31114106701E+02  0.71825553496E+02  0.00000000000E+00 0. -1.
          3    1    5    5  503    0 -0.12578500422E+03  0.82007534136E+01  0.55736061487E+02  0.13782462840E+03  0.00000000000E+00 0. -1.
         -4    1    5    5    0  503 -0.15994503619E+03 -0.79506565651E+02  0.91403303568E+02  0.20064464231E+03  0.00000000000E+00 0.  1.
         -3    1    6    6    0  502  0.54697101095E+03 -0.19954427163E+03 -0.28157152878E+02  0.58291339701E+03  0.00000000000E+00 0.  1.
<mgrwt>
<rscale>  0 0.25759355E+04</rscale>
<asrwt>0</asrwt>
<pdfrwt beam="1">  1        1 0.54377665E+00 0.25759355E+04</pdfrwt>
<pdfrwt beam="2">  1       -1 0.72204240E-01 0.25759355E+04</pdfrwt>
<totfact> 0.40102269E-01</totfact>
</mgrwt>
</event>
<event>
12    1  0.1477245E-007  0.1148187E+04  0.7818608E-02  0.9159458E-01
          1   -1    0    0  501    0  0.00000000000E+00  0.00000000000E+00  0.19427358931E+04  0.19427358931E+04  0.00000000000E+00 0. -1.
         -1   -1    0    0    0  501 -0.00000000000E+00 -0.00000000000E+00 -0.16964896386E+03  0.16964896386E+03  0.00000000000E+00 0.  1.
         23    2    1    2    0    0  0.27477388426E+02  0.19483476106E+03  0.13289914881E+03  0.25456101314E+03  0.91779816229E+02 0.  0.
        254    2    1    2    0    0 -0.27477388426E+02 -0.19483476106E+03  0.16401877805E+04  0.18578238439E+04  0.85004581559E+03 0.  0.
        -24    2    4    4    0    0 -0.10460176405E+03  0.31082559480E+02  0.15966289660E+04  0.16024040045E+04  0.81036313737E+02 0.  0.
         24    2    4    4    0    0  0.77124375621E+02 -0.22591732054E+03  0.43558814465E+02  0.25541983931E+03  0.79719000004E+02 0.  0.
         11    1    3    3    0    0  0.38664523487E+02  0.27561137147E+02  0.15703318750E+02  0.50011557435E+02  0.00000000000E+00 0.  1.
        -11    1    3    3    0    0 -0.11187135061E+02  0.16727362391E+03  0.11719583006E+03  0.20454945571E+03  0.00000000000E+00 0. -1.
          4    1    6    6  502    0  0.70642883767E+02 -0.93964419853E+02  0.36606696022E+02  0.12312505602E+03  0.00000000000E+00 0. -1.
          1    1    5    5  503    0 -0.76433438452E+01 -0.11759027094E+02  0.59808975182E+03  0.59825416560E+03  0.00000000000E+00 0. -1.
         -2    1    5    5    0  503 -0.96958420201E+02  0.42841586574E+02  0.99853921418E+03  0.10041498389E+04  0.00000000000E+00 0.  1.
         -3    1    6    6    0  502  0.64814918531E+01 -0.13195290069E+03  0.69521184426E+01  0.13229478330E+03  0.00000000000E+00 0.  1.
<mgrwt>
<rscale>  0 0.11481866E+04</rscale>
<asrwt>0</asrwt>
<pdfrwt beam="1">  1        1 0.29888243E+00 0.11481866E+04</pdfrwt>
<pdfrwt beam="2">  1       -1 0.26099842E-01 0.11481866E+04</pdfrwt>
<totfact> 0.42183903E+01</totfact>
</mgrwt>
</event>
<event>
12    1  0.1477245E-007  0.1972913E+04  0.7818608E-02  0.8619391E-01
         -2   -1    0    0    0  501 -0.00000000000E+00  0.00000000000E+00  0.59986841927E+03  0.59986841927E+03  0.00000000000E+00 0.  1.
          2   -1    0    0  501    0  0.00000000000E+00 -0.00000000000E+00 -0.16221825192E+04  0.16221825192E+04  0.00000000000E+00 0. -1.
         23    2    1    2    0    0 -0.27290824448E+03 -0.13685058507E+03  0.39962555769E+03  0.51108988566E+03  0.91133376597E+02 0.  0.
        254    2    1    2    0    0  0.27290824448E+03  0.13685058507E+03 -0.14219396577E+04  0.17109610529E+04  0.90125930885E+03 0.  0.
        -24    2    4    4    0    0  0.11222412537E+03 -0.32906246417E+03 -0.98420052816E+03  0.10467181235E+04  0.78049925644E+02 0.  0.
         24    2    4    4    0    0  0.16068411911E+03  0.46591304923E+03 -0.43773912951E+03  0.66424292930E+03  0.81907069587E+02 0.  0.
         13    1    3    3    0    0 -0.11691916658E+03 -0.66952683218E+02  0.10639912650E+03  0.17167855842E+03  0.00000000000E+00 0. -1.
        -13    1    3    3    0    0 -0.15598907790E+03 -0.69897901848E+02  0.29322643120E+03  0.33941132724E+03  0.00000000000E+00 0.  1.
          4    1    6    6  502    0  0.74297210246E+02  0.31048002590E+03 -0.31253264101E+03  0.44676008509E+03  0.00000000000E+00 0. -1.
          3    1    5    5  503    0  0.46293178839E+02 -0.60721519035E+02 -0.15693571915E+03  0.17452501604E+03  0.00000000000E+00 0. -1.
         -4    1    5    5    0  503  0.65930946530E+02 -0.26834094513E+03 -0.82726480901E+03  0.87219310750E+03  0.00000000000E+00 0.  1.
         -3    1    6    6    0  502  0.86386908862E+02  0.15543302334E+03 -0.12520648850E+03  0.21748284422E+03  0.00000000000E+00 0.  1.
<mgrwt>
<rscale>  0 0.19729126E+04</rscale>
<asrwt>0</asrwt>
<pdfrwt beam="1">  1        2 0.24956655E+00 0.19729126E+04</pdfrwt>
<pdfrwt beam="2">  1       -2 0.92287448E-01 0.19729126E+04</pdfrwt>
<totfact> 0.10062181E+01</totfact>
</mgrwt>
</event>
<event>
12    1  0.1477245E-007  0.1675307E+04  0.7818608E-02  0.8775574E-01
         -2   -1    0    0    0  501 -0.00000000000E+00  0.00000000000E+00  0.31322125520E+03  0.31322125520E+03  0.00000000000E+00 0. -1.
          2   -1    0    0  501    0  0.00000000000E+00 -0.00000000000E+00 -0.22401519149E+04  0.22401519149E+04  0.00000000000E+00 0.  1.
         23    2    1    2    0    0 -0.78129966375E+02  0.87541860581E+02 -0.15893193897E+04  0.15964306500E+04  0.94269978627E+02 0.  0.
        254    2    1    2    0    0  0.78129966375E+02 -0.87541860581E+02 -0.33761126995E+03  0.95694252002E+03  0.88768786633E+03 0.  0.
        -24    2    4    4    0    0 -0.20918168376E+03 -0.19488177691E+03 -0.51390407367E+03  0.59358034077E+03  0.80649489916E+02 0.  0.
         24    2    4    4    0    0  0.28731165014E+03  0.10733991633E+03  0.17629280372E+03  0.36336217925E+03  0.82964321980E+02 0.  0.
         13    1    3    3    0    0 -0.55902740567E+02  0.10225419024E+03 -0.14433830797E+04  0.14480800222E+04  0.00000000000E+00 0.  1.
        -13    1    3    3    0    0 -0.22227225808E+02 -0.14712329660E+02 -0.14593630999E+03  0.14835062786E+03  0.00000000000E+00 0. -1.
          2    1    6    6  502    0  0.10489794078E+02  0.22689725916E+02  0.29908304600E+02  0.38979047269E+02  0.00000000000E+00 0. -1.
          1    1    5    5  503    0 -0.54190739790E+02 -0.21536760263E+02 -0.60514078202E+02  0.84038217392E+02  0.00000000000E+00 0. -1.
         -2    1    5    5    0  503 -0.15499094397E+03 -0.17334501664E+03 -0.45338999547E+03  0.50954212338E+03  0.00000000000E+00 0.  1.
         -1    1    6    6    0  502  0.27682185606E+03  0.84650190410E+02  0.14638449912E+03  0.32438313198E+03  0.00000000000E+00 0.  1.
<mgrwt>
<rscale>  0 0.16753068E+04</rscale>
<asrwt>0</asrwt>
<pdfrwt beam="1">  1        2 0.34463877E+00 0.16753068E+04</pdfrwt>
<pdfrwt beam="2">  1       -2 0.48187884E-01 0.16753068E+04</pdfrwt>
<totfact> 0.19077570E+01</totfact>
</mgrwt>
</event>
<event>
12    1  0.1477245E-007  0.2294337E+04  0.7818608E-02  0.8480157E-01
          1   -1    0    0  501    0  0.00000000000E+00  0.00000000000E+00  0.10146481029E+04  0.10146481029E+04  0.00000000000E+00 0. -1.
         -1   -1    0    0    0  501 -0.00000000000E+00 -0.00000000000E+00 -0.12969968722E+04  0.12969968722E+04  0.00000000000E+00 0.  1.
         23    2    1    2    0    0 -0.67421565188E+03  0.23516780392E+03 -0.76599313117E+03  0.10512007915E+04  0.91689616569E+02 0.  0.
        254    2    1    2    0    0  0.67421565188E+03 -0.23516780392E+03  0.48364436190E+03  0.12604441836E+04  0.91920456365E+03 0.  0.
        -24    2    4    4    0    0  0.78044755209E+03 -0.42476016257E+03  0.23739543742E+03  0.92243294267E+03  0.70755655198E+02 0.  0.
         24    2    4    4    0    0 -0.10623190020E+03  0.18959235865E+03  0.24624892448E+03  0.33801124090E+03  0.79891095133E+02 0.  0.
         11    1    3    3    0    0 -0.54253051055E+03  0.17675241001E+03 -0.55717721700E+03  0.79751314752E+03  0.00000000000E+00 0. -1.
        -11    1    3    3    0    0 -0.13168514133E+03  0.58415393910E+02 -0.20881591416E+03  0.25368764397E+03  0.00000000000E+00 0.  1.
          4    1    6    6  502    0 -0.15405067591E+02  0.80930417646E+02  0.51298402948E+02  0.97049341847E+02  0.00000000000E+00 0. -1.
          3    1    5    5  503    0  0.39428353306E+03 -0.25042130546E+03  0.14109782152E+03  0.48793332527E+03  0.00000000000E+00 0. -1.
         -4    1    5    5    0  503  0.38616401903E+03 -0.17433885711E+03  0.96297615895E+02  0.43449961740E+03  0.00000000000E+00 0.  1.
         -3    1    6    6    0  502 -0.90826832613E+02  0.10866194101E+03  0.19495052154E+03  0.24096189905E+03  0.00000000000E+00 0.  1.
<mgrwt>
<rscale>  0 0.22943369E+04</rscale>
<asrwt>0</asrwt>
<pdfrwt beam="1">  1        1 0.15609971E+00 0.22943369E+04</pdfrwt>
<pdfrwt beam="2">  1       -1 0.19953798E+00 0.22943369E+04</pdfrwt>
<totfact> 0.20206500E+00</totfact>
</mgrwt>
</event>
<event>
12    1  0.1477245E-007  0.2286654E+04  0.7818608E-02  0.8483202E-01
          2   -1    0    0  501    0  0.00000000000E+00  0.00000000000E+00  0.27104729179E+04  0.27104729179E+04  0.00000000000E+00 0. -1.
         -2   -1    0    0    0  501 -0.00000000000E+00 -0.00000000000E+00 -0.48227602039E+03  0.48227602039E+03  0.00000000000E+00 0.  1.
         23    2    1    2    0    0  0.24917057437E+03 -0.84310278888E+03  0.14921710154E+04  0.17343035802E+04  0.91248459478E+02 0.  0.
        254    2    1    2    0    0 -0.24917057437E+03  0.84310278888E+03  0.73602588211E+03  0.14584453581E+04  0.90134370561E+03 0.  0.
        -24    2    4    4    0    0 -0.23660041957E+03  0.81383179717E+03  0.92178690933E+03  0.12545109613E+04  0.76188536883E+02 0.  0.
         24    2    4    4    0    0 -0.12570154794E+02  0.29270991712E+02 -0.18576102722E+03  0.20393439680E+03  0.77892741768E+02 0.  0.
         13    1    3    3    0    0  0.74525982430E+02 -0.19845437015E+03  0.43361241568E+03  0.48265721389E+03  0.00000000000E+00 0.  1.
        -13    1    3    3    0    0  0.17464459194E+03 -0.64464841873E+03  0.10585585998E+04  0.12516463663E+04  0.00000000000E+00 0. -1.
          2    1    6    6  502    0 -0.45443435133E+02  0.19824085467E+02 -0.10035805647E+03  0.11193676634E+03  0.00000000000E+00 0. -1.
          1    1    5    5  503    0 -0.24020368823E+03  0.76174085616E+03  0.86352527259E+03  0.11762749849E+04  0.00000000000E+00 0. -1.
         -2    1    5    5    0  503  0.36032686557E+01  0.52090941004E+02  0.58261636737E+02  0.78235976347E+02  0.00000000000E+00 0.  1.
         -1    1    6    6    0  502  0.32873280339E+02  0.94469062445E+01 -0.85402970748E+02  0.91997630461E+02  0.00000000000E+00 0.  1.
<mgrwt>
<rscale>  0 0.22866535E+04</rscale>
<asrwt>0</asrwt>
<pdfrwt beam="1">  1        2 0.41699582E+00 0.22866535E+04</pdfrwt>
<pdfrwt beam="2">  1       -2 0.74196312E-01 0.22866535E+04</pdfrwt>
<totfact> 0.38861969E+00</totfact>
</mgrwt>
</event>
<event>
12    1  0.1477245E-007  0.2126315E+04  0.7818608E-02  0.8549739E-01
          2   -1    0    0  501    0  0.00000000000E+00  0.00000000000E+00  0.34939708956E+04  0.34939708956E+04  0.00000000000E+00 0. -1.
         -2   -1    0    0    0  501 -0.00000000000E+00 -0.00000000000E+00 -0.32350117880E+03  0.32350117880E+03  0.00000000000E+00 0.  1.
         23    2    1    2    0    0 -0.24760018191E+03  0.71524334602E+03  0.52054123769E+03  0.92269631296E+03  0.86754894468E+02 0.  0.
        254    2    1    2    0    0  0.24760018191E+03 -0.71524334602E+03  0.26499284791E+04  0.28947757614E+04  0.88584810802E+03 0.  0.
        -24    2    4    4    0    0  0.21579555734E+02  0.13682026411E+03  0.83485338812E+02  0.17998957767E+03  0.78999901119E+02 0.  0.
         24    2    4    4    0    0  0.22602062618E+03 -0.85206361012E+03  0.25664431403E+04  0.27147861838E+04  0.79598442301E+02 0.  0.
         11    1    3    3    0    0 -0.24763126591E+03  0.64812260308E+03  0.48689316779E+03  0.84761377367E+03  0.00000000000E+00 0.  1.
        -11    1    3    3    0    0  0.31083990681E-01  0.67120742932E+02  0.33648069904E+02  0.75082539290E+02  0.00000000000E+00 0. -1.
          2    1    6    6  502    0  0.21574013899E+03 -0.83253212171E+03  0.25299866418E+04  0.26721687726E+04  0.00000000000E+00 0. -1.
          1    1    5    5  503    0  0.23060329414E+02  0.14402923887E+03  0.88929608805E+02  0.17083522987E+03  0.00000000000E+00 0. -1.
         -2    1    5    5    0  503 -0.14807736797E+01 -0.72089747651E+01 -0.54442699927E+01  0.91543477980E+01  0.00000000000E+00 0.  1.
         -1    1    6    6    0  502  0.10280487195E+02 -0.19531488413E+02  0.36456498482E+02  0.42617411209E+02  0.00000000000E+00 0.  1.
<mgrwt>
<rscale>  0 0.21263148E+04</rscale>
<asrwt>0</asrwt>
<pdfrwt beam="1">  1        2 0.53753396E+00 0.21263148E+04</pdfrwt>
<pdfrwt beam="2">  1       -2 0.49769415E-01 0.21263148E+04</pdfrwt>
<totfact> 0.28960060E+00</totfact>
</mgrwt>
</event>
<event>
12    1  0.1477245E-007  0.2305962E+04  0.7818608E-02  0.8475574E-01
          2   -1    0    0  501    0  0.00000000000E+00  0.00000000000E+00  0.24232989779E+04  0.24232989779E+04  0.00000000000E+00 0. -1.
         -2   -1    0    0    0  501 -0.00000000000E+00 -0.00000000000E+00 -0.54857662788E+03  0.54857662788E+03  0.00000000000E+00 0.  1.
         23    2    1    2    0    0 -0.85919535545E+03  0.98437716279E+02  0.21490622845E+03  0.89578054804E+03  0.91276833947E+02 0.  0.
        254    2    1    2    0    0  0.85919535545E+03 -0.98437716279E+02  0.16598161216E+04  0.20760950578E+04  0.89848455111E+03 0.  0.
        -24    2    4    4    0    0  0.56724250588E+02  0.24130609205E+03  0.84509092528E+02  0.27399500860E+03  0.80530785146E+02 0.  0.
         24    2    4    4    0    0  0.80247110486E+03 -0.33974380833E+03  0.15753070291E+04  0.18021000492E+04  0.81158006085E+02 0.  0.
         11    1    3    3    0    0 -0.68444671113E+03  0.59419587972E+02  0.13716394549E+03  0.70057971406E+03  0.00000000000E+00 0.  1.
        -11    1    3    3    0    0 -0.17474864432E+03  0.39018128307E+02  0.77742282956E+02  0.19520083398E+03  0.00000000000E+00 0. -1.
          2    1    6    6  502    0  0.65637179429E+03 -0.26524842470E+03  0.12144791032E+04  0.14057525214E+04  0.00000000000E+00 0. -1.
          3    1    5    5  503    0  0.71202606561E+02  0.12860306201E+03  0.48791822404E+02  0.15488447525E+03  0.00000000000E+00 0. -1.
         -4    1    5    5    0  503 -0.14478355973E+02  0.11270303004E+03  0.35717270124E+02  0.11911053335E+03  0.00000000000E+00 0.  1.
         -1    1    6    6    0  502  0.14609931057E+03 -0.74495383621E+02  0.36082792584E+03  0.39634752781E+03  0.00000000000E+00 0.  1.
<mgrwt>
<rscale>  0 0.23059620E+04</rscale>
<asrwt>0</asrwt>
<pdfrwt beam="1">  1        2 0.37281522E+00 0.23059620E+04</pdfrwt>
<pdfrwt beam="2">  1       -2 0.84396406E-01 0.23059620E+04</pdfrwt>
<totfact> 0.42775136E+00</totfact>
</mgrwt>
</event>
<event>
12    1  0.1477245E-007  0.3086565E+04  0.7818608E-02  0.8219435E-01
         -2   -1    0    0    0  501 -0.00000000000E+00  0.00000000000E+00  0.10233639018E+04  0.10233639018E+04  0.00000000000E+00 0.  1.
          2   -1    0    0  501    0  0.00000000000E+00 -0.00000000000E+00 -0.23273457642E+04  0.23273457642E+04  0.00000000000E+00 0. -1.
         23    2    1    2    0    0 -0.44239272085E+03  0.56427620738E+03  0.72329772890E+03  0.10225285532E+04  0.91027906240E+02 0.  0.
        254    2    1    2    0    0  0.44239272085E+03 -0.56427620738E+03 -0.20272795912E+04  0.23281811128E+04  0.89243811850E+03 0.  0.
        -24    2    4    4    0    0  0.63724604686E+02 -0.22605845866E+03 -0.90752278536E+01  0.24543357917E+03  0.70654299601E+02 0.  0.
         24    2    4    4    0    0  0.37866811617E+03 -0.33821774872E+03 -0.20182043634E+04  0.20827475336E+04  0.83112266063E+02 0.  0.
         11    1    3    3    0    0 -0.25045760574E+03  0.38862497431E+03  0.47588341370E+03  0.66349333559E+03  0.00000000000E+00 0.  1.
        -11    1    3    3    0    0 -0.19193511511E+03  0.17565123307E+03  0.24741431519E+03  0.35903521757E+03  0.00000000000E+00 0. -1.
          2    1    6    6  502    0  0.27753921633E+02 -0.27251497314E+02 -0.84688224792E+02  0.93193453044E+02  0.00000000000E+00 0. -1.
          3    1    5    5  503    0  0.97139823594E+00 -0.73937464243E+02  0.23691992267E+02  0.77646653056E+02  0.00000000000E+00 0. -1.
         -4    1    5    5    0  503  0.62753206451E+02 -0.15212099441E+03 -0.32767220120E+02  0.16778692612E+03  0.00000000000E+00 0.  1.
         -3    1    6    6    0  502  0.35091419453E+03 -0.31096625141E+03 -0.19335161386E+04  0.19895540806E+04  0.00000000000E+00 0.  1.
<mgrwt>
<rscale>  0 0.30865655E+04</rscale>
<asrwt>0</asrwt>
<pdfrwt beam="1">  1        2 0.35805319E+00 0.30865655E+04</pdfrwt>
<pdfrwt beam="2">  1       -2 0.15744060E+00 0.30865655E+04</pdfrwt>
<totfact> 0.97837681E-01</totfact>
</mgrwt>
</event>
<event>
12    1  0.1477245E-007  0.1458581E+04  0.7818608E-02  0.8912473E-01
         -1   -1    0    0    0  501 -0.00000000000E+00  0.00000000000E+00  0.22045777299E+03  0.22045777299E+03  0.00000000000E+00 0.  1.
          1   -1    0    0  501    0  0.00000000000E+00 -0.00000000000E+00 -0.24125457539E+04  0.24125457539E+04  0.00000000000E+00 0. -1.
         23    2    1    2    0    0 -0.68690185568E+02 -0.38894380920E+03 -0.10736953298E+04  0.11492566109E+04  0.10942334310E+03 0.  0.
        254    2    1    2    0    0  0.68690185568E+02  0.38894380920E+03 -0.11183926511E+04  0.14837469160E+04  0.89146349365E+03 0.  0.
        -24    2    4    4    0    0 -0.29189301754E+03  0.47770280582E+03 -0.84106754594E+03  0.10134901881E+04  0.79788722127E+02 0.  0.
         24    2    4    4    0    0  0.36058320311E+03 -0.88758996620E+02 -0.27732510513E+03  0.47025672791E+03  0.79584988286E+02 0.  0.
         11    1    3    3    0    0 -0.13302530786E+02 -0.21748000562E+02 -0.21153099220E+02  0.33126823880E+02  0.00000000000E+00 0.  1.
        -11    1    3    3    0    0 -0.55387654782E+02 -0.36719580863E+03 -0.10525422306E+04  0.11161297870E+04  0.00000000000E+00 0. -1.
          2    1    6    6  502    0  0.35272314721E+03 -0.84454572549E+02 -0.28265847746E+03  0.45982823781E+03  0.00000000000E+00 0. -1.
          3    1    5    5  503    0 -0.22073291977E+03  0.34110876287E+03 -0.66758240395E+03  0.78150142421E+03  0.00000000000E+00 0. -1.
         -4    1    5    5    0  503 -0.71160097773E+02  0.13659404295E+03 -0.17348514199E+03  0.23198876390E+03  0.00000000000E+00 0.  1.
         -3    1    6    6    0  502  0.78600559025E+01 -0.43044240717E+01  0.53333723333E+01  0.10428490103E+02  0.00000000000E+00 0.  1.
<mgrwt>
<rscale>  0 0.14585808E+04</rscale>
<asrwt>0</asrwt>
<pdfrwt beam="1">  1        1 0.37116087E+00 0.14585808E+04</pdfrwt>
<pdfrwt beam="2">  1       -1 0.33916582E-01 0.14585808E+04</pdfrwt>
<totfact> 0.12439506E+01</totfact>
</mgrwt>
</event>
<event>
12    1  0.1477245E-007  0.1306470E+04  0.7818608E-02  0.9024450E-01
          1   -1    0    0  501    0  0.00000000000E+00  0.00000000000E+00  0.72492470543E+03  0.72492470543E+03  0.00000000000E+00 0. -1.
         -1   -1    0    0    0  501 -0.00000000000E+00 -0.00000000000E+00 -0.58863460492E+03  0.58863460492E+03  0.00000000000E+00 0.  1.
         23    2    1    2    0    0 -0.29613021272E+03 -0.10442955387E+01 -0.68916965806E+02  0.31674558678E+03  0.88792033048E+02 0.  0.
        254    2    1    2    0    0  0.29613021272E+03  0.10442955387E+01  0.20520706631E+03  0.99681372357E+03  0.92942641775E+03 0.  0.
        -24    2    4    4    0    0  0.38176695145E+03 -0.37071803254E+03  0.26913070588E+03  0.60190617772E+03  0.81742553549E+02 0.  0.
         24    2    4    4    0    0 -0.85636738735E+02  0.37176232808E+03 -0.63923639563E+02  0.39490754585E+03  0.79528978839E+02 0.  0.
         13    1    3    3    0    0 -0.14145246491E+03 -0.25149552644E+02 -0.70846234782E+02  0.16018891601E+03  0.00000000000E+00 0.  1.
        -13    1    3    3    0    0 -0.15467774780E+03  0.24105257105E+02  0.19292689763E+01  0.15655667078E+03  0.00000000000E+00 0. -1.
          2    1    6    6  502    0 -0.94793304105E+02  0.36247875080E+03 -0.68899174570E+02  0.38095106187E+03  0.00000000000E+00 0. -1.
          3    1    5    5  503    0  0.32706555287E+03 -0.28773830461E+03  0.24436636931E+03  0.49947985972E+03  0.00000000000E+00 0. -1.
         -4    1    5    5    0  503  0.54701398579E+02 -0.82979727929E+02  0.24764336572E+02  0.10242631800E+03  0.00000000000E+00 0.  1.
         -1    1    6    6    0  502  0.91565653703E+01  0.92835772814E+01  0.49755350071E+01  0.13956483982E+02  0.00000000000E+00 0.  1.
<mgrwt>
<rscale>  0 0.13064697E+04</rscale>
<asrwt>0</asrwt>
<pdfrwt beam="1">  1        1 0.11152688E+00 0.13064697E+04</pdfrwt>
<pdfrwt beam="2">  1       -1 0.90559170E-01 0.13064697E+04</pdfrwt>
<totfact> 0.30228476E+01</totfact>
</mgrwt>
</event>
<event>
12    1  0.1477245E-007  0.1556720E+04  0.7818608E-02  0.8847587E-01
          2   -1    0    0  501    0  0.00000000000E+00  0.00000000000E+00  0.14862211220E+04  0.14862211220E+04  0.00000000000E+00 0. -1.
         -2   -1    0    0    0  501 -0.00000000000E+00 -0.00000000000E+00 -0.40764066071E+03  0.40764066071E+03  0.00000000000E+00 0.  1.
         23    2    1    2    0    0  0.31733384213E+03  0.74890976556E+02 -0.11294600842E+03  0.35689985170E+03  0.91166208617E+02 0.  0.
        254    2    1    2    0    0 -0.31733384213E+03 -0.74890976556E+02  0.11915264697E+04  0.15369619310E+04  0.91444366889E+03 0.  0.
        -24    2    4    4    0    0  0.20379012365E+03 -0.16051220432E+03  0.48795721166E+02  0.27584613042E+03  0.80096710511E+02 0.  0.
         24    2    4    4    0    0 -0.52112396578E+03  0.85621227762E+02  0.11427307485E+04  0.12611158005E+04  0.75354604662E+02 0.  0.
         13    1    3    3    0    0  0.14076097378E+02  0.65064857422E+00  0.14001792060E+02  0.19864794030E+02  0.00000000000E+00 0. -1.
        -13    1    3    3    0    0  0.30325774476E+03  0.74240327982E+02 -0.12694780048E+03  0.33703505767E+03  0.00000000000E+00 0.  1.
          2    1    6    6  502    0 -0.43861670282E+03  0.99574251906E+02  0.96173383920E+03  0.10617116469E+04  0.00000000000E+00 0. -1.
          3    1    5    5  503    0  0.85743459160E+02 -0.11822473336E+03  0.29120277182E+02  0.14891950480E+03  0.00000000000E+00 0. -1.
         -4    1    5    5    0  503  0.11804666449E+03 -0.42287470960E+02  0.19675443984E+02  0.12692662563E+03  0.00000000000E+00 0.  1.
         -1    1    6    6    0  502 -0.82507262957E+02 -0.13953024145E+02  0.18099690931E+03  0.19940415368E+03  0.00000000000E+00 0.  1.
<mgrwt>
<rscale>  0 0.15567198E+04</rscale>
<asrwt>0</asrwt>
<pdfrwt beam="1">  1        2 0.22864940E+00 0.15567198E+04</pdfrwt>
<pdfrwt beam="2">  1       -2 0.62713948E-01 0.15567198E+04</pdfrwt>
<totfact> 0.29307736E+01</totfact>
</mgrwt>
</event>
<event>
12    1  0.1477245E-007  0.2282130E+04  0.7818608E-02  0.8485000E-01
         -1   -1    0    0    0  501 -0.00000000000E+00  0.00000000000E+00  0.10433131950E+04  0.10433131950E+04  0.00000000000E+00 0.  1.
          1   -1    0    0  501    0  0.00000000000E+00 -0.00000000000E+00 -0.12479755718E+04  0.12479755718E+04  0.00000000000E+00 0. -1.
         23    2    1    2    0    0  0.43790092444E+03  0.20520521396E+03  0.74724263159E+03  0.89470713646E+03  0.90900550607E+02 0.  0.
        254    2    1    2    0    0 -0.43790092444E+03 -0.20520521396E+03 -0.95190500837E+03  0.13965816303E+04  0.90025035725E+03 0.  0.
        -24    2    4    4    0    0 -0.26812224250E+03 -0.87820197748E+02 -0.10941581128E+04  0.11328952132E+04  0.81655767321E+02 0.  0.
         24    2    4    4    0    0 -0.16977868193E+03 -0.11738501622E+03  0.14225310441E+03  0.26368641710E+03  0.81795708792E+02 0.  0.
         13    1    3    3    0    0  0.46256277260E+02  0.43510795929E+02  0.14550722036E+03  0.15876140502E+03  0.00000000000E+00 0. -1.
        -13    1    3    3    0    0  0.39164464718E+03  0.16169441804E+03  0.60173541123E+03  0.73594573143E+03  0.00000000000E+00 0.  1.
          4    1    6    6  502    0 -0.14278835850E+03 -0.11397402210E+03  0.87550662764E+02  0.20259247663E+03  0.00000000000E+00 0. -1.
          1    1    5    5  503    0 -0.15592921180E+03 -0.10790023600E+02 -0.63813284789E+03  0.65699609988E+03  0.00000000000E+00 0. -1.
         -2    1    5    5    0  503 -0.11219303071E+03 -0.77030174148E+02 -0.45602526489E+03  0.47589911335E+03  0.00000000000E+00 0.  1.
         -3    1    6    6    0  502 -0.26990323429E+02 -0.34109941172E+01  0.54702441644E+02  0.61093940465E+02  0.00000000000E+00 0.  1.
<mgrwt>
<rscale>  0 0.22821300E+04</rscale>
<asrwt>0</asrwt>
<pdfrwt beam="1">  1        1 0.19199624E+00 0.22821300E+04</pdfrwt>
<pdfrwt beam="2">  1       -1 0.16050972E+00 0.22821300E+04</pdfrwt>
<totfact> 0.25856505E+00</totfact>
</mgrwt>
</event>
<event>
12    1  0.1477245E-007  0.3345090E+04  0.7818608E-02  0.8151516E-01
         -1   -1    0    0    0  501 -0.00000000000E+00  0.00000000000E+00  0.12956354826E+04  0.12956354826E+04  0.00000000000E+00 0.  1.
          1   -1    0    0  501    0  0.00000000000E+00 -0.00000000000E+00 -0.21591006424E+04  0.21591006424E+04  0.00000000000E+00 0. -1.
         23    2    1    2    0    0  0.27459990871E+03  0.36094987642E+02  0.11770938153E+04  0.12126505033E+04  0.90903439343E+02 0.  0.
        254    2    1    2    0    0 -0.27459990871E+03 -0.36094987642E+02 -0.20405589750E+04  0.22420856216E+04  0.88676887978E+03 0.  0.
        -24    2    4    4    0    0 -0.20901983756E+03 -0.27109033519E+03 -0.24535231610E+03  0.42858057584E+03  0.79399550645E+02 0.  0.
         24    2    4    4    0    0 -0.65580071151E+02  0.23499534755E+03 -0.17952066589E+04  0.18135050458E+04  0.80684841989E+02 0.  0.
         11    1    3    3    0    0 -0.27755084958E+01 -0.45433452555E+01  0.84434894797E+02  0.84602582070E+02  0.00000000000E+00 0. -1.
        -11    1    3    3    0    0  0.27737541721E+03  0.40638332898E+02  0.10926589205E+04  0.11280479213E+04  0.00000000000E+00 0.  1.
          2    1    6    6  502    0 -0.91624956235E+01  0.28779082025E+02 -0.89648471428E+02  0.94599341000E+02  0.00000000000E+00 0. -1.
          1    1    5    5  503    0 -0.66112430676E+02 -0.33427984471E+02 -0.51885163709E+02  0.90445308605E+02  0.00000000000E+00 0. -1.
         -2    1    5    5    0  503 -0.14290740689E+03 -0.23766235072E+03 -0.19346715239E+03  0.33813526724E+03  0.00000000000E+00 0.  1.
         -1    1    6    6    0  502 -0.56417575528E+02  0.20621626553E+03 -0.17055581875E+04  0.17189057048E+04  0.00000000000E+00 0.  1.
<mgrwt>
<rscale>  0 0.33450904E+04</rscale>
<asrwt>0</asrwt>
<pdfrwt beam="1">  1        1 0.33216932E+00 0.33450904E+04</pdfrwt>
<pdfrwt beam="2">  1       -1 0.19932854E+00 0.33450904E+04</pdfrwt>
<totfact> 0.29206505E-01</totfact>
</mgrwt>
</event>
<event>
12    1  0.1477245E-007  0.2231196E+04  0.7818608E-02  0.8505555E-01
         -2   -1    0    0    0  501 -0.00000000000E+00  0.00000000000E+00  0.36862296080E+03  0.36862296080E+03  0.00000000000E+00 0.  1.
          2   -1    0    0  501    0  0.00000000000E+00 -0.00000000000E+00 -0.33762383493E+04  0.33762383493E+04  0.00000000000E+00 0. -1.
         23    2    1    2    0    0 -0.66095887935E+03 -0.61550877827E+03 -0.16368838411E+04  0.18717804059E+04  0.91953695832E+02 0.  0.
        254    2    1    2    0    0  0.66095887935E+03  0.61550877827E+03 -0.13707315474E+04  0.18730809042E+04  0.90211385227E+03 0.  0.
        -24    2    4    4    0    0  0.52601214024E+03  0.80366978773E+03 -0.12998093904E+04  0.16181146846E+04  0.78846570333E+02 0.  0.
         24    2    4    4    0    0  0.13494673912E+03 -0.18816100946E+03 -0.70922156957E+02  0.25496621964E+03  0.79766113907E+02 0.  0.
         13    1    3    3    0    0 -0.55037016907E+03 -0.47003037368E+03 -0.13462154469E+04  0.15284410047E+04  0.00000000000E+00 0.  1.
        -13    1    3    3    0    0 -0.11058871029E+03 -0.14547840459E+03 -0.29066839420E+03  0.34333940122E+03  0.00000000000E+00 0. -1.
          2    1    6    6  502    0  0.11667369673E+03 -0.19336080953E+03 -0.63759303714E+02  0.23466231692E+03  0.00000000000E+00 0. -1.
          1    1    5    5  503    0  0.49899149219E+03  0.78739674243E+03 -0.12568234399E+04  0.15647975263E+04  0.00000000000E+00 0. -1.
         -2    1    5    5    0  503  0.27020648050E+02  0.16273045307E+02 -0.42985950454E+02  0.53317158223E+02  0.00000000000E+00 0.  1.
         -1    1    6    6    0  502  0.18273042391E+02  0.51998000710E+01 -0.71628532431E+01  0.20303902718E+02  0.00000000000E+00 0.  1.
<mgrwt>
<rscale>  0 0.22311961E+04</rscale>
<asrwt>0</asrwt>
<pdfrwt beam="1">  1        2 0.51942128E+00 0.22311961E+04</pdfrwt>
<pdfrwt beam="2">  1       -2 0.56711225E-01 0.22311961E+04</pdfrwt>
<totfact> 0.26380503E+00</totfact>
</mgrwt>
</event>
<event>
12    1  0.1477245E-007  0.2391123E+04  0.7818608E-02  0.8442835E-01
          2   -1    0    0  501    0  0.00000000000E+00  0.00000000000E+00  0.31833143474E+04  0.31833143474E+04  0.00000000000E+00 0.  1.
         -2   -1    0    0    0  501 -0.00000000000E+00 -0.00000000000E+00 -0.44901850231E+03  0.44901850231E+03  0.00000000000E+00 0. -1.
         23    2    1    2    0    0 -0.26360177664E+03  0.77152188321E+02  0.26605339728E+04  0.26761945561E+04  0.90210449475E+02 0.  0.
        254    2    1    2    0    0  0.26360177664E+03 -0.77152188321E+02  0.73761872327E+02  0.95613829359E+03  0.91286431952E+03 0.  0.
        -24    2    4    4    0    0  0.42320373530E+03 -0.21754076551E+03 -0.26329766448E+03  0.54969404699E+03  0.80078080258E+02 0.  0.
         24    2    4    4    0    0 -0.15960195866E+03  0.14038857719E+03  0.33705953681E+03  0.40644424661E+03  0.80037843760E+02 0.  0.
         11    1    3    3    0    0 -0.25750906971E+03  0.77448957583E+02  0.26525585805E+04  0.26661538374E+04  0.00000000000E+00 0.  1.
        -11    1    3    3    0    0 -0.60927069326E+01 -0.29676926214E+00  0.79753923090E+01  0.10040718712E+02  0.00000000000E+00 0. -1.
          2    1    6    6  502    0 -0.11628773112E+03  0.14228654983E+03  0.27105293534E+03  0.32747212466E+03  0.00000000000E+00 0. -1.
          1    1    5    5  503    0  0.27169030273E+03 -0.95552560876E+02 -0.15897201399E+03  0.32896506459E+03  0.00000000000E+00 0. -1.
         -2    1    5    5    0  503  0.15151343257E+03 -0.12198820463E+03 -0.10432565049E+03  0.22072898239E+03  0.00000000000E+00 0.  1.
         -1    1    6    6    0  502 -0.43314227541E+02 -0.18979726445E+01  0.66006601466E+02  0.78972121947E+02  0.00000000000E+00 0.  1.
<mgrwt>
<rscale>  0 0.23911228E+04</rscale>
<asrwt>0</asrwt>
<pdfrwt beam="1">  1        2 0.48974066E+00 0.23911228E+04</pdfrwt>
<pdfrwt beam="2">  1       -2 0.69079772E-01 0.23911228E+04</pdfrwt>
<totfact> 0.22916171E+00</totfact>
</mgrwt>
</event>
<event>
12    1  0.1477245E-007  0.1831422E+04  0.7818608E-02  0.8689766E-01
         -2   -1    0    0    0  501 -0.00000000000E+00  0.00000000000E+00  0.38078908193E+03  0.38078908193E+03  0.00000000000E+00 0.  1.
          2   -1    0    0  501    0  0.00000000000E+00 -0.00000000000E+00 -0.22020757400E+04  0.22020757400E+04  0.00000000000E+00 0. -1.
         23    2    1    2    0    0 -0.52005653649E+02 -0.57949755066E+03 -0.12216134366E+04  0.13559232544E+04  0.87558461243E+02 0.  0.
        254    2    1    2    0    0  0.52005653649E+02  0.57949755066E+03 -0.59967322151E+03  0.12269415676E+04  0.89847406104E+03 0.  0.
        -24    2    4    4    0    0  0.16861328704E+03  0.79241387185E+03 -0.42655812623E+03  0.91893809384E+03  0.78391328540E+02 0.  0.
         24    2    4    4    0    0 -0.11660763339E+03 -0.21291632119E+03 -0.17311509528E+03  0.30800347371E+03  0.77243793372E+02 0.  0.
         13    1    3    3    0    0 -0.33082759562E+02 -0.37768347433E+03 -0.88815302205E+03  0.96568890764E+03  0.00000000000E+00 0. -1.
        -13    1    3    3    0    0 -0.18922894088E+02 -0.20181407634E+03 -0.33346041452E+03  0.39023434675E+03  0.00000000000E+00 0.  1.
          4    1    6    6  502    0 -0.67718851274E+02 -0.73748556431E+02 -0.35382038762E+02  0.10619124757E+03  0.00000000000E+00 0. -1.
          3    1    5    5  503    0  0.12528364700E+03  0.54319113708E+03 -0.33233403197E+03  0.64899808351E+03  0.00000000000E+00 0. -1.
         -2    1    5    5    0  503  0.43329640041E+02  0.24922273477E+03 -0.94224094264E+02  0.26994001032E+03  0.00000000000E+00 0.  1.
         -3    1    6    6    0  502 -0.48888782113E+02 -0.13916776476E+03 -0.13773305652E+03  0.20181222614E+03  0.00000000000E+00 0.  1.
<mgrwt>
<rscale>  0 0.18314217E+04</rscale>
<asrwt>0</asrwt>
<pdfrwt beam="1">  1        2 0.33878089E+00 0.18314217E+04</pdfrwt>
<pdfrwt beam="2">  1       -2 0.58582935E-01 0.18314217E+04</pdfrwt>
<totfact> 0.13213883E+01</totfact>
</mgrwt>
</event>
<event>
12    1  0.1477245E-007  0.2059198E+04  0.7818608E-02  0.8579433E-01
          1   -1    0    0  501    0  0.00000000000E+00  0.00000000000E+00  0.90260097130E+03  0.90260097130E+03  0.00000000000E+00 0. -1.
         -1   -1    0    0    0  501 -0.00000000000E+00 -0.00000000000E+00 -0.11744655718E+04  0.11744655718E+04  0.00000000000E+00 0.  1.
         23    2    1    2    0    0  0.56476096619E+03  0.53623730567E+03 -0.39230957046E+03  0.87680934957E+03  0.91555663376E+02 0.  0.
        254    2    1    2    0    0 -0.56476096619E+03 -0.53623730567E+03  0.12044496998E+03  0.12002571935E+04  0.90532035371E+03 0.  0.
        -24    2    4    4    0    0 -0.11899698028E+02  0.22470296500E+03 -0.44174091922E+02  0.24201078003E+03  0.77361760328E+02 0.  0.
         24    2    4    4    0    0 -0.55286126816E+03 -0.76094027067E+03  0.16461906190E+03  0.95824641348E+03  0.80318590866E+02 0.  0.
         11    1    3    3    0    0  0.27186992346E+03  0.22958771409E+03 -0.22461920911E+03  0.42080584935E+03  0.00000000000E+00 0. -1.
        -11    1    3    3    0    0  0.29289104273E+03  0.30664959158E+03 -0.16769036135E+03  0.45600350022E+03  0.00000000000E+00 0.  1.
          4    1    6    6  502    0 -0.35500427467E+03 -0.54297543848E+03  0.93826958437E+02  0.65547986999E+03  0.00000000000E+00 0. -1.
          3    1    5    5  503    0 -0.43608473439E+02  0.14673703723E+03 -0.37329173762E+02  0.15756561892E+03  0.00000000000E+00 0. -1.
         -4    1    5    5    0  503  0.31708775410E+02  0.77965927769E+02 -0.68449181609E+01  0.84445161114E+02  0.00000000000E+00 0.  1.
         -3    1    6    6    0  502 -0.19785699349E+03 -0.21796483219E+03  0.70792103461E+02  0.30276654349E+03  0.00000000000E+00 0.  1.
<mgrwt>
<rscale>  0 0.20591977E+04</rscale>
<asrwt>0</asrwt>
<pdfrwt beam="1">  1        1 0.13886169E+00 0.20591977E+04</pdfrwt>
<pdfrwt beam="2">  1       -1 0.18068701E+00 0.20591977E+04</pdfrwt>
<totfact> 0.34385222E+00</totfact>
</mgrwt>
</event>
<event>
12    1  0.1477245E-007  0.1671219E+04  0.7818608E-02  0.8777951E-01
         -2   -1    0    0    0  501 -0.00000000000E+00  0.00000000000E+00  0.28902237055E+03  0.28902237055E+03  0.00000000000E+00 0.  1.
          2   -1    0    0  501    0  0.00000000000E+00 -0.00000000000E+00 -0.24158802293E+04  0.24158802293E+04  0.00000000000E+00 0. -1.
         23    2    1    2    0    0  0.56669801952E+02 -0.94372005202E+02 -0.17056826817E+04  0.17117404588E+04  0.92652283515E+02 0.  0.
        254    2    1    2    0    0 -0.56669801952E+02  0.94372005202E+02 -0.42117517698E+03  0.99316214104E+03  0.89267293387E+03 0.  0.
        -24    2    4    4    0    0 -0.25595062582E+03  0.40805543811E+02 -0.63161055540E+03  0.68734551140E+03  0.79599893751E+02 0.  0.
         24    2    4    4    0    0  0.19928082387E+03  0.53566461391E+02  0.21043537842E+03  0.30581662964E+03  0.81599938266E+02 0.  0.
         11    1    3    3    0    0  0.63316538729E+02 -0.98936526334E+02 -0.16902660712E+04  0.16943425899E+04  0.00000000000E+00 0. -1.
        -11    1    3    3    0    0 -0.66467367777E+01  0.45645211321E+01 -0.15416610503E+02  0.17397868903E+02  0.00000000000E+00 0.  1.
          2    1    6    6  502    0  0.14739017465E+03  0.25289179453E+02  0.97991702188E+02  0.17878976447E+03  0.00000000000E+00 0. -1.
          1    1    5    5  503    0 -0.13739424805E+03  0.19625939420E+02 -0.23574244097E+03  0.27356325662E+03  0.00000000000E+00 0. -1.
         -2    1    5    5    0  503 -0.11855637777E+03  0.21179604391E+02 -0.39586811443E+03  0.41378225478E+03  0.00000000000E+00 0.  1.
         -1    1    6    6    0  502  0.51890649215E+02  0.28277281938E+02  0.11244367623E+03  0.12702686517E+03  0.00000000000E+00 0.  1.
<mgrwt>
<rscale>  0 0.16712192E+04</rscale>
<asrwt>0</asrwt>
<pdfrwt beam="1">  1        2 0.37167389E+00 0.16712192E+04</pdfrwt>
<pdfrwt beam="2">  1       -2 0.44464979E-01 0.16712192E+04</pdfrwt>
<totfact> 0.17832584E+01</totfact>
</mgrwt>
</event>
<event>
12    1  0.1477245E-007  0.1423365E+04  0.7818608E-02  0.8937077E-01
          1   -1    0    0  501    0  0.00000000000E+00  0.00000000000E+00  0.16247080488E+04  0.16247080488E+04  0.00000000000E+00 0. -1.
         -1   -1    0    0    0  501 -0.00000000000E+00 -0.00000000000E+00 -0.31174352203E+03  0.31174352203E+03  0.00000000000E+00 0.  1.
         23    2    1    2    0    0  0.13376324199E+03 -0.18524569034E+03  0.89884670020E+03  0.93210078058E+03  0.93155268245E+02 0.  0.
        254    2    1    2    0    0 -0.13376324199E+03  0.18524569034E+03  0.41411782661E+03  0.10043507903E+04  0.88601262122E+03 0.  0.
        -24    2    4    4    0    0 -0.64937649345E+02 -0.32415641998E+03  0.33625316148E+03  0.47837583697E+03  0.80516891885E+02 0.  0.
         24    2    4    4    0    0 -0.68825592645E+02  0.50940211031E+03  0.77864665128E+02  0.52597495333E+03  0.79745051613E+02 0.  0.
         13    1    3    3    0    0 -0.28546713361E+01 -0.28146367180E+02  0.22644513496E+03  0.22820553517E+03  0.00000000000E+00 0.  1.
        -13    1    3    3    0    0  0.13661791333E+03 -0.15709932316E+03  0.67240156524E+03  0.70389524541E+03  0.00000000000E+00 0. -1.
          4    1    6    6  502    0 -0.41708891694E+02  0.13430073086E+03 -0.56174511002E+01  0.14074044803E+03  0.00000000000E+00 0. -1.
          1    1    5    5  503    0 -0.12149353521E+01 -0.20610455855E+03  0.20344278488E+03  0.28960236850E+03  0.00000000000E+00 0. -1.
         -2    1    5    5    0  503 -0.63722713993E+02 -0.11805186142E+03  0.13281037661E+03  0.18877346847E+03  0.00000000000E+00 0.  1.
         -3    1    6    6    0  502 -0.27116700951E+02  0.37510137946E+03  0.83482116228E+02  0.38523450530E+03  0.00000000000E+00 0.  1.
<mgrwt>
<rscale>  0 0.14233653E+04</rscale>
<asrwt>0</asrwt>
<pdfrwt beam="1">  1        1 0.24995508E+00 0.14233653E+04</pdfrwt>
<pdfrwt beam="2">  1       -1 0.47960543E-01 0.14233653E+04</pdfrwt>
<totfact> 0.22690335E+01</totfact>
</mgrwt>
</event>
<event>
12    1  0.1477245E-007  0.1334522E+04  0.7818608E-02  0.9002628E-01
          1   -1    0    0  501    0  0.00000000000E+00  0.00000000000E+00  0.27300570739E+04  0.27300570739E+04  0.00000000000E+00 0. -1.
         -1   -1    0    0    0  501 -0.00000000000E+00 -0.00000000000E+00 -0.16308704572E+03  0.16308704572E+03  0.00000000000E+00 0.  1.
         23    2    1    2    0    0  0.20087613131E+03 -0.14192049778E+03  0.12517673571E+04  0.12802598806E+04  0.10794071434E+03 0.  0.
        254    2    1    2    0    0 -0.20087613131E+03  0.14192049778E+03  0.13152026710E+04  0.16128842390E+04  0.90063580574E+03 0.  0.
        -24    2    4    4    0    0 -0.18929659617E+03  0.23726192817E+03  0.14171443211E+04  0.14515108915E+04  0.80370500957E+02 0.  0.
         24    2    4    4    0    0 -0.11579535137E+02 -0.95341430385E+02 -0.10194165009E+03  0.16137334744E+03  0.80157240851E+02 0.  0.
         11    1    3    3    0    0  0.15189224990E+03 -0.51278685501E+02  0.63370238571E+03  0.65366617843E+03  0.00000000000E+00 0. -1.
        -11    1    3    3    0    0  0.48983881408E+02 -0.90641812282E+02  0.61806497138E+03  0.62659370219E+03  0.00000000000E+00 0.  1.
          2    1    6    6  502    0  0.16223325989E+02 -0.81067278933E+02 -0.39671119571E+02  0.91700042246E+02  0.00000000000E+00 0. -1.
          1    1    5    5  503    0  0.33695088257E+01 -0.27461414991E+01  0.75858140622E+01  0.87429661926E+01  0.00000000000E+00 0. -1.
         -2    1    5    5    0  503 -0.19266610500E+03  0.24000806967E+03  0.14095585071E+04  0.14427679253E+04  0.00000000000E+00 0.  1.
         -1    1    6    6    0  502 -0.27802861126E+02 -0.14274151451E+02 -0.62270530516E+02  0.69673305198E+02  0.00000000000E+00 0.  1.
<mgrwt>
<rscale>  0 0.13345216E+04</rscale>
<asrwt>0</asrwt>
<pdfrwt beam="1">  1        1 0.42000875E+00 0.13345216E+04</pdfrwt>
<pdfrwt beam="2">  1       -1 0.25090317E-01 0.13345216E+04</pdfrwt>
<totfact> 0.12828803E+01</totfact>
</mgrwt>
</event>
<event>
12    1  0.1477245E-007  0.1997128E+04  0.7818608E-02  0.8607965E-01
         -1   -1    0    0    0  501 -0.00000000000E+00  0.00000000000E+00  0.40712569375E+03  0.40712569375E+03  0.00000000000E+00 0.  1.
          1   -1    0    0  501    0  0.00000000000E+00 -0.00000000000E+00 -0.24491945214E+04  0.24491945214E+04  0.00000000000E+00 0. -1.
         23    2    1    2    0    0  0.36155701413E+03  0.32225786732E+03 -0.16532639605E+04  0.17251420561E+04  0.90883348022E+02 0.  0.
        254    2    1    2    0    0 -0.36155701413E+03 -0.32225786732E+03 -0.38880486715E+03  0.11311781591E+04  0.94542117355E+03 0.  0.
        -24    2    4    4    0    0  0.28326404317E+03 -0.75100614168E+02  0.51738100558E+02  0.30813425632E+03  0.79945409320E+02 0.  0.
         24    2    4    4    0    0 -0.64482105730E+03 -0.24715725315E+03 -0.44054296771E+03  0.82304390277E+03  0.80263664125E+02 0.  0.
         13    1    3    3    0    0  0.34608980717E+02  0.49403473338E+02 -0.12722608816E+03  0.14080114429E+03  0.00000000000E+00 0.  1.
        -13    1    3    3    0    0  0.32694803342E+03  0.27285439398E+03 -0.15260378724E+04  0.15843409118E+04  0.00000000000E+00 0. -1.
          4    1    6    6  502    0 -0.25395061992E+03 -0.80751946307E+02 -0.12791565372E+03  0.29559128650E+03  0.00000000000E+00 0. -1.
          1    1    5    5  503    0  0.80158079668E+02 -0.94238247569E+01 -0.19622727491E+02  0.83061288476E+02  0.00000000000E+00 0. -1.
         -2    1    5    5    0  503  0.20310596350E+03 -0.65676789411E+02  0.71360828049E+02  0.22507296785E+03  0.00000000000E+00 0.  1.
         -3    1    6    6    0  502 -0.39087043738E+03 -0.16640530684E+03 -0.31262731398E+03  0.52745261627E+03  0.00000000000E+00 0.  1.
<mgrwt>
<rscale>  0 0.19971280E+04</rscale>
<asrwt>0</asrwt>
<pdfrwt beam="1">  1        1 0.37679916E+00 0.19971280E+04</pdfrwt>
<pdfrwt beam="2">  1       -1 0.62634721E-01 0.19971280E+04</pdfrwt>
<totfact> 0.35258109E+00</totfact>
</mgrwt>
</event>
<event>
12    1  0.1477245E-007  0.1170888E+04  0.7818608E-02  0.9138727E-01
          2   -1    0    0  501    0  0.00000000000E+00  0.00000000000E+00  0.57321316331E+03  0.57321316331E+03  0.00000000000E+00 0.  1.
         -2   -1    0    0    0  501 -0.00000000000E+00 -0.00000000000E+00 -0.59793615969E+03  0.59793615969E+03  0.00000000000E+00 0. -1.
         23    2    1    2    0    0 -0.16026044355E+02  0.11956230095E+03  0.18111909660E+03  0.23569397750E+03  0.90529254785E+02 0.  0.
        254    2    1    2    0    0  0.16026044355E+02 -0.11956230095E+03 -0.20584209298E+03  0.93545534550E+03  0.90451852290E+03 0.  0.
        -24    2    4    4    0    0  0.34650752362E+03 -0.95914950515E+02 -0.39997130715E+03  0.54376718336E+03  0.80240647423E+02 0.  0.
         24    2    4    4    0    0 -0.33048147927E+03 -0.23647350431E+02  0.19412921416E+03  0.39168816214E+03  0.77176805097E+02 0.  0.
         13    1    3    3    0    0 -0.86019532774E+01  0.11307610554E+03  0.91991228171E+02  0.14602255067E+03  0.00000000000E+00 0.  1.
        -13    1    3    3    0    0 -0.74240910780E+01  0.64861954084E+01  0.89127868430E+02  0.89671426832E+02  0.00000000000E+00 0. -1.
          4    1    6    6  502    0 -0.19411330473E+03 -0.17260708023E+02  0.69686961209E+02  0.20696419903E+03  0.00000000000E+00 0. -1.
          3    1    5    5  503    0  0.44573781607E+02  0.48405524959E+00 -0.90028902043E+02  0.10046023850E+03  0.00000000000E+00 0. -1.
         -4    1    5    5    0  503  0.30193374202E+03 -0.96399005765E+02 -0.30994240510E+03  0.44330694486E+03  0.00000000000E+00 0.  1.
         -3    1    6    6    0  502 -0.13636817453E+03 -0.63866424079E+01  0.12444225295E+03  0.18472396311E+03  0.00000000000E+00 0.  1.
<mgrwt>
<rscale>  0 0.11708883E+04</rscale>
<asrwt>0</asrwt>
<pdfrwt beam="1">  1        2 0.88186641E-01 0.11708883E+04</pdfrwt>
<pdfrwt beam="2">  1       -2 0.91990178E-01 0.11708883E+04</pdfrwt>
<totfact> 0.52065258E+01</totfact>
</mgrwt>
</event>
