<LesHouchesEvents version="3.0">
  <!--
  <scalesfunctionalform>
    muR  H_T/2 := sum_i mT(i)/2, i=final state
    muF1 H_T/2 := sum_i mT(i)/2, i=final state
    muF2 H_T/2 := sum_i mT(i)/2, i=final state
    QES  H_T/2 := sum_i mT(i)/2, i=final state
  </scalesfunctionalform>
HERWIG6   
  -->
  <header>
      307
  </header>
  <init>
   2212   2212 0.65000000D+04 0.65000000D+04 -1 -1   244800   244800 -4   1
 0.78644681D-03 0.41551920D-05 0.27784906D-05     66
  </init>
  <event>
  9     66 0.27784906E-05 0.23342373E+03 0.75467711E-02 0.10348402E+00
       -1 -1    0    0    0  501 0.00000000E+00 0.00000000E+00 0.86459153E+02 0.86459745E+02 0.32000000E+00 0.0000E+00 0.9000E+01
        1 -1    0    0  502    0 0.00000000E+00 0.00000000E+00 -.72522638E+03 0.72522645E+03 0.32000000E+00 0.0000E+00 0.9000E+01
       25  2    1    2    0    0 0.92001241E+02 -.89675270E+02 -.38780025E+03 0.50696368E+03 0.30019535E+03 0.0000E+00 0.0000E+00
       23  2    3    3    0    0 0.16864715E+03 -.63838342E+02 -.27353400E+03 0.33988833E+03 0.90476690E+02 0.0000E+00 0.0000E+00
       23  1    1    2    0    0 -.69092024E+02 0.90465913E+02 -.23567617E+03 0.27715753E+03 0.91188000E+02 0.0000E+00 0.9000E+01
      -11  1    4    4    0    0 0.17258192E+03 -.42457654E+02 -.22514752E+03 0.28684243E+03 0.51099893E-03 0.0000E+00 0.9000E+01
       11  1    4    4    0    0 -.39347708E+01 -.21380688E+02 -.48386479E+02 0.53045901E+02 0.51099893E-03 0.0000E+00 0.9000E+01
       23  1    3    3    0    0 -.76645913E+02 -.25836928E+02 -.11426625E+03 0.16707534E+03 0.91188000E+02 0.0000E+00 0.9000E+01
       21  1    1    2  502  501 -.22909217E+02 -.79064304E+00 -.15290802E+02 0.27564986E+02 0.75000000E+00 0.0000E+00 0.9000E+01
#aMCatNLO 2  0  0  2  2 0.22922857D+02 0.00000000D+00  -5  7  0 0.00000000D+00 0.00000000D+00 0.00000000D+00 0.00000000D+00 0.00000000D+00
  <mgrwgt>
 0.3050989028D-03    1    2    0
 0.237485662542634D+03 0.000000000000000D+00 0.000000000000000D+00 0.237485662542634D+03
 0.237485662542634D+03 0.000000000000000D+00 0.000000000000000D+00 -.237485662542634D+03
 0.151373097930967D+03 -.763080877920336D+02 0.902168717474994D+02 -.252300460331859D+02
 0.169746906320179D+03 0.164205370877860D+03 -.427467457063756D+02 0.482950428621336D+01
 0.242828003404581D+02 -.509921187788535D+01 -.214208749521070D+02 -.102371161410417D+02
 0.129568520493664D+03 -.827980712079411D+02 -.260492510890168D+02 0.306376578880143D+02
 0.000000000000000D+00 -.000000000000000D+00 -.000000000000000D+00 0.000000000000000D+00
 0.255922752817394D+03 0.000000000000000D+00 0.000000000000000D+00 0.255922752817394D+03
 0.244995523940948D+03 0.000000000000000D+00 0.000000000000000D+00 -.244995523940948D+03
 0.148018902936874D+03 -.690920235443845D+02 0.904659125988413D+02 -.252300460331859D+02
 0.177793411840649D+03 0.172581924884739D+03 -.424576540257043D+02 0.482950428621336D+01
 0.240294564411616D+02 -.393477078435401D+01 -.213806877543052D+02 -.102371161410417D+02
 0.125682378544684D+03 -.766459132297994D+02 -.258369277770445D+02 0.306376578880143D+02
 0.253941269949740D+02 -.229092173262007D+02 -.790643041787296D+00 0.109272288764465D+02
0.205200777914D-05 0.000000000000D+00 0.000000000000D+00 0.196222088100D-06 0.259880483950D-08  7 -1 1 23 -11 11 23 21 2 0.13301162D-01 0.11157085D+00 0.60057863D+05 0.60057863D+05 0.60057863D+05 0.11403590D+01  1  2  1  2  7  2        1 0.305098902809D-03 0.100000000000D+01
  </mgrwgt>
  </event>
  <event>
  8     66 0.27784906E-05 0.40055065E+03 0.75467711E-02 0.83540885E-01
       -1 -1    0    0    0  501 0.00000000E+00 0.00000000E+00 0.52338856E+03 0.52338866E+03 0.32000000E+00 0.0000E+00 0.9000E+01
        1 -1    0    0  501    0 0.00000000E+00 0.00000000E+00 -.36618707E+03 0.36618721E+03 0.32000000E+00 0.0000E+00 0.9000E+01
       25  2    1    2    0    0 0.25471183E+03 -.22300025E+03 -.88890343E+02 0.46122593E+03 0.30036750E+03 0.0000E+00 0.0000E+00
       23  2    3    3    0    0 0.95482550E+02 0.34242739E+02 -.14028658E+02 0.13649921E+03 0.90253799E+02 0.0000E+00 0.0000E+00
       23  1    1    2    0    0 -.25471183E+03 0.22300025E+03 0.24609183E+03 0.42834994E+03 0.91188000E+02 0.0000E+00 0.9000E+01
      -13  1    4    4    0    0 0.31519321E+02 0.58223505E+02 0.23605313E+01 0.66249735E+02 0.10565837E+00 0.0000E+00 0.9000E+01
       13  1    4    4    0    0 0.63963230E+02 -.23980766E+02 -.16389190E+02 0.70249474E+02 0.10565837E+00 0.0000E+00 0.9000E+01
       23  1    3    3    0    0 0.15922928E+03 -.25724299E+03 -.74861685E+02 0.32472672E+03 0.91188000E+02 0.0000E+00 0.9000E+01
#aMCatNLO 1  0  0  2  1 0.14125879D+04 0.00000000D+00  -5  7  0 0.00000000D+00 0.00000000D+00 0.00000000D+00 0.00000000D+00 0.00000000D+00
  <mgrwgt>
 0.3395663832D-03    5    2    0
 0.437787878815569D+03 0.000000000000000D+00 0.000000000000000D+00 0.437787878815569D+03
 0.437787878815569D+03 0.000000000000000D+00 0.000000000000000D+00 -.437787878815569D+03
 0.391015578499250D+03 -.254711827257461D+03 0.223000249639233D+03 0.173120492724312D+03
 0.668852202114240D+02 0.315192764307962D+02 0.582236177622698D+02 -.949622191625886D+01
 0.743152715048351D+02 0.639632740149457D+02 -.239808785017833D+02 -.292639133133121D+02
 0.343359687415629D+03 0.159229276811719D+03 -.257242988899719D+03 -.134360357494741D+03
 0.000000000000000D+00 -.000000000000000D+00 -.000000000000000D+00 -.000000000000000D+00
 0.124660071262945D+04 0.000000000000000D+00 0.000000000000000D+00 0.124660071262945D+04
 0.203119276965373D+04 0.000000000000000D+00 0.000000000000000D+00 -.203119276965373D+04
 0.766000280826121D+03 0.148031762875614D+03 0.725642522913677D+03 0.173120492724312D+03
 0.232056969163869D+03 0.135577530793401D+03 0.188093040410331D+03 -.949622191625886D+01
 0.175391919589850D+03 0.150883405500575D+03 0.844993892259145D+02 -.292639133133121D+02
 0.488488713754228D+03 0.448785905472756D+03 0.104136821077584D+03 -.134360357494741D+03
 0.161585559894911D+04 -.883278604642345D+03 -.110237177362751D+04 -.784592057024286D+03
0.247742149079D-04 0.000000000000D+00 0.000000000000D+00 0.694824005753D-06 0.000000000000D+00  7 -1 1 23 -13 13 23 21 0 0.80521335D-01 0.56336490D-01 0.16044083D+06 0.16044083D+06 0.16044083D+06 0.11052531D+01  1  2  2  2  7  2        1 0.330555653482D-03 0.100000000000D+01
-.136312146984D-05 0.000000000000D+00 -.951395084468D-07 0.694824005753D-06 0.000000000000D+00  7 -1 1 23 -13 13 23 21 2 0.80521335D-01 0.56336490D-01 0.16044083D+06 0.16044083D+06 0.16044083D+06 0.11052531D+01  1  2  3  2  7  2        1 -.222178857371D-04 0.100000000000D+01
0.158140608109D-05 0.000000000000D+00 0.000000000000D+00 0.694824005753D-06 0.000000000000D+00  7 -1 1 23 -13 13 23 21 2 0.80521335D-01 0.56336490D-01 0.16044083D+06 0.16044083D+06 0.16044083D+06 0.11052531D+01  1  2 15  2  7  2        1 0.257757656899D-04 0.100000000000D+01
0.322592971951D-04 0.000000000000D+00 -.155299869249D-04 0.694824005753D-06 0.000000000000D+00  7 -1 1 23 -13 13 23 21 2 0.80521335D-01 0.45852974D+00 0.16044083D+06 0.16044083D+06 0.16044083D+06 0.11052531D+01  1  2  5  2  7  2        1 0.521587877403D-05 0.100000000000D+01
0.629272820268D-05 0.000000000000D+00 -.394762472320D-05 0.694824005753D-06 0.000000000000D+00  7 -1 21 23 -13 13 23 -1 2 0.80521335D-01 0.45852974D+00 0.16044083D+06 0.16044083D+06 0.16044083D+06 0.11052531D+01  1  2  5  4  7  2        1 0.236970953470D-06 0.100000000000D+01
  </mgrwgt>
  </event>
  <event>
  8     66 0.27784906E-05 0.10331662E+03 0.75467711E-02 0.10414282E+00
       -1 -1    0    0    0  501 0.00000000E+00 0.00000000E+00 0.66017375E+02 0.66018151E+02 0.32000000E+00 0.0000E+00 0.9000E+01
        1 -1    0    0  501    0 0.00000000E+00 0.00000000E+00 -.10851268E+04 0.10851268E+04 0.32000000E+00 0.0000E+00 0.9000E+01
       25  2    1    2    0    0 0.27652504E+02 0.16347050E+03 -.59765058E+03 0.68916007E+03 0.30044653E+03 0.0000E+00 0.0000E+00
       23  2    3    3    0    0 -.46681088E+02 0.58770222E+02 -.47695505E+03 0.49074058E+03 0.87790284E+02 0.0000E+00 0.0000E+00
       23  1    1    2    0    0 -.27652504E+02 -.16347050E+03 -.42145882E+03 0.46198491E+03 0.91188000E+02 0.0000E+00 0.9000E+01
      -13  1    4    4    0    0 -.37503770E+02 0.80197432E+02 -.31833568E+03 0.33041758E+03 0.10565837E+00 0.0000E+00 0.9000E+01
       13  1    4    4    0    0 -.91773183E+01 -.21427210E+02 -.15861938E+03 0.16032301E+03 0.10565837E+00 0.0000E+00 0.9000E+01
       23  1    3    3    0    0 0.74333592E+02 0.10470028E+03 -.12069553E+03 0.19841948E+03 0.91188000E+02 0.0000E+00 0.9000E+01
#aMCatNLO 1  0  0  2  1 0.81844670D+01 0.00000000D+00  -5  7  0 0.00000000D+00 0.00000000D+00 0.00000000D+00 0.00000000D+00 0.00000000D+00
  <mgrwgt>
 0.5912645695D-03   11    2    0
 0.267652191061583D+03 0.000000000000000D+00 0.000000000000000D+00 0.267652191061583D+03
 0.267652191061583D+03 0.000000000000000D+00 0.000000000000000D+00 -.267652191061583D+03
 0.191104278368133D+03 -.276525043752563D+02 -.163470499344245D+03 -.268016550333097D+02
 0.104500732015681D+03 -.375038106514404D+02 0.801975785219503D+02 -.555177050826997D+02
 0.427877615361710D+02 -.917727707128414D+01 -.214273558447561D+02 -.358808938619889D+02
 0.196911610203180D+03 0.743335920979808D+02 0.104700276667051D+03 0.118200253977998D+03
 0.000000000000000D+00 -.000000000000000D+00 -.000000000000000D+00 -.000000000000000D+00
 0.271204361357735D+03 0.000000000000000D+00 0.000000000000000D+00 0.271204361357735D+03
 0.272439765680016D+03 0.000000000000000D+00 0.000000000000000D+00 -.272439765680016D+03
 0.188609751115076D+03 -.275123267798656D+02 -.160571261545534D+03 -.268016550333097D+02
 0.105709993482280D+03 -.374262079511511D+02 0.818026044987032D+02 -.555177050826997D+02
 0.424587575817637D+02 -.914580693550422D+01 -.207764714653414D+02 -.358808938619889D+02
 0.198588443961587D+03 0.744795973605337D+02 0.107720045802226D+03 0.118200253977998D+03
 0.827718089704341D+01 -.395255694012799D+00 -.817491729005373D+01 -.123540432228133D+01
0.209124305692D-05 0.000000000000D+00 0.000000000000D+00 0.188377186543D-07 0.000000000000D+00  7 -1 1 23 -13 13 23 21 0 0.10156583D-01 0.16694264D+00 0.52566643D+05 0.52566643D+05 0.52566643D+05 0.11453880D+01  1  2  2  2  7  2        1 0.187438525883D-03 0.100000000000D+01
-.112796514609D-06 0.000000000000D+00 -.803092397551D-08 0.188377186543D-07 0.000000000000D+00  7 -1 1 23 -13 13 23 21 2 0.10156583D-01 0.16694264D+00 0.52566643D+05 0.52566643D+05 0.52566643D+05 0.11453880D+01  1  2  3  2  7  2        1 -.132634133261D-04 0.100000000000D+01
0.129260534731D-06 0.000000000000D+00 0.000000000000D+00 0.188377186543D-07 0.000000000000D+00  7 -1 1 23 -13 13 23 21 2 0.10156583D-01 0.16694264D+00 0.52566643D+05 0.52566643D+05 0.52566643D+05 0.11453880D+01  1  2 15  2  7  2        1 0.151993694559D-04 0.100000000000D+01
0.221090138944D-05 0.000000000000D+00 0.000000000000D+00 0.188377186543D-07 0.000000000000D+00  7 -1 1 23 -13 13 23 21 2 0.10156583D-01 0.17101936D+00 0.54550095D+05 0.54550095D+05 0.54550095D+05 0.11439831D+01  1  2 12  2  7  2        1 0.248206032298D-03 0.100000000000D+01
-.189893618399D-05 0.000000000000D+00 0.000000000000D+00 0.188377186543D-07 0.000000000000D+00  7 -1 1 23 -13 13 23 21 2 0.10156583D-01 0.16694264D+00 0.52566643D+05 0.52566643D+05 0.52566643D+05 0.11453880D+01  1  2  4  2  7  2        1 -.223290370056D-03 0.100000000000D+01
-.692590704493D-04 0.000000000000D+00 -.933768043921D-05 0.188377186543D-07 0.000000000000D+00  7 -1 1 23 -13 13 23 21 2 0.10156583D-01 0.17145616D+00 0.52566643D+05 0.52566643D+05 0.52566643D+05 0.11453880D+01  1  2  5  2  7  2        1 -.776015040096D-02 0.100000000000D+01
0.694867685994D-04 0.000000000000D+00 0.933435871498D-05 0.188377186543D-07 0.000000000000D+00  7 -1 1 23 -13 13 23 21 2 0.10156583D-01 0.16694264D+00 0.52566643D+05 0.52566643D+05 0.52566643D+05 0.11453880D+01  1  2  6  2  7  2        1 0.817074655029D-02 0.100000000000D+01
0.361253371997D-07 0.000000000000D+00 0.000000000000D+00 0.188377186543D-07 0.196362617419D-08  7 -1 1 23 -13 13 23 21 2 0.10291377D-01 0.16992880D+00 0.54550095D+05 0.54550095D+05 0.54550095D+05 0.11439831D+01  1  2 11  2  7  2        1 0.402136612891D-05 0.100000000000D+01
0.600337612084D-07 0.000000000000D+00 0.000000000000D+00 0.188377186543D-07 0.000000000000D+00  7 -1 21 23 -13 13 23 -1 2 0.10156583D-01 0.17101936D+00 0.54550095D+05 0.54550095D+05 0.54550095D+05 0.11439831D+01  1  2 12  4  7  2        1 0.839586844840D-05 0.100000000000D+01
-.330569064248D-06 0.000000000000D+00 -.448930321442D-07 0.188377186543D-07 0.000000000000D+00  7 -1 21 23 -13 13 23 -1 2 0.10156583D-01 0.17145616D+00 0.52566643D+05 0.52566643D+05 0.52566643D+05 0.11453880D+01  1  2  5  4  7  2        1 -.460659117467D-04 0.100000000000D+01
0.192796282435D-09 0.000000000000D+00 0.000000000000D+00 0.188377186543D-07 0.638509476316D-11  7 -1 21 23 -13 13 23 -1 2 0.10291377D-01 0.16992880D+00 0.54550095D+05 0.54550095D+05 0.54550095D+05 0.11439831D+01  1  2 11  4  7  2        1 0.269530766965D-07 0.100000000000D+01
  </mgrwgt>
  </event>
  <event>
  8     66 0.27784906E-05 0.22163877E+03 0.75467711E-02 0.10245380E+00
       -1 -1    0    0    0  501 0.00000000E+00 0.00000000E+00 0.28052334E+02 0.28054159E+02 0.32000000E+00 0.0000E+00 0.9000E+01
        1 -1    0    0  501    0 0.00000000E+00 0.00000000E+00 -.21462544E+04 0.21462544E+04 0.32000000E+00 0.0000E+00 0.9000E+01
       25  2    1    2    0    0 -.89622062E+02 0.46904007E+02 -.10279110E+04 0.10755447E+04 0.29993897E+03 0.0000E+00 0.0000E+00
       23  2    3    3    0    0 -.15712266E+03 -.20894220E+02 -.55749623E+03 0.58691582E+03 0.92433909E+02 0.0000E+00 0.0000E+00
       23  1    1    2    0    0 0.89622062E+02 -.46904007E+02 -.10902911E+04 0.10987639E+04 0.91188000E+02 0.0000E+00 0.9000E+01
      -13  1    4    4    0    0 -.14127262E+03 -.43044189E+02 -.52003902E+03 0.54060276E+03 0.10565837E+00 0.0000E+00 0.9000E+01
       13  1    4    4    0    0 -.15850036E+02 0.22149969E+02 -.37457214E+02 0.46313052E+02 0.10565837E+00 0.0000E+00 0.9000E+01
       23  1    3    3    0    0 0.67500596E+02 0.67798226E+02 -.47041475E+03 0.48862892E+03 0.91188000E+02 0.0000E+00 0.9000E+01
#aMCatNLO 1  0  0  1  1 0.78033363D+02 0.00000000D+00  -5  7  0 0.00000000D+00 0.00000000D+00 0.00000000D+00 0.00000000D+00 0.00000000D+00
  <mgrwgt>
 0.4887306976D-03    4    2    0
 0.245376150683240D+03 0.000000000000000D+00 0.000000000000000D+00 0.245376150683240D+03
 0.245376150683240D+03 0.000000000000000D+00 0.000000000000000D+00 -.245376150683240D+03
 0.162189448577130D+03 0.896220634839967D+02 -.469040072387975D+02 -.880798826495978D+02
 0.150563886311873D+03 -.141272785570656D+03 -.430442721777405D+02 0.293031491674643D+02
 0.435185931606497D+02 -.158498737112389D+02 0.221500519741284D+02 0.339414886468366D+02
 0.134480373316827D+03 0.675005957978985D+02 0.677982274424096D+02 0.248352448352969D+02
 0.000000000000000D+00 -.000000000000000D+00 -.000000000000000D+00 -.000000000000000D+00
 0.264094719611711D+03 0.000000000000000D+00 0.000000000000000D+00 0.264094719611711D+03
 0.345817782958814D+03 0.000000000000000D+00 0.000000000000000D+00 -.345817782958814D+03
 0.163330176708947D+03 0.100258386827064D+03 -.234879846526624D+02 -.880798826495978D+02
 0.136933632528091D+03 -.131878831003327D+03 -.223633427600501D+02 0.293031491674643D+02
 0.462297295306352D+02 -.129173556524473D+02 0.286060336967664D+02 0.339414886468366D+02
 0.150423986656732D+03 0.768098191415461D+02 0.882926198224888D+02 0.248352448352969D+02
 0.112994977146120D+03 -.322720193128366D+02 -.710473261065428D+02 -.817230633471032D+02
0.850890495651D-05 0.000000000000D+00 0.000000000000D+00 0.182160629307D-06 0.000000000000D+00  7 -1 1 23 -13 13 23 21 0 0.43158859D-02 0.33019313D+00 0.49123745D+05 0.49123745D+05 0.49123745D+05 0.11479714D+01  1  2  2  1  7  1       -1 0.544975690349D-03 0.100000000000D+01
-.466767235393D-06 0.000000000000D+00 -.326764354791D-07 0.182160629307D-06 0.000000000000D+00  7 -1 1 23 -13 13 23 21 2 0.43158859D-02 0.33019313D+00 0.49123745D+05 0.49123745D+05 0.49123745D+05 0.11479714D+01  1  2  3  1  7  1       -1 -.393972545691D-04 0.100000000000D+01
0.544529920090D-06 0.000000000000D+00 0.000000000000D+00 0.182160629307D-06 0.000000000000D+00  7 -1 1 23 -13 13 23 21 2 0.43158859D-02 0.33019313D+00 0.49123745D+05 0.49123745D+05 0.49123745D+05 0.11479714D+01  1  2 15  1  7  1       -1 0.459607749979D-04 0.100000000000D+01
-.744137030989D-06 0.000000000000D+00 0.000000000000D+00 0.182160629307D-06 0.000000000000D+00  7 -1 1 23 -13 13 23 21 2 0.43158859D-02 0.33019313D+00 0.49123745D+05 0.49123745D+05 0.49123745D+05 0.11479714D+01  1  2  4  1  7  1       -1 -.628085131542D-04 0.100000000000D+01
  </mgrwgt>
  </event>
  <event>
  8     66 0.27784906E-05 0.24501803E+03 0.75467711E-02 0.10004573E+00
       21 -1    0    0  502  501 0.00000000E+00 0.00000000E+00 0.78678246E+03 0.78678282E+03 0.75000000E+00 0.0000E+00 0.9000E+01
        1 -1    0    0  501    0 0.00000000E+00 0.00000000E+00 -.39109042E+03 0.39109055E+03 0.32000000E+00 0.0000E+00 0.9000E+01
       23  2    1    2    0    0 -.81541034E+02 -.35832673E+02 -.86383715E+02 0.15885885E+03 0.99202159E+02 0.0000E+00 0.0000E+00
       23  1    1    2    0    0 -.16119350E+03 0.12361512E+03 0.46031215E+03 0.51133802E+03 0.91188000E+02 0.0000E+00 0.9000E+01
      -13  1    3    3    0    0 -.45458523E+02 -.54802718E+02 -.94965195E+01 0.71833212E+02 0.10565837E+00 0.0000E+00 0.9000E+01
       13  1    3    3    0    0 -.36082511E+02 0.18970046E+02 -.76887196E+02 0.87025641E+02 0.10565837E+00 0.0000E+00 0.9000E+01
       23  1    1    2    0    0 0.11880328E+03 -.95822839E+02 -.19123406E+03 0.26111674E+03 0.91188000E+02 0.0000E+00 0.9000E+01
        1  1    1    2  502    0 0.12393125E+03 0.80403910E+01 0.21299767E+03 0.24655975E+03 0.32000000E+00 0.0000E+00 0.9000E+01
#aMCatNLO 2  0  0  1  2 0.12419180D+03 0.00000000D+00  -5  7  0 0.00000000D+00 0.00000000D+00 0.00000000D+00 0.00000000D+00 0.00000000D+00
  <mgrwgt>
 0.4279919019D-03    2    2    0
 0.452367166626329D+03 0.000000000000000D+00 0.000000000000000D+00 0.452367166626329D+03
 0.452367166626329D+03 0.000000000000000D+00 0.000000000000000D+00 -.452367166626329D+03
 0.412426728454082D+03 -.103806740012770D+03 0.127338249852186D+03 0.367137148558737D+03
 0.691471559632930D+02 -.356212515260141D+02 -.541645737460907D+02 -.240552399372093D+02
 0.100334230710480D+03 -.221438975599471D+02 0.198744331686227D+02 -.958207313651089D+02
 0.322826218124803D+03 0.161571889098731D+03 -.930481092747182D+02 -.247261177256419D+03
 0.000000000000000D+00 0.000000000000000D+00 0.000000000000000D+00 0.000000000000000D+00
 0.644972261687660D+03 0.000000000000000D+00 0.000000000000000D+00 0.644972261687660D+03
 0.477079769874286D+03 0.000000000000000D+00 0.000000000000000D+00 -.477079769874286D+03
 0.429382091915997D+03 -.161193503297631D+03 0.123615121069203D+03 0.367137148558737D+03
 0.751563660675672D+02 -.454585350749274D+02 -.548027953747529D+02 -.240552399372093D+02
 0.104131769241548D+03 -.360825041118374D+02 0.189701265955126D+02 -.958207313651089D+02
 0.304548156969747D+03 0.118803289051619D+03 -.958228433201435D+02 -.247261177256419D+03
 0.208833647367088D+03 0.123931253432776D+03 0.804039103018038D+01 0.167892491813374D+03
-.118541002716D-04 0.000000000000D+00 0.000000000000D+00 0.431639600378D-10 0.000000000000D+00  7 21 1 23 -13 13 23 1 2 0.12259783D+00 0.57051105D-01 0.10132130D+06 0.10132130D+06 0.10132130D+06 0.11212545D+01  1  2 13  3  7  1       -1 -.525303618130D-03 0.100000000000D+01
0.222994751616D-04 0.000000000000D+00 0.000000000000D+00 0.431639600378D-10 0.912682455571D-15  7 21 1 23 -13 13 23 1 2 0.12104346D+00 0.60167779D-01 0.10132130D+06 0.10132130D+06 0.10132130D+06 0.11212545D+01  1  2  1  3  7  1       -1 0.953295520008D-03 0.100000000000D+01
  </mgrwgt>
  </event>
  <event>
  9     66 0.27784906E-05 0.51189749E+03 0.75467711E-02 0.93565083E-01
       -1 -1    0    0    0  501 0.00000000E+00 0.00000000E+00 0.24937256E+03 0.24937276E+03 0.32000000E+00 0.0000E+00 0.9000E+01
       21 -1    0    0  501  502 0.00000000E+00 0.00000000E+00 -.14303523E+04 0.14303525E+04 0.75000000E+00 0.0000E+00 0.9000E+01
       25  2    1    2    0    0 -.40472469E+03 -.34219520E+03 -.79296469E+03 0.99948782E+03 0.29880308E+03 0.0000E+00 0.0000E+00
       23  2    3    3    0    0 -.71718786E+02 -.49067718E+02 -.65698400E+02 0.14272172E+03 0.92206202E+02 0.0000E+00 0.0000E+00
       23  1    1    2    0    0 0.37259224E+03 0.27596053E+03 -.37962416E+03 0.60614268E+03 0.91188000E+02 0.0000E+00 0.9000E+01
      -11  1    4    4    0    0 -.66202750E+02 -.59069728E+02 -.83325362E+02 0.12171751E+03 0.51099893E-03 0.0000E+00 0.9000E+01
       11  1    4    4    0    0 -.55160356E+01 0.10002010E+02 0.17626962E+02 0.21004205E+02 0.51099893E-03 0.0000E+00 0.9000E+01
       23  1    3    3    0    0 -.33300590E+03 -.29312748E+03 -.72726629E+03 0.85676610E+03 0.91188000E+02 0.0000E+00 0.9000E+01
       -1  1    1    2    0  502 0.32132445E+02 0.66234665E+02 -.83909041E+01 0.74094767E+02 0.32000000E+00 0.0000E+00 0.9000E+01
#aMCatNLO 2  0  0  2  2 0.73617422D+02 0.00000000D+00  -5  7  0 0.00000000D+00 0.00000000D+00 0.00000000D+00 0.00000000D+00 0.00000000D+00
  <mgrwgt>
 0.4957392378D-05    1    2    0
 0.547189449089984D+03 0.000000000000000D+00 0.000000000000000D+00 0.547189449089984D+03
 0.547189449089984D+03 0.000000000000000D+00 0.000000000000000D+00 -.547189449089984D+03
 0.510196763286963D+03 0.387134104019593D+03 0.305935700089896D+03 0.922822780383426D+02
 0.837801611026487D+02 -.636676514461452D+02 -.538441246807475D+02 0.814590640027621D+01
 0.501466242599840D+02 -.405347012195518D+01 0.130167987443571D+02 0.482578103014563D+02
 0.450255349530372D+03 -.319412982451492D+03 -.265108374153505D+03 -.148685994740075D+03
 0.000000000000000D+00 0.000000000000000D+00 0.000000000000000D+00 0.000000000000000D+00
 0.631636537025336D+03 0.000000000000000D+00 0.000000000000000D+00 0.631636537025336D+03
 0.564708673315940D+03 0.000000000000000D+00 0.000000000000000D+00 -.564708673315940D+03
 0.481466992408471D+03 0.372592241556823D+03 0.275960533639459D+03 0.922822780383426D+02
 0.890976581027086D+02 -.662027501177558D+02 -.590697279928652D+02 0.814590640027621D+01
 0.495911595808550D+02 -.551603555971063D+01 0.100020100573084D+02 0.482578103014563D+02
 0.476696366629913D+03 -.333005900704896D+03 -.293127480250549D+03 -.148685994740075D+03
 0.994930336193272D+02 0.321324448255387D+02 0.662346645466466D+02 0.669278637093960D+02
0.880030668949D-06 0.000000000000D+00 0.000000000000D+00 0.232189819924D-06 0.173924872747D-11  7 -1 21 23 -11 11 23 -1 2 0.38365022D-01 0.22005413D+00 0.30207085D+06 0.30207085D+06 0.30207085D+06 0.10843309D+01  1  2  1  4  7  2        1 0.495739237830D-05 0.100000000000D+01
  </mgrwgt>
  </event>
  <event>
  8     66 0.27784906E-05 0.12806278E+03 0.75467711E-02 0.10473155E+00
       -1 -1    0    0    0  501 0.00000000E+00 0.00000000E+00 0.17144567E+02 0.17147553E+02 0.32000000E+00 0.0000E+00 0.9000E+01
        1 -1    0    0  501    0 0.00000000E+00 0.00000000E+00 -.26188073E+04 0.26188073E+04 0.32000000E+00 0.0000E+00 0.9000E+01
       25  2    1    2    0    0 0.70050741E+02 -.17975145E+01 -.18256074E+04 0.18514248E+04 0.30003499E+03 0.0000E+00 0.0000E+00
       23  2    3    3    0    0 0.14245302E+03 0.52525005E+02 -.12136098E+04 0.12260854E+04 0.85935558E+02 0.0000E+00 0.0000E+00
       23  1    1    2    0    0 -.70050741E+02 0.17975145E+01 -.77605537E+03 0.78453013E+03 0.91188000E+02 0.0000E+00 0.9000E+01
      -13  1    4    4    0    0 0.15028927E+03 0.33657336E+02 -.10771200E+04 0.10880750E+04 0.10565837E+00 0.0000E+00 0.9000E+01
       13  1    4    4    0    0 -.78362554E+01 0.18867669E+02 -.13648984E+03 0.13801045E+03 0.10565837E+00 0.0000E+00 0.9000E+01
       23  1    3    3    0    0 -.72402276E+02 -.54322520E+02 -.61199756E+03 0.62533934E+03 0.91188000E+02 0.0000E+00 0.9000E+01
#aMCatNLO 1  0  0  2  1 0.28885848D+02 0.00000000D+00  -5  7  0 0.00000000D+00 0.00000000D+00 0.00000000D+00 0.00000000D+00 0.00000000D+00
  <mgrwgt>
 0.2613076463D-02    9    2    0
 0.211901577801676D+03 0.000000000000000D+00 0.000000000000000D+00 0.211901577801676D+03
 0.211901577801676D+03 0.000000000000000D+00 0.000000000000000D+00 -.211901577801676D+03
 0.115505734134525D+03 -.700507737303495D+02 0.179751531149077D+01 -.107694620311266D+02
 0.155293085064482D+03 0.150289513535431D+03 0.336573561874336D+02 -.199044408261151D+02
 0.205017137274164D+02 -.783649030745333D+01 0.188676429537395D+02 -.170930827890289D+01
 0.132502622676929D+03 -.724022494976278D+02 -.543225144526639D+02 0.323832111361446D+02
 0.000000000000000D+00 -.000000000000000D+00 -.000000000000000D+00 -.000000000000000D+00
 0.225874258855220D+03 0.000000000000000D+00 0.000000000000000D+00 0.225874258855220D+03
 0.227866644469939D+03 0.000000000000000D+00 0.000000000000000D+00 -.227866644469939D+03
 0.115129450763186D+03 -.687925580553244D+02 0.954681794095977D+01 -.107694620311266D+02
 0.159559460607072D+03 0.152007171699605D+03 0.442363476849786D+02 -.199044408261151D+02
 0.217330477536731D+02 -.760608123543764D+01 0.202867236909027D+02 -.170930827890289D+01
 0.128364465930861D+03 -.709791055825741D+02 -.455574250471301D+02 0.323832111361446D+02
 0.289544782703654D+02 -.462942682626906D+01 -.285124642697110D+02 -.199238561471886D+01
0.142244159621D-04 0.000000000000D+00 0.000000000000D+00 0.982952497748D-08 0.000000000000D+00  7 -1 1 23 -13 13 23 21 0 0.26378569D-02 0.40289367D+00 0.43666294D+05 0.43666294D+05 0.43666294D+05 0.11525057D+01  1  2  2  2  7  2        1 0.897181711984D-03 0.100000000000D+01
-.790058191093D-06 0.000000000000D+00 -.546255026693D-07 0.982952497748D-08 0.000000000000D+00  7 -1 1 23 -13 13 23 21 2 0.26378569D-02 0.40289367D+00 0.43666294D+05 0.43666294D+05 0.43666294D+05 0.11525057D+01  1  2  3  2  7  2        1 -.661898235290D-04 0.100000000000D+01
0.912848510303D-06 0.000000000000D+00 0.000000000000D+00 0.982952497748D-08 0.000000000000D+00  7 -1 1 23 -13 13 23 21 2 0.26378569D-02 0.40289367D+00 0.43666294D+05 0.43666294D+05 0.43666294D+05 0.11525057D+01  1  2 15  2  7  2        1 0.764770019308D-04 0.100000000000D+01
0.173784736258D-04 0.000000000000D+00 0.000000000000D+00 0.982952497748D-08 0.000000000000D+00  7 -1 1 23 -13 13 23 21 2 0.26378569D-02 0.44561364D+00 0.50109244D+05 0.50109244D+05 0.50109244D+05 0.11472120D+01  1  2 12  2  7  2        1 0.918908637968D-03 0.100000000000D+01
-.142387174561D-04 0.000000000000D+00 0.000000000000D+00 0.982952497748D-08 0.000000000000D+00  7 -1 1 23 -13 13 23 21 2 0.26378569D-02 0.40289367D+00 0.43666294D+05 0.43666294D+05 0.43666294D+05 0.11525057D+01  1  2  4  2  7  2        1 -.119289718950D-02 0.100000000000D+01
-.650164236904D-04 0.000000000000D+00 -.129929335171D-04 0.982952497748D-08 0.000000000000D+00  7 -1 1 23 -13 13 23 21 2 0.26378569D-02 0.44402805D+00 0.43666294D+05 0.43666294D+05 0.43666294D+05 0.11525057D+01  1  2  5  2  7  2        1 -.354140783320D-02 0.100000000000D+01
0.660284328182D-04 0.000000000000D+00 0.129317777509D-04 0.982952497748D-08 0.000000000000D+00  7 -1 1 23 -13 13 23 21 2 0.26378569D-02 0.40289367D+00 0.43666294D+05 0.43666294D+05 0.43666294D+05 0.11525057D+01  1  2  6  2  7  2        1 0.553175749003D-02 0.100000000000D+01
0.284165396006D-06 0.000000000000D+00 0.000000000000D+00 0.982952497748D-08 0.000000000000D+00  7 -1 21 23 -13 13 23 -1 2 0.26378569D-02 0.44561364D+00 0.50109244D+05 0.50109244D+05 0.50109244D+05 0.11472120D+01  1  2 12  4  7  2        1 0.405033020483D-05 0.100000000000D+01
-.989864858350D-06 0.000000000000D+00 -.205938592120D-06 0.982952497748D-08 0.000000000000D+00  7 -1 21 23 -13 13 23 -1 2 0.26378569D-02 0.44402805D+00 0.43666294D+05 0.43666294D+05 0.43666294D+05 0.11525057D+01  1  2  5  4  7  2        1 -.148038630236D-04 0.100000000000D+01
  </mgrwgt>
  </event>
  <event>
  8     66 0.27784906E-05 0.19583068E+03 0.75467711E-02 0.10198385E+00
       -1 -1    0    0    0  501 0.00000000E+00 0.00000000E+00 0.23421343E+03 0.23421365E+03 0.32000000E+00 0.0000E+00 0.9000E+01
        1 -1    0    0  501    0 0.00000000E+00 0.00000000E+00 -.26806437E+03 0.26806456E+03 0.32000000E+00 0.0000E+00 0.9000E+01
       25  2    1    2    0    0 0.49530146E+02 0.47741578E+02 -.14691315E+03 0.34155855E+03 0.30057657E+03 0.0000E+00 0.0000E+00
       23  2    3    3    0    0 -.75590553E+02 0.39046509E+02 -.13578692E+03 0.18609203E+03 0.94623431E+02 0.0000E+00 0.0000E+00
       23  1    1    2    0    0 -.49530146E+02 -.47741578E+02 0.11306221E+03 0.16071966E+03 0.91188000E+02 0.0000E+00 0.9000E+01
      -13  1    4    4    0    0 -.94630119E+02 0.41191260E+02 -.91851244E+02 0.13816020E+03 0.10565837E+00 0.0000E+00 0.9000E+01
       13  1    4    4    0    0 0.19039567E+02 -.21447511E+01 -.43935678E+02 0.47931827E+02 0.10565837E+00 0.0000E+00 0.9000E+01
       23  1    3    3    0    0 0.12512070E+03 0.86950690E+01 -.11126233E+02 0.15546652E+03 0.91188000E+02 0.0000E+00 0.9000E+01
#aMCatNLO 1  0  0  1  1 0.13378572D+03 0.00000000D+00  -5  7  0 0.00000000D+00 0.00000000D+00 0.00000000D+00 0.00000000D+00 0.00000000D+00
  <mgrwgt>
 0.4218302272D-03    3    2    0
 0.250568109330405D+03 0.000000000000000D+00 0.000000000000000D+00 0.250568109330405D+03
 0.250568109330405D+03 0.000000000000000D+00 0.000000000000000D+00 -.250568109330405D+03
 0.168723081321078D+03 -.495301484345185D+02 -.477415796399041D+02 0.124176216708435D+03
 0.132270744128730D+03 -.946302533638829D+02 0.411913103656544D+02 -.827281140303322D+02
 0.450731508119023D+02 0.190396931090335D+02 -.214480118117911D+01 -.407980249316009D+02
 0.155069242399101D+03 0.125120708689368D+03 0.869507045542876D+01 -.650077746501921D+00
 0.000000000000000D+00 0.000000000000000D+00 -.000000000000000D+00 -.000000000000000D+00
 0.274327943466227D+03 0.000000000000000D+00 0.000000000000000D+00 0.274327943466227D+03
 0.557962780651289D+03 0.000000000000000D+00 0.000000000000000D+00 -.557962780651289D+03
 0.179127958458173D+03 -.882782602510128D+02 -.236387421075491D+02 0.124176216708435D+03
 0.164162848280623D+03 -.127650830195080D+03 0.617313976441319D+02 -.827281140303322D+02
 0.420332130774306D+02 0.933666870509882D+01 0.389085861788646D+01 -.407980249316009D+02
 0.133362908454051D+03 0.929914350789674D+02 0.286807323512018D+02 -.650077746501921D+00
 0.313603795847239D+03 0.113600986662027D+03 -.706642465056711D+02 -.283634837185062D+03
0.467283592424D-05 0.000000000000D+00 0.000000000000D+00 0.241356562651D-07 0.000000000000D+00  7 -1 1 23 -13 13 23 21 0 0.36032866D-01 0.41240704D-01 0.38349655D+05 0.38349655D+05 0.38349655D+05 0.11575691D+01  1  2  2  1  7  1       -1 0.416499679013D-03 0.100000000000D+01
-.240426163343D-06 0.000000000000D+00 -.179449203350D-07 0.241356562651D-07 0.000000000000D+00  7 -1 1 23 -13 13 23 21 2 0.36032866D-01 0.41240704D-01 0.38349655D+05 0.38349655D+05 0.38349655D+05 0.11575691D+01  1  2  3  1  7  1       -1 -.287150588746D-04 0.100000000000D+01
0.285057910661D-06 0.000000000000D+00 0.000000000000D+00 0.241356562651D-07 0.000000000000D+00  7 -1 1 23 -13 13 23 21 2 0.36032866D-01 0.41240704D-01 0.38349655D+05 0.38349655D+05 0.38349655D+05 0.11575691D+01  1  2 15  1  7  1       -1 0.340456070733D-04 0.100000000000D+01
  </mgrwgt>
  </event>
  <event>
  8     66 0.27784906E-05 0.22375452E+03 0.75467711E-02 0.92574246E-01
       -1 -1    0    0    0  501 0.00000000E+00 0.00000000E+00 0.63680160E+03 0.63680168E+03 0.32000000E+00 0.0000E+00 0.9000E+01
        1 -1    0    0  501    0 0.00000000E+00 0.00000000E+00 -.16701147E+03 0.16701178E+03 0.32000000E+00 0.0000E+00 0.9000E+01
       25  2    1    2    0    0 0.44239042E+02 0.11442251E+03 0.17354833E+02 0.32625450E+03 0.30181320E+03 0.0000E+00 0.0000E+00
       23  2    3    3    0    0 0.22631756E+02 -.66566443E+02 -.25928743E+02 0.11789761E+03 0.91017907E+02 0.0000E+00 0.0000E+00
       23  1    1    2    0    0 -.44239042E+02 -.11442251E+03 0.45243530E+03 0.47755895E+03 0.91188000E+02 0.0000E+00 0.9000E+01
      -13  1    4    4    0    0 0.21405921E+02 -.77212728E+02 -.47971311E+02 0.93387776E+02 0.10565837E+00 0.0000E+00 0.9000E+01
       13  1    4    4    0    0 0.12258347E+01 0.10646285E+02 0.22042568E+02 0.24509835E+02 0.10565837E+00 0.0000E+00 0.9000E+01
       23  1    3    3    0    0 0.21607286E+02 0.18098895E+03 0.43283576E+02 0.20835689E+03 0.91188000E+02 0.0000E+00 0.9000E+01
#aMCatNLO 1  0  0  1  1 0.56791183D+03 0.00000000D+00  -5  7  0 0.00000000D+00 0.00000000D+00 0.00000000D+00 0.00000000D+00 0.00000000D+00
  <mgrwgt>
 0.4069711781D-03    5    2    0
 0.326118577150711D+03 0.000000000000000D+00 0.000000000000000D+00 0.326118577150711D+03
 0.326118577150711D+03 0.000000000000000D+00 0.000000000000000D+00 -.326118577150711D+03
 0.262663167715742D+03 -.442390428548033D+02 -.114422510772615D+03 0.213604972896816D+03
 0.149643294571289D+03 0.214059484010613D+02 -.772128417443376D+02 -.126384643263985D+03
 0.143288922717738D+02 0.122580763050872D+01 0.106464048297826D+02 0.951149901905407D+01
 0.225601799742618D+03 0.216072868232333D+02 0.180988947687170D+03 -.967318286518857D+02
 0.000000000000000D+00 0.000000000000000D+00 -.000000000000000D+00 0.000000000000000D+00
 0.852502200626146D+03 0.000000000000000D+00 0.000000000000000D+00 0.852502200626146D+03
 0.624356245857214D+03 0.000000000000000D+00 0.000000000000000D+00 -.624356245857214D+03
 0.249110004621468D+03 -.464980711175359D+02 0.771452396107925D+02 0.213604972896816D+03
 0.130974086445281D+03 0.201672695702907D+02 0.278283040318755D+02 -.126384643263985D+03
 0.282561296846179D+02 0.103783222779419D+01 0.265868981912413D+02 0.951149901905407D+01
 0.456493374440390D+03 0.185964367833299D+02 0.436311901543609D+03 -.967318286518857D+02
 0.612024851291603D+03 0.669653253612108D+01 -.567872343377519D+03 0.228145954768931D+03
0.156034989872D-04 0.000000000000D+00 0.000000000000D+00 0.972150684561D-07 0.000000000000D+00  7 -1 1 23 -13 13 23 21 0 0.97969506D-01 0.25694102D-01 0.50066085D+05 0.50066085D+05 0.50066085D+05 0.11472449D+01  1  2  2  1  7  1       -1 0.394111730481D-03 0.100000000000D+01
-.717289597726D-06 0.000000000000D+00 -.599215446064D-07 0.972150684561D-07 0.000000000000D+00  7 -1 1 23 -13 13 23 21 2 0.97969506D-01 0.25694102D-01 0.50066085D+05 0.50066085D+05 0.50066085D+05 0.11472449D+01  1  2  3  1  7  1       -1 -.238453771185D-04 0.100000000000D+01
0.983125738239D-06 0.000000000000D+00 0.000000000000D+00 0.972150684561D-07 0.000000000000D+00  7 -1 1 23 -13 13 23 21 2 0.97969506D-01 0.25694102D-01 0.50066085D+05 0.50066085D+05 0.50066085D+05 0.11472449D+01  1  2 15  1  7  1       -1 0.326827602931D-04 0.100000000000D+01
0.671568908729D-05 0.000000000000D+00 -.499244179632D-05 0.972150684561D-07 0.000000000000D+00  7 -1 1 23 -13 13 23 21 2 0.36679723D+00 0.25694102D-01 0.50066085D+05 0.50066085D+05 0.50066085D+05 0.11472449D+01  1  2  5  1  7  1       -1 0.114153452477D-05 0.100000000000D+01
0.115901330807D-05 0.000000000000D+00 -.779325024135D-06 0.972150684561D-07 0.000000000000D+00  7 21 1 23 -13 13 23 1 2 0.36679723D+00 0.25694102D-01 0.50066085D+05 0.50066085D+05 0.50066085D+05 0.11472449D+01  1  2  5  3  7  1       -1 0.288052993234D-05 0.100000000000D+01
  </mgrwgt>
  </event>
  <event>
  8     66 0.27784906E-05 0.21959030E+03 0.75467711E-02 0.10283608E+00
       -1 -1    0    0    0  501 0.00000000E+00 0.00000000E+00 0.58602613E+03 0.58602621E+03 0.32000000E+00 0.0000E+00 0.9000E+01
        1 -1    0    0  501    0 0.00000000E+00 0.00000000E+00 -.17174526E+03 0.17174556E+03 0.32000000E+00 0.0000E+00 0.9000E+01
       25  2    1    2    0    0 0.49930294E+02 0.83818037E+02 -.88045187E+01 0.31411087E+03 0.29844534E+03 0.0000E+00 0.0000E+00
       23  2    3    3    0    0 -.55268601E+02 0.12785154E+03 0.12786820E+02 0.16650601E+03 0.90333348E+02 0.0000E+00 0.0000E+00
       23  1    1    2    0    0 -.49930294E+02 -.83818037E+02 0.42308539E+03 0.44366090E+03 0.91188000E+02 0.0000E+00 0.9000E+01
      -11  1    4    4    0    0 0.18736283E+02 0.43758022E+02 -.17081430E+02 0.50572602E+02 0.51099893E-03 0.0000E+00 0.9000E+01
       11  1    4    4    0    0 -.74004884E+02 0.84093519E+02 0.29868250E+02 0.11593341E+03 0.51099893E-03 0.0000E+00 0.9000E+01
       23  1    3    3    0    0 0.10519890E+03 -.44033504E+02 -.21591339E+02 0.14760486E+03 0.91188000E+02 0.0000E+00 0.9000E+01
#aMCatNLO 1  0  0  2  2 0.69698114D+02 0.00000000D+00  -5  7  0 0.00000000D+00 0.00000000D+00 0.00000000D+00 0.00000000D+00 0.00000000D+00
  <mgrwgt>
 0.4091708847D-03    4    2    0
 0.317249671145300D+03 0.000000000000000D+00 0.000000000000000D+00 0.317249671145300D+03
 0.317249671145300D+03 0.000000000000000D+00 0.000000000000000D+00 -.317249671145300D+03
 0.253613380477572D+03 -.499302941661685D+02 -.838180372832684D+02 0.215606117176026D+03
 0.715509010982830D+02 0.187362831507686D+02 0.437580222947821D+02 -.534202080351608D+02
 0.118955551276366D+03 -.740048840678908D+02 0.840935185715348D+02 -.400247479420048D+02
 0.190379509438378D+03 0.105198895083291D+03 -.440335035830485D+02 -.122161161198861D+03
 0.000000000000000D+00 0.000000000000000D+00 -.000000000000000D+00 0.000000000000000D+00
 0.389841125376944D+03 0.000000000000000D+00 0.000000000000000D+00 0.389841125376944D+03
 0.336339671725990D+03 0.000000000000000D+00 0.000000000000000D+00 -.336339671725990D+03
 0.259702379647974D+03 -.779057713426132D+02 -.810849411334211D+02 0.215606117176026D+03
 0.704002809049346D+02 0.110000078193252D+02 0.445138265368034D+02 -.534202080351608D+02
 0.128659998730966D+03 -.874998197504980D+02 0.854119217045339D+02 -.400247479420048D+02
 0.179553283249981D+03 0.850377248980222D+02 -.420638350672182D+02 -.122161161198861D+03
 0.878648545690800D+02 0.693678583757637D+02 -.677697204069802D+01 0.535014536509538D+02
0.194177848400D-04 0.000000000000D+00 0.000000000000D+00 0.641093281557D-07 0.000000000000D+00  7 -1 1 23 -11 11 23 21 0 0.90157895D-01 0.26422377D-01 0.48219899D+05 0.48219899D+05 0.48219899D+05 0.11486828D+01  1  2  2  2  7  2        1 0.564861266697D-03 0.100000000000D+01
-.901212607304D-06 0.000000000000D+00 -.745694066058D-07 0.641093281557D-07 0.000000000000D+00  7 -1 1 23 -11 11 23 21 2 0.90157895D-01 0.26422377D-01 0.48219899D+05 0.48219899D+05 0.48219899D+05 0.11486828D+01  1  2  3  2  7  2        1 -.345915153679D-04 0.100000000000D+01
0.119632639701D-05 0.000000000000D+00 0.000000000000D+00 0.641093281557D-07 0.000000000000D+00  7 -1 1 23 -11 11 23 21 2 0.90157895D-01 0.26422377D-01 0.48219899D+05 0.48219899D+05 0.48219899D+05 0.11486828D+01  1  2 15  2  7  2        1 0.459189569828D-04 0.100000000000D+01
-.435131467035D-05 0.000000000000D+00 0.000000000000D+00 0.641093281557D-07 0.000000000000D+00  7 -1 1 23 -11 11 23 21 2 0.90157895D-01 0.26422377D-01 0.48219899D+05 0.48219899D+05 0.48219899D+05 0.11486828D+01  1  2  4  2  7  2        1 -.167017823619D-03 0.100000000000D+01
  </mgrwgt>
  </event>
  <event>
  8     66 0.27784906E-05 0.23071378E+03 0.75467711E-02 0.10298407E+00
       -1 -1    0    0    0  501 0.00000000E+00 0.00000000E+00 0.20742469E+03 0.20742493E+03 0.32000000E+00 0.0000E+00 0.9000E+01
        1 -1    0    0  501    0 0.00000000E+00 0.00000000E+00 -.27551065E+03 0.27551084E+03 0.32000000E+00 0.0000E+00 0.9000E+01
       25  2    1    2    0    0 -.42676547E+02 -.11564909E+03 -.55327952E+02 0.32907213E+03 0.30005214E+03 0.0000E+00 0.0000E+00
       23  2    3    3    0    0 -.88990520E+02 0.36972776E+02 -.60080151E+02 0.14528896E+03 0.90625380E+02 0.0000E+00 0.0000E+00
       23  1    1    2    0    0 0.42676547E+02 0.11564909E+03 -.12758013E+02 0.15386364E+03 0.91188000E+02 0.0000E+00 0.9000E+01
      -11  1    4    4    0    0 -.59424932E+02 -.17881839E+02 -.52375234E+01 0.62277719E+02 0.51099893E-03 0.0000E+00 0.9000E+01
       11  1    4    4    0    0 -.29565588E+02 0.54854616E+02 -.54842627E+02 0.83011244E+02 0.51099893E-03 0.0000E+00 0.9000E+01
       23  1    3    3    0    0 0.46313973E+02 -.15262187E+03 0.47521993E+01 0.18378317E+03 0.91188000E+02 0.0000E+00 0.9000E+01
#aMCatNLO 1  0  0  2  2 0.45654817D+02 0.00000000D+00  -5  7  0 0.00000000D+00 0.00000000D+00 0.00000000D+00 0.00000000D+00 0.00000000D+00
  <mgrwgt>
 0.2996657898D-03    3    2    0
 0.239056090483810D+03 0.000000000000000D+00 0.000000000000000D+00 0.239056090483810D+03
 0.239056090483810D+03 0.000000000000000D+00 0.000000000000000D+00 -.239056090483810D+03
 0.153599122062102D+03 0.426765468315843D+02 0.115649091441088D+03 0.902435336359958D+01
 0.621601741758382D+02 -.594249317550393D+02 -.178818392175123D+02 0.357834678007869D+01
 0.760388192882079D+02 -.295655882365632D+02 0.548546155242028D+02 -.435746392602695D+02
 0.186314065441472D+03 0.463139731600182D+02 -.152621867747778D+03 0.309719391165912D+02
 0.000000000000000D+00 -.000000000000000D+00 0.000000000000000D+00 0.000000000000000D+00
 0.523349886646184D+03 0.000000000000000D+00 0.000000000000000D+00 0.523349886646184D+03
 0.241983476791445D+03 0.000000000000000D+00 0.000000000000000D+00 -.241983476791445D+03
 0.156302520308882D+03 0.571943580274427D+02 0.112971646739817D+03 0.902435336359958D+01
 0.571722524060732D+02 -.538346237289015D+02 -.189128307630783D+02 0.357834678007869D+01
 0.726583088633311D+02 -.225996463481812D+02 0.535699229526582D+02 -.435746392602695D+02
 0.194153936671987D+03 0.641375722170905D+02 -.155908981776823D+03 0.309719391165912D+02
 0.285046345187356D+03 -.448976601674505D+02 0.828024284742592D+01 0.281366409854739D+03
0.280387288243D-05 0.000000000000D+00 0.000000000000D+00 0.176709934835D-06 0.000000000000D+00  7 -1 1 23 -11 11 23 21 0 0.31911523D-01 0.42386287D-01 0.53228846D+05 0.53228846D+05 0.53228846D+05 0.11449126D+01  1  2  2  2  7  2        1 0.295848271590D-03 0.100000000000D+01
-.155531757726D-06 0.000000000000D+00 -.107676101452D-07 0.176709934835D-06 0.000000000000D+00  7 -1 1 23 -11 11 23 21 2 0.31911523D-01 0.42386287D-01 0.53228846D+05 0.53228846D+05 0.53228846D+05 0.11449126D+01  1  2  3  2  7  2        1 -.215116850544D-04 0.100000000000D+01
0.183132817963D-06 0.000000000000D+00 0.000000000000D+00 0.176709934835D-06 0.000000000000D+00  7 -1 1 23 -11 11 23 21 2 0.31911523D-01 0.42386287D-01 0.53228846D+05 0.53228846D+05 0.53228846D+05 0.11449126D+01  1  2 15  2  7  2        1 0.253292032492D-04 0.100000000000D+01
  </mgrwgt>
  </event>
  <event>
  8     66 0.27784906E-05 0.18882699E+03 0.75467711E-02 0.95743358E-01
       -1 -1    0    0    0  501 0.00000000E+00 0.00000000E+00 0.14079233E+03 0.14079270E+03 0.32000000E+00 0.0000E+00 0.9000E+01
        1 -1    0    0  501    0 0.00000000E+00 0.00000000E+00 -.76772203E+03 0.76772210E+03 0.32000000E+00 0.0000E+00 0.9000E+01
       25  2    1    2    0    0 -.74885046E+02 0.22066595E+03 -.50035823E+03 0.62809222E+03 0.29973362E+03 0.0000E+00 0.0000E+00
       23  2    3    3    0    0 0.25402723E+02 0.70898482E+01 -.40303382E+02 0.10307974E+03 0.91134545E+02 0.0000E+00 0.0000E+00
       23  1    1    2    0    0 0.74885046E+02 -.22066595E+03 -.12657146E+03 0.28042257E+03 0.91188000E+02 0.0000E+00 0.9000E+01
      -13  1    4    4    0    0 0.24283667E+02 0.46704305E+02 -.10961777E+02 0.53769511E+02 0.10565837E+00 0.0000E+00 0.9000E+01
       13  1    4    4    0    0 0.11190555E+01 -.39614456E+02 -.29341605E+02 0.49310226E+02 0.10565837E+00 0.0000E+00 0.9000E+01
       23  1    3    3    0    0 -.10028777E+03 0.21357611E+03 -.46005485E+03 0.52501248E+03 0.91188000E+02 0.0000E+00 0.9000E+01
#aMCatNLO 1  0  0  1  2 0.25665720D+03 0.00000000D+00  -5  7  0 0.00000000D+00 0.00000000D+00 0.00000000D+00 0.00000000D+00 0.00000000D+00
  <mgrwgt>
 0.1527186284D-03    7    2    0
 0.328769785904934D+03 0.000000000000000D+00 0.000000000000000D+00 0.328769785904934D+03
 0.328769785904934D+03 0.000000000000000D+00 0.000000000000000D+00 -.328769785904934D+03
 0.266777326769760D+03 0.748850460782743D+02 -.220665954740002D+03 0.924859828674466D+02
 0.638412579314172D+02 0.242836984889719D+02 0.467044201963837D+02 0.361207050883849D+02
 0.401556444032875D+02 0.111902449403708D+01 -.396145721508854D+02 0.647373423360211D+01
 0.286765342705402D+03 -.100287769061283D+03 0.213576106694504D+03 -.135080422189434D+03
 0.000000000000000D+00 -.000000000000000D+00 -.000000000000000D+00 0.000000000000000D+00
 0.120695896196067D+04 0.000000000000000D+00 0.000000000000000D+00 0.120695896196067D+04
 0.372210402836858D+03 0.000000000000000D+00 0.000000000000000D+00 -.372210402836858D+03
 0.200760122195397D+03 0.763909243412194D+02 -.132665537994037D+03 0.924859828674466D+02
 0.869218804457473D+02 0.247692872550442D+02 0.750812251699439D+02 0.361207050883849D+02
 0.276532368012894D+02 0.133742821862987D+01 -.268515093881310D+02 0.647373423360211D+01
 0.390519706818345D+03 -.981063206315307D+02 0.341055449249464D+03 -.135080422189434D+03
 0.873314418536751D+03 -.439131918336276D+01 -.256619627037240D+03 0.834748559123813D+03
0.540690668923D-05 0.000000000000D+00 0.000000000000D+00 0.447804038765D-06 0.000000000000D+00  7 -1 1 23 -13 13 23 21 0 0.21660392D-01 0.11811111D+00 0.88643545D+05 0.88643545D+05 0.88643545D+05 0.11260437D+01  1  2  2  1  7  1       -1 0.261804549692D-03 0.100000000000D+01
-.296791959834D-06 0.000000000000D+00 -.207639453579D-07 0.447804038765D-06 0.000000000000D+00  7 -1 1 23 -13 13 23 21 2 0.21660392D-01 0.11811111D+00 0.88643545D+05 0.88643545D+05 0.88643545D+05 0.11260437D+01  1  2  3  1  7  1       -1 -.182217853773D-04 0.100000000000D+01
0.348399002620D-06 0.000000000000D+00 0.000000000000D+00 0.447804038765D-06 0.000000000000D+00  7 -1 1 23 -13 13 23 21 2 0.21660392D-01 0.11811111D+00 0.88643545D+05 0.88643545D+05 0.88643545D+05 0.11260437D+01  1  2 15  1  7  1       -1 0.213902420233D-04 0.100000000000D+01
0.405943094341D-06 0.000000000000D+00 0.000000000000D+00 0.447804038765D-06 0.000000000000D+00  7 -1 1 23 -13 13 23 21 2 0.76338109D-01 0.11811111D+00 0.20575524D+06 0.20575524D+06 0.20575524D+06 0.10968804D+01  1  2 12  1  7  1       -1 0.251144204932D-05 0.100000000000D+01
-.988882808748D-05 0.000000000000D+00 -.193175188636D-05 0.447804038765D-06 0.000000000000D+00  7 -1 1 23 -13 13 23 21 2 0.85742832D-01 0.11811111D+00 0.88643545D+05 0.88643545D+05 0.88643545D+05 0.11260437D+01  1  2  5  1  7  1       -1 -.527062809307D-04 0.100000000000D+01
0.598938786863D-07 0.000000000000D+00 0.000000000000D+00 0.447804038765D-06 0.000000000000D+00  7 21 1 23 -13 13 23 1 2 0.76338109D-01 0.11811111D+00 0.20575524D+06 0.20575524D+06 0.20575524D+06 0.10968804D+01  1  2 12  3  7  1       -1 0.288112679501D-05 0.100000000000D+01
-.159563600942D-05 0.000000000000D+00 -.316753751827D-06 0.447804038765D-06 0.000000000000D+00  7 21 1 23 -13 13 23 1 2 0.85742832D-01 0.11811111D+00 0.88643545D+05 0.88643545D+05 0.88643545D+05 0.11260437D+01  1  2  5  3  7  1       -1 -.649406658957D-04 0.100000000000D+01
  </mgrwgt>
  </event>
  <event>
  8     66 0.27784906E-05 0.24138009E+03 0.75467711E-02 0.97932111E-01
       -1 -1    0    0    0  501 0.00000000E+00 0.00000000E+00 0.56870648E+02 0.56871548E+02 0.32000000E+00 0.0000E+00 0.9000E+01
        1 -1    0    0  501    0 0.00000000E+00 0.00000000E+00 -.12591421E+04 0.12591421E+04 0.32000000E+00 0.0000E+00 0.9000E+01
       25  2    1    2    0    0 -.11368024E+03 -.83385144E+02 -.99785700E+03 0.10514824E+04 0.30003394E+03 0.0000E+00 0.0000E+00
       23  2    3    3    0    0 -.65397662E+01 -.13736155E+03 -.35953542E+03 0.39561486E+03 0.91293138E+02 0.0000E+00 0.0000E+00
       23  1    1    2    0    0 0.11368024E+03 0.83385144E+02 -.20441443E+03 0.26453126E+03 0.91188000E+02 0.0000E+00 0.9000E+01
      -11  1    4    4    0    0 -.43423507E+02 -.36345749E+02 -.14419979E+03 0.15491996E+03 0.51099893E-03 0.0000E+00 0.9000E+01
       11  1    4    4    0    0 0.36883741E+02 -.10101581E+03 -.21533563E+03 0.24069490E+03 0.51099893E-03 0.0000E+00 0.9000E+01
       23  1    3    3    0    0 -.10714048E+03 0.53976411E+02 -.63832157E+03 0.65586753E+03 0.91188000E+02 0.0000E+00 0.9000E+01
#aMCatNLO 1  0  0  2  1 0.22390583D+03 0.00000000D+00  -5  7  0 0.00000000D+00 0.00000000D+00 0.00000000D+00 0.00000000D+00 0.00000000D+00
  <mgrwgt>
 0.5405267118D-03    6    2    0
 0.267598288409127D+03 0.000000000000000D+00 0.000000000000000D+00 0.267598288409127D+03
 0.267598288409127D+03 0.000000000000000D+00 0.000000000000000D+00 -.267598288409127D+03
 0.191266415312595D+03 0.113680241513887D+03 0.833851437982133D+02 0.916040979739759D+02
 0.570061499170232D+02 -.434235070171099D+02 -.363457493732025D+02 -.656404366206417D+01
 0.108120846967318D+03 0.368837408161417D+02 -.101015805544157D+03 0.112033139116521D+02
 0.178803164621317D+03 -.107140475312919D+03 0.539764111191459D+02 -.962433682235638D+02
 0.000000000000000D+00 -.000000000000000D+00 -.000000000000000D+00 -.000000000000000D+00
 0.359437039381277D+03 0.000000000000000D+00 0.000000000000000D+00 0.359437039381277D+03
 0.470763672801988D+03 0.000000000000000D+00 0.000000000000000D+00 -.470763672801988D+03
 0.264549589165977D+03 0.198391707974428D+03 0.117985817898809D+03 0.916040979739759D+02
 0.392262913084500D+02 -.255391169623705D+02 -.290408120650965D+02 -.656404366206417D+01
 0.115506517523171D+03 0.784439357205875D+02 -.840404087114764D+02 0.112033139116521D+02
 0.160863441979799D+03 -.440148806208860D+02 0.797602656621755D+02 -.962433682235638D+02
 0.250054872205868D+03 -.207281646111759D+03 -.846648627844114D+02 -.111326633420710D+03
0.413248903625D-05 0.000000000000D+00 0.000000000000D+00 0.427851988791D-06 0.000000000000D+00  7 -1 1 23 -11 11 23 21 0 0.87494028D-02 0.19371424D+00 0.58264350D+05 0.58264350D+05 0.58264350D+05 0.11414974D+01  1  2  2  2  7  2        1 0.350918952387D-03 0.100000000000D+01
-.226614773253D-06 0.000000000000D+00 -.158698460086D-07 0.427851988791D-06 0.000000000000D+00  7 -1 1 23 -11 11 23 21 2 0.87494028D-02 0.19371424D+00 0.58264350D+05 0.58264350D+05 0.58264350D+05 0.11414974D+01  1  2  3  2  7  2        1 -.250745533822D-04 0.100000000000D+01
0.263992992450D-06 0.000000000000D+00 0.000000000000D+00 0.427851988791D-06 0.000000000000D+00  7 -1 1 23 -11 11 23 21 2 0.87494028D-02 0.19371424D+00 0.58264350D+05 0.58264350D+05 0.58264350D+05 0.11414974D+01  1  2 15  2  7  2        1 0.292103920971D-04 0.100000000000D+01
-.128783219973D-05 0.000000000000D+00 -.117586589285D-05 0.427851988791D-06 0.000000000000D+00  7 -1 1 23 -11 11 23 21 2 0.87494028D-02 0.38665299D+00 0.58264350D+05 0.58264350D+05 0.58264350D+05 0.11414974D+01  1  2  5  2  7  2        1 -.212721030155D-04 0.100000000000D+01
0.186989792694D-05 0.000000000000D+00 0.941823057552D-06 0.427851988791D-06 0.000000000000D+00  7 -1 1 23 -11 11 23 21 2 0.87494028D-02 0.19371424D+00 0.58264350D+05 0.58264350D+05 0.58264350D+05 0.11414974D+01  1  2  6  2  7  2        1 0.206901142037D-03 0.100000000000D+01
-.258786684797D-07 0.000000000000D+00 -.879427968157D-07 0.427851988791D-06 0.000000000000D+00  7 -1 21 23 -11 11 23 -1 2 0.87494028D-02 0.38665299D+00 0.58264350D+05 0.58264350D+05 0.58264350D+05 0.11414974D+01  1  2  5  4  7  2        1 -.157118317462D-06 0.100000000000D+01
  </mgrwgt>
  </event>
  <event>
  8     66 0.27784906E-05 0.34460318E+03 0.75467711E-02 0.90657421E-01
       -1 -1    0    0    0  501 0.00000000E+00 0.00000000E+00 0.26940876E+03 0.26940895E+03 0.32000000E+00 0.0000E+00 0.9000E+01
        1 -1    0    0  501    0 0.00000000E+00 0.00000000E+00 -.69209838E+03 0.69209845E+03 0.32000000E+00 0.0000E+00 0.9000E+01
       25  2    1    2    0    0 -.27780590E+03 -.14102727E+03 -.44207947E+01 0.43204648E+03 0.29929886E+03 0.0000E+00 0.0000E+00
       23  2    3    3    0    0 -.97149991E+02 0.15999396E+02 0.86064683E+02 0.16039080E+03 0.92865381E+02 0.0000E+00 0.0000E+00
       23  1    1    2    0    0 0.27780590E+03 0.14102727E+03 -.41826882E+03 0.52946092E+03 0.91188000E+02 0.0000E+00 0.9000E+01
      -11  1    4    4    0    0 -.64924361E+02 -.11671351E+02 0.17579108E+01 0.65988509E+02 0.51099893E-03 0.0000E+00 0.9000E+01
       11  1    4    4    0    0 -.32225630E+02 0.27670747E+02 0.84306772E+02 0.94402295E+02 0.51099893E-03 0.0000E+00 0.9000E+01
       23  1    3    3    0    0 -.18065591E+03 -.15702667E+03 -.90485477E+02 0.27165568E+03 0.91188000E+02 0.0000E+00 0.9000E+01
#aMCatNLO 1  0  0  1  1 0.55752506D+03 0.00000000D+00  -5  7  0 0.00000000D+00 0.00000000D+00 0.00000000D+00 0.00000000D+00 0.00000000D+00
  <mgrwgt>
 0.5251154245D-03    3    2    0
 0.431807241042665D+03 0.000000000000000D+00 0.000000000000000D+00 0.431807241042665D+03
 0.431807241042665D+03 0.000000000000000D+00 0.000000000000000D+00 -.431807241042665D+03
 0.384758149361072D+03 0.277805904357354D+03 0.141027270236887D+03 -.206539997844199D+03
 0.743288721915026D+02 -.649243608218505D+02 -.116713509624819D+02 0.342547541203474D+02
 0.146366353061053D+03 -.322256299012449D+02 0.276707468820361D+02 0.140067654556115D+03
 0.258161107471703D+03 -.180655913634259D+03 -.157026666156441D+03 0.322175891677364D+02
 0.000000000000000D+00 0.000000000000000D+00 -.000000000000000D+00 -.000000000000000D+00
 0.649635294977067D+03 0.000000000000000D+00 0.000000000000000D+00 0.649635294977067D+03
 0.108677054622539D+04 0.000000000000000D+00 0.000000000000000D+00 -.108677054622539D+04
 0.305414803756137D+03 0.802148217225280D+02 0.189393143159780D+03 -.206539997844199D+03
 0.127392054059941D+03 -.122675473826352D+03 0.246482844139105D+01 0.342547541203474D+02
 0.198671289842216D+03 -.131007190527611D+03 0.518502611833450D+02 0.140067654556115D+03
 0.396463565747103D+03 -.368069803611495D+03 -.111151942126631D+03 0.322175891677364D+02
 0.708464127797057D+03 0.541537646242931D+03 -.132556290657885D+03 -.437135251248322D+03
0.271104532664D-04 0.000000000000D+00 0.000000000000D+00 0.221557826205D-06 0.000000000000D+00  7 -1 1 23 -11 11 23 21 0 0.41447522D-01 0.10647669D+00 0.11875135D+06 0.11875135D+06 0.11875135D+06 0.11156481D+01  1  2  2  1  7  1       -1 0.516997144972D-03 0.100000000000D+01
-.141294635601D-05 0.000000000000D+00 -.104111278889D-06 0.221557826205D-06 0.000000000000D+00  7 -1 1 23 -11 11 23 21 2 0.41447522D-01 0.10647669D+00 0.11875135D+06 0.11875135D+06 0.11875135D+06 0.11156481D+01  1  2  3  1  7  1       -1 -.335375608304D-04 0.100000000000D+01
0.175497163031D-05 0.000000000000D+00 0.000000000000D+00 0.221557826205D-06 0.000000000000D+00  7 -1 1 23 -11 11 23 21 2 0.41447522D-01 0.10647669D+00 0.11875135D+06 0.11875135D+06 0.11875135D+06 0.11156481D+01  1  2 15  1  7  1       -1 0.416558403346D-04 0.100000000000D+01
  </mgrwgt>
  </event>
  <event>
  8     66 0.27784906E-05 0.34131180E+03 0.75467711E-02 0.91346538E-01
       -1 -1    0    0    0  501 0.00000000E+00 0.00000000E+00 0.16637251E+03 0.16637282E+03 0.32000000E+00 0.0000E+00 0.9000E+01
        1 -1    0    0  501    0 0.00000000E+00 0.00000000E+00 -.15960906E+04 0.15960906E+04 0.32000000E+00 0.0000E+00 0.9000E+01
       25  2    1    2    0    0 -.23414553E+03 -.15646806E+03 -.14069958E+04 0.14655831E+04 0.29831235E+03 0.0000E+00 0.0000E+00
       23  2    3    3    0    0 0.12015451E+02 -.11150099E+03 -.52416472E+03 0.54345337E+03 0.89532523E+02 0.0000E+00 0.0000E+00
       23  1    1    2    0    0 0.23414553E+03 0.15646806E+03 -.22722290E+02 0.29688034E+03 0.91188000E+02 0.0000E+00 0.9000E+01
      -11  1    4    4    0    0 0.24571887E+02 -.35037647E+02 -.65177490E+02 0.77971273E+02 0.51099893E-03 0.0000E+00 0.9000E+01
       11  1    4    4    0    0 -.12556436E+02 -.76463341E+02 -.45898723E+03 0.46548210E+03 0.51099893E-03 0.0000E+00 0.9000E+01
       23  1    3    3    0    0 -.24616098E+03 -.44967075E+02 -.88283107E+03 0.92212972E+03 0.91188000E+02 0.0000E+00 0.9000E+01
#aMCatNLO 1  0  0  1  1 0.52728614D+03 0.00000000D+00  -5  7  0 0.00000000D+00 0.00000000D+00 0.00000000D+00 0.00000000D+00 0.00000000D+00
  <mgrwgt>
 0.4281739123D-03    5    2    0
 0.515311452750039D+03 0.000000000000000D+00 0.000000000000000D+00 0.515311452750039D+03
 0.515311452750039D+03 0.000000000000000D+00 0.000000000000000D+00 -.515311452750039D+03
 0.476172498832071D+03 0.234145532684492D+03 0.156468063068051D+03 0.372986074892357D+03
 0.429216960800503D+02 0.245718867150497D+02 -.350376470610588D+02 -.329509727863187D+01
 0.159294768430312D+03 -.125564362063471D+02 -.764633405177656D+02 -.139178003707219D+03
 0.352233942157645D+03 -.246160983193194D+03 -.449670754892270D+02 -.230512973906506D+03
 0.000000000000000D+00 -.000000000000000D+00 -.000000000000000D+00 0.000000000000000D+00
 0.106004744835358D+04 0.000000000000000D+00 0.000000000000000D+00 0.106004744835358D+04
 0.723281841604408D+03 0.000000000000000D+00 0.000000000000000D+00 -.723281841604408D+03
 0.652552885662265D+03 0.331654074747494D+03 0.410362010768450D+03 0.372986074892357D+03
 0.359858958041509D+02 0.313885706915315D+02 -.172882810219607D+02 -.329509727863187D+01
 0.140109710447192D+03 0.133085745602507D+02 -.911570561413009D+01 -.139178003707219D+03
 0.329027737351830D+03 -.187308020333569D+03 0.108274997032384D+03 -.230512973906506D+03
 0.625653060692552D+03 -.189043199665706D+03 -.492233021164744D+03 0.336765606749174D+03
0.421073387084D-04 0.000000000000D+00 0.000000000000D+00 0.712107421491D-07 0.000000000000D+00  7 -1 1 23 -11 11 23 21 0 0.25595797D-01 0.24555242D+00 0.11649375D+06 0.11649375D+06 0.11649375D+06 0.11163214D+01  1  2  2  1  7  1       -1 0.388475105539D-03 0.100000000000D+01
-.185656179291D-05 0.000000000000D+00 -.161703267757D-06 0.712107421491D-07 0.000000000000D+00  7 -1 1 23 -11 11 23 21 2 0.25595797D-01 0.24555242D+00 0.11649375D+06 0.11649375D+06 0.11649375D+06 0.11163214D+01  1  2  3  1  7  1       -1 -.213448606187D-04 0.100000000000D+01
0.257621866618D-05 0.000000000000D+00 0.000000000000D+00 0.712107421491D-07 0.000000000000D+00  7 -1 1 23 -11 11 23 21 2 0.25595797D-01 0.24555242D+00 0.11649375D+06 0.11649375D+06 0.11649375D+06 0.11163214D+01  1  2 15  1  7  1       -1 0.296187439400D-04 0.100000000000D+01
0.636453283466D-05 0.000000000000D+00 -.131701816238D-04 0.712107421491D-07 0.000000000000D+00  7 -1 1 23 -11 11 23 21 2 0.74229918D-01 0.24555242D+00 0.11649375D+06 0.11649375D+06 0.11649375D+06 0.11163214D+01  1  2  5  1  7  1       -1 0.110654975423D-04 0.100000000000D+01
0.146460103418D-05 0.000000000000D+00 -.158527227060D-05 0.712107421491D-07 0.000000000000D+00  7 21 1 23 -11 11 23 1 2 0.74229918D-01 0.24555242D+00 0.11649375D+06 0.11649375D+06 0.11649375D+06 0.11163214D+01  1  2  5  3  7  1       -1 0.203594259172D-04 0.100000000000D+01
  </mgrwgt>
  </event>
  <event>
  8     66 0.27784906E-05 0.39510790E+03 0.75467711E-02 0.92898282E-01
       -1 -1    0    0    0  501 0.00000000E+00 0.00000000E+00 0.38950376E+03 0.38950389E+03 0.32000000E+00 0.0000E+00 0.9000E+01
        1 -1    0    0  501    0 0.00000000E+00 0.00000000E+00 -.97400876E+03 0.97400881E+03 0.32000000E+00 0.0000E+00 0.9000E+01
       25  2    1    2    0    0 -.43827514E+03 -.20730651E+03 -.65015016E+03 0.86583246E+03 0.30316585E+03 0.0000E+00 0.0000E+00
       23  2    3    3    0    0 -.32575452E+03 -.58684958E+02 -.29018660E+03 0.45033484E+03 0.95043540E+02 0.0000E+00 0.0000E+00
       23  1    1    2    0    0 0.43827514E+03 0.20730651E+03 0.65645162E+02 0.49768025E+03 0.91188000E+02 0.0000E+00 0.9000E+01
      -13  1    4    4    0    0 -.19765963E+03 -.89853345E+01 -.22054770E+03 0.29629608E+03 0.10565837E+00 0.0000E+00 0.9000E+01
       13  1    4    4    0    0 -.12809489E+03 -.49699624E+02 -.69638897E+02 0.15403876E+03 0.10565837E+00 0.0000E+00 0.9000E+01
       23  1    3    3    0    0 -.11252062E+03 -.14862156E+03 -.35996356E+03 0.41549762E+03 0.91188000E+02 0.0000E+00 0.9000E+01
#aMCatNLO 1  0  0  2  1 0.12630662D+03 0.00000000D+00  -5  7  0 0.00000000D+00 0.00000000D+00 0.00000000D+00 0.00000000D+00 0.00000000D+00
  <mgrwgt>
 0.3889647358D-03    9    2    0
 0.615938473146578D+03 0.000000000000000D+00 0.000000000000000D+00 0.615938473146578D+03
 0.615938473146578D+03 0.000000000000000D+00 0.000000000000000D+00 -.615938473146578D+03
 0.582008834135203D+03 0.438275139904896D+03 0.207306513617285D+03 0.308800814151467D+03
 0.223311564509612D+03 -.197659720324284D+03 -.898528467902206D+01 -.103527554130740D+03
 0.137456418393967D+03 -.128094800516086D+03 -.496996736652785D+02 -.399142531011289D+01
 0.289100129254375D+03 -.112520619064526D+03 -.148621555272985D+03 -.201281834710614D+03
 0.000000000000000D+00 -.000000000000000D+00 -.000000000000000D+00 -.000000000000000D+00
 0.649870312557277D+03 0.000000000000000D+00 0.000000000000000D+00 0.649870312557277D+03
 0.749069617361648D+03 0.000000000000000D+00 0.000000000000000D+00 -.749069617361648D+03
 0.634448219982117D+03 0.491112835850235D+03 0.240123993255585D+03 0.308800814151467D+03
 0.206780231117593D+03 -.178978370704075D+03 0.261769686300806D+01 -.103527554130740D+03
 0.124331486159177D+03 -.116723852683502D+03 -.426371808315632D+02 -.399142531011289D+01
 0.272775305790914D+03 -.881151513206435D+02 -.133463325406630D+03 -.201281834710614D+03
 0.160604686869123D+03 -.107295461142014D+03 -.666411838804002D+02 -.991993048043708D+02
0.484078635123D-04 0.000000000000D+00 0.000000000000D+00 0.739807595940D-08 0.000000000000D+00  7 -1 1 23 -13 13 23 21 0 0.59923670D-01 0.14984752D+00 0.26838309D+06 0.26838309D+06 0.26838309D+06 0.10881484D+01  1  2  2  2  7  2        1 0.266502906760D-03 0.100000000000D+01
-.259139321291D-05 0.000000000000D+00 -.185898941971D-06 0.739807595940D-08 0.000000000000D+00  7 -1 1 23 -13 13 23 21 2 0.59923670D-01 0.14984752D+00 0.26838309D+06 0.26838309D+06 0.26838309D+06 0.10881484D+01  1  2  3  2  7  2        1 -.168925666298D-04 0.100000000000D+01
0.288486173096D-05 0.000000000000D+00 0.000000000000D+00 0.739807595940D-08 0.000000000000D+00  7 -1 1 23 -13 13 23 21 2 0.59923670D-01 0.14984752D+00 0.26838309D+06 0.26838309D+06 0.26838309D+06 0.10881484D+01  1  2 15  2  7  2        1 0.188056057125D-04 0.100000000000D+01
0.724824189028D-04 0.000000000000D+00 0.000000000000D+00 0.739807595940D-08 0.000000000000D+00  7 -1 1 23 -13 13 23 21 2 0.59923670D-01 0.18571921D+00 0.34099494D+06 0.34099494D+06 0.34099494D+06 0.10804602D+01  1  2 12  2  7  2        1 0.310100186716D-03 0.100000000000D+01
-.750820905970D-04 0.000000000000D+00 0.000000000000D+00 0.739807595940D-08 0.000000000000D+00  7 -1 1 23 -13 13 23 21 2 0.59923670D-01 0.14984752D+00 0.26838309D+06 0.26838309D+06 0.26838309D+06 0.10881484D+01  1  2  4  2  7  2        1 -.489439121704D-03 0.100000000000D+01
-.125889431083D-03 0.000000000000D+00 -.295906070537D-04 0.739807595940D-08 0.000000000000D+00  7 -1 1 23 -13 13 23 21 2 0.59923670D-01 0.18757524D+00 0.26838309D+06 0.26838309D+06 0.26838309D+06 0.10881484D+01  1  2  5  2  7  2        1 -.541453891501D-03 0.100000000000D+01
0.129974124417D-03 0.000000000000D+00 0.288598710791D-04 0.739807595940D-08 0.000000000000D+00  7 -1 1 23 -13 13 23 21 2 0.59923670D-01 0.14984752D+00 0.26838309D+06 0.26838309D+06 0.26838309D+06 0.10881484D+01  1  2  6  2  7  2        1 0.847264917546D-03 0.100000000000D+01
0.218875212749D-05 0.000000000000D+00 0.000000000000D+00 0.739807595940D-08 0.000000000000D+00  7 -1 21 23 -13 13 23 -1 2 0.59923670D-01 0.18571921D+00 0.34099494D+06 0.34099494D+06 0.34099494D+06 0.10804602D+01  1  2 12  4  7  2        1 0.970105785926D-05 0.100000000000D+01
-.351854551536D-05 0.000000000000D+00 -.924586232810D-06 0.739807595940D-08 0.000000000000D+00  7 -1 21 23 -13 13 23 -1 2 0.59923670D-01 0.18757524D+00 0.26838309D+06 0.26838309D+06 0.26838309D+06 0.10881484D+01  1  2  5  4  7  2        1 -.156243589994D-04 0.100000000000D+01
  </mgrwgt>
  </event>
  <event>
  9     66 0.27784906E-05 0.27912893E+03 0.75467711E-02 0.95056871E-01
       -1 -1    0    0    0  501 0.00000000E+00 0.00000000E+00 0.48242474E+03 0.48242484E+03 0.32000000E+00 0.0000E+00 0.9000E+01
        1 -1    0    0  502    0 0.00000000E+00 0.00000000E+00 -.73386519E+03 0.73386526E+03 0.32000000E+00 0.0000E+00 0.9000E+01
       25  2    1    2    0    0 0.17652495E+03 0.36132290E+03 -.34208274E+03 0.60641051E+03 0.29832501E+03 0.0000E+00 0.0000E+00
       23  2    3    3    0    0 0.12357550E+03 0.36875558E+02 -.13204613E+03 0.20578556E+03 0.90998923E+02 0.0000E+00 0.0000E+00
       23  1    1    2    0    0 -.60712804E+02 -.28295382E+02 0.20924399E+03 0.23787596E+03 0.91188000E+02 0.0000E+00 0.9000E+01
      -11  1    4    4    0    0 -.13467633E+02 -.17681103E+01 -.21889890E+02 0.25761806E+02 0.51099893E-03 0.0000E+00 0.9000E+01
       11  1    4    4    0    0 0.13704314E+03 0.38643668E+02 -.11015624E+03 0.18002376E+03 0.51099893E-03 0.0000E+00 0.9000E+01
       23  1    3    3    0    0 0.52949442E+02 0.32444734E+03 -.21003660E+03 0.40062494E+03 0.91188000E+02 0.0000E+00 0.9000E+01
       21  1    1    2  502  501 -.11581214E+03 -.33302751E+03 -.11860171E+03 0.37200364E+03 0.75000000E+00 0.0000E+00 0.9000E+01
#aMCatNLO 2  0  0  2  2 0.35259010D+03 0.00000000D+00  -5  7  0 0.00000000D+00 0.00000000D+00 0.00000000D+00 0.00000000D+00 0.00000000D+00
  <mgrwgt>
 0.3064046518D-04    1    2    0
 0.377774314671045D+03 0.000000000000000D+00 0.000000000000000D+00 0.377774314671045D+03
 0.377774314671045D+03 0.000000000000000D+00 0.000000000000000D+00 -.377774314671045D+03
 0.324380955963717D+03 -.104331796144149D+03 -.153725447746919D+03 0.249782137624531D+03
 0.277825445485271D+02 -.171388990699690D+02 -.123251423637555D+02 -.180615277862497D+02
 0.143760356284277D+03 0.114562736457773D+03 -.260006082198265D+02 -.828636701244170D+02
 0.259624772545568D+03 0.690795875634563D+01 0.192051198330501D+03 -.148856939713864D+03
 0.000000000000000D+00 -.000000000000000D+00 -.000000000000000D+00 -.000000000000000D+00
 0.565370273952923D+03 0.000000000000000D+00 0.000000000000000D+00 0.565370273952923D+03
 0.626199103495769D+03 0.000000000000000D+00 0.000000000000000D+00 -.626199103495769D+03
 0.274213494988646D+03 -.607128038770239D+02 -.282953822910712D+02 0.249782137624531D+03
 0.225991625469675D+02 -.134676333428868D+02 -.176811028851473D+01 -.180615277862497D+02
 0.164743869438613D+03 0.137043137695661D+03 0.386436683254419D+02 -.828636701244170D+02
 0.372214130310133D+03 0.529494417234591D+02 0.324447338683376D+03 -.148856939713864D+03
 0.357798720164333D+03 -.115812142199209D+03 -.333027514429232D+03 -.608288295428462D+02
0.441654406263D-05 0.000000000000D+00 0.000000000000D+00 0.122771647183D-06 0.730601023456D-11  7 -1 1 23 -11 11 23 21 2 0.74219154D-01 0.11290228D+00 0.23177419D+06 0.23177419D+06 0.23177419D+06 0.10929409D+01  1  2  1  2  7  2        1 0.306404651847D-04 0.100000000000D+01
  </mgrwgt>
  </event>
  <event>
  8     66 0.27784906E-05 0.22490992E+03 0.75467711E-02 0.97461739E-01
       -1 -1    0    0    0  501 0.00000000E+00 0.00000000E+00 0.20235287E+03 0.20235312E+03 0.32000000E+00 0.0000E+00 0.9000E+01
        1 -1    0    0  501    0 0.00000000E+00 0.00000000E+00 -.49748906E+03 0.49748916E+03 0.32000000E+00 0.0000E+00 0.9000E+01
       25  2    1    2    0    0 0.94750215E+02 0.93062213E+02 0.37544210E+02 0.33020776E+03 0.29998237E+03 0.0000E+00 0.0000E+00
       23  2    3    3    0    0 0.14420036E+03 0.35609864E+02 0.94519700E+02 0.19864961E+03 0.92010268E+02 0.0000E+00 0.0000E+00
       23  1    1    2    0    0 -.94750215E+02 -.93062213E+02 -.33268040E+03 0.36963452E+03 0.91188000E+02 0.0000E+00 0.9000E+01
      -13  1    4    4    0    0 0.32872273E+02 0.47942134E+02 0.11569660E+02 0.59269745E+02 0.10565837E+00 0.0000E+00 0.9000E+01
       13  1    4    4    0    0 0.11132808E+03 -.12332269E+02 0.82950040E+02 0.13937987E+03 0.10565837E+00 0.0000E+00 0.9000E+01
       23  1    3    3    0    0 -.49450141E+02 0.57452349E+02 -.56975490E+02 0.13155815E+03 0.91188000E+02 0.0000E+00 0.9000E+01
#aMCatNLO 1  0  0  2  1 0.28911938D+03 0.00000000D+00  -5  7  0 0.00000000D+00 0.00000000D+00 0.00000000D+00 0.00000000D+00 0.00000000D+00
  <mgrwgt>
 0.3018400279D-03    5    2    0
 0.317282938069765D+03 0.000000000000000D+00 0.000000000000000D+00 0.317282938069765D+03
 0.317282938069765D+03 0.000000000000000D+00 0.000000000000000D+00 -.317282938069765D+03
 0.252928573088254D+03 -.947502155488029D+02 -.930622130719286D+02 -.194985724841770D+03
 0.707475759368888D+02 0.328721694030202D+02 0.479422124163085D+02 0.403259748588245D+02
 0.192297742380007D+03 0.111328187576053D+03 -.123323482866318D+02 0.156308571617860D+03
 0.118591984734382D+03 -.494501414302707D+02 0.574523489422519D+02 -.164882163491511D+01
 0.000000000000000D+00 0.000000000000000D+00 0.000000000000000D+00 -.000000000000000D+00
 0.420652551333247D+03 0.000000000000000D+00 0.000000000000000D+00 0.420652551333247D+03
 0.638948811846124D+03 0.000000000000000D+00 0.000000000000000D+00 -.638948811846124D+03
 0.324624051238528D+03 -.219650822387728D+03 -.103921155838639D+03 -.194985724841770D+03
 0.609319205159650D+02 0.439537209926523D+01 0.454664205052293D+02 0.403259748588245D+02
 0.161270738157473D+03 0.348660334481529D+02 -.189800193949480D+02 0.156308571617860D+03
 0.150499517672477D+03 -.107643439374318D+03 0.523929844781906D+02 -.164882163491511D+01
 0.362275135594929D+03 0.288032856214627D+03 0.250417702501673D+02 -.218296260512877D+03
0.606407852705D-05 0.000000000000D+00 0.000000000000D+00 0.610064091550D-06 0.000000000000D+00  7 -1 1 23 -13 13 23 21 0 0.31131238D-01 0.76536806D-01 0.50584471D+05 0.50584471D+05 0.50584471D+05 0.11468517D+01  1  2  2  2  7  2        1 0.305406584113D-03 0.100000000000D+01
-.288394793854D-06 0.000000000000D+00 -.232876582524D-07 0.610064091550D-06 0.000000000000D+00  7 -1 1 23 -13 13 23 21 2 0.31131238D-01 0.76536806D-01 0.50584471D+05 0.50584471D+05 0.50584471D+05 0.11468517D+01  1  2  3  2  7  2        1 -.191036134760D-04 0.100000000000D+01
0.379139603368D-06 0.000000000000D+00 0.000000000000D+00 0.610064091550D-06 0.000000000000D+00  7 -1 1 23 -13 13 23 21 2 0.31131238D-01 0.76536806D-01 0.50584471D+05 0.50584471D+05 0.50584471D+05 0.11468517D+01  1  2 15  2  7  2        1 0.251146573744D-04 0.100000000000D+01
-.642630249409D-06 0.000000000000D+00 -.190689872862D-05 0.610064091550D-06 0.000000000000D+00  7 -1 1 23 -13 13 23 21 2 0.31131238D-01 0.18505186D+00 0.50584471D+05 0.50584471D+05 0.50584471D+05 0.11468517D+01  1  2  5  2  7  2        1 -.106522566214D-04 0.100000000000D+01
0.574110726114D-07 0.000000000000D+00 -.184384607147D-06 0.610064091550D-06 0.000000000000D+00  7 -1 21 23 -13 13 23 -1 2 0.31131238D-01 0.18505186D+00 0.50584471D+05 0.50584471D+05 0.50584471D+05 0.11468517D+01  1  2  5  4  7  2        1 0.107465650469D-05 0.100000000000D+01
  </mgrwgt>
  </event>
  <event>
  8     66 0.27784906E-05 0.35644827E+03 0.75467711E-02 0.88873240E-01
       -1 -1    0    0    0  501 0.00000000E+00 0.00000000E+00 0.11562040E+04 0.11562040E+04 0.32000000E+00 0.0000E+00 0.9000E+01
        1 -1    0    0  501    0 0.00000000E+00 0.00000000E+00 -.43597108E+03 0.43597120E+03 0.32000000E+00 0.0000E+00 0.9000E+01
       25  2    1    2    0    0 -.12108885E+03 -.27945108E+03 0.10502854E+04 0.11339118E+04 0.29983521E+03 0.0000E+00 0.0000E+00
       23  2    3    3    0    0 -.71430274E+02 -.27194487E+03 0.92503731E+03 0.97104791E+03 0.90463844E+02 0.0000E+00 0.0000E+00
       23  1    1    2    0    0 0.12108885E+03 0.27945108E+03 -.33005253E+03 0.45826339E+03 0.91188000E+02 0.0000E+00 0.9000E+01
      -11  1    4    4    0    0 -.19326443E+02 -.20565425E+03 0.72778752E+03 0.75653279E+03 0.51099893E-03 0.0000E+00 0.9000E+01
       11  1    4    4    0    0 -.52103831E+02 -.66290617E+02 0.19724979E+03 0.21451512E+03 0.51099893E-03 0.0000E+00 0.9000E+01
       23  1    3    3    0    0 -.49658577E+02 -.75062119E+01 0.12524810E+03 0.16286392E+03 0.91188000E+02 0.0000E+00 0.9000E+01
#aMCatNLO 1  0  0  1  1 0.72385644D+03 0.00000000D+00  -5  7  0 0.00000000D+00 0.00000000D+00 0.00000000D+00 0.00000000D+00 0.00000000D+00
  <mgrwgt>
 0.4459218086D-03    3    2    0
 0.709980019821983D+03 0.000000000000000D+00 0.000000000000000D+00 0.709980019821983D+03
 0.709980019821983D+03 0.000000000000000D+00 0.000000000000000D+00 -.709980019821983D+03
 0.681251781223680D+03 0.121088850595297D+03 0.279451078508837D+03 -.602522466849324D+03
 0.479137603082874D+03 -.193264431554177D+02 -.205654249390728D+03 0.432325873607512D+03
 0.140482731911479D+03 -.521038306755461D+02 -.662906172666925D+02 0.112366110801466D+03
 0.119087923425932D+03 -.496585767643331D+02 -.750621185141637D+01 0.578304824403467D+02
 0.000000000000000D+00 0.000000000000000D+00 -.000000000000000D+00 -.000000000000000D+00
 0.110148556188118D+04 0.000000000000000D+00 0.000000000000000D+00 0.110148556188118D+04
 0.122698773013736D+04 0.000000000000000D+00 0.000000000000000D+00 -.122698773013736D+04
 0.803869117491472D+03 -.159785149603860D+03 0.499325234311661D+03 -.602522466849324D+03
 0.480937490699272D+03 -.200900975111346D+03 -.635138344687544D+02 0.432325873607512D+03
 0.157767553358715D+03 -.108510518344444D+03 -.221342595260740D+02 0.112366110801466D+03
 0.151243473601078D+03 -.100785095102398D+03 0.325167167598067D+02 0.578304824403467D+02
 0.734655656868003D+03 0.569981738162048D+03 -.446193857076639D+03 -.125502168256171D+03
0.292944276898D-03 0.000000000000D+00 0.000000000000D+00 0.441856014764D-05 0.000000000000D+00  7 -1 1 23 -11 11 23 21 0 0.17787755D+00 0.67072487D-01 0.12705537D+06 0.12705537D+06 0.12705537D+06 0.11132868D+01  1  2  2  1  7  1       -1 0.426103830844D-03 0.100000000000D+01
-.687977243212D-05 0.000000000000D+00 -.112498315729D-05 0.441856014764D-05 0.000000000000D+00  7 -1 1 23 -11 11 23 21 2 0.17787755D+00 0.67072487D-01 0.12705537D+06 0.12705537D+06 0.12705537D+06 0.11132868D+01  1  2  3  1  7  1       -1 -.124027680996D-04 0.100000000000D+01
0.178727359320D-04 0.000000000000D+00 0.000000000000D+00 0.441856014764D-05 0.000000000000D+00  7 -1 1 23 -11 11 23 21 2 0.17787755D+00 0.67072487D-01 0.12705537D+06 0.12705537D+06 0.12705537D+06 0.11132868D+01  1  2 15  1  7  1       -1 0.322207458542D-04 0.100000000000D+01
  </mgrwgt>
  </event>
  <event>
  8     66 0.27784906E-05 0.27818999E+03 0.75467711E-02 0.96421916E-01
       -1 -1    0    0    0  501 0.00000000E+00 0.00000000E+00 0.58469052E+03 0.58469061E+03 0.32000000E+00 0.0000E+00 0.9000E+01
        1 -1    0    0  501    0 0.00000000E+00 0.00000000E+00 -.33432500E+03 0.33432515E+03 0.32000000E+00 0.0000E+00 0.9000E+01
       25  2    1    2    0    0 0.66104488E+02 -.35849181E+03 0.26684327E+03 0.54288687E+03 0.30105588E+03 0.0000E+00 0.0000E+00
       23  2    3    3    0    0 0.86928353E+02 -.35255900E+03 0.23748246E+03 0.44467210E+03 0.97370315E+02 0.0000E+00 0.0000E+00
       23  1    1    2    0    0 -.66104488E+02 0.35849181E+03 -.16477746E+02 0.37612890E+03 0.91188000E+02 0.0000E+00 0.9000E+01
      -11  1    4    4    0    0 0.58132765E+02 -.16028140E+03 0.16475052E+03 0.23709129E+03 0.51099893E-03 0.0000E+00 0.9000E+01
       11  1    4    4    0    0 0.28795587E+02 -.19227760E+03 0.72731936E+02 0.20758082E+03 0.51099893E-03 0.0000E+00 0.9000E+01
       23  1    3    3    0    0 -.20823865E+02 -.59328095E+01 0.29360813E+02 0.98214766E+02 0.91188000E+02 0.0000E+00 0.9000E+01
#aMCatNLO 1  0  0  2  1 0.21170724D+02 0.00000000D+00  -5  7  0 0.00000000D+00 0.00000000D+00 0.00000000D+00 0.00000000D+00 0.00000000D+00
  <mgrwgt>
 0.3758704679D-03    9    2    0
 0.442127550585768D+03 0.000000000000000D+00 0.000000000000000D+00 0.442127550585768D+03
 0.442127550585768D+03 0.000000000000000D+00 0.000000000000000D+00 -.442127550585768D+03
 0.395580240088818D+03 -.661044877670492D+02 0.358491807146507D+03 -.123621583514428D+03
 0.199764504696822D+03 0.581327653791863D+02 -.160281399784138D+03 0.104097607126065D+03
 0.195147840265233D+03 0.287955873921437D+02 -.192277597894545D+03 0.168172249443837D+02
 0.937625161206625D+02 -.208238650042808D+02 -.593280946782431D+01 0.270675144397880D+01
 0.000000000000000D+00 -.000000000000000D+00 0.000000000000000D+00 -.000000000000000D+00
 0.451550706520959D+03 0.000000000000000D+00 0.000000000000000D+00 0.451550706520959D+03
 0.454307215647568D+03 0.000000000000000D+00 0.000000000000000D+00 -.454307215647568D+03
 0.387030277518055D+03 -.633018539339933D+02 0.349553663619204D+03 -.123621583514428D+03
 0.203899823879942D+03 0.595783417917376D+02 -.164891623675205D+03 0.104097607126065D+03
 0.199802643270723D+03 0.302099583501580D+02 -.196788301531416D+03 0.168172249443837D+02
 0.937757535981167D+02 -.201522651626203D+02 -.807467177851033D+01 0.270675144397880D+01
 0.213494239016918D+02 -.633418104528202D+01 0.202009333659275D+02 -.275650912660891D+01
0.141577100618D-04 0.000000000000D+00 0.000000000000D+00 0.124961549932D-07 0.000000000000D+00  7 -1 1 23 -11 11 23 21 0 0.89952407D-01 0.51434634D-01 0.17406044D+06 0.17406044D+06 0.17406044D+06 0.11024892D+01  1  2  2  2  7  2        1 0.169021463347D-03 0.100000000000D+01
-.783320234832D-06 0.000000000000D+00 -.543693344481D-07 0.124961549932D-07 0.000000000000D+00  7 -1 1 23 -11 11 23 21 2 0.89952407D-01 0.51434634D-01 0.17406044D+06 0.17406044D+06 0.17406044D+06 0.11024892D+01  1  2  3  2  7  2        1 -.113667639763D-04 0.100000000000D+01
0.889371154987D-06 0.000000000000D+00 0.000000000000D+00 0.124961549932D-07 0.000000000000D+00  7 -1 1 23 -11 11 23 21 2 0.89952407D-01 0.51434634D-01 0.17406044D+06 0.17406044D+06 0.17406044D+06 0.11024892D+01  1  2 15  2  7  2        1 0.129056694268D-04 0.100000000000D+01
0.269466243535D-04 0.000000000000D+00 0.000000000000D+00 0.124961549932D-07 0.000000000000D+00  7 -1 1 23 -11 11 23 21 2 0.89952407D-01 0.53386329D-01 0.18321918D+06 0.18321918D+06 0.18321918D+06 0.11007604D+01  1  2 12  2  7  2        1 0.370394139758D-03 0.100000000000D+01
-.224983200210D-04 0.000000000000D+00 0.000000000000D+00 0.124961549932D-07 0.000000000000D+00  7 -1 1 23 -11 11 23 21 2 0.89952407D-01 0.51434634D-01 0.17406044D+06 0.17406044D+06 0.17406044D+06 0.11024892D+01  1  2  4  2  7  2        1 -.326473238109D-03 0.100000000000D+01
-.273660298033D-03 0.000000000000D+00 -.421585514555D-04 0.124961549932D-07 0.000000000000D+00  7 -1 1 23 -11 11 23 21 2 0.89952407D-01 0.53857020D-01 0.17406044D+06 0.17406044D+06 0.17406044D+06 0.11024892D+01  1  2  5  2  7  2        1 -.373500868386D-02 0.100000000000D+01
0.275353440420D-03 0.000000000000D+00 0.421139463352D-04 0.124961549932D-07 0.000000000000D+00  7 -1 1 23 -11 11 23 21 2 0.89952407D-01 0.51434634D-01 0.17406044D+06 0.17406044D+06 0.17406044D+06 0.11024892D+01  1  2  6  2  7  2        1 0.399565519712D-02 0.100000000000D+01
0.402409384815D-06 0.000000000000D+00 0.000000000000D+00 0.124961549932D-07 0.000000000000D+00  7 -1 21 23 -11 11 23 -1 2 0.89952407D-01 0.53386329D-01 0.18321918D+06 0.18321918D+06 0.18321918D+06 0.11007604D+01  1  2 12  4  7  2        1 0.228957249924D-04 0.100000000000D+01
-.217504266676D-05 0.000000000000D+00 -.339941217730D-06 0.124961549932D-07 0.000000000000D+00  7 -1 21 23 -11 11 23 -1 2 0.89952407D-01 0.53857020D-01 0.17406044D+06 0.17406044D+06 0.17406044D+06 0.11024892D+01  1  2  5  4  7  2        1 -.122153040801D-03 0.100000000000D+01
  </mgrwgt>
  </event>
  <event>
  7     66 0.27784906E-05 0.18289351E+03 0.75467711E-02 0.98688300E-01
       -1 -1    0    0    0  501 0.00000000E+00 0.00000000E+00 0.19586253E+03 0.19586279E+03 0.32000000E+00 0.0000E+00 0.9000E+01
        1 -1    0    0  501    0 0.00000000E+00 0.00000000E+00 -.28979348E+03 0.28979366E+03 0.32000000E+00 0.0000E+00 0.9000E+01
       25  2    1    2    0    0 0.57465373E+02 -.47962203E+02 -.16162575E+03 0.34963999E+03 0.30086973E+03 0.0000E+00 0.0000E+00
       23  1    1    2    0    0 -.57465373E+02 0.47962203E+02 0.67694790E+02 0.13601646E+03 0.91188000E+02 0.0000E+00 0.9000E+01
      -11  1    3    3    0    0 0.50295754E+02 0.34110922E+02 -.12578224E+03 0.13969391E+03 0.51099893E-03 0.0000E+00 0.9000E+01
       11  1    3    3    0    0 0.46106674E+02 0.14796337E+02 0.29497347E+02 0.56699652E+02 0.51099893E-03 0.0000E+00 0.9000E+01
       23  1    3    3    0    0 -.38937055E+02 -.96869461E+02 -.65340859E+02 0.15324642E+03 0.91188000E+02 0.0000E+00 0.9000E+01
#aMCatNLO 1  0  0  1  1 0.25087258D+03 0.00000000D+00  -5  7  0 0.00000000D+00 0.00000000D+00 0.00000000D+00 0.00000000D+00 0.00000000D+00
  <mgrwgt>
 0.2440361777D-03    3    2    0
 0.238243132246129D+03 0.000000000000000D+00 0.000000000000000D+00 0.238243132246129D+03
 0.238243132246129D+03 0.000000000000000D+00 0.000000000000000D+00 -.238243132246129D+03
 0.151979004976808D+03 -.574653729804913D+02 0.479622027061770D+02 0.958108794945823D+02
 0.117586597601677D+03 0.502957614839520D+02 0.341109306432378D+02 -.100664734256543D+03
 0.636057424218622D+02 0.461066759644055D+02 0.147963446764459D+02 0.412423700187732D+02
 0.143314919491910D+03 -.389370644678663D+02 -.968694780258607D+02 -.363885152568125D+02
 0.000000000000000D+00 -.000000000000000D+00 -.000000000000000D+00 -.000000000000000D+00
 0.388595916068546D+03 0.000000000000000D+00 0.000000000000000D+00 0.388595916068546D+03
 0.401081570777277D+03 0.000000000000000D+00 0.000000000000000D+00 -.401081570777277D+03
 0.169015043923283D+03 -.251179879079474D+01 0.105189352910351D+03 0.958108794945823D+02
 0.164184562542872D+03 0.985344512870138D+02 0.843453837742219D+02 -.100664734256543D+03
 0.943162228945488D+02 0.731426178048700D+02 0.429508355795264D+02 0.412423700187732D+02
 0.110978566183248D+03 0.459749942479907D+01 -.515337730477142D+02 -.363885152568125D+02
 0.251183091301872D+03 -.173762769725888D+03 -.180951799216385D+03 -.124856547087315D+02
0.221909781323D-05 0.000000000000D+00 0.000000000000D+00 0.725080069809D-10 0.000000000000D+00  7 -1 1 23 -11 11 23 21 0 0.30132730D-01 0.44583647D-01 0.33450034D+05 0.33450034D+05 0.33450034D+05 0.11629749D+01  1  2  2  1  7  1       -1 0.240820638160D-03 0.100000000000D+01
-.112805466544D-06 0.000000000000D+00 -.852191990466D-08 0.725080069809D-10 0.000000000000D+00  7 -1 1 23 -11 11 23 21 2 0.30132730D-01 0.44583647D-01 0.33450034D+05 0.33450034D+05 0.33450034D+05 0.11629749D+01  1  2  3  1  7  1       -1 -.165572450922D-04 0.100000000000D+01
0.134713123373D-06 0.000000000000D+00 0.000000000000D+00 0.725080069809D-10 0.000000000000D+00  7 -1 1 23 -11 11 23 21 2 0.30132730D-01 0.44583647D-01 0.33450034D+05 0.33450034D+05 0.33450034D+05 0.11629749D+01  1  2 15  1  7  1       -1 0.197727846811D-04 0.100000000000D+01
  </mgrwgt>
  </event>
  <event>
  8     66 0.27784906E-05 0.29511197E+03 0.75467711E-02 0.96747340E-01
       -1 -1    0    0    0  501 0.00000000E+00 0.00000000E+00 0.19600680E+03 0.19600706E+03 0.32000000E+00 0.0000E+00 0.9000E+01
        1 -1    0    0  501    0 0.00000000E+00 0.00000000E+00 -.58974327E+03 0.58974336E+03 0.32000000E+00 0.0000E+00 0.9000E+01
       25  2    1    2    0    0 0.21047158E+03 0.32892454E+02 -.41241472E+03 0.55327606E+03 0.30107856E+03 0.0000E+00 0.0000E+00
       23  2    3    3    0    0 0.21635056E+03 0.95138585E+02 -.32676641E+03 0.41341890E+03 0.90994394E+02 0.0000E+00 0.0000E+00
       23  1    1    2    0    0 -.21047158E+03 -.32892454E+02 0.18678243E+02 0.23247436E+03 0.91188000E+02 0.0000E+00 0.9000E+01
      -11  1    4    4    0    0 0.16996833E+03 0.10598328E+03 -.29343218E+03 0.35528035E+03 0.51099893E-03 0.0000E+00 0.9000E+01
       11  1    4    4    0    0 0.46382231E+02 -.10844692E+02 -.33334236E+02 0.58138541E+02 0.51099893E-03 0.0000E+00 0.9000E+01
       23  1    3    3    0    0 -.58789742E+01 -.62246130E+02 -.85648301E+02 0.13985716E+03 0.91188000E+02 0.0000E+00 0.9000E+01
#aMCatNLO 1  0  0  2  1 0.21177915D+03 0.00000000D+00  -5  7  0 0.00000000D+00 0.00000000D+00 0.00000000D+00 0.00000000D+00 0.00000000D+00
  <mgrwgt>
 0.3535957167D-03    7    2    0
 0.339990924261265D+03 0.000000000000000D+00 0.000000000000000D+00 0.339990924261265D+03
 0.339990924261265D+03 0.000000000000000D+00 0.000000000000000D+00 -.339990924261265D+03
 0.279450303296134D+03 -.210471583791650D+03 -.328924544084600D+02 0.156195452966863D+03
 0.240633978351781D+03 0.169968327199479D+03 0.105983276694055D+03 -.133353006518816D+03
 0.478799232522295D+02 0.463822308156879D+02 -.108446919794639D+02 -.485472667306686D+01
 0.112017643622386D+03 -.587897422351752D+01 -.622461303061312D+02 -.179877197749795D+02
 0.000000000000000D+00 0.000000000000000D+00 0.000000000000000D+00 -.000000000000000D+00
 0.455843300034650D+03 0.000000000000000D+00 0.000000000000000D+00 0.455843300034650D+03
 0.468512265861656D+03 0.000000000000000D+00 0.000000000000000D+00 -.468512265861656D+03
 0.358676382231111D+03 -.304298898871151D+03 -.577811080257144D+02 0.156195452966863D+03
 0.192404741350480D+03 0.106296236192100D+03 0.890936042481772D+02 -.133353006518816D+03
 0.370515639435970D+02 0.338942819647333D+02 -.141572479561328D+02 -.485472667306686D+01
 0.124065124878191D+03 -.405915364894923D+02 -.714539919791759D+02 -.179877197749795D+02
 0.212157753492928D+03 0.204699917203810D+03 0.542987437128459D+02 -.126689658270067D+02
0.788752817756D-05 0.000000000000D+00 0.000000000000D+00 0.183927511668D-06 0.000000000000D+00  7 -1 1 23 -11 11 23 21 0 0.30154919D-01 0.90729761D-01 0.87091072D+05 0.87091072D+05 0.87091072D+05 0.11266814D+01  1  2  2  2  7  2        1 0.328513299878D-03 0.100000000000D+01
-.427518839772D-06 0.000000000000D+00 -.302901850357D-07 0.183927511668D-06 0.000000000000D+00  7 -1 1 23 -11 11 23 21 2 0.30154919D-01 0.90729761D-01 0.87091072D+05 0.87091072D+05 0.87091072D+05 0.11266814D+01  1  2  3  2  7  2        1 -.226031813010D-04 0.100000000000D+01
0.499868914957D-06 0.000000000000D+00 0.000000000000D+00 0.183927511668D-06 0.000000000000D+00  7 -1 1 23 -11 11 23 21 2 0.30154919D-01 0.90729761D-01 0.87091072D+05 0.87091072D+05 0.87091072D+05 0.11266814D+01  1  2 15  2  7  2        1 0.264283738175D-04 0.100000000000D+01
-.257456330439D-05 0.000000000000D+00 0.000000000000D+00 0.183927511668D-06 0.000000000000D+00  7 -1 1 23 -11 11 23 21 2 0.30154919D-01 0.90729761D-01 0.87091072D+05 0.87091072D+05 0.87091072D+05 0.11266814D+01  1  2  4  2  7  2        1 -.136118729109D-03 0.100000000000D+01
-.311344009885D-05 0.000000000000D+00 -.277090610981D-05 0.183927511668D-06 0.000000000000D+00  7 -1 1 23 -11 11 23 21 2 0.30154919D-01 0.15667934D+00 0.87091072D+05 0.87091072D+05 0.87091072D+05 0.11266814D+01  1  2  5  2  7  2        1 -.700952597657D-04 0.100000000000D+01
0.433214961109D-05 0.000000000000D+00 0.240325752967D-05 0.183927511668D-06 0.000000000000D+00  7 -1 1 23 -11 11 23 21 2 0.30154919D-01 0.90729761D-01 0.87091072D+05 0.87091072D+05 0.87091072D+05 0.11266814D+01  1  2  6  2  7  2        1 0.229043387035D-03 0.100000000000D+01
-.512172313546D-07 0.000000000000D+00 -.167866376412D-06 0.183927511668D-06 0.000000000000D+00  7 -1 21 23 -11 11 23 -1 2 0.30154919D-01 0.15667934D+00 0.87091072D+05 0.87091072D+05 0.87091072D+05 0.11266814D+01  1  2  5  4  7  2        1 -.157217386670D-05 0.100000000000D+01
  </mgrwgt>
  </event>
  <event>
  7     66 0.27784906E-05 0.35625735E+03 0.75467711E-02 0.98227370E-01
       -1 -1    0    0    0  501 0.00000000E+00 0.00000000E+00 0.58754518E+03 0.58754527E+03 0.32000000E+00 0.0000E+00 0.9000E+01
        1 -1    0    0  501    0 0.00000000E+00 0.00000000E+00 -.34316622E+03 0.34316637E+03 0.32000000E+00 0.0000E+00 0.9000E+01
       25  2    1    2    0    0 0.96018700E+02 -.31814537E+03 0.35121820E+03 0.56992648E+03 0.30170499E+03 0.0000E+00 0.0000E+00
       23  1    1    2    0    0 -.96018700E+02 0.31814537E+03 -.10683924E+03 0.36078517E+03 0.91188000E+02 0.0000E+00 0.9000E+01
      -13  1    3    3    0    0 0.22895759E+02 -.14111832E+03 0.33954245E+02 0.14694046E+03 0.10565837E+00 0.0000E+00 0.9000E+01
       13  1    3    3    0    0 0.36223749E+01 -.63479130E+02 0.23184784E+03 0.24040831E+03 0.10565837E+00 0.0000E+00 0.9000E+01
       23  1    3    3    0    0 0.69500566E+02 -.11354792E+03 0.85416111E+02 0.18257771E+03 0.91188000E+02 0.0000E+00 0.9000E+01
#aMCatNLO 1  0  0  1  1 0.25582023D+02 0.00000000D+00  -5  7  0 0.00000000D+00 0.00000000D+00 0.00000000D+00 0.00000000D+00 0.00000000D+00
  <mgrwgt>
 0.2732832424D-03    4    2    0
 0.449027585787842D+03 0.000000000000000D+00 0.000000000000000D+00 0.449027585787842D+03
 0.449027585787842D+03 0.000000000000000D+00 0.000000000000000D+00 -.449027585787842D+03
 0.402977715736160D+03 -.960187000365794D+02 0.318145368160957D+03 -.208901225455829D+03
 0.143041761070173D+03 0.228941759234521D+02 -.141116285932813D+03 -.479541065719140D+01
 0.186059910641059D+03 0.362095048255832D+01 -.634791851187326D+02 0.174858720463188D+03
 0.165975784128292D+03 0.695035736305690D+02 -.113549897109412D+03 0.388379156498329D+02
 0.000000000000000D+00 0.000000000000000D+00 -.000000000000000D+00 -.000000000000000D+00
 0.450662647340895D+03 0.000000000000000D+00 0.000000000000000D+00 0.450662647340895D+03
 0.561817740236323D+03 0.000000000000000D+00 0.000000000000000D+00 -.561817740236323D+03
 0.412582806606527D+03 -.100170238196714D+03 0.328991675192526D+03 -.208901225455829D+03
 0.139112426108113D+03 0.214578951778518D+02 -.137363859398498D+03 -.479541065719140D+01
 0.184409725185801D+03 0.173510781586264D+01 -.585522332788994D+02 0.174858720463188D+03
 0.162314504870143D+03 0.678324411700819D+02 -.109183897073349D+03 0.388379156498329D+02
 0.114060924806635D+03 0.914479403291783D+01 -.238916854417800D+02 -.111155092895428D+03
0.246220686854D-04 0.000000000000D+00 0.000000000000D+00 0.206516067881D-10 0.000000000000D+00  7 -1 1 23 -13 13 23 21 0 0.90391585D-01 0.52794822D-01 0.12691930D+06 0.12691930D+06 0.12691930D+06 0.11133241D+01  1  2  2  1  7  1       -1 0.283546805685D-03 0.100000000000D+01
-.127881346692D-05 0.000000000000D+00 -.945552268915D-07 0.206516067881D-10 0.000000000000D+00  7 -1 1 23 -13 13 23 21 2 0.90391585D-01 0.52794822D-01 0.12691930D+06 0.12691930D+06 0.12691930D+06 0.11133241D+01  1  2  3  1  7  1       -1 -.182536896667D-04 0.100000000000D+01
0.153720830138D-05 0.000000000000D+00 0.000000000000D+00 0.206516067881D-10 0.000000000000D+00  7 -1 1 23 -13 13 23 21 2 0.90391585D-01 0.52794822D-01 0.12691930D+06 0.12691930D+06 0.12691930D+06 0.11133241D+01  1  2 15  1  7  1       -1 0.219419985888D-04 0.100000000000D+01
-.977437570867D-06 0.000000000000D+00 0.000000000000D+00 0.206516067881D-10 0.000000000000D+00  7 -1 1 23 -13 13 23 21 2 0.90391585D-01 0.52794822D-01 0.12691930D+06 0.12691930D+06 0.12691930D+06 0.11133241D+01  1  2  4  1  7  1       -1 -.139518722228D-04 0.100000000000D+01
  </mgrwgt>
  </event>
  <event>
  8     66 0.27784906E-05 0.19741279E+03 0.75467711E-02 0.94880530E-01
       -1 -1    0    0    0  501 0.00000000E+00 0.00000000E+00 0.61250166E+03 0.61250174E+03 0.32000000E+00 0.0000E+00 0.9000E+01
        1 -1    0    0  501    0 0.00000000E+00 0.00000000E+00 -.15823221E+03 0.15823253E+03 0.32000000E+00 0.0000E+00 0.9000E+01
       25  2    1    2    0    0 0.30338028E+02 0.47163164E+02 0.97667642E+00 0.30497216E+03 0.29977042E+03 0.0000E+00 0.0000E+00
       23  2    3    3    0    0 -.90335710E+02 0.13005505E+02 -.49296352E+02 0.14196441E+03 0.96923067E+02 0.0000E+00 0.0000E+00
       23  1    1    2    0    0 -.30338028E+02 -.47163164E+02 0.45329277E+03 0.46576211E+03 0.91188000E+02 0.0000E+00 0.9000E+01
      -11  1    4    4    0    0 -.87587668E+02 -.27739085E+02 -.39260415E+02 0.99912144E+02 0.51099893E-03 0.0000E+00 0.9000E+01
       11  1    4    4    0    0 -.27480419E+01 0.40744590E+02 -.10035937E+02 0.42052270E+02 0.51099893E-03 0.0000E+00 0.9000E+01
       23  1    3    3    0    0 0.12067374E+03 0.34157659E+02 0.50273029E+02 0.16300775E+03 0.91188000E+02 0.0000E+00 0.9000E+01
#aMCatNLO 1  0  0  2  1 0.42483289D+03 0.00000000D+00  -5  7  0 0.00000000D+00 0.00000000D+00 0.00000000D+00 0.00000000D+00 0.00000000D+00
  <mgrwgt>
 0.4853925278D-03    3    2    0
 0.311315993805086D+03 0.000000000000000D+00 0.000000000000000D+00 0.311315993805086D+03
 0.311315993805086D+03 0.000000000000000D+00 0.000000000000000D+00 -.311315993805086D+03
 0.245830237237763D+03 -.303380280024070D+02 -.471631643465617D+02 0.221297298180794D+03
 0.152321954123329D+03 -.875876680402449D+02 -.277390846307431D+02 -.121494531971895D+03
 0.593772019460300D+02 -.274804194694373D+01 0.407445900829264D+02 -.431042776922634D+02
 0.165102594303050D+03 0.120673737989596D+03 0.341576588943784D+02 -.566984885166363D+02
 0.000000000000000D+00 -.000000000000000D+00 0.000000000000000D+00 0.000000000000000D+00
 0.719756237630476D+03 0.000000000000000D+00 0.000000000000000D+00 0.719756237630476D+03
 0.508474585306871D+03 0.000000000000000D+00 0.000000000000000D+00 -.508474585306871D+03
 0.291007880930913D+03 0.122383550045622D+03 -.111445537891887D+03 0.221297298180794D+03
 0.136661794157981D+03 -.537656459194459D+01 -.623427400472360D+02 -.121494531971895D+03
 0.593687582069010D+02 0.310332224745329D+02 0.265256441675572D+02 -.431042776922634D+02
 0.266721192021230D+03 0.243520473074450D+03 -.175500291381844D+02 -.566984885166363D+02
 0.474471197620321D+03 -.391560681002660D+03 0.164812662909750D+03 0.211281652323604D+03
0.160018956024D-04 0.000000000000D+00 0.000000000000D+00 0.366828120308D-07 0.000000000000D+00  7 -1 1 23 -11 11 23 21 0 0.94231055D-01 0.24343448D-01 0.38971809D+05 0.38971809D+05 0.38971809D+05 0.11569377D+01  1  2  2  2  7  2        1 0.472734667425D-03 0.100000000000D+01
-.664720057392D-06 0.000000000000D+00 -.614514925091D-07 0.366828120308D-07 0.000000000000D+00  7 -1 1 23 -11 11 23 21 2 0.94231055D-01 0.24343448D-01 0.38971809D+05 0.38971809D+05 0.38971809D+05 0.11569377D+01  1  2  3  2  7  2        1 -.262848064241D-04 0.100000000000D+01
0.984826415868D-06 0.000000000000D+00 0.000000000000D+00 0.366828120308D-07 0.000000000000D+00  7 -1 1 23 -11 11 23 21 2 0.94231055D-01 0.24343448D-01 0.38971809D+05 0.38971809D+05 0.38971809D+05 0.11569377D+01  1  2 15  2  7  2        1 0.389426667882D-04 0.100000000000D+01
  </mgrwgt>
  </event>
  <event>
  8     66 0.27784906E-05 0.28112453E+03 0.75467711E-02 0.97985445E-01
       -1 -1    0    0    0  501 0.00000000E+00 0.00000000E+00 0.38266796E+03 0.38266809E+03 0.32000000E+00 0.0000E+00 0.9000E+01
        1 -1    0    0  501    0 0.00000000E+00 0.00000000E+00 -.24157364E+03 0.24157385E+03 0.32000000E+00 0.0000E+00 0.9000E+01
       25  2    1    2    0    0 0.97242816E+02 0.18094598E+03 0.83877527E+01 0.36323639E+03 0.29945402E+03 0.0000E+00 0.0000E+00
       23  2    3    3    0    0 0.57980116E+02 0.21382039E+03 0.53556212E+02 0.24931656E+03 0.10104271E+03 0.0000E+00 0.0000E+00
       23  1    1    2    0    0 -.97242816E+02 -.18094598E+03 0.13270656E+03 0.26100555E+03 0.91188000E+02 0.0000E+00 0.9000E+01
      -13  1    4    4    0    0 0.26679786E+02 0.13014343E+02 -.16973718E+02 0.34195064E+02 0.10565837E+00 0.0000E+00 0.9000E+01
       13  1    4    4    0    0 0.31300330E+02 0.20080604E+03 0.70529930E+02 0.21512150E+03 0.10565837E+00 0.0000E+00 0.9000E+01
       23  1    3    3    0    0 0.39262700E+02 -.32874407E+02 -.45168459E+02 0.11391983E+03 0.91188000E+02 0.0000E+00 0.9000E+01
#aMCatNLO 1  0  0  2  1 0.16765889D+03 0.00000000D+00  -5  7  0 0.00000000D+00 0.00000000D+00 0.00000000D+00 0.00000000D+00 0.00000000D+00
  <mgrwgt>
 0.4776878727D-03    3    2    0
 0.304043744333600D+03 0.000000000000000D+00 0.000000000000000D+00 0.304043744333600D+03
 0.304043744333600D+03 0.000000000000000D+00 0.000000000000000D+00 -.304043744333600D+03
 0.237147566307471D+03 -.972428162074021D+02 -.180945979361071D+03 0.756710255690546D+02
 0.390416854894133D+02 0.266797587729097D+02 0.130141590869393D+02 -.253589302008867D+02
 0.204471570757324D+03 0.313003488478418D+02 0.200806253436305D+03 0.224891082714524D+02
 0.127426666112992D+03 0.392627085866506D+02 -.328744331621728D+02 -.728012036396203D+02
 0.000000000000000D+00 -.000000000000000D+00 -.000000000000000D+00 0.000000000000000D+00
 0.938024164484359D+03 0.000000000000000D+00 0.000000000000000D+00 0.938024164484359D+03
 0.326675107530602D+03 0.000000000000000D+00 0.000000000000000D+00 -.326675107530602D+03
 0.190051581553666D+03 -.781504115634698D+02 -.126375477719522D+03 0.756710255690546D+02
 0.463145886792998D+02 0.304945054396264D+02 0.239175860318693D+02 -.253589302008867D+02
 0.267210204855273D+03 0.523807732078909D+02 0.261058974536589D+03 0.224891082714524D+02
 0.127200841430802D+03 0.506425332699205D+02 -.348266178996106D+00 -.728012036396203D+02
 0.633922055495921D+03 -.553674003539680D+02 -.158252816669940D+03 0.611349056953757D+03
0.110461305997D-04 0.000000000000D+00 0.000000000000D+00 0.530847004401D-08 0.000000000000D+00  7 -1 1 23 -13 13 23 21 0 0.58872020D-01 0.37165202D-01 0.79031003D+05 0.79031003D+05 0.79031003D+05 0.11302067D+01  1  2  2  2  7  2        1 0.472877188362D-03 0.100000000000D+01
-.609090800111D-06 0.000000000000D+00 -.424200500160D-07 0.530847004401D-08 0.000000000000D+00  7 -1 1 23 -13 13 23 21 2 0.58872020D-01 0.37165202D-01 0.79031003D+05 0.79031003D+05 0.79031003D+05 0.11302067D+01  1  2  3  2  7  2        1 -.333070352796D-04 0.100000000000D+01
0.697064513349D-06 0.000000000000D+00 0.000000000000D+00 0.530847004401D-08 0.000000000000D+00  7 -1 1 23 -13 13 23 21 2 0.58872020D-01 0.37165202D-01 0.79031003D+05 0.79031003D+05 0.79031003D+05 0.11302067D+01  1  2 15  2  7  2        1 0.381177196143D-04 0.100000000000D+01
  </mgrwgt>
  </event>
  <event>
  8     66 0.27784906E-05 0.21109056E+03 0.75467711E-02 0.99494423E-01
       -1 -1    0    0    0  501 0.00000000E+00 0.00000000E+00 0.40822664E+02 0.40823918E+02 0.32000000E+00 0.0000E+00 0.9000E+01
        1 -1    0    0  501    0 0.00000000E+00 0.00000000E+00 -.23007991E+04 0.23007991E+04 0.32000000E+00 0.0000E+00 0.9000E+01
       25  2    1    2    0    0 -.19027064E+02 0.17769539E+03 -.87561223E+03 0.94279596E+03 0.30038271E+03 0.0000E+00 0.0000E+00
       23  2    3    3    0    0 0.86352786E+02 0.16875397E+03 -.51682746E+03 0.55779386E+03 0.89936953E+02 0.0000E+00 0.0000E+00
       23  1    1    2    0    0 0.19027064E+02 -.17769539E+03 -.13843642E+04 0.13988271E+04 0.91188000E+02 0.0000E+00 0.9000E+01
      -11  1    4    4    0    0 0.80959522E+02 0.99668912E+02 -.41662856E+03 0.43596754E+03 0.51099893E-03 0.0000E+00 0.9000E+01
       11  1    4    4    0    0 0.53932636E+01 0.69085055E+02 -.10019890E+03 0.12182632E+03 0.51099893E-03 0.0000E+00 0.9000E+01
       23  1    3    3    0    0 -.10537985E+03 0.89414268E+01 -.35878477E+03 0.38500211E+03 0.91188000E+02 0.0000E+00 0.9000E+01
#aMCatNLO 1  0  0  1  2 0.11541586D+03 0.00000000D+00  -5  7  0 0.00000000D+00 0.00000000D+00 0.00000000D+00 0.00000000D+00 0.00000000D+00
  <mgrwgt>
 0.4036874181D-03    9    2    0
 0.306473884919644D+03 0.000000000000000D+00 0.000000000000000D+00 0.306473884919644D+03
 0.306473884919644D+03 0.000000000000000D+00 0.000000000000000D+00 -.306473884919644D+03
 0.239653739408418D+03 0.190270636994143D+02 -.177695393700064D+03 -.131076242596420D+03
 0.129376277799218D+03 0.809595220660646D+02 0.996689123003993D+02 0.158077501520667D+02
 0.959692831881517D+02 0.539326362310581D+01 0.690850545831579D+02 0.663948134750105D+02
 0.147948469443500D+03 -.105379849388585D+03 0.894142681650693D+01 0.488736789693426D+02
 0.000000000000000D+00 0.000000000000000D+00 0.000000000000000D+00 0.000000000000000D+00
 0.389860603479807D+03 0.000000000000000D+00 0.000000000000000D+00 0.389860603479807D+03
 0.354554081393744D+03 0.000000000000000D+00 0.000000000000000D+00 -.354554081393744D+03
 0.271726763665010D+03 -.337770621039634D+01 -.219835830736077D+03 -.131076242596420D+03
 0.107922652908397D+03 0.705629036764410D+02 0.801142351312513D+02 0.158077501520667D+02
 0.856930636107695D+02 -.256578654960215D+01 0.541151238934166D+02 0.663948134750105D+02
 0.158376839150764D+03 -.118800674029646D+03 -.163013861217489D+02 0.488736789693426D+02
 0.120695365538611D+03 0.541812631132036D+02 0.101907857833158D+03 0.353065220860626D+02
0.110522349196D-04 0.000000000000D+00 0.000000000000D+00 0.186876849108D-06 0.000000000000D+00  7 -1 1 23 -11 11 23 21 0 0.62805080D-02 0.35396919D+00 0.72354628D+05 0.72354628D+05 0.72354628D+05 0.11334402D+01  1  2  2  1  7  1       -1 0.318609491583D-03 0.100000000000D+01
-.601305892200D-06 0.000000000000D+00 -.424434922114D-07 0.186876849108D-06 0.000000000000D+00  7 -1 1 23 -11 11 23 21 2 0.62805080D-02 0.35396919D+00 0.72354628D+05 0.72354628D+05 0.72354628D+05 0.11334402D+01  1  2  3  1  7  1       -1 -.222690290181D-04 0.100000000000D+01
0.726669015125D-06 0.000000000000D+00 0.000000000000D+00 0.186876849108D-06 0.000000000000D+00  7 -1 1 23 -11 11 23 21 2 0.62805080D-02 0.35396919D+00 0.72354628D+05 0.72354628D+05 0.72354628D+05 0.11334402D+01  1  2 15  1  7  1       -1 0.269117824958D-04 0.100000000000D+01
0.483484507161D-05 0.000000000000D+00 0.000000000000D+00 0.186876849108D-06 0.000000000000D+00  7 -1 1 23 -11 11 23 21 2 0.83731716D-02 0.35396919D+00 0.11056278D+06 0.11056278D+06 0.11056278D+06 0.11181609D+01  1  2 12  1  7  1       -1 0.111426096906D-03 0.100000000000D+01
-.596559358209D-05 0.000000000000D+00 0.000000000000D+00 0.186876849108D-06 0.000000000000D+00  7 -1 1 23 -11 11 23 21 2 0.62805080D-02 0.35396919D+00 0.72354628D+05 0.72354628D+05 0.72354628D+05 0.11334402D+01  1  2  4  1  7  1       -1 -.220932437737D-03 0.100000000000D+01
-.889737357979D-05 0.000000000000D+00 -.448313859999D-05 0.186876849108D-06 0.000000000000D+00  7 -1 1 23 -11 11 23 21 2 0.96147705D-02 0.35396919D+00 0.72354628D+05 0.72354628D+05 0.72354628D+05 0.11334402D+01  1  2  5  1  7  1       -1 -.173071430650D-03 0.100000000000D+01
0.102416448174D-04 0.000000000000D+00 0.410524067055D-05 0.186876849108D-06 0.000000000000D+00  7 -1 1 23 -11 11 23 21 2 0.62805080D-02 0.35396919D+00 0.72354628D+05 0.72354628D+05 0.72354628D+05 0.11334402D+01  1  2  6  1  7  1       -1 0.379293615097D-03 0.100000000000D+01
0.181260905007D-06 0.000000000000D+00 0.000000000000D+00 0.186876849108D-06 0.000000000000D+00  7 21 1 23 -11 11 23 1 2 0.83731716D-02 0.35396919D+00 0.11056278D+06 0.11056278D+06 0.11056278D+06 0.11181609D+01  1  2 12  3  7  1       -1 0.603047601424D-04 0.100000000000D+01
-.277283591578D-06 0.000000000000D+00 -.223507479053D-06 0.186876849108D-06 0.000000000000D+00  7 21 1 23 -11 11 23 1 2 0.96147705D-02 0.35396919D+00 0.72354628D+05 0.72354628D+05 0.72354628D+05 0.11334402D+01  1  2  5  3  7  1       -1 -.765854307579D-04 0.100000000000D+01
  </mgrwgt>
  </event>
  <event>
  8     66 0.27784906E-05 0.16636646E+03 0.75467711E-02 0.89682630E-01
       -3 -1    0    0    0  501 0.00000000E+00 0.00000000E+00 0.12521505E+04 0.12521506E+04 0.50000000E+00 0.0000E+00 0.9000E+01
        3 -1    0    0  501    0 0.00000000E+00 0.00000000E+00 -.43230628E+02 0.43233519E+02 0.50000000E+00 0.0000E+00 0.9000E+01
       25  2    1    2    0    0 0.73461384E+01 0.35408540E+02 0.11311338E+04 0.11701897E+04 0.29761119E+03 0.0000E+00 0.0000E+00
       23  2    3    3    0    0 -.34492954E+02 0.87545330E+02 0.26598128E+03 0.29768011E+03 0.94939254E+02 0.0000E+00 0.0000E+00
       23  1    1    2    0    0 -.73461384E+01 -.35408540E+02 0.77786077E+02 0.12519447E+03 0.91188000E+02 0.0000E+00 0.9000E+01
      -13  1    4    4    0    0 -.39798962E+02 0.10021771E+03 0.26208280E+03 0.28339893E+03 0.10565837E+00 0.0000E+00 0.9000E+01
       13  1    4    4    0    0 0.53060078E+01 -.12672383E+02 0.38984784E+01 0.14281187E+02 0.10565837E+00 0.0000E+00 0.9000E+01
       23  1    3    3    0    0 0.41839092E+02 -.52136790E+02 0.86515252E+03 0.87250954E+03 0.91188000E+02 0.0000E+00 0.9000E+01
#aMCatNLO 1  0  0  2  2 0.76508808D+03 0.00000000D+00  -5  7  0 0.00000000D+00 0.00000000D+00 0.00000000D+00 0.00000000D+00 0.00000000D+00
  <mgrwgt>
 0.1713675283D-03    5    2    0
 0.232665402535503D+03 0.000000000000000D+00 0.000000000000000D+00 0.232665402535503D+03
 0.232665402535503D+03 0.000000000000000D+00 0.000000000000000D+00 -.232665402535503D+03
 0.146428732761195D+03 -.734613920201812D+01 -.354085437240611D+02 -.108712426631987D+03
 0.108037990093090D+03 -.397990127752491D+02 0.100217838762181D+03 -.668061967991680D+01
 0.296275712400394D+02 0.530605426311230D+01 -.126725008790842D+02 -.262496949927066D+02
 0.181236510976682D+03 0.418390977141549D+02 -.521367941590359D+02 0.141642741304610D+03
 0.000000000000000D+00 0.000000000000000D+00 -.000000000000000D+00 -.000000000000000D+00
 0.510512555625225D+03 0.000000000000000D+00 0.000000000000000D+00 0.510512555625225D+03
 0.277909893560915D+04 0.000000000000000D+00 0.000000000000000D+00 -.277909893560915D+04
 0.270406506737200D+03 -.223459379634304D+03 0.552443797236608D+02 -.108712426631987D+03
 0.331989920097537D+03 -.267936772112436D+03 0.195914681729139D+03 -.668061967991680D+01
 0.409107538154035D+02 -.312653882587391D+02 0.266810561348708D+01 -.262496949927066D+02
 0.252177342926529D+03 -.182869524637409D+03 0.421216302638860D+02 0.141642741304610D+03
 0.239412696765770D+04 0.705531064642889D+03 -.295948797330173D+03 -.226858637998392D+04
0.281766604940D-04 0.000000000000D+00 0.000000000000D+00 0.132152976205D-08 0.000000000000D+00  7 -3 3 23 -13 13 23 21 0 0.19263877D+00 0.66510959D-02 0.27677800D+05 0.27677800D+05 0.27677800D+05 0.11705963D+01  1  2  2  2  7  2        3 0.164974194826D-03 0.100000000000D+01
-.135125535824D-05 0.000000000000D+00 -.108205795382D-06 0.132152976205D-08 0.000000000000D+00  7 -3 3 23 -13 13 23 21 2 0.19263877D+00 0.66510959D-02 0.27677800D+05 0.27677800D+05 0.27677800D+05 0.11705963D+01  1  2  3  2  7  2        3 -.108412216017D-04 0.100000000000D+01
0.173036213355D-05 0.000000000000D+00 0.000000000000D+00 0.132152976205D-08 0.000000000000D+00  7 -3 3 23 -13 13 23 21 2 0.19263877D+00 0.66510959D-02 0.27677800D+05 0.27677800D+05 0.27677800D+05 0.11705963D+01  1  2 15  2  7  2        3 0.138828232773D-04 0.100000000000D+01
0.807383247685D-04 0.000000000000D+00 -.525804636008D-04 0.132152976205D-08 0.000000000000D+00  7 -3 3 23 -13 13 23 21 2 0.19263877D+00 0.16997695D+00 0.27677800D+05 0.27677800D+05 0.27677800D+05 0.11705963D+01  1  2  5  2  7  2        3 0.109429509331D-05 0.100000000000D+01
0.121582566918D-04 0.000000000000D+00 -.174946624707D-04 0.132152976205D-08 0.000000000000D+00  7 -3 21 23 -13 13 23 -3 2 0.19263877D+00 0.16997695D+00 0.27677800D+05 0.27677800D+05 0.27677800D+05 0.11705963D+01  1  2  5  4  7  2        3 0.225743675352D-05 0.100000000000D+01
  </mgrwgt>
  </event>
  <event>
  8     66 0.27784906E-05 0.12470181E+03 0.75467711E-02 0.99169862E-01
       -1 -1    0    0    0  501 0.00000000E+00 0.00000000E+00 0.75292343E+02 0.75293023E+02 0.32000000E+00 0.0000E+00 0.9000E+01
        1 -1    0    0  501    0 0.00000000E+00 0.00000000E+00 -.10488767E+04 0.10488768E+04 0.32000000E+00 0.0000E+00 0.9000E+01
       25  2    1    2    0    0 0.16834836E+03 -.66244834E+02 -.51947153E+03 0.62691404E+03 0.30073410E+03 0.0000E+00 0.0000E+00
       23  2    3    3    0    0 0.33260457E+02 0.85317765E+02 -.19358462E+03 0.23227814E+03 0.89959725E+02 0.0000E+00 0.0000E+00
       23  1    1    2    0    0 -.16834836E+03 0.66244834E+02 -.45411284E+03 0.49725574E+03 0.91188000E+02 0.0000E+00 0.9000E+01
      -13  1    4    4    0    0 0.55860484E+02 0.21661590E+02 -.77336657E+02 0.97829381E+02 0.10565837E+00 0.0000E+00 0.9000E+01
       13  1    4    4    0    0 -.22600027E+02 0.63656175E+02 -.11624796E+03 0.13444876E+03 0.10565837E+00 0.0000E+00 0.9000E+01
       23  1    3    3    0    0 0.13508790E+03 -.15156260E+03 -.32588691E+03 0.39463590E+03 0.91188000E+02 0.0000E+00 0.9000E+01
#aMCatNLO 1  0  0  1  2 0.11745627D+03 0.00000000D+00  -5  7  0 0.00000000D+00 0.00000000D+00 0.00000000D+00 0.00000000D+00 0.00000000D+00
  <mgrwgt>
 0.3717553581D-03    9    2    0
 0.281020985512810D+03 0.000000000000000D+00 0.000000000000000D+00 0.281020985512810D+03
 0.281020985512810D+03 0.000000000000000D+00 0.000000000000000D+00 -.281020985512810D+03
 0.207960832938935D+03 -.168348363706721D+03 0.662448349240603D+02 -.469351358345635D+02
 0.617090378368818D+02 0.558605923965507D+02 0.216615313357442D+02 0.147776056264436D+02
 0.675501875382798D+02 -.226001344532338D+02 0.636562310998197D+02 0.382101189296468D+00
 0.224821912711524D+03 0.135087905763405D+03 -.151562597359624D+03 0.317754290188234D+02
 0.000000000000000D+00 0.000000000000000D+00 -.000000000000000D+00 0.000000000000000D+00
 0.396515061527931D+03 0.000000000000000D+00 0.000000000000000D+00 0.396515061527931D+03
 0.318611741399091D+03 0.000000000000000D+00 0.000000000000000D+00 -.318611741399091D+03
 0.250172232635696D+03 -.211127801599107D+03 0.865623420087955D+02 -.469351358345635D+02
 0.544392595816301D+02 0.450149249494973D+02 0.268125322850440D+02 0.147776056264436D+02
 0.789828827251749D+02 -.362830638236634D+02 0.701547506718386D+02 0.382101189296468D+00
 0.190589525598351D+03 0.962977175837457D+02 -.133139729692662D+03 0.317754290188234D+02
 0.140942902386171D+03 0.106098222889527D+03 -.503898952730157D+02 0.779033201288397D+02
0.400740826705D-05 0.000000000000D+00 0.000000000000D+00 0.668618515136D-07 0.000000000000D+00  7 -1 1 23 -13 13 23 21 0 0.11583493D-01 0.16136570D+00 0.76348005D+05 0.76348005D+05 0.76348005D+05 0.11314686D+01  1  2  2  1  7  1       -1 0.311210222699D-03 0.100000000000D+01
-.222556473819D-06 0.000000000000D+00 -.153895029203D-07 0.668618515136D-07 0.000000000000D+00  7 -1 1 23 -13 13 23 21 2 0.11583493D-01 0.16136570D+00 0.76348005D+05 0.76348005D+05 0.76348005D+05 0.11314686D+01  1  2  3  1  7  1       -1 -.221266436561D-04 0.100000000000D+01
0.262543026259D-06 0.000000000000D+00 0.000000000000D+00 0.668618515136D-07 0.000000000000D+00  7 -1 1 23 -13 13 23 21 2 0.11583493D-01 0.16136570D+00 0.76348005D+05 0.76348005D+05 0.76348005D+05 0.11314686D+01  1  2 15  1  7  1       -1 0.261021208988D-04 0.100000000000D+01
0.227869396213D-05 0.000000000000D+00 0.000000000000D+00 0.668618515136D-07 0.000000000000D+00  7 -1 1 23 -13 13 23 21 2 0.16867812D-01 0.16136570D+00 0.11644660D+06 0.11644660D+06 0.11644660D+06 0.11163356D+01  1  2 12  1  7  1       -1 0.121966907419D-03 0.100000000000D+01
-.290829145680D-05 0.000000000000D+00 0.000000000000D+00 0.668618515136D-07 0.000000000000D+00  7 -1 1 23 -13 13 23 21 2 0.11583493D-01 0.16136570D+00 0.76348005D+05 0.76348005D+05 0.76348005D+05 0.11314686D+01  1  2  4  1  7  1       -1 -.289143369359D-03 0.100000000000D+01
-.391376975905D-05 0.000000000000D+00 -.152584309488D-05 0.668618515136D-07 0.000000000000D+00  7 -1 1 23 -13 13 23 21 2 0.18507564D-01 0.16136570D+00 0.76348005D+05 0.76348005D+05 0.76348005D+05 0.11314686D+01  1  2  5  1  7  1       -1 -.186983323861D-03 0.100000000000D+01
0.430128024258D-05 0.000000000000D+00 0.137238808602D-05 0.668618515136D-07 0.000000000000D+00  7 -1 1 23 -13 13 23 21 2 0.11583493D-01 0.16136570D+00 0.76348005D+05 0.76348005D+05 0.76348005D+05 0.11314686D+01  1  2  6  1  7  1       -1 0.427634809088D-03 0.100000000000D+01
0.103640792714D-06 0.000000000000D+00 0.000000000000D+00 0.668618515136D-07 0.000000000000D+00  7 21 1 23 -13 13 23 1 2 0.16867812D-01 0.16136570D+00 0.11644660D+06 0.11644660D+06 0.11644660D+06 0.11163356D+01  1  2 12  3  7  1       -1 0.696320055367D-04 0.100000000000D+01
-.145962407895D-06 0.000000000000D+00 -.817823192972D-07 0.668618515136D-07 0.000000000000D+00  7 21 1 23 -13 13 23 1 2 0.18507564D-01 0.16136570D+00 0.76348005D+05 0.76348005D+05 0.76348005D+05 0.11314686D+01  1  2  5  3  7  1       -1 -.865373707080D-04 0.100000000000D+01
  </mgrwgt>
  </event>
  <event>
  8     66 0.27784906E-05 0.20183942E+03 0.75467711E-02 0.87859260E-01
       -3 -1    0    0    0  501 0.00000000E+00 0.00000000E+00 0.51977039E+02 0.51979444E+02 0.50000000E+00 0.0000E+00 0.9000E+01
        3 -1    0    0  501    0 0.00000000E+00 0.00000000E+00 -.14176806E+04 0.14176807E+04 0.50000000E+00 0.0000E+00 0.9000E+01
       25  2    1    2    0    0 0.80178028E+02 0.51541351E+01 -.12899018E+04 0.13264252E+04 0.29849981E+03 0.0000E+00 0.0000E+00
       23  2    3    3    0    0 0.14989048E+03 0.44094704E+02 -.64580600E+03 0.67102394E+03 0.93788243E+02 0.0000E+00 0.0000E+00
       23  1    1    2    0    0 -.80178028E+02 -.51541351E+01 -.75801765E+02 0.14323491E+03 0.91188000E+02 0.0000E+00 0.9000E+01
      -13  1    4    4    0    0 0.10351361E+03 0.48575560E+02 -.57502815E+03 0.58628665E+03 0.10565837E+00 0.0000E+00 0.9000E+01
       13  1    4    4    0    0 0.46376875E+02 -.44808564E+01 -.70777855E+02 0.84737291E+02 0.10565837E+00 0.0000E+00 0.9000E+01
       23  1    3    3    0    0 -.69712454E+02 -.38940569E+02 -.64409578E+03 0.65540127E+03 0.91188000E+02 0.0000E+00 0.9000E+01
#aMCatNLO 1  0  0  2  2 0.92729265D+03 0.00000000D+00  -5  7  0 0.00000000D+00 0.00000000D+00 0.00000000D+00 0.00000000D+00 0.00000000D+00
  <mgrwgt>
 0.2493914887D-04    3    2    0
 0.271456572475141D+03 0.000000000000000D+00 0.000000000000000D+00 0.271456572475141D+03
 0.271456572475141D+03 0.000000000000000D+00 0.000000000000000D+00 -.271456572475141D+03
 0.197055277553117D+03 -.801780291708317D+02 -.515413513650731D+01 0.155114311386190D+03
 0.140582676791010D+03 0.103513682147979D+03 0.485756258590015D+02 -.817851771062397D+02
 0.513404172774351D+02 0.463768030132080D+02 -.448092089462838D+01 0.215627441767355D+02
 0.153934773328720D+03 -.697124559903554D+02 -.389405698278658D+02 -.948918784566856D+02
 0.000000000000000D+00 0.000000000000000D+00 0.000000000000000D+00 0.000000000000000D+00
 0.150223794819543D+04 0.000000000000000D+00 0.000000000000000D+00 0.150223794819543D+04
 0.760039254889631D+03 0.000000000000000D+00 0.000000000000000D+00 -.760039254889631D+03
 0.526512133805107D+03 -.489222222670473D+03 -.741683419563738D+02 0.155114311386190D+03
 0.901017172558658D+02 -.268958836155373D+02 0.265728376861871D+02 -.817851771062397D+02
 0.247790085009550D+02 0.334527804619645D+01 -.117412282429350D+02 0.215627441767355D+02
 0.433142550949066D+03 -.401596627197516D+03 -.949362866621912D+02 -.948918784566856D+02
 0.118774179257407D+04 0.914369455437329D+03 0.154273019175313D+03 0.742198693305803D+03
0.625972699022D-05 0.000000000000D+00 0.000000000000D+00 0.887326105604D-08 0.000000000000D+00  7 -3 3 23 -13 13 23 21 0 0.79966593D-02 0.21810490D+00 0.40739153D+05 0.40739153D+05 0.40739153D+05 0.11552033D+01  1  2  2  2  7  2        3 0.245224351494D-04 0.100000000000D+01
-.310633475628D-06 0.000000000000D+00 -.240389998664D-07 0.887326105604D-08 0.000000000000D+00  7 -3 3 23 -13 13 23 21 2 0.79966593D-02 0.21810490D+00 0.40739153D+05 0.40739153D+05 0.40739153D+05 0.11552033D+01  1  2  3  2  7  2        3 -.162395234746D-05 0.100000000000D+01
0.390343469836D-06 0.000000000000D+00 0.000000000000D+00 0.887326105604D-08 0.000000000000D+00  7 -3 3 23 -13 13 23 21 2 0.79966593D-02 0.21810490D+00 0.40739153D+05 0.40739153D+05 0.40739153D+05 0.11552033D+01  1  2 15  2  7  2        3 0.204066607076D-05 0.100000000000D+01
  </mgrwgt>
  </event>
  <event>
  9     66 0.27784906E-05 0.21699925E+03 0.75467711E-02 0.10335222E+00
       -1 -1    0    0    0  501 0.00000000E+00 0.00000000E+00 0.12250981E+03 0.12251023E+03 0.32000000E+00 0.0000E+00 0.9000E+01
        1 -1    0    0  502    0 0.00000000E+00 0.00000000E+00 -.12149686E+04 0.12149686E+04 0.32000000E+00 0.0000E+00 0.9000E+01
       25  2    1    2    0    0 0.16682517E+03 0.81454683E+02 -.54932812E+03 0.65291535E+03 0.30011925E+03 0.0000E+00 0.0000E+00
       23  2    3    3    0    0 0.48913723E+02 -.33356368E+01 -.31780970E+02 0.10769722E+03 0.90470887E+02 0.0000E+00 0.0000E+00
       23  1    1    2    0    0 -.17192966E+03 -.25046862E+02 -.70424064E+02 0.20847531E+03 0.91188000E+02 0.0000E+00 0.9000E+01
      -13  1    4    4    0    0 0.58366037E+02 0.41408100E+01 0.14159882E+02 0.60201778E+02 0.10565837E+00 0.0000E+00 0.9000E+01
       13  1    4    4    0    0 -.94523144E+01 -.74764467E+01 -.45940852E+02 0.47495437E+02 0.10565837E+00 0.0000E+00 0.9000E+01
       23  1    3    3    0    0 0.11791145E+03 0.84790319E+02 -.51754715E+03 0.54521813E+03 0.91188000E+02 0.0000E+00 0.9000E+01
       21  1    1    2  502  501 0.51044921E+01 -.56407820E+02 -.47270661E+03 0.47608822E+03 0.75000000E+00 0.0000E+00 0.9000E+01
#aMCatNLO 2  0  0  2  1 0.56638309D+02 0.00000000D+00  -5  7  0 0.00000000D+00 0.00000000D+00 0.00000000D+00 0.00000000D+00 0.00000000D+00
  <mgrwgt>
 0.3378257140D-04    2    2    0
 0.297780619945037D+03 0.000000000000000D+00 0.000000000000000D+00 0.297780619945037D+03
 0.297780619945037D+03 0.000000000000000D+00 0.000000000000000D+00 -.297780619945037D+03
 0.229142579812712D+03 -.169978351085479D+03 -.466100541661983D+02 0.114568466656888D+03
 0.101916113042042D+03 0.592352584111508D+02 -.546358856036569D+01 0.827540177792327D+02
 0.215151637978059D+02 -.927150014667994D+01 -.947559282911959D+01 -.169456395221092D+02
 0.242987383237515D+03 0.120014592821008D+03 0.615492355556836D+02 -.180376844914012D+03
 0.000000000000000D+00 0.000000000000000D+00 -.000000000000000D+00 -.000000000000000D+00
 0.303309568436069D+03 0.000000000000000D+00 0.000000000000000D+00 0.303309568436069D+03
 0.490736871606473D+03 0.000000000000000D+00 0.000000000000000D+00 -.490736871606473D+03
 0.227218702047845D+03 -.171929661051507D+03 -.250468623765649D+02 0.114568466656888D+03
 0.101350772030458D+03 0.583661296871093D+02 0.414082575241330D+01 0.827540177792327D+02
 0.207942343765377D+02 -.945240670820429D+01 -.747646252687782D+01 -.169456395221092D+02
 0.248884641716596D+03 0.117911445988766D+03 0.847903193890874D+02 -.180376844914012D+03
 0.195798089871106D+03 0.510449208383635D+01 -.564078202380581D+02 -.187427303170404D+03
-.267357382035D-04 0.000000000000D+00 0.000000000000D+00 0.469520919192D-06 0.000000000000D+00  7 -1 1 23 -13 13 23 21 2 0.18504086D-01 0.18738273D+00 0.61234008D+05 0.61234008D+05 0.61234008D+05 0.11396325D+01  1  2 13  2  7  2        1 -.987085023106D-03 0.100000000000D+01
0.283329371864D-04 0.000000000000D+00 0.000000000000D+00 0.469520919192D-06 0.113692078052D-08  7 -1 1 23 -13 13 23 21 2 0.18847655D-01 0.18691785D+00 0.61234008D+05 0.61234008D+05 0.61234008D+05 0.11396325D+01  1  2  1  2  7  2        1 0.102086759450D-02 0.100000000000D+01
  </mgrwgt>
  </event>
  <event>
  8     66 0.27784906E-05 0.10239888E+03 0.75467711E-02 0.10107453E+00
       -1 -1    0    0    0  501 0.00000000E+00 0.00000000E+00 0.11408016E+04 0.11408017E+04 0.32000000E+00 0.0000E+00 0.9000E+01
        1 -1    0    0  501    0 0.00000000E+00 0.00000000E+00 -.87914145E+02 0.87914727E+02 0.32000000E+00 0.0000E+00 0.9000E+01
       25  2    1    2    0    0 -.19955397E+03 0.65559789E+02 0.83838865E+03 0.91495713E+03 0.30021852E+03 0.0000E+00 0.0000E+00
       23  2    3    3    0    0 -.12748628E+03 -.42580286E+02 0.21752239E+03 0.27411535E+03 0.98779575E+02 0.0000E+00 0.0000E+00
       23  1    1    2    0    0 0.19955397E+03 -.65559789E+02 0.21449883E+03 0.31375926E+03 0.91188000E+02 0.0000E+00 0.9000E+01
      -13  1    4    4    0    0 -.13276066E+03 -.57417897E+02 0.21346134E+03 0.25785260E+03 0.10565837E+00 0.0000E+00 0.9000E+01
       13  1    4    4    0    0 0.52743833E+01 0.14837611E+02 0.40610482E+01 0.16262752E+02 0.10565837E+00 0.0000E+00 0.9000E+01
       23  1    3    3    0    0 -.72067691E+02 0.10814008E+03 0.62086626E+03 0.64084178E+03 0.91188000E+02 0.0000E+00 0.9000E+01
#aMCatNLO 1  0  0  1  2 0.38071805D+02 0.00000000D+00  -5  7  0 0.00000000D+00 0.00000000D+00 0.00000000D+00 0.00000000D+00 0.00000000D+00
  <mgrwgt>
 0.5893457851D-03    9    2    0
 0.316690675398354D+03 0.000000000000000D+00 0.000000000000000D+00 0.316690675398354D+03
 0.316690675398354D+03 0.000000000000000D+00 0.000000000000000D+00 -.316690675398354D+03
 0.252104064587530D+03 0.199553970133659D+03 -.655597890023088D+02 -.105457740860597D+03
 0.145373751957420D+03 -.132760802106165D+03 -.574179815144653D+02 -.145352186467797D+02
 0.247976789913237D+02 0.527453014062653D+01 0.148376778723766D+02 -.191558745691222D+02
 0.211105855260434D+03 -.720676981681200D+02 0.108140092644397D+03 0.139148834076499D+03
 0.000000000000000D+00 0.000000000000000D+00 -.000000000000000D+00 0.000000000000000D+00
 0.340941252682411D+03 0.000000000000000D+00 0.000000000000000D+00 0.340941252682411D+03
 0.332565531758597D+03 0.000000000000000D+00 0.000000000000000D+00 -.332565531758597D+03
 0.240409364098333D+03 0.184778137759619D+03 -.649393232243085D+02 -.105457740860597D+03
 0.153464406170437D+03 -.141726207462210D+03 -.570415068043773D+02 -.145352186467797D+02
 0.245630884504971D+02 0.379366407059802D+01 0.148998623026676D+02 -.191558745691222D+02
 0.216087685998959D+03 -.848838769548861D+02 0.108678268778278D+03 0.139148834076499D+03
 0.389822397227814D+02 0.380382825868786D+02 -.159730105225940D+01 0.837572092381371D+01
0.193627191035D-04 0.000000000000D+00 0.000000000000D+00 0.150940111450D-07 0.000000000000D+00  7 -1 1 23 -13 13 23 21 0 0.17550799D+00 0.13525301D-01 0.75113039D+05 0.75113039D+05 0.75113039D+05 0.11320660D+01  1  2  2  1  7  1       -1 0.245334659160D-03 0.100000000000D+01
-.104837808782D-05 0.000000000000D+00 -.743579396786D-07 0.150940111450D-07 0.000000000000D+00  7 -1 1 23 -13 13 23 21 2 0.17550799D+00 0.13525301D-01 0.75113039D+05 0.75113039D+05 0.75113039D+05 0.11320660D+01  1  2  3  1  7  1       -1 -.170237013543D-04 0.100000000000D+01
0.122703359000D-05 0.000000000000D+00 0.000000000000D+00 0.150940111450D-07 0.000000000000D+00  7 -1 1 23 -13 13 23 21 2 0.17550799D+00 0.13525301D-01 0.75113039D+05 0.75113039D+05 0.75113039D+05 0.11320660D+01  1  2 15  1  7  1       -1 0.199247329093D-04 0.100000000000D+01
0.316578703083D-04 0.000000000000D+00 0.000000000000D+00 0.150940111450D-07 0.000000000000D+00  7 -1 1 23 -13 13 23 21 2 0.19306684D+00 0.13525301D-01 0.86315110D+05 0.86315110D+05 0.86315110D+05 0.11270049D+01  1  2 12  1  7  1       -1 0.367322321122D-03 0.100000000000D+01
-.281348102727D-04 0.000000000000D+00 0.000000000000D+00 0.150940111450D-07 0.000000000000D+00  7 -1 1 23 -13 13 23 21 2 0.17550799D+00 0.13525301D-01 0.75113039D+05 0.75113039D+05 0.75113039D+05 0.11320660D+01  1  2  4  1  7  1       -1 -.456856751687D-03 0.100000000000D+01
-.996578937000D-04 0.000000000000D+00 -.208765354210D-04 0.150940111450D-07 0.000000000000D+00  7 -1 1 23 -13 13 23 21 2 0.19493764D+00 0.13525301D-01 0.75113039D+05 0.75113039D+05 0.75113039D+05 0.11320660D+01  1  2  5  1  7  1       -1 -.113234762912D-02 0.100000000000D+01
0.101404917380D-03 0.000000000000D+00 0.207619903023D-04 0.150940111450D-07 0.000000000000D+00  7 -1 1 23 -13 13 23 21 2 0.17550799D+00 0.13525301D-01 0.75113039D+05 0.75113039D+05 0.75113039D+05 0.11320660D+01  1  2  6  1  7  1       -1 0.164662639308D-02 0.100000000000D+01
0.493417428997D-06 0.000000000000D+00 0.000000000000D+00 0.150940111450D-07 0.000000000000D+00  7 21 1 23 -13 13 23 1 2 0.19306684D+00 0.13525301D-01 0.86315110D+05 0.86315110D+05 0.86315110D+05 0.11270049D+01  1  2 12  3  7  1       -1 0.376454581973D-04 0.100000000000D+01
-.161264011911D-05 0.000000000000D+00 -.353615285287D-06 0.150940111450D-07 0.000000000000D+00  7 21 1 23 -13 13 23 1 2 0.19493764D+00 0.13525301D-01 0.75113039D+05 0.75113039D+05 0.75113039D+05 0.11320660D+01  1  2  5  3  7  1       -1 -.121279697247D-03 0.100000000000D+01
  </mgrwgt>
  </event>
  <event>
  8     66 0.27784906E-05 0.19358437E+03 0.75467711E-02 0.97123131E-01
       -1 -1    0    0    0  501 0.00000000E+00 0.00000000E+00 0.23267928E+03 0.23267950E+03 0.32000000E+00 0.0000E+00 0.9000E+01
        1 -1    0    0  501    0 0.00000000E+00 0.00000000E+00 -.93307893E+03 0.93307899E+03 0.32000000E+00 0.0000E+00 0.9000E+01
       25  2    1    2    0    0 0.93558217E+02 0.21907843E+03 -.80386608E+03 0.89049670E+03 0.30005867E+03 0.0000E+00 0.0000E+00
       23  2    3    3    0    0 0.68941259E+01 0.52455724E+02 -.73995786E+02 0.13135265E+03 0.94757643E+02 0.0000E+00 0.0000E+00
       23  1    1    2    0    0 -.93558217E+02 -.21907843E+03 0.10346642E+03 0.27526178E+03 0.91188000E+02 0.0000E+00 0.9000E+01
      -13  1    4    4    0    0 -.30545367E+02 0.20740953E+02 0.61001296E+01 0.37422310E+02 0.10565837E+00 0.0000E+00 0.9000E+01
       13  1    4    4    0    0 0.37439493E+02 0.31714771E+02 -.80095916E+02 0.93930342E+02 0.10565837E+00 0.0000E+00 0.9000E+01
       23  1    3    3    0    0 0.86664091E+02 0.16662270E+03 -.72987029E+03 0.75914405E+03 0.91188000E+02 0.0000E+00 0.9000E+01
#aMCatNLO 1  0  0  2  1 0.22810201D+03 0.00000000D+00  -5  7  0 0.00000000D+00 0.00000000D+00 0.00000000D+00 0.00000000D+00 0.00000000D+00
  <mgrwgt>
 0.4353541827D-03    9    2    0
 0.465948807765177D+03 0.000000000000000D+00 0.000000000000000D+00 0.465948807765177D+03
 0.465948807765177D+03 0.000000000000000D+00 0.000000000000000D+00 -.465948807765177D+03
 0.422102815189562D+03 -.935582170250574D+02 -.219078427723741D+03 0.336313897691040D+03
 0.513982400112122D+02 -.305454505813531D+02 0.207409393712389D+02 0.357570686582511D+02
 0.573034478277684D+02 0.374395758822046D+02 0.317147839443463D+02 -.295995907078773D+02
 0.401093112501812D+03 0.866640917242060D+02 0.166622704408155D+03 -.342471375641414D+03
 0.000000000000000D+00 -.000000000000000D+00 0.000000000000000D+00 -.000000000000000D+00
 0.575890334549762D+03 0.000000000000000D+00 0.000000000000000D+00 0.575890334549762D+03
 0.614937659797412D+03 0.000000000000000D+00 0.000000000000000D+00 -.614937659797412D+03
 0.481383239418354D+03 -.681910532590026D+02 -.325050018188274D+03 0.336313897691040D+03
 0.462376870519489D+02 -.278041281905647D+02 0.928903657252620D+01 0.357570686582511D+02
 0.535789166589515D+02 0.405528182885001D+02 0.187091814126890D+02 -.295995907078773D+02
 0.378208146601341D+03 0.108544520937185D+03 0.752169838029679D+02 -.342471375641414D+03
 0.231420004616579D+03 -.531021577761179D+02 0.221834816400091D+03 -.390473252476494D+02
0.293586914120D-04 0.000000000000D+00 0.000000000000D+00 0.284588681589D-06 0.000000000000D+00  7 -1 1 23 -13 13 23 21 0 0.35796833D-01 0.14355063D+00 0.75582196D+05 0.75582196D+05 0.75582196D+05 0.11318378D+01  1  2  2  2  7  2        1 0.454820202847D-03 0.100000000000D+01
-.107904346317D-05 0.000000000000D+00 -.112745105343D-06 0.284588681589D-06 0.000000000000D+00  7 -1 1 23 -13 13 23 21 2 0.35796833D-01 0.14355063D+00 0.75582196D+05 0.75582196D+05 0.75582196D+05 0.11318378D+01  1  2  3  2  7  2        1 -.214146205217D-04 0.100000000000D+01
0.178426781425D-05 0.000000000000D+00 0.000000000000D+00 0.284588681589D-06 0.000000000000D+00  7 -1 1 23 -13 13 23 21 2 0.35796833D-01 0.14355063D+00 0.75582196D+05 0.75582196D+05 0.75582196D+05 0.11318378D+01  1  2 15  2  7  2        1 0.354104532906D-04 0.100000000000D+01
0.740479651493D-06 0.000000000000D+00 0.000000000000D+00 0.284588681589D-06 0.000000000000D+00  7 -1 1 23 -13 13 23 21 2 0.35796833D-01 0.20184636D+00 0.16280289D+06 0.16280289D+06 0.16280289D+06 0.11047557D+01  1  2 12  2  7  2        1 0.727502096548D-05 0.100000000000D+01
-.127736133100D-04 0.000000000000D+00 0.000000000000D+00 0.284588681589D-06 0.000000000000D+00  7 -1 1 23 -13 13 23 21 2 0.35796833D-01 0.14355063D+00 0.75582196D+05 0.75582196D+05 0.75582196D+05 0.11318378D+01  1  2  4  2  7  2        1 -.253504229496D-03 0.100000000000D+01
-.120978701180D-04 0.000000000000D+00 -.113313081291D-04 0.284588681589D-06 0.000000000000D+00  7 -1 1 23 -13 13 23 21 2 0.35796833D-01 0.21766486D+00 0.75582196D+05 0.75582196D+05 0.75582196D+05 0.11318378D+01  1  2  5  2  7  2        1 -.109474720010D-03 0.100000000000D+01
0.162977274212D-04 0.000000000000D+00 0.104157801109D-04 0.284588681589D-06 0.000000000000D+00  7 -1 1 23 -13 13 23 21 2 0.35796833D-01 0.14355063D+00 0.75582196D+05 0.75582196D+05 0.75582196D+05 0.11318378D+01  1  2  6  2  7  2        1 0.323443549775D-03 0.100000000000D+01
0.313804736925D-07 0.000000000000D+00 0.000000000000D+00 0.284588681589D-06 0.000000000000D+00  7 -1 21 23 -13 13 23 -1 2 0.35796833D-01 0.20184636D+00 0.16280289D+06 0.16280289D+06 0.16280289D+06 0.11047557D+01  1  2 12  4  7  2        1 0.294762778842D-06 0.100000000000D+01
-.185064558891D-06 0.000000000000D+00 -.555454526700D-06 0.284588681589D-06 0.000000000000D+00  7 -1 21 23 -13 13 23 -1 2 0.35796833D-01 0.21766486D+00 0.75582196D+05 0.75582196D+05 0.75582196D+05 0.11318378D+01  1  2  5  4  7  2        1 -.149623692616D-05 0.100000000000D+01
  </mgrwgt>
  </event>
  <event>
  8     66 0.27784906E-05 0.12693102E+03 0.75467711E-02 0.10714725E+00
       -1 -1    0    0    0  501 0.00000000E+00 0.00000000E+00 0.63264972E+02 0.63265782E+02 0.32000000E+00 0.0000E+00 0.9000E+01
        1 -1    0    0  501    0 0.00000000E+00 0.00000000E+00 -.85787508E+03 0.85787514E+03 0.32000000E+00 0.0000E+00 0.9000E+01
       25  2    1    2    0    0 -.10262022E+03 -.30857940E+01 -.45654243E+03 0.55624993E+03 0.30073670E+03 0.0000E+00 0.0000E+00
       23  2    3    3    0    0 -.10957534E+03 -.17715700E+02 -.72284611E+02 0.16098833E+03 0.91496323E+02 0.0000E+00 0.0000E+00
       23  1    1    2    0    0 0.10262022E+03 0.30857940E+01 -.33806768E+03 0.36489100E+03 0.91188000E+02 0.0000E+00 0.9000E+01
      -11  1    4    4    0    0 -.35945305E+02 0.37365373E+02 -.24097063E+02 0.57174334E+02 0.51099893E-03 0.0000E+00 0.9000E+01
       11  1    4    4    0    0 -.73630031E+02 -.55081073E+02 -.48187548E+02 0.10381400E+03 0.51099893E-03 0.0000E+00 0.9000E+01
       23  1    3    3    0    0 0.69551171E+01 0.14629906E+02 -.38425782E+03 0.39526160E+03 0.91188000E+02 0.0000E+00 0.9000E+01
#aMCatNLO 1  0  0  1  2 0.45294605D+01 0.00000000D+00  -5  7  0 0.00000000D+00 0.00000000D+00 0.00000000D+00 0.00000000D+00 0.00000000D+00
  <mgrwgt>
 0.6556206314D-04   11    2    0
 0.232967473588845D+03 0.000000000000000D+00 0.000000000000000D+00 0.232967473588845D+03
 0.232967473588845D+03 0.000000000000000D+00 0.000000000000000D+00 -.232967473588845D+03
 0.144835740247157D+03 0.102620218893581D+03 0.308579396615638D+01 -.460620110153034D+02
 0.719367565956997D+02 -.359453047546027D+02 0.373653725961289D+02 0.498664310569761D+02
 0.123057967663311D+03 -.736300311832942D+02 -.550810725135251D+02 0.817799325270653D+02
 0.126104482671522D+03 0.695511704431590D+01 0.146299059512398D+02 -.855843525687380D+02
 0.000000000000000D+00 -.000000000000000D+00 -.000000000000000D+00 0.000000000000000D+00
 0.241661302939458D+03 0.000000000000000D+00 0.000000000000000D+00 0.241661302939458D+03
 0.233569188259816D+03 0.000000000000000D+00 0.000000000000000D+00 -.233569188259816D+03
 0.145812495196874D+03 0.103982460913612D+03 0.345996750181760D+01 -.460620110153034D+02
 0.716994116917034D+02 -.352720950110845D+02 0.375502863385255D+02 0.498664310569761D+02
 0.122231747801087D+03 -.724803804483551D+02 -.547652924436532D+02 0.817799325270653D+02
 0.126213307930065D+03 0.813770773245023D+01 0.149547337957144D+02 -.855843525687380D+02
 0.927352857954454D+01 -.436769318662232D+01 -.119969519240427D+01 0.809211467964242D+01
0.893637016831D-06 0.000000000000D+00 0.000000000000D+00 0.688064119004D-07 0.000000000000D+00  7 -1 1 23 -11 11 23 21 0 0.97331395D-02 0.13198085D+00 0.34919012D+05 0.34919012D+05 0.34919012D+05 0.11612668D+01  1  2  2  1  7  1       -1 0.127013591290D-03 0.100000000000D+01
-.467114952149D-07 0.000000000000D+00 -.343180144466D-08 0.688064119004D-07 0.000000000000D+00  7 -1 1 23 -11 11 23 21 2 0.97331395D-02 0.13198085D+00 0.34919012D+05 0.34919012D+05 0.34919012D+05 0.11612668D+01  1  2  3  1  7  1       -1 -.895317054030D-05 0.100000000000D+01
0.576419277806D-07 0.000000000000D+00 0.000000000000D+00 0.688064119004D-07 0.000000000000D+00  7 -1 1 23 -11 11 23 21 2 0.97331395D-02 0.13198085D+00 0.34919012D+05 0.34919012D+05 0.34919012D+05 0.11612668D+01  1  2 15  1  7  1       -1 0.110482014613D-04 0.100000000000D+01
0.150952049597D-05 0.000000000000D+00 0.000000000000D+00 0.688064119004D-07 0.000000000000D+00  7 -1 1 23 -11 11 23 21 2 0.10108666D-01 0.13198085D+00 0.35721290D+05 0.35721290D+05 0.35721290D+05 0.11603672D+01  1  2 12  1  7  1       -1 0.272791076118D-03 0.100000000000D+01
-.201018202724D-04 0.000000000000D+00 0.000000000000D+00 0.688064119004D-07 0.000000000000D+00  7 -1 1 23 -11 11 23 21 2 0.97331395D-02 0.13198085D+00 0.34919012D+05 0.34919012D+05 0.34919012D+05 0.11612668D+01  1  2  4  1  7  1       -1 -.385290653278D-02 0.100000000000D+01
-.390217599668D-04 0.000000000000D+00 -.301027014725D-05 0.688064119004D-07 0.000000000000D+00  7 -1 1 23 -11 11 23 21 2 0.10119027D-01 0.13198085D+00 0.34919012D+05 0.34919012D+05 0.34919012D+05 0.11612668D+01  1  2  5  1  7  1       -1 -.705139823376D-02 0.100000000000D+01
0.391115093926D-04 0.000000000000D+00 0.300799622059D-05 0.688064119004D-07 0.000000000000D+00  7 -1 1 23 -11 11 23 21 2 0.97331395D-02 0.13198085D+00 0.34919012D+05 0.34919012D+05 0.34919012D+05 0.11612668D+01  1  2  6  1  7  1       -1 0.749648479607D-02 0.100000000000D+01
0.185819831301D-04 0.000000000000D+00 0.000000000000D+00 0.688064119004D-07 0.241033839079D-07  7 -1 1 23 -11 11 23 21 2 0.10096359D-01 0.13232173D+00 0.35721290D+05 0.35721290D+05 0.35721290D+05 0.11603672D+01  1  2 11  1  7  1       -1 0.335046123331D-02 0.100000000000D+01
0.360747907516D-07 0.000000000000D+00 0.000000000000D+00 0.688064119004D-07 0.000000000000D+00  7 21 1 23 -11 11 23 1 2 0.10108666D-01 0.13198085D+00 0.35721290D+05 0.35721290D+05 0.35721290D+05 0.11603672D+01  1  2 12  3  7  1       -1 0.930090275378D-04 0.100000000000D+01
-.266970255746D-06 0.000000000000D+00 -.207203249413D-07 0.688064119004D-07 0.000000000000D+00  7 21 1 23 -11 11 23 1 2 0.10119027D-01 0.13198085D+00 0.34919012D+05 0.34919012D+05 0.34919012D+05 0.11612668D+01  1  2  5  3  7  1       -1 -.688458465597D-03 0.100000000000D+01
0.122997577271D-06 0.000000000000D+00 0.000000000000D+00 0.688064119004D-07 0.156619915115D-09  7 21 1 23 -11 11 23 1 2 0.10096359D-01 0.13232173D+00 0.35721290D+05 0.35721290D+05 0.35721290D+05 0.11603672D+01  1  2 11  3  7  1       -1 0.316470540029D-03 0.100000000000D+01
  </mgrwgt>
  </event>
  <event>
  8     66 0.27784906E-05 0.33558204E+03 0.75467711E-02 0.92582169E-01
       -1 -1    0    0    0  501 0.00000000E+00 0.00000000E+00 0.10835447E+03 0.10835494E+03 0.32000000E+00 0.0000E+00 0.9000E+01
        1 -1    0    0  501    0 0.00000000E+00 0.00000000E+00 -.17467707E+04 0.17467707E+04 0.32000000E+00 0.0000E+00 0.9000E+01
       25  2    1    2    0    0 0.27952360E+03 -.62216482E+02 -.14308803E+04 0.14898987E+04 0.30062488E+03 0.0000E+00 0.0000E+00
       23  2    3    3    0    0 0.19964771E+02 -.64874283E+02 -.70485366E+03 0.71349171E+03 0.87432709E+02 0.0000E+00 0.0000E+00
       23  1    1    2    0    0 -.27952360E+03 0.62216482E+02 -.20753591E+03 0.36522697E+03 0.91188000E+02 0.0000E+00 0.9000E+01
      -11  1    4    4    0    0 -.16311781E+02 0.47591410E+01 -.33505960E+02 0.37568244E+02 0.51099893E-03 0.0000E+00 0.9000E+01
       11  1    4    4    0    0 0.36276552E+02 -.69633424E+02 -.67134770E+03 0.67592347E+03 0.51099893E-03 0.0000E+00 0.9000E+01
       23  1    3    3    0    0 0.25955883E+03 0.26578003E+01 -.72602667E+03 0.77640700E+03 0.91188000E+02 0.0000E+00 0.9000E+01
#aMCatNLO 1  0  0  2  2 0.42849738D+03 0.00000000D+00  -5  7  0 0.00000000D+00 0.00000000D+00 0.00000000D+00 0.00000000D+00 0.00000000D+00
  <mgrwgt>
 0.5754016458D-03    6    2    0
 0.435052731626149D+03 0.000000000000000D+00 0.000000000000000D+00 0.435052731626149D+03
 0.435052731626149D+03 0.000000000000000D+00 0.000000000000000D+00 -.435052731626149D+03
 0.387897489757499D+03 -.279523601076997D+03 0.622164823762796D+02 0.245244524868221D+03
 0.170061061366670D+02 -.163117811377187D+02 0.475914098858705D+01 -.695714810464544D+00
 0.176962469637842D+03 0.362765522335828D+02 -.696334236157995D+02 -.158590396096078D+03
 0.288239397720290D+03 0.259558829981133D+03 0.265780025093284D+01 -.859584139616784D+02
 0.000000000000000D+00 -.000000000000000D+00 0.000000000000000D+00 -.000000000000000D+00
 0.652404658748559D+03 0.000000000000000D+00 0.000000000000000D+00 0.652404658748559D+03
 0.759060493702731D+03 0.000000000000000D+00 0.000000000000000D+00 -.759060493702731D+03
 0.303666332923864D+03 -.150335040663112D+03 -.339483280649872D+02 0.245244524868221D+03
 0.111132470300373D+02 -.110589055010330D+02 0.849028605144659D+00 -.695714810464544D+00
 0.232064097743396D+03 0.112685340082165D+03 -.126510259892676D+03 -.158590396096078D+03
 0.423049883571675D+03 0.392432232658060D+03 -.962499168114478D+02 -.859584139616784D+02
 0.441571591182318D+03 -.343723626576081D+03 0.255859476163966D+03 -.106655834954172D+03
0.287788007983D-04 0.000000000000D+00 0.000000000000D+00 0.644452372745D-07 0.000000000000D+00  7 -1 1 23 -11 11 23 21 0 0.16669957D-01 0.26873399D+00 0.11261531D+06 0.11261531D+06 0.11261531D+06 0.11175123D+01  1  2  2  2  7  2        1 0.422446751242D-03 0.100000000000D+01
-.146781551567D-05 0.000000000000D+00 -.110518172698D-06 0.644452372745D-07 0.000000000000D+00  7 -1 1 23 -11 11 23 21 2 0.16669957D-01 0.26873399D+00 0.11261531D+06 0.11261531D+06 0.11261531D+06 0.11175123D+01  1  2  3  2  7  2        1 -.269076264088D-04 0.100000000000D+01
0.182669979276D-05 0.000000000000D+00 0.000000000000D+00 0.644452372745D-07 0.000000000000D+00  7 -1 1 23 -11 11 23 21 2 0.16669957D-01 0.26873399D+00 0.11261531D+06 0.11261531D+06 0.11261531D+06 0.11175123D+01  1  2 15  2  7  2        1 0.334866030916D-04 0.100000000000D+01
-.361787495870D-05 0.000000000000D+00 -.742352104005D-05 0.644452372745D-07 0.000000000000D+00  7 -1 1 23 -11 11 23 21 2 0.16669957D-01 0.53698961D+00 0.11261531D+06 0.11261531D+06 0.11261531D+06 0.11175123D+01  1  2  5  2  7  2        1 -.388054958346D-05 0.100000000000D+01
0.819508655461D-05 0.000000000000D+00 0.594198912700D-05 0.644452372745D-07 0.000000000000D+00  7 -1 1 23 -11 11 23 21 2 0.16669957D-01 0.26873399D+00 0.11261531D+06 0.11261531D+06 0.11261531D+06 0.11175123D+01  1  2  6  2  7  2        1 0.150230274204D-03 0.100000000000D+01
0.174090471300D-06 0.000000000000D+00 -.556070285320D-06 0.644452372745D-07 0.000000000000D+00  7 -1 21 23 -11 11 23 -1 2 0.16669957D-01 0.53698961D+00 0.11261531D+06 0.11261531D+06 0.11261531D+06 0.11175123D+01  1  2  5  4  7  2        1 0.261932522198D-07 0.100000000000D+01
  </mgrwgt>
  </event>
  <event>
  9     66 -.27784906E-05 0.20168947E+03 0.75467711E-02 0.10593831E+00
       -1 -1    0    0    0  502 0.00000000E+00 0.00000000E+00 0.42409599E+02 0.42410806E+02 0.32000000E+00 0.0000E+00 0.9000E+01
        1 -1    0    0  501    0 0.00000000E+00 0.00000000E+00 -.15371599E+04 0.15371599E+04 0.32000000E+00 0.0000E+00 0.9000E+01
       25  2    1    2    0    0 -.45279619E+02 -.13688522E+03 -.86572941E+03 0.92737669E+03 0.29958689E+03 0.0000E+00 0.0000E+00
       23  2    3    3    0    0 0.11061382E+02 -.96150082E+02 -.75926289E+03 0.77090295E+03 0.91891383E+02 0.0000E+00 0.0000E+00
       23  1    1    2    0    0 0.42568262E+02 0.13011570E+03 -.61059154E+03 0.63236021E+03 0.91188000E+02 0.0000E+00 0.9000E+01
      -11  1    4    4    0    0 -.41150995E+01 0.13368284E+02 -.21879795E+03 0.21924459E+03 0.51099893E-03 0.0000E+00 0.9000E+01
       11  1    4    4    0    0 0.15176482E+02 -.10951837E+03 -.54046494E+03 0.55165836E+03 0.51099893E-03 0.0000E+00 0.9000E+01
       23  1    3    3    0    0 -.56341002E+02 -.40735137E+02 -.10646652E+03 0.15647374E+03 0.91188000E+02 0.0000E+00 0.9000E+01
       21  1    1    2  501  502 0.27113578E+01 0.67695209E+01 -.18429339E+02 0.19833833E+02 0.75000000E+00 0.0000E+00 0.9000E+01
#aMCatNLO 2  0  0  1  2 0.72923161D+01 0.00000000D+00  -5  7  0 0.00000000D+00 0.00000000D+00 0.00000000D+00 0.00000000D+00 0.00000000D+00
  <mgrwgt>
 -.8240798982D-04    3    2    0
 0.251596133120477D+03 0.000000000000000D+00 0.000000000000000D+00 0.251596133120477D+03
 0.251596133120477D+03 0.000000000000000D+00 0.000000000000000D+00 -.251596133120477D+03
 0.170675720767922D+03 0.434824861544241D+02 0.132398267471013D+03 -.373486610757874D+02
 0.378130021194660D+02 -.391179730180409D+01 0.138758737838182D+02 -.349568462234780D+02
 0.122899246506066D+03 0.158423807299187D+02 -.107855797775820D+03 -.567483096726995D+02
 0.171804296847500D+03 -.554130695825387D+02 -.384183434790112D+02 0.129053816971965D+03
 0.000000000000000D+00 0.000000000000000D+00 0.000000000000000D+00 0.000000000000000D+00
 0.255840101084853D+03 0.000000000000000D+00 0.000000000000000D+00 0.255840101084853D+03
 0.254774730745631D+03 0.000000000000000D+00 0.000000000000000D+00 -.254774730745631D+03
 0.168678171583792D+03 0.425682615435089D+02 0.130115697937875D+03 -.373486610757874D+02
 0.376513764587022D+02 -.411509949959377D+01 0.133682836389521D+02 -.349568462234780D+02
 0.124277788036956D+03 0.151764819931567D+02 -.109518365322723D+03 -.567483096726995D+02
 0.172637767900057D+03 -.563410018082293D+02 -.407351371880073D+02 0.129053816971965D+03
 0.736972785097660D+01 0.271135777115738D+01 0.676952093390295D+01 0.106537033922217D+01
-.150476407747D-05 0.000000000000D+00 0.000000000000D+00 0.171249767794D-06 0.000000000000D+00  7 -1 1 23 -11 11 23 21 2 0.65640945D-02 0.23351839D+00 0.42231192D+05 0.42231192D+05 0.42231192D+05 0.11538025D+01  1  2 13  1  7  1       -1 -.176832790995D-03 0.100000000000D+01
-.768051642509D-05 0.000000000000D+00 0.000000000000D+00 0.171249767794D-06 0.000000000000D+00  7 -1 1 23 -11 11 23 21 2 0.64159375D-02 0.23351839D+00 0.40678643D+05 0.40678643D+05 0.40678643D+05 0.11552613D+01  1  2  8  1  7  1       -1 -.936465121900D-03 0.100000000000D+01
0.894666160269D-05 0.000000000000D+00 0.000000000000D+00 0.171249767794D-06 0.228706499363D-07  7 -1 1 23 -11 11 23 21 2 0.65241626D-02 0.23646860D+00 0.42231192D+05 0.42231192D+05 0.42231192D+05 0.11538025D+01  1  2  1  1  7  1       -1 0.103088992307D-02 0.100000000000D+01
  </mgrwgt>
  </event>
  <event>
  8     66 0.27784906E-05 0.39949862E+03 0.75467711E-02 0.91436411E-01
       -1 -1    0    0    0  501 0.00000000E+00 0.00000000E+00 0.10311042E+03 0.10311092E+03 0.32000000E+00 0.0000E+00 0.9000E+01
        1 -1    0    0  501    0 0.00000000E+00 0.00000000E+00 -.16482049E+04 0.16482049E+04 0.32000000E+00 0.0000E+00 0.9000E+01
       25  2    1    2    0    0 0.13205781E+03 -.32058983E+03 -.98444880E+03 0.10858416E+04 0.29949210E+03 0.0000E+00 0.0000E+00
       23  2    3    3    0    0 0.18632820E+03 -.14892751E+03 -.51798861E+03 0.57759604E+03 0.91691772E+02 0.0000E+00 0.0000E+00
       23  1    1    2    0    0 -.13205781E+03 0.32058983E+03 -.56064568E+03 0.66547421E+03 0.91188000E+02 0.0000E+00 0.9000E+01
      -11  1    4    4    0    0 0.18110036E+03 -.14288784E+03 -.52041270E+03 0.56924833E+03 0.51099893E-03 0.0000E+00 0.9000E+01
       11  1    4    4    0    0 0.52278455E+01 -.60396739E+01 0.24240969E+01 0.83477108E+01 0.51099893E-03 0.0000E+00 0.9000E+01
       23  1    3    3    0    0 -.54270396E+02 -.17166231E+03 -.46646019E+03 0.50824560E+03 0.91188000E+02 0.0000E+00 0.9000E+01
#aMCatNLO 1  0  0  1  2 0.42930957D+03 0.00000000D+00  -5  7  0 0.00000000D+00 0.00000000D+00 0.00000000D+00 0.00000000D+00 0.00000000D+00
  <mgrwgt>
 0.6209068975D-03    3    2    0
 0.412246969344549D+03 0.000000000000000D+00 0.000000000000000D+00 0.412246969344549D+03
 0.412246969344549D+03 0.000000000000000D+00 0.000000000000000D+00 -.412246969344549D+03
 0.362895323777809D+03 -.132057808333011D+03 0.320589825046027D+03 0.562197830931460D+02
 0.233897196546339D+03 0.181100358975474D+03 -.142887840169883D+03 -.386474276346745D+02
 0.222741928098743D+02 0.522784549143693D+01 -.603967387387086D+01 0.207925860908739D+02
 0.205427225555077D+03 -.542703961339000D+02 -.171662311002273D+03 -.383649415493454D+02
 0.000000000000000D+00 -.000000000000000D+00 -.000000000000000D+00 -.000000000000000D+00
 0.578339512143988D+03 0.000000000000000D+00 0.000000000000000D+00 0.578339512143988D+03
 0.870547809097572D+03 0.000000000000000D+00 0.000000000000000D+00 -.870547809097572D+03
 0.417403554304198D+03 0.410137986723849D+02 0.401332381087296D+03 0.562197830931460D+02
 0.317705745787991D+03 0.303446821773635D+03 -.858099271611730D+02 -.386474276346745D+02
 0.262501245154025D+02 0.159906209025311D+02 -.101854989041601D+01 0.207925860908739D+02
 0.168208733071111D+03 0.286026895655001D+02 -.132999789273980D+03 -.383649415493454D+02
 0.519319163562858D+03 -.389053930914051D+03 -.181504114761726D+03 -.292208296953583D+03
0.336674618383D-04 0.000000000000D+00 0.000000000000D+00 0.558746846276D-06 0.000000000000D+00  7 -1 1 23 -11 11 23 21 0 0.15863182D-01 0.25357003D+00 0.15959915D+06 0.15959915D+06 0.15959915D+06 0.11054323D+01  1  2  2  1  7  1       -1 0.614016427992D-03 0.100000000000D+01
-.186817056917D-05 0.000000000000D+00 -.129291918305D-06 0.558746846276D-06 0.000000000000D+00  7 -1 1 23 -11 11 23 21 2 0.15863182D-01 0.25357003D+00 0.15959915D+06 0.15959915D+06 0.15959915D+06 0.11054323D+01  1  2  3  1  7  1       -1 -.416342177053D-04 0.100000000000D+01
0.217735309009D-05 0.000000000000D+00 0.000000000000D+00 0.558746846276D-06 0.000000000000D+00  7 -1 1 23 -11 11 23 21 2 0.15863182D-01 0.25357003D+00 0.15959915D+06 0.15959915D+06 0.15959915D+06 0.11054323D+01  1  2 15  1  7  1       -1 0.485246872368D-04 0.100000000000D+01
  </mgrwgt>
  </event>
  <event>
  8     66 0.27784906E-05 0.18478064E+03 0.75467711E-02 0.95996521E-01
       -1 -1    0    0    0  501 0.00000000E+00 0.00000000E+00 0.29051404E+02 0.29053166E+02 0.32000000E+00 0.0000E+00 0.9000E+01
        1 -1    0    0  501    0 0.00000000E+00 0.00000000E+00 -.16757318E+04 0.16757318E+04 0.32000000E+00 0.0000E+00 0.9000E+01
       25  2    1    2    0    0 -.48988664E+02 0.17919904E+02 -.14521240E+04 0.14836777E+04 0.29985708E+03 0.0000E+00 0.0000E+00
       23  2    3    3    0    0 0.69622713E+02 0.76330638E+02 -.80315838E+03 0.81513290E+03 0.93298252E+02 0.0000E+00 0.0000E+00
       23  1    1    2    0    0 0.48988664E+02 -.17919904E+02 -.19455638E+03 0.22110733E+03 0.91188000E+02 0.0000E+00 0.9000E+01
      -11  1    4    4    0    0 0.54534003E+02 0.65978806E+02 -.30903577E+03 0.32067159E+03 0.51099893E-03 0.0000E+00 0.9000E+01
       11  1    4    4    0    0 0.15088710E+02 0.10351831E+02 -.49412261E+03 0.49446131E+03 0.51099893E-03 0.0000E+00 0.9000E+01
       23  1    3    3    0    0 -.11861138E+03 -.58410734E+02 -.64896562E+03 0.66854476E+03 0.91188000E+02 0.0000E+00 0.9000E+01
#aMCatNLO 1  0  0  2  2 0.36560927D+03 0.00000000D+00  -5  7  0 0.00000000D+00 0.00000000D+00 0.00000000D+00 0.00000000D+00 0.00000000D+00
  <mgrwgt>
 0.6171344465D-03    3    2    0
 0.220644258877451D+03 0.000000000000000D+00 0.000000000000000D+00 0.220644258877451D+03
 0.220644258877451D+03 0.000000000000000D+00 0.000000000000000D+00 -.220644258877451D+03
 0.128188855298505D+03 0.489886642021537D+02 -.179199038194038D+02 0.734582813951767D+02
 0.856423100567819D+02 0.545340029132340D+02 0.659788061544982D+02 0.272854110258299D+01
 0.663697329851468D+02 0.150887103549110D+02 0.103518315339911D+02 -.637974283199342D+02
 0.161087619414468D+03 -.118611377470299D+03 -.584107338690855D+02 -.123893941778255D+02
 0.000000000000000D+00 0.000000000000000D+00 0.000000000000000D+00 0.000000000000000D+00
 0.558700589417176D+03 0.000000000000000D+00 0.000000000000000D+00 0.558700589417176D+03
 0.409316601159514D+03 0.000000000000000D+00 0.000000000000000D+00 -.409316601159514D+03
 0.176213388310298D+03 0.355006850812400D+02 -.126804925491976D+03 0.734582813951767D+02
 0.514135500493794D+02 0.484610957046837D+02 0.169537723009671D+02 0.272854110258299D+01
 0.761409032766432D+02 0.877410352541138D+01 -.406243818275595D+02 -.637974283199342D+02
 0.269299079078991D+03 -.137681692900231D+03 -.212360535412834D+03 -.123893941778255D+02
 0.394950269861379D+03 0.449458085888954D+02 0.362836070431402D+03 0.149383988257662D+03
0.494631694039D-05 0.000000000000D+00 0.000000000000D+00 0.491575674453D-07 0.000000000000D+00  7 -1 1 23 -11 11 23 21 0 0.44695846D-02 0.25780503D+00 0.34143885D+05 0.34143885D+05 0.34143885D+05 0.11621580D+01  1  2  2  2  7  2        1 0.608977678211D-03 0.100000000000D+01
-.264282749247D-06 0.000000000000D+00 -.189951594463D-07 0.491575674453D-07 0.000000000000D+00  7 -1 1 23 -11 11 23 21 2 0.44695846D-02 0.25780503D+00 0.34143885D+05 0.34143885D+05 0.34143885D+05 0.11621580D+01  1  2  3  2  7  2        1 -.439459234490D-04 0.100000000000D+01
0.313336062459D-06 0.000000000000D+00 0.000000000000D+00 0.491575674453D-07 0.000000000000D+00  7 -1 1 23 -11 11 23 21 2 0.44695846D-02 0.25780503D+00 0.34143885D+05 0.34143885D+05 0.34143885D+05 0.11621580D+01  1  2 15  2  7  2        1 0.521026917341D-04 0.100000000000D+01
  </mgrwgt>
  </event>
  <event>
  8     66 0.27784906E-05 0.22556822E+03 0.75467711E-02 0.10391758E+00
       -1 -1    0    0    0  501 0.00000000E+00 0.00000000E+00 0.33270403E+02 0.33271942E+02 0.32000000E+00 0.0000E+00 0.9000E+01
        1 -1    0    0  501    0 0.00000000E+00 0.00000000E+00 -.22213945E+04 0.22213945E+04 0.32000000E+00 0.0000E+00 0.9000E+01
       25  2    1    2    0    0 -.11305815E+03 0.13131036E+03 -.14843981E+04 0.15242076E+04 0.29957749E+03 0.0000E+00 0.0000E+00
       23  2    3    3    0    0 -.94050427E+02 0.84332482E+02 -.13216748E+04 0.13309142E+04 0.92471676E+02 0.0000E+00 0.0000E+00
       23  1    1    2    0    0 0.11305815E+03 -.13131036E+03 -.70372599E+03 0.73045881E+03 0.91188000E+02 0.0000E+00 0.9000E+01
      -13  1    4    4    0    0 -.31998487E+02 -.13843671E+02 -.47992512E+03 0.48118986E+03 0.10565837E+00 0.0000E+00 0.9000E+01
       13  1    4    4    0    0 -.62051940E+02 0.98176154E+02 -.84174964E+03 0.84972435E+03 0.10565837E+00 0.0000E+00 0.9000E+01
       23  1    3    3    0    0 -.19007723E+02 0.46977873E+02 -.16272331E+03 0.19329341E+03 0.91188000E+02 0.0000E+00 0.9000E+01
#aMCatNLO 1  0  0  1  1 0.24845560D+02 0.00000000D+00  -5  7  0 0.00000000D+00 0.00000000D+00 0.00000000D+00 0.00000000D+00 0.00000000D+00
  <mgrwgt>
 0.4062049407D-03    4    2    0
 0.271861084790051D+03 0.000000000000000D+00 0.000000000000000D+00 0.271861084790051D+03
 0.271861084790051D+03 0.000000000000000D+00 0.000000000000000D+00 -.271861084790051D+03
 0.196977785039203D+03 0.113058150367707D+03 -.131310356049749D+03 0.214579002810549D+02
 0.639791299359766D+02 -.319984475271807D+02 -.138438154280560D+02 -.536449177239443D+02
 0.136084890244161D+03 -.620519795004056D+02 0.981762978344331D+02 -.709229422427696D+02
 0.146680364360760D+03 -.190077233401209D+02 0.469778736433719D+02 0.103109959685659D+03
 0.000000000000000D+00 -.000000000000000D+00 0.000000000000000D+00 -.000000000000000D+00
 0.274411836725873D+03 0.000000000000000D+00 0.000000000000000D+00 0.274411836725873D+03
 0.340217462399144D+03 0.000000000000000D+00 0.000000000000000D+00 -.340217462399144D+03
 0.204739690225547D+03 0.116693657119880D+03 -.139732738873784D+03 0.214579002810549D+02
 0.640472229994367D+02 -.308398206333766D+02 -.165280077332985D+02 -.536449177239443D+02
 0.130984313663601D+03 -.596350274037504D+02 0.925769420326000D+02 -.709229422427696D+02
 0.144518309599538D+03 -.163724017258226D+02 0.408726209198537D+02 0.103109959685659D+03
 0.703397626368932D+02 -.984640735693075D+01 0.228111836546285D+02 -.658056256732710D+02
0.956614042965D-05 0.000000000000D+00 0.000000000000D+00 0.948456630997D-07 0.000000000000D+00  7 -1 1 23 -13 13 23 21 0 0.51186437D-02 0.34175311D+00 0.50881023D+05 0.50881023D+05 0.50881023D+05 0.11466287D+01  1  2  2  1  7  1       -1 0.425495466785D-03 0.100000000000D+01
-.508936407549D-06 0.000000000000D+00 -.367364980725D-07 0.948456630997D-07 0.000000000000D+00  7 -1 1 23 -13 13 23 21 2 0.51186437D-02 0.34175311D+00 0.50881023D+05 0.50881023D+05 0.50881023D+05 0.11466287D+01  1  2  3  1  7  1       -1 -.297623590195D-04 0.100000000000D+01
0.618594888587D-06 0.000000000000D+00 0.000000000000D+00 0.948456630997D-07 0.000000000000D+00  7 -1 1 23 -13 13 23 21 2 0.51186437D-02 0.34175311D+00 0.50881023D+05 0.50881023D+05 0.50881023D+05 0.11466287D+01  1  2 15  1  7  1       -1 0.361751348276D-04 0.100000000000D+01
-.439526522039D-06 0.000000000000D+00 0.000000000000D+00 0.948456630997D-07 0.000000000000D+00  7 -1 1 23 -13 13 23 21 2 0.51186437D-02 0.34175311D+00 0.50881023D+05 0.50881023D+05 0.50881023D+05 0.11466287D+01  1  2  4  1  7  1       -1 -.257033019322D-04 0.100000000000D+01
  </mgrwgt>
  </event>
  <event>
  8     66 0.27784906E-05 0.12836181E+03 0.75467711E-02 0.10210232E+00
       -1 -1    0    0    0  501 0.00000000E+00 0.00000000E+00 0.72094129E+02 0.72094839E+02 0.32000000E+00 0.0000E+00 0.9000E+01
        1 -1    0    0  501    0 0.00000000E+00 0.00000000E+00 -.12465445E+04 0.12465446E+04 0.32000000E+00 0.0000E+00 0.9000E+01
       25  2    1    2    0    0 0.12445344E+03 0.12889236E+03 -.46850717E+03 0.58462783E+03 0.30031457E+03 0.0000E+00 0.0000E+00
       23  2    3    3    0    0 0.25301740E+02 -.48837018E+02 -.26154353E+03 0.28037796E+03 0.84744006E+02 0.0000E+00 0.0000E+00
       23  1    1    2    0    0 -.12445344E+03 -.12889236E+03 -.70594325E+03 0.73401159E+03 0.91188000E+02 0.0000E+00 0.9000E+01
      -11  1    4    4    0    0 -.69341424E-01 -.68494903E+02 -.16551718E+03 0.17912983E+03 0.51099893E-03 0.0000E+00 0.9000E+01
       11  1    4    4    0    0 0.25371081E+02 0.19657884E+02 -.96026348E+02 0.10124813E+03 0.51099893E-03 0.0000E+00 0.9000E+01
       23  1    3    3    0    0 0.99151696E+02 0.17772938E+03 -.20696364E+03 0.30424988E+03 0.91188000E+02 0.0000E+00 0.9000E+01
#aMCatNLO 1  0  0  2  1 0.18756575D+02 0.00000000D+00  -5  7  0 0.00000000D+00 0.00000000D+00 0.00000000D+00 0.00000000D+00 0.00000000D+00
  <mgrwgt>
 0.5112324095D-03    9    2    0
 0.299781651772677D+03 0.000000000000000D+00 0.000000000000000D+00 0.299781651772677D+03
 0.299781651772677D+03 0.000000000000000D+00 0.000000000000000D+00 -.299781651772677D+03
 0.231503967543747D+03 -.124453435205282D+03 -.128892357293608D+03 -.114790846069701D+03
 0.697439713333010D+02 -.693414235330980D-01 -.684949028624944D+02 -.131402058950667D+02
 0.345778177424635D+02 0.253710809832938D+02 0.196578844209788D+02 -.128647312316118D+02
 0.263737546925842D+03 0.991516956455210D+02 0.177729375735124D+03 0.140795783196380D+03
 0.000000000000000D+00 0.000000000000000D+00 0.000000000000000D+00 -.000000000000000D+00
 0.302186097425985D+03 0.000000000000000D+00 0.000000000000000D+00 0.302186097425985D+03
 0.338883379739923D+03 0.000000000000000D+00 0.000000000000000D+00 -.338883379739923D+03
 0.236386382644883D+03 -.126012344674025D+03 -.136041248172346D+03 -.114790846069701D+03
 0.718721309128910D+02 -.541175652704767D+00 -.706586535387415D+02 -.131402058950667D+02
 0.338247784200711D+02 0.251431783244734D+02 0.186127619994731D+02 -.128647312316118D+02
 0.257773327606399D+03 0.974141341847361D+02 0.169761217527538D+03 0.140795783196380D+03
 0.412128575816639D+02 0.399620781752038D+01 0.183259221840767D+02 -.366972823139380D+02
0.501652257563D-05 0.000000000000D+00 0.000000000000D+00 0.159938460627D-07 0.000000000000D+00  7 -1 1 23 -11 11 23 21 0 0.11091462D-01 0.19177614D+00 0.68812295D+05 0.68812295D+05 0.68812295D+05 0.11352920D+01  1  2  2  2  7  2        1 0.302094093102D-03 0.100000000000D+01
-.272657879425D-06 0.000000000000D+00 -.192647675712D-07 0.159938460627D-07 0.000000000000D+00  7 -1 1 23 -11 11 23 21 2 0.11091462D-01 0.19177614D+00 0.68812295D+05 0.68812295D+05 0.68812295D+05 0.11352920D+01  1  2  3  2  7  2        1 -.211627760745D-04 0.100000000000D+01
0.308981271284D-06 0.000000000000D+00 0.000000000000D+00 0.159938460627D-07 0.000000000000D+00  7 -1 1 23 -11 11 23 21 2 0.11091462D-01 0.19177614D+00 0.68812295D+05 0.68812295D+05 0.68812295D+05 0.11352920D+01  1  2 15  2  7  2        1 0.239820740526D-04 0.100000000000D+01
0.410444662524D-04 0.000000000000D+00 0.000000000000D+00 0.159938460627D-07 0.000000000000D+00  7 -1 1 23 -11 11 23 21 2 0.11091462D-01 0.21749759D+00 0.73785247D+05 0.73785247D+05 0.73785247D+05 0.11327204D+01  1  2 12  2  7  2        1 0.244295192347D-02 0.100000000000D+01
-.415204083600D-04 0.000000000000D+00 0.000000000000D+00 0.159938460627D-07 0.000000000000D+00  7 -1 1 23 -11 11 23 21 2 0.11091462D-01 0.19177614D+00 0.68812295D+05 0.68812295D+05 0.68812295D+05 0.11352920D+01  1  2  4  2  7  2        1 -.322267270067D-02 0.100000000000D+01
-.554358011765D-04 0.000000000000D+00 -.487590265851D-05 0.159938460627D-07 0.000000000000D+00  7 -1 1 23 -11 11 23 21 2 0.11091462D-01 0.21748638D+00 0.68812295D+05 0.68812295D+05 0.68812295D+05 0.11352920D+01  1  2  5  2  7  2        1 -.331872149145D-02 0.100000000000D+01
0.556466050535D-04 0.000000000000D+00 0.483756879119D-05 0.159938460627D-07 0.000000000000D+00  7 -1 1 23 -11 11 23 21 2 0.11091462D-01 0.19177614D+00 0.68812295D+05 0.68812295D+05 0.68812295D+05 0.11352920D+01  1  2  6  2  7  2        1 0.431909998177D-02 0.100000000000D+01
0.810493038965D-06 0.000000000000D+00 0.000000000000D+00 0.159938460627D-07 0.000000000000D+00  7 -1 21 23 -11 11 23 -1 2 0.11091462D-01 0.21749759D+00 0.73785247D+05 0.73785247D+05 0.73785247D+05 0.11327204D+01  1  2 12  4  7  2        1 0.431925590319D-04 0.100000000000D+01
-.106970541264D-05 0.000000000000D+00 -.962501117258D-07 0.159938460627D-07 0.000000000000D+00  7 -1 21 23 -11 11 23 -1 2 0.11091462D-01 0.21748638D+00 0.68812295D+05 0.68812295D+05 0.68812295D+05 0.11352920D+01  1  2  5  4  7  2        1 -.575312537448D-04 0.100000000000D+01
  </mgrwgt>
  </event>
  <event>
  9     66 0.27784906E-05 0.16777370E+03 0.75467711E-02 0.10837032E+00
       -1 -1    0    0    0  502 0.00000000E+00 0.00000000E+00 0.19335713E+03 0.19335740E+03 0.32000000E+00 0.0000E+00 0.9000E+01
        1 -1    0    0  501    0 0.00000000E+00 0.00000000E+00 -.36517483E+03 0.36517497E+03 0.32000000E+00 0.0000E+00 0.9000E+01
       25  2    1    2    0    0 -.18628697E+01 -.51662187E+02 0.48289509E+02 0.31037332E+03 0.30220402E+03 0.0000E+00 0.0000E+00
       23  2    3    3    0    0 -.69139726E+02 -.38851760E+02 -.75365945E+02 0.14215856E+03 0.90770419E+02 0.0000E+00 0.0000E+00
       23  1    1    2    0    0 -.81858213E+01 0.42434869E+02 -.19175130E+03 0.21668303E+03 0.91188000E+02 0.0000E+00 0.9000E+01
      -11  1    4    4    0    0 -.25885702E+02 0.29030840E+02 -.33991978E+02 0.51655724E+02 0.51099893E-03 0.0000E+00 0.9000E+01
       11  1    4    4    0    0 -.43254024E+02 -.67882599E+02 -.41373968E+02 0.90502835E+02 0.51099893E-03 0.0000E+00 0.9000E+01
       23  1    3    3    0    0 0.67276856E+02 -.12810428E+02 0.12365545E+03 0.16821476E+03 0.91188000E+02 0.0000E+00 0.9000E+01
       21  1    1    2  501  502 0.10048691E+02 0.92273187E+01 -.28355907E+02 0.31476016E+02 0.75000000E+00 0.0000E+00 0.9000E+01
#aMCatNLO 2  0  0  1  1 0.13642566D+02 0.00000000D+00  -5  7  0 0.00000000D+00 0.00000000D+00 0.00000000D+00 0.00000000D+00 0.00000000D+00
  <mgrwgt>
 0.4861994400D-04    2    2    0
 0.253486188976874D+03 0.000000000000000D+00 0.000000000000000D+00 0.253486188976874D+03
 0.253486188976874D+03 0.000000000000000D+00 0.000000000000000D+00 -.253486188976874D+03
 0.171615834954879D+03 -.479150078037205D+01 0.455517402745168D+02 -.137981244890365D+03
 0.440984314151316D+02 -.250120955279467D+02 0.298330383040083D+02 -.207136804099973D+02
 0.802873911994170D+02 -.416424947053340D+02 -.664027954029849D+02 -.173964531728102D+02
 0.210970720384320D+03 0.714460910136527D+02 -.898198317554017D+01 0.176091378473172D+03
 0.000000000000000D+00 0.000000000000000D+00 0.000000000000000D+00 -.000000000000000D+00
 0.255634863610469D+03 0.000000000000000D+00 0.000000000000000D+00 0.255634863610469D+03
 0.276199200028432D+03 0.000000000000000D+00 0.000000000000000D+00 -.276199200028432D+03
 0.170943853516727D+03 -.818582130187259D+01 0.424348689083324D+02 -.137981244890365D+03
 0.440671735104654D+02 -.258857018866653D+02 0.290308398588234D+02 -.207136804099973D+02
 0.823504369131282D+02 -.432540238376664D+02 -.678825993804002D+02 -.173964531728102D+02
 0.209794440696035D+03 0.672768560772253D+02 -.128104280468871D+02 0.176091378473172D+03
 0.246781590025446D+02 0.100486909489790D+02 0.922731866013144D+01 -.205643364179633D+02
-.541844427528D-08 0.000000000000D+00 0.000000000000D+00 0.188109921128D-07 0.000000000000D+00  7 -1 1 23 -11 11 23 21 2 0.29496596D-01 0.51559653D-01 0.28148015D+05 0.28148015D+05 0.28148015D+05 0.11699122D+01  1  2  8  1  7  1       -1 -.690343679671D-06 0.100000000000D+01
0.440940543822D-06 0.000000000000D+00 0.000000000000D+00 0.188109921128D-07 0.736809256086D-09  7 -1 1 23 -11 11 23 21 2 0.29746624D-01 0.56179530D-01 0.30272968D+05 0.30272968D+05 0.30272968D+05 0.11669711D+01  1  2  1  1  7  1       -1 0.493102876777D-04 0.100000000000D+01
  </mgrwgt>
  </event>
  <event>
  8     66 0.27784906E-05 0.25071793E+03 0.75467711E-02 0.10144058E+00
       -1 -1    0    0    0  501 0.00000000E+00 0.00000000E+00 0.58863755E+03 0.58863763E+03 0.32000000E+00 0.0000E+00 0.9000E+01
        1 -1    0    0  501    0 0.00000000E+00 0.00000000E+00 -.16342312E+03 0.16342343E+03 0.32000000E+00 0.0000E+00 0.9000E+01
       25  2    1    2    0    0 0.10375591E+03 -.16636435E+03 0.11823924E+03 0.37657285E+03 0.29897192E+03 0.0000E+00 0.0000E+00
       23  2    3    3    0    0 -.12076876E+01 -.87105314E+02 0.16627774E+03 0.20947318E+03 0.92961991E+02 0.0000E+00 0.0000E+00
       23  1    1    2    0    0 -.10375591E+03 0.16636435E+03 0.30697518E+03 0.37548821E+03 0.91188000E+02 0.0000E+00 0.9000E+01
      -11  1    4    4    0    0 -.43025803E+02 -.23474754E+02 0.46621282E+02 0.67644864E+02 0.51099893E-03 0.0000E+00 0.9000E+01
       11  1    4    4    0    0 0.41818115E+02 -.63630560E+02 0.11965646E+03 0.14182832E+03 0.51099893E-03 0.0000E+00 0.9000E+01
       23  1    3    3    0    0 0.10496360E+03 -.79259033E+02 -.48038500E+02 0.16709967E+03 0.91188000E+02 0.0000E+00 0.9000E+01
#aMCatNLO 1  0  0  1  1 0.69955989D+02 0.00000000D+00  -5  7  0 0.00000000D+00 0.00000000D+00 0.00000000D+00 0.00000000D+00 0.00000000D+00
  <mgrwgt>
 0.1648938050D-03    4    2    0
 0.310156630870554D+03 0.000000000000000D+00 0.000000000000000D+00 0.310156630870554D+03
 0.310156630870554D+03 0.000000000000000D+00 0.000000000000000D+00 -.310156630870554D+03
 0.244811455032708D+03 -.103755912183708D+03 0.166364347478001D+03 0.114782454000502D+03
 0.500537862726892D+02 -.430258026882511D+02 -.234747537327794D+02 0.101537067344438D+02
 0.899285985364994D+02 0.418181150819846D+02 -.636305603504786D+02 0.478492411142839D+02
 0.235519421899211D+03 0.104963599789974D+03 -.792590333947433D+02 -.172785401849230D+03
 0.000000000000000D+00 0.000000000000000D+00 -.000000000000000D+00 -.000000000000000D+00
 0.336690010813834D+03 0.000000000000000D+00 0.000000000000000D+00 0.336690010813834D+03
 0.361923103181745D+03 0.000000000000000D+00 0.000000000000000D+00 -.361923103181745D+03
 0.267422475333616D+03 -.110819986660824D+03 0.194276729897525D+03 0.114782454000502D+03
 0.489950973387723D+02 -.443917580637691D+02 -.180774339659830D+02 0.101537067344438D+02
 0.823849741219393D+02 0.394417869269820D+02 -.542409396108352D+02 0.478492411142839D+02
 0.225442904167508D+03 0.986065976285766D+02 -.541405163200040D+02 -.172785401849230D+03
 0.743676630337434D+02 0.171633601690342D+02 -.678178400007026D+02 -.252330923679107D+02
0.102561963787D-04 0.000000000000D+00 0.000000000000D+00 0.345139166250D-07 0.000000000000D+00  7 -1 1 23 -11 11 23 21 0 0.90559653D-01 0.25142049D-01 0.62859480D+05 0.62859480D+05 0.62859480D+05 0.11386534D+01  1  2  2  1  7  1       -1 0.313877188393D-03 0.100000000000D+01
-.538432012802D-06 0.000000000000D+00 -.393864946127D-07 0.345139166250D-07 0.000000000000D+00  7 -1 1 23 -11 11 23 21 2 0.90559653D-01 0.25142049D-01 0.62859480D+05 0.62859480D+05 0.62859480D+05 0.11386534D+01  1  2  3  1  7  1       -1 -.213642388572D-04 0.100000000000D+01
0.650345394505D-06 0.000000000000D+00 0.000000000000D+00 0.345139166250D-07 0.000000000000D+00  7 -1 1 23 -11 11 23 21 2 0.90559653D-01 0.25142049D-01 0.62859480D+05 0.62859480D+05 0.62859480D+05 0.11386534D+01  1  2 15  1  7  1       -1 0.258048073248D-04 0.100000000000D+01
-.386666558901D-05 0.000000000000D+00 0.000000000000D+00 0.345139166250D-07 0.000000000000D+00  7 -1 1 23 -11 11 23 21 2 0.90559653D-01 0.25142049D-01 0.62859480D+05 0.62859480D+05 0.62859480D+05 0.11386534D+01  1  2  4  1  7  1       -1 -.153423951883D-03 0.100000000000D+01
  </mgrwgt>
  </event>
  <event>
  8     66 0.27784906E-05 0.13604606E+03 0.75467711E-02 0.10631868E+00
       -1 -1    0    0    0  501 0.00000000E+00 0.00000000E+00 0.10130434E+03 0.10130484E+03 0.32000000E+00 0.0000E+00 0.9000E+01
        1 -1    0    0  501    0 0.00000000E+00 0.00000000E+00 -.53282680E+03 0.53282689E+03 0.32000000E+00 0.0000E+00 0.9000E+01
       25  2    1    2    0    0 -.13488317E+02 -.16066747E+02 -.44740453E+03 0.53922353E+03 0.30025178E+03 0.0000E+00 0.0000E+00
       23  2    3    3    0    0 0.93697137E+02 -.72478721E+02 -.20270074E+03 0.25135858E+03 0.89784349E+02 0.0000E+00 0.0000E+00
       23  1    1    2    0    0 0.13488317E+02 0.16066747E+02 0.15882071E+02 0.94908201E+02 0.91188000E+02 0.0000E+00 0.9000E+01
      -11  1    4    4    0    0 0.29378155E+02 -.78545931E+02 -.10843228E+03 0.13707698E+03 0.51099893E-03 0.0000E+00 0.9000E+01
       11  1    4    4    0    0 0.64318981E+02 0.60672096E+01 -.94268456E+02 0.11428160E+03 0.51099893E-03 0.0000E+00 0.9000E+01
       23  1    3    3    0    0 -.10718545E+03 0.56411974E+02 -.24470379E+03 0.28786495E+03 0.91188000E+02 0.0000E+00 0.9000E+01
#aMCatNLO 1  0  0  1  2 0.65182532D+01 0.00000000D+00  -5  7  0 0.00000000D+00 0.00000000D+00 0.00000000D+00 0.00000000D+00 0.00000000D+00
  <mgrwgt>
 0.7344067831D-04   11    2    0
 0.232331349014978D+03 0.000000000000000D+00 0.000000000000000D+00 0.232331349014978D+03
 0.232331349014978D+03 0.000000000000000D+00 0.000000000000000D+00 -.232331349014978D+03
 0.144271904407078D+03 0.134883172866790D+02 0.160667474056070D+02 0.109813733120332D+03
 0.863721135060547D+02 0.293781552468404D+02 -.785459307564581D+02 -.206785576720678D+02
 0.684165816752174D+02 0.643189813496947D+02 0.606720956563729D+01 -.225185757619338D+02
 0.165602098441605D+03 -.107185453883214D+03 0.564119737852138D+02 -.666165996863300D+02
 0.000000000000000D+00 0.000000000000000D+00 -.000000000000000D+00 0.000000000000000D+00
 0.253389717622419D+03 0.000000000000000D+00 0.000000000000000D+00 0.253389717622419D+03
 0.232859158489058D+03 0.000000000000000D+00 0.000000000000000D+00 -.232859158489058D+03
 0.144169015777374D+03 0.115493066120132D+02 0.166436564845335D+02 0.109813733120332D+03
 0.856713954193603D+02 0.282216126865823D+02 -.782018274918936D+02 -.206785576720678D+02
 0.675827877771886D+02 0.634047413419059D+02 0.633922114747249D+01 -.225185757619338D+02
 0.167285215589296D+03 -.109423250292108D+03 0.570777798490728D+02 -.666165996863300D+02
 0.215404615482578D+02 0.624758965160645D+01 -.185882998918517D+01 0.205305591333606D+02
0.885005688800D-06 0.000000000000D+00 0.000000000000D+00 0.916869060045D-07 0.000000000000D+00  7 -1 1 23 -11 11 23 21 0 0.15585329D-01 0.81973399D-01 0.38739476D+05 0.38739476D+05 0.38739476D+05 0.11571722D+01  1  2  2  1  7  1       -1 0.123046288959D-03 0.100000000000D+01
-.475225175866D-07 0.000000000000D+00 -.339865487234D-08 0.916869060045D-07 0.000000000000D+00  7 -1 1 23 -11 11 23 21 2 0.15585329D-01 0.81973399D-01 0.38739476D+05 0.38739476D+05 0.38739476D+05 0.11571722D+01  1  2  3  1  7  1       -1 -.884744520742D-05 0.100000000000D+01
0.550882774504D-07 0.000000000000D+00 0.000000000000D+00 0.916869060045D-07 0.000000000000D+00  7 -1 1 23 -11 11 23 21 2 0.15585329D-01 0.81973399D-01 0.38739476D+05 0.38739476D+05 0.38739476D+05 0.11571722D+01  1  2 15  1  7  1       -1 0.102559910768D-04 0.100000000000D+01
0.232795583846D-04 0.000000000000D+00 0.000000000000D+00 0.916869060045D-07 0.000000000000D+00  7 -1 1 23 -11 11 23 21 2 0.17014753D-01 0.81973399D-01 0.40047526D+05 0.40047526D+05 0.40047526D+05 0.11558720D+01  1  2 12  1  7  1       -1 0.377104600705D-02 0.100000000000D+01
-.261230297057D-04 0.000000000000D+00 0.000000000000D+00 0.916869060045D-07 0.000000000000D+00  7 -1 1 23 -11 11 23 21 2 0.15585329D-01 0.81973399D-01 0.38739476D+05 0.38739476D+05 0.38739476D+05 0.11571722D+01  1  2  4  1  7  1       -1 -.486342234608D-02 0.100000000000D+01
-.311602893250D-04 0.000000000000D+00 -.134210690006D-05 0.916869060045D-07 0.000000000000D+00  7 -1 1 23 -11 11 23 21 2 0.17023319D-01 0.81973399D-01 0.38739476D+05 0.38739476D+05 0.38739476D+05 0.11571722D+01  1  2  5  1  7  1       -1 -.505446130517D-02 0.100000000000D+01
0.311625076893D-04 0.000000000000D+00 0.133689711605D-05 0.916869060045D-07 0.000000000000D+00  7 -1 1 23 -11 11 23 21 2 0.15585329D-01 0.81973399D-01 0.38739476D+05 0.38739476D+05 0.38739476D+05 0.11571722D+01  1  2  6  1  7  1       -1 0.580164084961D-02 0.100000000000D+01
0.271310105462D-05 0.000000000000D+00 0.000000000000D+00 0.916869060045D-07 0.154344884631D-07  7 -1 1 23 -11 11 23 21 2 0.16997973D-01 0.82159626D-01 0.40047526D+05 0.40047526D+05 0.40047526D+05 0.11558720D+01  1  2 11  1  7  1       -1 0.438798834326D-03 0.100000000000D+01
0.347625107621D-06 0.000000000000D+00 0.000000000000D+00 0.916869060045D-07 0.000000000000D+00  7 21 1 23 -11 11 23 1 2 0.17014753D-01 0.81973399D-01 0.40047526D+05 0.40047526D+05 0.40047526D+05 0.11558720D+01  1  2 12  3  7  1       -1 0.723148100016D-03 0.100000000000D+01
-.455302076936D-06 0.000000000000D+00 -.195507846749D-07 0.916869060045D-07 0.000000000000D+00  7 21 1 23 -11 11 23 1 2 0.17023319D-01 0.81973399D-01 0.38739476D+05 0.38739476D+05 0.38739476D+05 0.11571722D+01  1  2  5  3  7  1       -1 -.949070468586D-03 0.100000000000D+01
0.391382505738D-07 0.000000000000D+00 0.000000000000D+00 0.916869060045D-07 0.221716531093D-09  7 21 1 23 -11 11 23 1 2 0.16997973D-01 0.82159626D-01 0.40047526D+05 0.40047526D+05 0.40047526D+05 0.11558720D+01  1  2 11  3  7  1       -1 0.813061723142D-04 0.100000000000D+01
  </mgrwgt>
  </event>
  <event>
  8     66 0.27784906E-05 0.13479178E+03 0.75467711E-02 0.10311119E+00
       -1 -1    0    0    0  501 0.00000000E+00 0.00000000E+00 0.10152515E+03 0.10152565E+03 0.32000000E+00 0.0000E+00 0.9000E+01
        1 -1    0    0  501    0 0.00000000E+00 0.00000000E+00 -.60781094E+03 0.60781102E+03 0.32000000E+00 0.0000E+00 0.9000E+01
       25  2    1    2    0    0 -.10930380E+03 -.78750661E+02 -.28781402E+03 0.43695064E+03 0.29989992E+03 0.0000E+00 0.0000E+00
       23  2    3    3    0    0 -.17485634E+03 -.45561653E+02 -.23153669E+03 0.30702360E+03 0.89463111E+02 0.0000E+00 0.0000E+00
       23  1    1    2    0    0 0.10930380E+03 0.78750661E+02 -.21847177E+03 0.27238604E+03 0.91188000E+02 0.0000E+00 0.9000E+01
      -13  1    4    4    0    0 -.18050544E+03 -.27446976E+02 -.20725081E+03 0.27620366E+03 0.10565837E+00 0.0000E+00 0.9000E+01
       13  1    4    4    0    0 0.56490983E+01 -.18114677E+02 -.24285880E+02 0.30819944E+02 0.10565837E+00 0.0000E+00 0.9000E+01
       23  1    3    3    0    0 0.65552541E+02 -.33189008E+02 -.56277328E+02 0.12992704E+03 0.91188000E+02 0.0000E+00 0.9000E+01
#aMCatNLO 1  0  0  2  1 0.22249482D+02 0.00000000D+00  -5  7  0 0.00000000D+00 0.00000000D+00 0.00000000D+00 0.00000000D+00 0.00000000D+00
  <mgrwgt>
 0.5098260725D-03    9    2    0
 0.248411565065252D+03 0.000000000000000D+00 0.000000000000000D+00 0.248411565065252D+03
 0.248411565065252D+03 0.000000000000000D+00 0.000000000000000D+00 -.248411565065252D+03
 0.166264915497247D+03 0.109303805044313D+03 0.787506619764209D+02 -.343479580530923D+02
 0.183150407749404D+03 -.180505701927797D+03 -.274469901620448D+02 -.144369720291642D+02
 0.192543514544660D+02 0.564935733295045D+01 -.181146637100842D+02 -.326707366419809D+01
 0.128153455429387D+03 0.655525395505338D+02 -.331890081042918D+02 0.520520037464547D+02
 0.000000000000000D+00 0.000000000000000D+00 -.000000000000000D+00 -.000000000000000D+00
 0.253932545998082D+03 0.000000000000000D+00 0.000000000000000D+00 0.253932545998082D+03
 0.272135464464769D+03 0.000000000000000D+00 0.000000000000000D+00 -.272135464464769D+03
 0.165849268136811D+03 0.104397074388491D+03 0.843338427573576D+02 -.343479580530923D+02
 0.187747026541234D+03 -.185985425169623D+03 -.212118230753180D+02 -.144369720291642D+02
 0.184972787934351D+02 0.509160614202656D+01 -.174800200036855D+02 -.326707366419809D+01
 0.125227512032216D+03 0.618090313780088D+02 -.289294136108945D+02 0.520520037464547D+02
 0.287469249591551D+02 0.146877132610957D+02 -.167125860674596D+02 -.182029184666878D+02
0.253339813054D-05 0.000000000000D+00 0.000000000000D+00 0.116062968542D-06 0.000000000000D+00  7 -1 1 23 -13 13 23 21 0 0.15619299D-01 0.93509420D-01 0.57922133D+05 0.57922133D+05 0.57922133D+05 0.11417190D+01  1  2  2  2  7  2        1 0.292218629465D-03 0.100000000000D+01
-.140572818510D-06 0.000000000000D+00 -.972891588031D-08 0.116062968542D-06 0.000000000000D+00  7 -1 1 23 -13 13 23 21 2 0.15619299D-01 0.93509420D-01 0.57922133D+05 0.57922133D+05 0.57922133D+05 0.11417190D+01  1  2  3  2  7  2        1 -.211360726862D-04 0.100000000000D+01
0.162282192544D-06 0.000000000000D+00 0.000000000000D+00 0.116062968542D-06 0.000000000000D+00  7 -1 1 23 -13 13 23 21 2 0.15619299D-01 0.93509420D-01 0.57922133D+05 0.57922133D+05 0.57922133D+05 0.11417190D+01  1  2 15  2  7  2        1 0.244002236965D-04 0.100000000000D+01
0.916127841161D-05 0.000000000000D+00 0.000000000000D+00 0.116062968542D-06 0.000000000000D+00  7 -1 1 23 -13 13 23 21 2 0.15619299D-01 0.10341295D+00 0.63452992D+05 0.63452992D+05 0.63452992D+05 0.11383029D+01  1  2 12  2  7  2        1 0.118321799178D-02 0.100000000000D+01
-.924102024444D-05 0.000000000000D+00 0.000000000000D+00 0.116062968542D-06 0.000000000000D+00  7 -1 1 23 -13 13 23 21 2 0.15619299D-01 0.93509420D-01 0.57922133D+05 0.57922133D+05 0.57922133D+05 0.11417190D+01  1  2  4  2  7  2        1 -.138944980723D-02 0.100000000000D+01
-.205014034975D-04 0.000000000000D+00 -.324906985109D-05 0.116062968542D-06 0.000000000000D+00  7 -1 1 23 -13 13 23 21 2 0.15619299D-01 0.10392846D+00 0.57922133D+05 0.57922133D+05 0.57922133D+05 0.11417190D+01  1  2  5  2  7  2        1 -.264465281957D-02 0.100000000000D+01
0.207468087502D-04 0.000000000000D+00 0.323102406292D-05 0.116062968542D-06 0.000000000000D+00  7 -1 1 23 -13 13 23 21 2 0.15619299D-01 0.93509420D-01 0.57922133D+05 0.57922133D+05 0.57922133D+05 0.11417190D+01  1  2  6  2  7  2        1 0.311942281871D-02 0.100000000000D+01
0.149658098332D-06 0.000000000000D+00 0.000000000000D+00 0.116062968542D-06 0.000000000000D+00  7 -1 21 23 -13 13 23 -1 2 0.15619299D-01 0.10341295D+00 0.63452992D+05 0.63452992D+05 0.63452992D+05 0.11383029D+01  1  2 12  4  7  2        1 0.434855320684D-04 0.100000000000D+01
-.337220808088D-06 0.000000000000D+00 -.553240722503D-07 0.116062968542D-06 0.000000000000D+00  7 -1 21 23 -13 13 23 -1 2 0.15619299D-01 0.10392846D+00 0.57922133D+05 0.57922133D+05 0.57922133D+05 0.11417190D+01  1  2  5  4  7  2        1 -.976804237156D-04 0.100000000000D+01
  </mgrwgt>
  </event>
  <event>
  9     66 -.27784906E-05 0.45386089E+03 0.75467711E-02 0.95132158E-01
       -1 -1    0    0    0  502 0.00000000E+00 0.00000000E+00 0.15141260E+03 0.15141294E+03 0.32000000E+00 0.0000E+00 0.9000E+01
        1 -1    0    0  501    0 0.00000000E+00 0.00000000E+00 -.17333821E+04 0.17333821E+04 0.32000000E+00 0.0000E+00 0.9000E+01
       25  2    1    2    0    0 0.13296597E+03 0.39643162E+03 -.10790188E+04 0.11955272E+04 0.30027606E+03 0.0000E+00 0.0000E+00
       23  2    3    3    0    0 0.17485854E+03 0.20617086E+03 -.75655594E+03 0.80790406E+03 0.85147806E+02 0.0000E+00 0.0000E+00
       23  1    1    2    0    0 -.17554725E+03 -.37372775E+03 -.44527911E+03 0.61406678E+03 0.91188000E+02 0.0000E+00 0.9000E+01
      -11  1    4    4    0    0 0.21263485E+02 0.25672068E+02 -.34618028E+02 0.48058285E+02 0.51099893E-03 0.0000E+00 0.9000E+01
       11  1    4    4    0    0 0.15359505E+03 0.18049879E+03 -.72193792E+03 0.75984578E+03 0.51099893E-03 0.0000E+00 0.9000E+01
       23  1    3    3    0    0 -.41892564E+02 0.19026076E+03 -.32246289E+03 0.38762316E+03 0.91188000E+02 0.0000E+00 0.9000E+01
       21  1    1    2  501  502 0.42581275E+02 -.22703869E+02 -.57671557E+02 0.75201074E+02 0.75000000E+00 0.0000E+00 0.9000E+01
#aMCatNLO 2  0  0  1  2 0.48255887D+02 0.00000000D+00  -5  7  0 0.00000000D+00 0.00000000D+00 0.00000000D+00 0.00000000D+00 0.00000000D+00
  <mgrwgt>
 -.1331394408D-03    3    2    0
 0.487036338265166D+03 0.000000000000000D+00 0.000000000000000D+00 0.487036338265166D+03
 0.487036338265166D+03 0.000000000000000D+00 0.000000000000000D+00 -.487036338265166D+03
 0.445021783942376D+03 -.156139715277862D+03 -.384075635297897D+03 0.133549363617803D+03
 0.354392092954501D+02 0.228035762262762D+02 0.248509079910174D+02 0.108796525128844D+02
 0.284379325440625D+03 0.165956675810205D+03 0.173907707815831D+03 -.151941079548406D+03
 0.209232357851882D+03 -.326205367586192D+02 0.185317019491049D+03 0.751206341771857D+01
 0.000000000000000D+00 0.000000000000000D+00 -.000000000000000D+00 0.000000000000000D+00
 0.517592538624752D+03 0.000000000000000D+00 0.000000000000000D+00 0.517592538624752D+03
 0.507065493155218D+03 0.000000000000000D+00 0.000000000000000D+00 -.507065493155218D+03
 0.443441036047981D+03 -.175547248418442D+03 -.373727751387692D+03 0.133549363617803D+03
 0.350650495023152D+02 0.212634850616460D+02 0.256720677163306D+02 0.108796525128844D+02
 0.281526810486937D+03 0.153595053196002D+03 0.180498789476079D+03 -.151941079548406D+03
 0.215234354391653D+03 -.418925643545839D+02 0.190260762958096D+03 0.751206341771857D+01
 0.493907813510844D+02 0.425812745153773D+02 -.227038687628139D+02 0.105270454695334D+02
-.681699103111D-04 0.000000000000D+00 0.000000000000D+00 0.609655477569D-07 0.000000000000D+00  7 -1 1 23 -11 11 23 21 2 0.23721381D-01 0.25613911D+00 0.22874756D+06 0.22874756D+06 0.22874756D+06 0.10933737D+01  1  2 13  1  7  1       -1 -.748237533415D-03 0.100000000000D+01
-.938330570349D-07 0.000000000000D+00 0.000000000000D+00 0.609655477569D-07 0.000000000000D+00  7 -1 1 23 -11 11 23 21 2 0.21918969D-01 0.25613911D+00 0.20598970D+06 0.20598970D+06 0.20598970D+06 0.10968425D+01  1  2  8  1  7  1       -1 -.118404482193D-05 0.100000000000D+01
0.604984295192D-04 0.000000000000D+00 0.000000000000D+00 0.609655477569D-07 0.167349026645D-09  7 -1 1 23 -11 11 23 21 2 0.23294145D-01 0.26667271D+00 0.22874756D+06 0.22874756D+06 0.22874756D+06 0.10933737D+01  1  2  1  1  7  1       -1 0.616282137410D-03 0.100000000000D+01
  </mgrwgt>
  </event>
  <event>
  8     66 0.27784906E-05 0.37001733E+03 0.75467711E-02 0.87992030E-01
       -1 -1    0    0    0  501 0.00000000E+00 0.00000000E+00 0.23831873E+03 0.23831895E+03 0.32000000E+00 0.0000E+00 0.9000E+01
        1 -1    0    0  501    0 0.00000000E+00 0.00000000E+00 -.96943402E+03 0.96943408E+03 0.32000000E+00 0.0000E+00 0.9000E+01
       25  2    1    2    0    0 -.27300681E+03 0.13464307E+03 -.18932491E+02 0.42789338E+03 0.30012136E+03 0.0000E+00 0.0000E+00
       23  2    3    3    0    0 -.62660965E+02 0.15894871E+03 -.40894514E+02 0.19630383E+03 0.87588489E+02 0.0000E+00 0.0000E+00
       23  1    1    2    0    0 0.27300681E+03 -.13464307E+03 -.71218280E+03 0.77985964E+03 0.91188000E+02 0.0000E+00 0.9000E+01
      -11  1    4    4    0    0 0.42183016E+01 -.95468563E+01 0.12394221E+00 0.10438002E+02 0.51099893E-03 0.0000E+00 0.9000E+01
       11  1    4    4    0    0 -.66879267E+02 0.16849556E+03 -.41018456E+02 0.18586583E+03 0.51099893E-03 0.0000E+00 0.9000E+01
       23  1    3    3    0    0 -.21034585E+03 -.24305638E+02 0.21962023E+02 0.23158955E+03 0.91188000E+02 0.0000E+00 0.9000E+01
#aMCatNLO 1  0  0  2  1 0.80798127D+03 0.00000000D+00  -5  7  0 0.00000000D+00 0.00000000D+00 0.00000000D+00 0.00000000D+00 0.00000000D+00
  <mgrwgt>
 0.1026141026D-02    3    2    0
 0.480660431021060D+03 0.000000000000000D+00 0.000000000000000D+00 0.480660431021060D+03
 0.480660431021060D+03 0.000000000000000D+00 0.000000000000000D+00 -.480660431021060D+03
 0.438136866625221D+03 0.273006810381971D+03 -.134643069324260D+03 -.301640826016924D+03
 0.132080199002983D+02 0.421830164896815D+01 -.954685628120724D+01 0.809414949398418D+01
 0.202316209094689D+03 -.668792669180698D+02 0.168495563898675D+03 0.898234772507452D+02
 0.307659766421912D+03 -.210345845112869D+03 -.243056382932070D+02 0.203723199272195D+03
 0.000000000000000D+00 -.000000000000000D+00 -.000000000000000D+00 0.000000000000000D+00
 0.327008900025245D+04 0.000000000000000D+00 0.000000000000000D+00 0.327008900025245D+04
 0.689657505419380D+03 0.000000000000000D+00 0.000000000000000D+00 -.689657505419380D+03
 0.657761722413331D+03 0.559114766516296D+03 0.144009451326665D+03 -.301640826016924D+03
 0.141950751084222D+02 0.113724704590385D+02 -.257911166122750D+01 0.809414949398418D+01
 0.322826551110937D+03 0.702205736182558D+02 0.302022840324189D+03 0.898234772507452D+02
 0.260991923244708D+03 -.618870604131071D+02 0.120284589564488D+03 0.203723199272195D+03
 0.270397123379443D+04 -.578820750180483D+03 -.563737769554114D+03 0.258043149483307D+04
0.737003744298D-04 0.000000000000D+00 0.000000000000D+00 0.260750760551D-06 0.000000000000D+00  7 -1 1 23 -11 11 23 21 0 0.36664441D-01 0.14914372D+00 0.13691282D+06 0.13691282D+06 0.13691282D+06 0.11106943D+01  1  2  2  2  7  2        1 0.101062154994D-02 0.100000000000D+01
-.375375010063D-05 0.000000000000D+00 -.283028843565D-06 0.260750760551D-06 0.000000000000D+00  7 -1 1 23 -11 11 23 21 2 0.36664441D-01 0.14914372D+00 0.13691282D+06 0.13691282D+06 0.13691282D+06 0.11106943D+01  1  2  3  2  7  2        1 -.634999352855D-04 0.100000000000D+01
0.467117205522D-05 0.000000000000D+00 0.000000000000D+00 0.260750760551D-06 0.000000000000D+00  7 -1 1 23 -11 11 23 21 2 0.36664441D-01 0.14914372D+00 0.13691282D+06 0.13691282D+06 0.13691282D+06 0.11106943D+01  1  2 15  2  7  2        1 0.790194113252D-04 0.100000000000D+01
  </mgrwgt>
  </event>
  <event>
  8     66 0.27784906E-05 0.17015622E+03 0.75467711E-02 0.97207286E-01
       -1 -1    0    0    0  501 0.00000000E+00 0.00000000E+00 0.64467590E+03 0.64467598E+03 0.32000000E+00 0.0000E+00 0.9000E+01
        1 -1    0    0  501    0 0.00000000E+00 0.00000000E+00 -.95136287E+02 0.95136825E+02 0.32000000E+00 0.0000E+00 0.9000E+01
       25  2    1    2    0    0 -.43355636E+02 -.60751301E+02 0.19128670E+03 0.36267777E+03 0.29895507E+03 0.0000E+00 0.0000E+00
       23  2    3    3    0    0 -.76797338E+02 -.77470554E+01 0.21802035E+03 0.24884571E+03 0.91833928E+02 0.0000E+00 0.0000E+00
       23  1    1    2    0    0 0.43355636E+02 0.60751301E+02 0.35825292E+03 0.37713504E+03 0.91188000E+02 0.0000E+00 0.9000E+01
      -13  1    4    4    0    0 -.79586131E+02 -.33191124E+02 0.12150325E+03 0.14899213E+03 0.10565837E+00 0.0000E+00 0.9000E+01
       13  1    4    4    0    0 0.27887929E+01 0.25444068E+02 0.96517095E+02 0.99853587E+02 0.10565837E+00 0.0000E+00 0.9000E+01
       23  1    3    3    0    0 0.33441702E+02 -.53004246E+02 -.26733648E+02 0.11383206E+03 0.91188000E+02 0.0000E+00 0.9000E+01
#aMCatNLO 1  0  0  2  1 0.32042719D+03 0.00000000D+00  -5  7  0 0.00000000D+00 0.00000000D+00 0.00000000D+00 0.00000000D+00 0.00000000D+00
  <mgrwgt>
 0.2904677473D-03    5    2    0
 0.247653588500134D+03 0.000000000000000D+00 0.000000000000000D+00 0.247653588500134D+03
 0.247653588500134D+03 0.000000000000000D+00 0.000000000000000D+00 -.247653588500134D+03
 0.165826712194022D+03 0.433556370908375D+02 0.607513025554635D+02 0.116673969261962D+03
 0.877343708544854D+02 -.795862389682016D+02 -.331912005149662D+02 0.161769776072044D+02
 0.420606949967942D+02 0.278890105534936D+01 0.254441447882889D+02 0.333754339373949D+02
 0.199685398954966D+03 0.334417008220147D+02 -.530042468287862D+02 -.166226380806561D+03
 0.000000000000000D+00 -.000000000000000D+00 -.000000000000000D+00 -.000000000000000D+00
 0.353247250203299D+03 0.000000000000000D+00 0.000000000000000D+00 0.353247250203299D+03
 0.735327323297187D+03 0.000000000000000D+00 0.000000000000000D+00 -.735327323297187D+03
 0.238733875537659D+03 0.153204996881494D+03 0.107675558101319D+03 0.116673969261962D+03
 0.487103990941691D+02 -.425377199572892D+02 -.173652168499123D+02 0.161769776072044D+02
 0.582202014034470D+02 0.300179307800780D+02 0.370755457496039D+02 0.333754339373949D+02
 0.244253133042398D+03 0.153983258762053D+03 -.151261429261687D+01 -.166226380806561D+03
 0.498656964422813D+03 -.294668466466336D+03 -.125873272708394D+03 -.382080073093888D+03
0.515632200738D-05 0.000000000000D+00 0.000000000000D+00 0.509049499731D-07 0.000000000000D+00  7 -1 1 23 -13 13 23 21 0 0.99180956D-01 0.14636399D-01 0.28953140D+05 0.28953140D+05 0.28953140D+05 0.11687698D+01  1  2  2  2  7  2        1 0.263742619703D-03 0.100000000000D+01
-.237401095573D-06 0.000000000000D+00 -.198016341991D-07 0.509049499731D-07 0.000000000000D+00  7 -1 1 23 -13 13 23 21 2 0.99180956D-01 0.14636399D-01 0.28953140D+05 0.28953140D+05 0.28953140D+05 0.11687698D+01  1  2  3  2  7  2        1 -.165875022309D-04 0.100000000000D+01
0.321232746129D-06 0.000000000000D+00 0.000000000000D+00 0.509049499731D-07 0.000000000000D+00  7 -1 1 23 -13 13 23 21 2 0.99180956D-01 0.14636399D-01 0.28953140D+05 0.28953140D+05 0.28953140D+05 0.11687698D+01  1  2 15  2  7  2        1 0.224449212427D-04 0.100000000000D+01
0.104521433911D-05 0.000000000000D+00 -.205230995511D-05 0.509049499731D-07 0.000000000000D+00  7 -1 1 23 -13 13 23 21 2 0.99180956D-01 0.59683302D-01 0.28953140D+05 0.28953140D+05 0.28953140D+05 0.11687698D+01  1  2  5  2  7  2        1 0.120084472988D-04 0.100000000000D+01
0.193150782510D-06 0.000000000000D+00 -.345090796388D-06 0.509049499731D-07 0.000000000000D+00  7 -1 21 23 -13 13 23 -1 2 0.99180956D-01 0.59683302D-01 0.28953140D+05 0.28953140D+05 0.28953140D+05 0.11687698D+01  1  2  5  4  7  2        1 0.885926126883D-05 0.100000000000D+01
  </mgrwgt>
  </event>
  <event>
  8     66 0.27784906E-05 0.81267070E+03 0.75467711E-02 0.84943227E-01
       -3 -1    0    0    0  501 0.00000000E+00 0.00000000E+00 0.12186001E+04 0.12186002E+04 0.50000000E+00 0.0000E+00 0.9000E+01
        3 -1    0    0  501    0 0.00000000E+00 0.00000000E+00 -.84657288E+03 0.84657303E+03 0.50000000E+00 0.0000E+00 0.9000E+01
       25  2    1    2    0    0 -.64210990E+03 -.45716683E+03 -.42145240E+03 0.94301825E+03 0.30059052E+03 0.0000E+00 0.0000E+00
       23  2    3    3    0    0 -.20292838E+03 -.26258190E+03 -.10295425E+03 0.35949445E+03 0.92236107E+02 0.0000E+00 0.0000E+00
       23  1    1    2    0    0 0.64210990E+03 0.45716683E+03 0.79347961E+03 0.11221550E+04 0.91188000E+02 0.0000E+00 0.9000E+01
      -11  1    4    4    0    0 -.21032608E+03 -.23982015E+03 -.10407930E+03 0.33553430E+03 0.51099893E-03 0.0000E+00 0.9000E+01
       11  1    4    4    0    0 0.73976981E+01 -.22761747E+02 0.11250502E+01 0.23960150E+02 0.51099893E-03 0.0000E+00 0.9000E+01
       23  1    3    3    0    0 -.43918153E+03 -.19458493E+03 -.31849815E+03 0.58352381E+03 0.91188000E+02 0.0000E+00 0.9000E+01
#aMCatNLO 1  0  0  1  1 0.81807280D+03 0.00000000D+00  -5  7  0 0.00000000D+00 0.00000000D+00 0.00000000D+00 0.00000000D+00 0.00000000D+00
  <mgrwgt>
 0.1640167649D-04    6    2    0
 0.101569387701577D+04 0.000000000000000D+00 0.000000000000000D+00 0.101569387701577D+04
 0.101569387701577D+04 0.000000000000000D+00 0.000000000000000D+00 -.101569387701577D+04
 0.995500930291000D+03 0.642109903484569D+03 0.457166830508854D+03 0.601165710761827D+03
 0.360175833662983D+03 -.210326075475281D+03 -.239820153806105D+03 -.167259878507691D+03
 0.241526073134745D+02 0.739769807139497D+01 -.227617465920947D+02 -.324428657190565D+01
 0.651558382764072D+03 -.439181526080683D+03 -.194584930110655D+03 -.430661545682230D+03
 0.000000000000000D+00 0.000000000000000D+00 0.000000000000000D+00 0.000000000000000D+00
 0.162764857651584D+04 0.000000000000000D+00 0.000000000000000D+00 0.162764857651584D+04
 0.140905280050806D+04 0.000000000000000D+00 0.000000000000000D+00 -.140905280050806D+04
 0.799105339069986D+03 0.295730479501282D+03 0.425907693384760D+03 0.601165710761827D+03
 0.481325117102206D+03 -.372745331210537D+03 -.254477738625192D+03 -.167259878507691D+03
 0.238943631686524D+02 -.187591377532344D+01 -.235986470667781D+02 -.324428657190565D+01
 0.885601962362427D+03 -.735870958189074D+03 -.221359775841656D+03 -.430661545682230D+03
 0.846774595320634D+03 0.814761723673653D+03 0.735284681488659D+02 0.218595776007778D+03
0.607724922501D-03 0.000000000000D+00 0.000000000000D+00 0.238211260379D-05 0.000000000000D+00  7 -3 3 23 -11 11 23 21 0 0.18747696D+00 0.13024200D+00 0.66043367D+06 0.66043367D+06 0.66043367D+06 0.10600721D+01  1  2  2  1  7  1       -3 0.115842464321D-04 0.100000000000D+01
-.317210830662D-04 0.000000000000D+00 -.233382372005D-05 0.238211260379D-05 0.000000000000D+00  7 -3 3 23 -11 11 23 21 2 0.18747696D+00 0.13024200D+00 0.66043367D+06 0.66043367D+06 0.66043367D+06 0.10600721D+01  1  2  3  1  7  1       -3 -.679484532242D-06 0.100000000000D+01
0.383781027875D-04 0.000000000000D+00 0.000000000000D+00 0.238211260379D-05 0.000000000000D+00  7 -3 3 23 -11 11 23 21 2 0.18747696D+00 0.13024200D+00 0.66043367D+06 0.66043367D+06 0.66043367D+06 0.10600721D+01  1  2 15  1  7  1       -3 0.822081867964D-06 0.100000000000D+01
-.130717221220D-03 0.000000000000D+00 -.164491312753D-03 0.238211260379D-05 0.000000000000D+00  7 -3 3 23 -11 11 23 21 2 0.35401398D+00 0.13024200D+00 0.66043367D+06 0.66043367D+06 0.66043367D+06 0.10600721D+01  1  2  5  1  7  1       -3 -.523534810747D-08 0.100000000000D+01
0.218133184155D-03 0.000000000000D+00 0.136062337508D-03 0.238211260379D-05 0.000000000000D+00  7 -3 3 23 -11 11 23 21 2 0.18747696D+00 0.13024200D+00 0.66043367D+06 0.66043367D+06 0.66043367D+06 0.10600721D+01  1  2  6  1  7  1       -3 0.467254299901D-05 0.100000000000D+01
0.290201529831D-06 0.000000000000D+00 -.113707450682D-04 0.238211260379D-05 0.000000000000D+00  7 21 3 23 -11 11 23 3 2 0.35401398D+00 0.13024200D+00 0.66043367D+06 0.66043367D+06 0.66043367D+06 0.10600721D+01  1  2  5  3  7  1       -3 0.752507457471D-08 0.100000000000D+01
  </mgrwgt>
  </event>
  <event>
  8     66 0.27784906E-05 0.49679677E+03 0.75467711E-02 0.91399941E-01
       -1 -1    0    0    0  501 0.00000000E+00 0.00000000E+00 0.18761916E+03 0.18761944E+03 0.32000000E+00 0.0000E+00 0.9000E+01
        1 -1    0    0  501    0 0.00000000E+00 0.00000000E+00 -.14864397E+04 0.14864398E+04 0.32000000E+00 0.0000E+00 0.9000E+01
       25  2    1    2    0    0 -.36369231E+03 -.29257751E+03 -.51443191E+03 0.75675090E+03 0.30026330E+03 0.0000E+00 0.0000E+00
       23  2    3    3    0    0 -.31885462E+03 -.25908954E+03 -.49185491E+03 0.64740359E+03 0.91730589E+02 0.0000E+00 0.0000E+00
       23  1    1    2    0    0 0.36369231E+03 0.29257751E+03 -.78438865E+03 0.91730829E+03 0.91188000E+02 0.0000E+00 0.9000E+01
      -13  1    4    4    0    0 -.14010044E+03 -.12122930E+03 -.29249690E+03 0.34623565E+03 0.10565837E+00 0.0000E+00 0.9000E+01
       13  1    4    4    0    0 -.17875419E+03 -.13786024E+03 -.19935801E+03 0.30116795E+03 0.10565837E+00 0.0000E+00 0.9000E+01
       23  1    3    3    0    0 -.44837685E+02 -.33487964E+02 -.22577001E+02 0.10934731E+03 0.91188000E+02 0.0000E+00 0.9000E+01
#aMCatNLO 1  0  0  2  2 0.30826248D+03 0.00000000D+00  -5  7  0 0.00000000D+00 0.00000000D+00 0.00000000D+00 0.00000000D+00 0.00000000D+00
  <mgrwgt>
 0.2882301027D-03    4    2    0
 0.528095479648617D+03 0.000000000000000D+00 0.000000000000000D+00 0.528095479648617D+03
 0.528095479648617D+03 0.000000000000000D+00 0.000000000000000D+00 -.528095479648617D+03
 0.489351161677218D+03 0.363692308994485D+03 0.292577508335457D+03 -.115219851090506D+03
 0.189092626553070D+03 -.140100385654825D+03 -.121229280728124D+03 -.378333827492312D+02
 0.232195465733693D+03 -.178754238275463D+03 -.137860264024081D+03 0.543709868317314D+02
 0.145551705333254D+03 -.448376850641961D+02 -.334879635832519D+02 0.986822470080058D+02
 0.000000000000000D+00 -.000000000000000D+00 -.000000000000000D+00 0.000000000000000D+00
 0.854586119663827D+03 0.000000000000000D+00 0.000000000000000D+00 0.854586119663827D+03
 0.628157117439151D+03 0.000000000000000D+00 0.000000000000000D+00 -.628157117439151D+03
 0.631737966821933D+03 0.520234361072074D+03 0.326891729560296D+03 -.115219851090506D+03
 0.149464173117120D+03 -.928263778904791D+02 -.110866756798729D+03 -.378333827492312D+02
 0.182306045676000D+03 -.120875773900198D+03 -.125173229426231D+03 0.543709868317314D+02
 0.136748647456837D+03 -.541898461961168D+01 -.248473332254697D+02 0.986822470080058D+02
 0.382486404031089D+03 -.301113224661786D+03 -.660044101098661D+02 0.226429002224677D+03
0.387643116562D-04 0.000000000000D+00 0.000000000000D+00 0.113458409307D-05 0.000000000000D+00  7 -1 1 23 -13 13 23 21 0 0.28864511D-01 0.22868306D+00 0.24680703D+06 0.24680703D+06 0.24680703D+06 0.10908793D+01  1  2  2  2  7  2        1 0.337085976916D-03 0.100000000000D+01
-.214379897739D-05 0.000000000000D+00 -.148865163638D-06 0.113458409307D-05 0.000000000000D+00  7 -1 1 23 -13 13 23 21 2 0.28864511D-01 0.22868306D+00 0.24680703D+06 0.24680703D+06 0.24680703D+06 0.10908793D+01  1  2  3  2  7  2        1 -.221843183738D-04 0.100000000000D+01
0.239338764776D-05 0.000000000000D+00 0.000000000000D+00 0.113458409307D-05 0.000000000000D+00  7 -1 1 23 -13 13 23 21 2 0.28864511D-01 0.22868306D+00 0.24680703D+06 0.24680703D+06 0.24680703D+06 0.10908793D+01  1  2 15  2  7  2        1 0.247670952967D-04 0.100000000000D+01
-.497081432947D-05 0.000000000000D+00 0.000000000000D+00 0.113458409307D-05 0.000000000000D+00  7 -1 1 23 -13 13 23 21 2 0.28864511D-01 0.22868306D+00 0.24680703D+06 0.24680703D+06 0.24680703D+06 0.10908793D+01  1  2  4  2  7  2        1 -.514386511166D-04 0.100000000000D+01
  </mgrwgt>
  </event>
  <event>
  8     66 0.27784906E-05 0.16294198E+03 0.75467711E-02 0.99979415E-01
       -1 -1    0    0    0  501 0.00000000E+00 0.00000000E+00 0.73134396E+03 0.73134403E+03 0.32000000E+00 0.0000E+00 0.9000E+01
        1 -1    0    0  501    0 0.00000000E+00 0.00000000E+00 -.13173147E+03 0.13173186E+03 0.32000000E+00 0.0000E+00 0.9000E+01
       25  2    1    2    0    0 0.18076611E+03 -.13684577E+03 0.35201039E+03 0.51518912E+03 0.30017556E+03 0.0000E+00 0.0000E+00
       23  2    3    3    0    0 0.63108084E+01 -.12400376E+01 0.20602126E+01 0.91392065E+02 0.91142203E+02 0.0000E+00 0.0000E+00
       23  1    1    2    0    0 -.18076611E+03 0.13684577E+03 0.24760210E+03 0.34788677E+03 0.91188000E+02 0.0000E+00 0.9000E+01
      -11  1    4    4    0    0 -.93089252E+01 0.13220466E+02 -.40608282E+02 0.43708917E+02 0.51099893E-03 0.0000E+00 0.9000E+01
       11  1    4    4    0    0 0.15619734E+02 -.14460503E+02 0.42668495E+02 0.47683149E+02 0.51099893E-03 0.0000E+00 0.9000E+01
       23  1    3    3    0    0 0.17445531E+03 -.13560573E+03 0.34995017E+03 0.42379705E+03 0.91188000E+02 0.0000E+00 0.9000E+01
#aMCatNLO 1  0  0  1  2 0.10155091D+03 0.00000000D+00  -5  7  0 0.00000000D+00 0.00000000D+00 0.00000000D+00 0.00000000D+00 0.00000000D+00
  <mgrwgt>
 0.5131395691D-03    9    2    0
 0.310388809807031D+03 0.000000000000000D+00 0.000000000000000D+00 0.310388809807031D+03
 0.310388809807031D+03 0.000000000000000D+00 0.000000000000000D+00 -.310388809807031D+03
 0.244511665828239D+03 -.180766113632382D+03 0.136845767504831D+03 0.821896954361866D+01
 0.999928846372626D+02 -.930892515200082D+01 0.132204658488006D+02 -.986769485408627D+02
 0.250808231912827D+02 0.156197335109632D+02 -.144605034112669D+02 0.132651972503848D+02
 0.251192245957278D+03 0.174455305273419D+03 -.135605729942364D+03 0.771927817468592D+02
 0.000000000000000D+00 0.000000000000000D+00 -.000000000000000D+00 0.000000000000000D+00
 0.393695086997370D+03 0.000000000000000D+00 0.000000000000000D+00 0.393695086997370D+03
 0.347074812383593D+03 0.000000000000000D+00 0.000000000000000D+00 -.347074812383593D+03
 0.283875243070323D+03 -.220000133005336D+03 0.154279915418405D+03 0.821896954361866D+01
 0.103591811313769D+03 -.244255863910726D+02 0.199377513121158D+02 -.986769485408627D+02
 0.221185817047416D+02 0.121150623412275D+02 -.129031570945209D+02 0.132651972503848D+02
 0.219443329326948D+03 0.139509463566641D+03 -.120077089670032D+03 0.771927817468592D+02
 0.111740933965182D+03 0.928011934885401D+02 -.412374199659677D+02 0.466202746137775D+02
0.145759866474D-04 0.000000000000D+00 0.000000000000D+00 0.631317579689D-06 0.000000000000D+00  7 -1 1 23 -11 11 23 21 0 0.11251449D+00 0.20266415D-01 0.67825218D+05 0.67825218D+05 0.67825218D+05 0.11358267D+01  1  2  2  1  7  1       -1 0.364669604938D-03 0.100000000000D+01
-.779458553175D-06 0.000000000000D+00 -.559756266716D-07 0.631317579689D-06 0.000000000000D+00  7 -1 1 23 -11 11 23 21 2 0.11251449D+00 0.20266415D-01 0.67825218D+05 0.67825218D+05 0.67825218D+05 0.11358267D+01  1  2  3  1  7  1       -1 -.251581537103D-04 0.100000000000D+01
0.944473091948D-06 0.000000000000D+00 0.000000000000D+00 0.631317579689D-06 0.000000000000D+00  7 -1 1 23 -11 11 23 21 2 0.11251449D+00 0.20266415D-01 0.67825218D+05 0.67825218D+05 0.67825218D+05 0.11358267D+01  1  2 15  1  7  1       -1 0.304842369433D-04 0.100000000000D+01
0.928176099338D-05 0.000000000000D+00 0.000000000000D+00 0.631317579689D-06 0.000000000000D+00  7 -1 1 23 -11 11 23 21 2 0.14796554D+00 0.20266415D-01 0.10238541D+06 0.10238541D+06 0.10238541D+06 0.11208829D+01  1  2 12  1  7  1       -1 0.143945721850D-03 0.100000000000D+01
-.109079223807D-04 0.000000000000D+00 0.000000000000D+00 0.631317579689D-06 0.000000000000D+00  7 -1 1 23 -11 11 23 21 2 0.11251449D+00 0.20266415D-01 0.67825218D+05 0.67825218D+05 0.67825218D+05 0.11358267D+01  1  2  4  1  7  1       -1 -.352068993015D-03 0.100000000000D+01
-.183055205692D-04 0.000000000000D+00 -.654759227204D-05 0.631317579689D-06 0.000000000000D+00  7 -1 1 23 -11 11 23 21 2 0.15386448D+00 0.20266415D-01 0.67825218D+05 0.67825218D+05 0.67825218D+05 0.11358267D+01  1  2  5  1  7  1       -1 -.264042913816D-03 0.100000000000D+01
0.196906009687D-04 0.000000000000D+00 0.623947093653D-05 0.631317579689D-06 0.000000000000D+00  7 -1 1 23 -11 11 23 21 2 0.11251449D+00 0.20266415D-01 0.67825218D+05 0.67825218D+05 0.67825218D+05 0.11358267D+01  1  2  6  1  7  1       -1 0.635542664585D-03 0.100000000000D+01
0.335864318546D-06 0.000000000000D+00 0.000000000000D+00 0.631317579689D-06 0.000000000000D+00  7 21 1 23 -11 11 23 1 2 0.14796554D+00 0.20266415D-01 0.10238541D+06 0.10238541D+06 0.10238541D+06 0.11208829D+01  1  2 12  3  7  1       -1 0.337171374133D-04 0.100000000000D+01
-.572879227452D-06 0.000000000000D+00 -.260961134994D-06 0.631317579689D-06 0.000000000000D+00  7 21 1 23 -11 11 23 1 2 0.15386448D+00 0.20266415D-01 0.67825218D+05 0.67825218D+05 0.67825218D+05 0.11358267D+01  1  2  5  3  7  1       -1 -.539497360592D-04 0.100000000000D+01
  </mgrwgt>
  </event>
  <event>
  8     66 0.27784906E-05 0.64465762E+03 0.75467711E-02 0.80683434E-01
       -1 -1    0    0    0  501 0.00000000E+00 0.00000000E+00 0.19534269E+03 0.19534296E+03 0.32000000E+00 0.0000E+00 0.9000E+01
        1 -1    0    0  501    0 0.00000000E+00 0.00000000E+00 -.23424183E+04 0.23424184E+04 0.32000000E+00 0.0000E+00 0.9000E+01
       25  2    1    2    0    0 -.54662951E+03 0.30874836E+03 -.13532883E+04 0.15216201E+04 0.29968175E+03 0.0000E+00 0.0000E+00
       23  2    3    3    0    0 -.12016601E+03 -.72385133E+00 -.45440256E+03 0.47569708E+03 0.73250421E+02 0.0000E+00 0.0000E+00
       23  1    1    2    0    0 0.54662951E+03 -.30874836E+03 -.79378735E+03 0.10161412E+04 0.91188000E+02 0.0000E+00 0.9000E+01
      -13  1    4    4    0    0 -.16990310E+02 0.44011799E+00 -.20622913E+03 0.20692831E+03 0.10565837E+00 0.0000E+00 0.9000E+01
       13  1    4    4    0    0 -.10317570E+03 -.11639693E+01 -.24817344E+03 0.26876876E+03 0.10565837E+00 0.0000E+00 0.9000E+01
       23  1    3    3    0    0 -.42646349E+03 0.30947221E+03 -.89888574E+03 0.10459230E+04 0.91188000E+02 0.0000E+00 0.9000E+01
#aMCatNLO 1  0  0  2  1 0.19314311D+04 0.00000000D+00  -5  7  0 0.00000000D+00 0.00000000D+00 0.00000000D+00 0.00000000D+00 0.00000000D+00
  <mgrwgt>
 0.3635593013D-02    3    2    0
 0.676442658843424D+03 0.000000000000000D+00 0.000000000000000D+00 0.676442658843424D+03
 0.676442658843424D+03 0.000000000000000D+00 0.000000000000000D+00 -.676442658843424D+03
 0.646324104873280D+03 0.546629507412167D+03 -.308748358054966D+03 0.123653670470962D+03
 0.608662103073089D+02 -.169901309043778D+02 0.440121279866140D+00 -.584451649179355D+02
 0.110300524248817D+03 -.103175881525816D+03 -.116397272450768D+01 -.389818969321798D+02
 0.535394478257443D+03 -.426463494981973D+03 0.309472209499608D+03 -.262266086208466D+02
 0.000000000000000D+00 -.000000000000000D+00 -.000000000000000D+00 0.000000000000000D+00
 0.282562568486227D+04 0.000000000000000D+00 0.000000000000000D+00 0.282562568486227D+04
 0.174545423016317D+04 0.000000000000000D+00 0.000000000000000D+00 -.174545423016317D+04
 0.164056325805713D+04 0.162049466219882D+04 0.204546747486252D+03 0.123653670470962D+03
 0.844782922460217D+02 0.512600152382905D+02 0.330629006030899D+02 -.584451649179355D+02
 0.586439010096828D+02 -.238438014586610D+02 0.367558426539557D+02 -.389818969321798D+02
 0.574433450738230D+03 0.946839651318101D+02 0.558574659047649D+03 -.262266086208466D+02
 0.221296101297439D+04 -.174259484111026D+04 -.832940149790947D+03 0.108017145469910D+04
0.169988610605D-02 0.000000000000D+00 0.000000000000D+00 0.837362230366D-08 0.000000000000D+00  7 -1 1 23 -13 13 23 21 0 0.30052744D-01 0.36037207D+00 0.41558344D+06 0.41558344D+06 0.41558344D+06 0.10742331D+01  1  2  2  2  7  2        1 0.360317070064D-02 0.100000000000D+01
-.941721483616D-04 0.000000000000D+00 -.652801023752D-05 0.837362230366D-08 0.000000000000D+00  7 -1 1 23 -13 13 23 21 2 0.30052744D-01 0.36037207D+00 0.41558344D+06 0.41558344D+06 0.41558344D+06 0.10742331D+01  1  2  3  2  7  2        1 -.230348061207D-03 0.100000000000D+01
0.107427214684D-03 0.000000000000D+00 0.000000000000D+00 0.837362230366D-08 0.000000000000D+00  7 -1 1 23 -13 13 23 21 2 0.30052744D-01 0.36037207D+00 0.41558344D+06 0.41558344D+06 0.41558344D+06 0.10742331D+01  1  2 15  2  7  2        1 0.262770373766D-03 0.100000000000D+01
  </mgrwgt>
  </event>
  <event>
  8     66 0.27784906E-05 0.20520799E+03 0.75467711E-02 0.96672743E-01
       -1 -1    0    0    0  501 0.00000000E+00 0.00000000E+00 0.15004263E+03 0.15004297E+03 0.32000000E+00 0.0000E+00 0.9000E+01
        1 -1    0    0  501    0 0.00000000E+00 0.00000000E+00 -.29868045E+03 0.29868062E+03 0.32000000E+00 0.0000E+00 0.9000E+01
       25  2    1    2    0    0 0.55926423E+02 -.42666643E+02 -.10396317E+03 0.32519512E+03 0.29999220E+03 0.0000E+00 0.0000E+00
       23  2    3    3    0    0 0.74795821E+02 0.81203849E+02 -.93535175E+02 0.16987627E+03 0.88997963E+02 0.0000E+00 0.0000E+00
       23  1    1    2    0    0 -.55926423E+02 0.42666643E+02 -.44674654E+02 0.12352847E+03 0.91188000E+02 0.0000E+00 0.9000E+01
      -11  1    4    4    0    0 0.43050440E+02 -.95824161E+01 -.18219403E+02 0.47719071E+02 0.51099893E-03 0.0000E+00 0.9000E+01
       11  1    4    4    0    0 0.31745381E+02 0.90786265E+02 -.75315772E+02 0.12215720E+03 0.51099893E-03 0.0000E+00 0.9000E+01
       23  1    3    3    0    0 -.18869398E+02 -.12387049E+03 -.10427993E+02 0.15531886E+03 0.91188000E+02 0.0000E+00 0.9000E+01
#aMCatNLO 1  0  0  2  2 0.32096519D+03 0.00000000D+00  -5  7  0 0.00000000D+00 0.00000000D+00 0.00000000D+00 0.00000000D+00 0.00000000D+00
  <mgrwgt>
 0.3947837093D-03    3    2    0
 0.211695337758990D+03 0.000000000000000D+00 0.000000000000000D+00 0.211695337758990D+03
 0.211695337758990D+03 0.000000000000000D+00 0.000000000000000D+00 -.211695337758990D+03
 0.115235879631981D+03 -.559264234641140D+02 0.426666434702116D+02 -.398111844271578D+01
 0.441780654129171D+02 0.430504404997623D+02 -.958241612476423D+01 -.255701732811217D+01
 0.103025519154600D+03 0.317453807006048D+02 0.907862648292859D+02 -.369370074531661D+02
 0.160951211318481D+03 -.188693977362531D+02 -.123870492174733D+03 0.434751432239941D+02
 0.000000000000000D+00 0.000000000000000D+00 0.000000000000000D+00 0.000000000000000D+00
 0.626711928799442D+03 0.000000000000000D+00 0.000000000000000D+00 0.626711928799442D+03
 0.336979548479391D+03 0.000000000000000D+00 0.000000000000000D+00 -.336979548479391D+03
 0.161262357718617D+03 -.132573911318664D+03 -.993002550767766D+01 -.398111844271578D+01
 0.326383588130428D+02 0.217563230424291D+02 -.241947625751138D+02 -.255701732811217D+01
 0.704993007080666D+02 -.163570652691396D+02 0.577776366469956D+02 -.369370074531661D+02
 0.266898691648420D+03 -.137472758667064D+03 -.205257917766304D+03 0.434751432239941D+02
 0.432392768390688D+03 0.264647412212439D+03 0.181605069202099D+03 0.289732380320052D+03
0.241890699848D-05 0.000000000000D+00 0.000000000000D+00 0.397117530903D-07 0.000000000000D+00  7 -1 1 23 -11 11 23 21 0 0.23083521D-01 0.45950878D-01 0.42110317D+05 0.42110317D+05 0.42110317D+05 0.11539139D+01  1  2  2  2  7  2        1 0.389810787539D-03 0.100000000000D+01
-.134225443406D-06 0.000000000000D+00 -.928923978701D-08 0.397117530903D-07 0.000000000000D+00  7 -1 1 23 -11 11 23 21 2 0.23083521D-01 0.45950878D-01 0.42110317D+05 0.42110317D+05 0.42110317D+05 0.11539139D+01  1  2  3  2  7  2        1 -.288015815455D-04 0.100000000000D+01
0.157400998173D-06 0.000000000000D+00 0.000000000000D+00 0.397117530903D-07 0.000000000000D+00  7 -1 1 23 -11 11 23 21 2 0.23083521D-01 0.45950878D-01 0.42110317D+05 0.42110317D+05 0.42110317D+05 0.11539139D+01  1  2 15  2  7  2        1 0.337745033220D-04 0.100000000000D+01
  </mgrwgt>
  </event>
  <event>
  8     66 0.27784906E-05 0.72822870E+03 0.75467711E-02 0.90297688E-01
       -1 -1    0    0    0  501 0.00000000E+00 0.00000000E+00 0.37629840E+03 0.37629853E+03 0.32000000E+00 0.0000E+00 0.9000E+01
        1 -1    0    0  501    0 0.00000000E+00 0.00000000E+00 -.18217609E+04 0.18217609E+04 0.32000000E+00 0.0000E+00 0.9000E+01
       25  2    1    2    0    0 0.13631464E+02 -.69509908E+03 -.12645231E+04 0.14739028E+04 0.30003711E+03 0.0000E+00 0.0000E+00
       23  2    3    3    0    0 0.11488052E+03 -.47912530E+03 -.88549915E+03 0.10168793E+04 0.84712790E+02 0.0000E+00 0.0000E+00
       23  1    1    2    0    0 -.13631464E+02 0.69509908E+03 -.18093942E+03 0.72415667E+03 0.91188000E+02 0.0000E+00 0.9000E+01
      -11  1    4    4    0    0 0.12651034E+03 -.46332329E+03 -.85285660E+03 0.97879401E+03 0.51099893E-03 0.0000E+00 0.9000E+01
       11  1    4    4    0    0 -.11629813E+02 -.15802007E+02 -.32642559E+02 0.38085334E+02 0.51099893E-03 0.0000E+00 0.9000E+01
       23  1    3    3    0    0 -.10124906E+03 -.21597379E+03 -.37902394E+03 0.45702347E+03 0.91188000E+02 0.0000E+00 0.9000E+01
#aMCatNLO 1  0  0  1  2 0.35326962D+02 0.00000000D+00  -5  7  0 0.00000000D+00 0.00000000D+00 0.00000000D+00 0.00000000D+00 0.00000000D+00
  <mgrwgt>
 0.8582432770D-03    3    2    0
 0.827964908650957D+03 0.000000000000000D+00 0.000000000000000D+00 0.827964908650957D+03
 0.827964908650957D+03 0.000000000000000D+00 0.000000000000000D+00 -.827964908650957D+03
 0.803293869484283D+03 -.136314642246747D+02 0.695099082712893D+03 0.391940349800603D+03
 0.554779066366318D+03 0.126510336787569D+03 -.463323288924448D+03 -.277680530654225D+03
 0.220602544658898D+02 -.116298134685086D+02 -.158020068997416D+02 -.100845844598591D+02
 0.275796626985423D+03 -.101249059094386D+03 -.215973786888703D+03 -.104175234686519D+03
 0.000000000000000D+00 -.000000000000000D+00 0.000000000000000D+00 -.000000000000000D+00
 0.828342076546971D+03 0.000000000000000D+00 0.000000000000000D+00 0.828342076546971D+03
 0.248089442675777D+04 0.000000000000000D+00 0.000000000000000D+00 -.248089442675777D+04
 0.795969110579697D+03 0.124552397129047D+01 0.686755258095088D+03 0.391940349800603D+03
 0.562094403647078D+03 0.136899943523237D+03 -.469150345806423D+03 -.277680530654225D+03
 0.220137851071952D+02 -.112198190056523D+02 -.160319541072867D+02 -.100845844598591D+02
 0.276229300919530D+03 -.961138916355733D+02 -.218853868266399D+03 -.104175234686519D+03
 0.165292990305124D+04 -.308117568533016D+02 0.172809100850203D+02 -.165255235021080D+04
0.582074206690D-03 0.000000000000D+00 0.000000000000D+00 0.274620083399D-06 0.000000000000D+00  7 -1 1 23 -11 11 23 21 0 0.57892074D-01 0.28027092D+00 0.53031703D+06 0.53031703D+06 0.53031703D+06 0.10667082D+01  1  2  2  1  7  1       -1 0.849609000300D-03 0.100000000000D+01
-.316896913357D-04 0.000000000000D+00 -.223531821735D-05 0.274620083399D-06 0.000000000000D+00  7 -1 1 23 -11 11 23 21 2 0.57892074D-01 0.28027092D+00 0.53031703D+06 0.53031703D+06 0.53031703D+06 0.10667082D+01  1  2  3  1  7  1       -1 -.526320221291D-04 0.100000000000D+01
0.368883812645D-04 0.000000000000D+00 0.000000000000D+00 0.274620083399D-06 0.000000000000D+00  7 -1 1 23 -11 11 23 21 2 0.57892074D-01 0.28027092D+00 0.53031703D+06 0.53031703D+06 0.53031703D+06 0.10667082D+01  1  2 15  1  7  1       -1 0.612662988243D-04 0.100000000000D+01
  </mgrwgt>
  </event>
  <event>
  8     66 0.27784906E-05 0.32261827E+03 0.75467711E-02 0.85271116E-01
       -1 -1    0    0    0  501 0.00000000E+00 0.00000000E+00 0.58332691E+03 0.58332699E+03 0.32000000E+00 0.0000E+00 0.9000E+01
        1 -1    0    0  501    0 0.00000000E+00 0.00000000E+00 -.28460934E+03 0.28460952E+03 0.32000000E+00 0.0000E+00 0.9000E+01
       25  2    1    2    0    0 -.12738359E+03 0.22528044E+03 0.41119014E+03 0.57138435E+03 0.30070731E+03 0.0000E+00 0.0000E+00
       23  2    3    3    0    0 0.34544963E+02 0.15539132E+03 0.27281304E+03 0.32937440E+03 0.93384795E+02 0.0000E+00 0.0000E+00
       23  1    1    2    0    0 0.12738359E+03 -.22528044E+03 -.11247258E+03 0.29655217E+03 0.91188000E+02 0.0000E+00 0.9000E+01
      -11  1    4    4    0    0 0.54476005E+02 0.11537423E+03 0.24633366E+03 0.27741507E+03 0.51099893E-03 0.0000E+00 0.9000E+01
       11  1    4    4    0    0 -.19931042E+02 0.40017088E+02 0.26479377E+02 0.51959322E+02 0.51099893E-03 0.0000E+00 0.9000E+01
       23  1    3    3    0    0 -.16192855E+03 0.69889116E+02 0.13837710E+03 0.24200996E+03 0.91188000E+02 0.0000E+00 0.9000E+01
#aMCatNLO 1  0  0  2  2 0.11608316D+04 0.00000000D+00  -5  7  0 0.00000000D+00 0.00000000D+00 0.00000000D+00 0.00000000D+00 0.00000000D+00
  <mgrwgt>
 0.4843385432D-03    5    2    0
 0.407456014393461D+03 0.000000000000000D+00 0.000000000000000D+00 0.407456014393461D+03
 0.407456014393461D+03 0.000000000000000D+00 0.000000000000000D+00 -.407456014393461D+03
 0.357076566325988D+03 0.127383588812984D+03 -.225280437016481D+03 -.228496321357578D+03
 0.205168747739514D+03 0.544760054499748D+02 0.115374233222969D+03 0.160671609774181D+03
 0.456338068673794D+02 -.199310420231401D+02 0.400170878970197D+02 0.915590352304481D+01
 0.207032907854040D+03 -.161928552239819D+03 0.698891158964916D+02 0.586688080603525D+02
 0.000000000000000D+00 -.000000000000000D+00 -.000000000000000D+00 -.000000000000000D+00
 0.106088648238962D+04 0.000000000000000D+00 0.000000000000000D+00 0.106088648238962D+04
 0.166694383087228D+04 0.000000000000000D+00 0.000000000000000D+00 -.166694383087228D+04
 0.721482957947025D+03 0.671963592502769D+03 -.920693691779005D+02 -.228496321357578D+03
 0.471514293701580D+03 0.396142872147196D+03 0.198950214436788D+03 0.160671609774181D+03
 0.653894197423621D+02 0.361261600098563D+02 0.537293793735026D+02 0.915590352304481D+01
 0.159926316287052D+03 0.233543655216785D+02 0.115211630788751D+03 0.586688080603525D+02
 0.130951732558388D+04 -.112758699018150D+04 -.275821855421141D+03 -.606057348482654D+03
0.302663401500D-04 0.000000000000D+00 0.000000000000D+00 0.155621630573D-06 0.000000000000D+00  7 -1 1 23 -11 11 23 21 0 0.89742622D-01 0.43786073D-01 0.10408255D+06 0.10408255D+06 0.10408255D+06 0.11202988D+01  1  2  2  2  7  2        1 0.455203680190D-03 0.100000000000D+01
-.157003242965D-05 0.000000000000D+00 -.116230715486D-06 0.155621630573D-06 0.000000000000D+00  7 -1 1 23 -11 11 23 21 2 0.89742622D-01 0.43786073D-01 0.10408255D+06 0.10408255D+06 0.10408255D+06 0.11202988D+01  1  2  3  2  7  2        1 -.296361781010D-04 0.100000000000D+01
0.193040217062D-05 0.000000000000D+00 0.000000000000D+00 0.155621630573D-06 0.000000000000D+00  7 -1 1 23 -11 11 23 21 2 0.89742622D-01 0.43786073D-01 0.10408255D+06 0.10408255D+06 0.10408255D+06 0.11202988D+01  1  2 15  2  7  2        1 0.364385737864D-04 0.100000000000D+01
0.424489026931D-04 0.000000000000D+00 -.184106518866D-04 0.155621630573D-06 0.000000000000D+00  7 -1 1 23 -11 11 23 21 2 0.89742622D-01 0.33814798D+00 0.10408255D+06 0.10408255D+06 0.10408255D+06 0.11202988D+01  1  2  5  2  7  2        1 0.204727713104D-04 0.100000000000D+01
0.847649287717D-05 0.000000000000D+00 -.457833884163D-05 0.155621630573D-06 0.000000000000D+00  7 -1 21 23 -11 11 23 -1 2 0.89742622D-01 0.33814798D+00 0.10408255D+06 0.10408255D+06 0.10408255D+06 0.11202988D+01  1  2  5  4  7  2        1 0.185969598703D-05 0.100000000000D+01
  </mgrwgt>
  </event>
  <event>
  8     66 0.27784906E-05 0.29761467E+03 0.75467711E-02 0.95573165E-01
       -1 -1    0    0    0  501 0.00000000E+00 0.00000000E+00 0.18369240E+03 0.18369268E+03 0.32000000E+00 0.0000E+00 0.9000E+01
        1 -1    0    0  501    0 0.00000000E+00 0.00000000E+00 -.75943019E+03 0.75943026E+03 0.32000000E+00 0.0000E+00 0.9000E+01
       25  2    1    2    0    0 0.20887815E+03 0.49706571E+02 -.60422689E+03 0.70811718E+03 0.30039803E+03 0.0000E+00 0.0000E+00
       23  2    3    3    0    0 -.16704331E+02 0.77115833E+02 -.24847369E+03 0.27624414E+03 0.91355166E+02 0.0000E+00 0.0000E+00
       23  1    1    2    0    0 -.20887815E+03 -.49706571E+02 0.28489097E+02 0.23500576E+03 0.91188000E+02 0.0000E+00 0.9000E+01
      -11  1    4    4    0    0 -.43705931E+02 0.78734385E+02 -.15853490E+03 0.18232560E+03 0.51099893E-03 0.0000E+00 0.9000E+01
       11  1    4    4    0    0 0.27001599E+02 -.16185519E+01 -.89938790E+02 0.93918540E+02 0.51099893E-03 0.0000E+00 0.9000E+01
       23  1    3    3    0    0 0.22558248E+03 -.27409263E+02 -.35575320E+03 0.43187303E+03 0.91188000E+02 0.0000E+00 0.9000E+01
#aMCatNLO 1  0  0  1  1 0.27118007D+03 0.00000000D+00  -5  7  0 0.00000000D+00 0.00000000D+00 0.00000000D+00 0.00000000D+00 0.00000000D+00
  <mgrwgt>
 0.6619554689D-03    3    2    0
 0.373499283944382D+03 0.000000000000000D+00 0.000000000000000D+00 0.373499283944382D+03
 0.373499283944382D+03 0.000000000000000D+00 0.000000000000000D+00 -.373499283944382D+03
 0.318664022881401D+03 -.208878152309143D+03 -.497065709161783D+02 0.217096021222480D+03
 0.108006800881573D+03 -.437059305321872D+02 0.787343853801986D+02 -.596335243951727D+02
 0.492578827203866D+02 0.270015993447355D+02 -.161855194595608D+01 -.411659195514929D+02
 0.271069861405404D+03 0.225582483496595D+03 -.274092625180642D+02 -.116296577275814D+03
 0.000000000000000D+00 -.000000000000000D+00 -.000000000000000D+00 -.000000000000000D+00
 0.446017910679001D+03 0.000000000000000D+00 0.000000000000000D+00 0.446017910679001D+03
 0.775100137306969D+03 0.000000000000000D+00 0.000000000000000D+00 -.775100137306969D+03
 0.311856081841214D+03 -.195354653309822D+03 0.603725222010964D+02 0.217096021222480D+03
 0.141338285145031D+03 -.383579360810829D+02 0.122266194655547D+03 -.596335243951727D+02
 0.530153163294471D+02 0.291951717536854D+02 0.162367724398714D+02 -.411659195514929D+02
 0.288488683014902D+03 0.237583987269196D+03 0.702810357840135D+02 -.116296577275814D+03
 0.426419681655376D+03 -.330665696319757D+02 -.269156525080528D+03 -.329082226627968D+03
0.204918736445D-04 0.000000000000D+00 0.000000000000D+00 0.963863375355D-06 0.000000000000D+00  7 -1 1 23 -11 11 23 21 0 0.28260395D-01 0.11683544D+00 0.88574489D+05 0.88574489D+05 0.88574489D+05 0.11260718D+01  1  2  2  1  7  1       -1 0.653654973374D-03 0.100000000000D+01
-.106703909375D-05 0.000000000000D+00 -.786941904290D-07 0.963863375355D-06 0.000000000000D+00  7 -1 1 23 -11 11 23 21 2 0.28260395D-01 0.11683544D+00 0.88574489D+05 0.88574489D+05 0.88574489D+05 0.11260718D+01  1  2  3  1  7  1       -1 -.431597969033D-04 0.100000000000D+01
0.127225213663D-05 0.000000000000D+00 0.000000000000D+00 0.963863375355D-06 0.000000000000D+00  7 -1 1 23 -11 11 23 21 2 0.28260395D-01 0.11683544D+00 0.88574489D+05 0.88574489D+05 0.88574489D+05 0.11260718D+01  1  2 15  1  7  1       -1 0.514602924564D-04 0.100000000000D+01
  </mgrwgt>
  </event>
  <event>
  8     66 0.27784906E-05 0.17579699E+03 0.75467711E-02 0.10042797E+00
       -1 -1    0    0    0  501 0.00000000E+00 0.00000000E+00 0.10728461E+03 0.10728509E+03 0.32000000E+00 0.0000E+00 0.9000E+01
        1 -1    0    0  501    0 0.00000000E+00 0.00000000E+00 -.79763631E+03 0.79763638E+03 0.32000000E+00 0.0000E+00 0.9000E+01
       25  2    1    2    0    0 0.16411985E+03 0.53155014E+00 -.23901950E+03 0.41609470E+03 0.29844408E+03 0.0000E+00 0.0000E+00
       23  2    3    3    0    0 0.15362270E+03 0.93159891E+02 -.10169241E+03 0.22671629E+03 0.93702895E+02 0.0000E+00 0.0000E+00
       23  1    1    2    0    0 -.16411985E+03 -.53155014E+00 -.45133220E+03 0.48882677E+03 0.91188000E+02 0.0000E+00 0.9000E+01
      -11  1    4    4    0    0 0.13100483E+03 0.10637903E+03 -.10722630E+03 0.19994060E+03 0.51099893E-03 0.0000E+00 0.9000E+01
       11  1    4    4    0    0 0.22617871E+02 -.13219141E+02 0.55338927E+01 0.26775693E+02 0.51099893E-03 0.0000E+00 0.9000E+01
       23  1    3    3    0    0 0.10497148E+02 -.92628341E+02 -.13732709E+03 0.18937840E+03 0.91188000E+02 0.0000E+00 0.9000E+01
#aMCatNLO 1  0  0  2  1 0.96924250D+02 0.00000000D+00  -5  7  0 0.00000000D+00 0.00000000D+00 0.00000000D+00 0.00000000D+00 0.00000000D+00
  <mgrwgt>
 0.5747161904D-03    9    2    0
 0.292530936499606D+03 0.000000000000000D+00 0.000000000000000D+00 0.292530936499606D+03
 0.292530936499606D+03 0.000000000000000D+00 0.000000000000000D+00 -.292530936499606D+03
 0.223518049245456D+03 -.164119845392748D+03 -.531550135473507D+00 -.121282565924406D+03
 0.182727134240181D+03 0.131004826124325D+03 0.106379032130018D+03 0.700745506075163D+02
 0.479440436757042D+02 0.226178710559415D+02 -.132191412867207D+02 0.401536740101868D+02
 0.130872645837870D+03 0.104971482124824D+02 -.926283407078239D+02 0.110543413067030D+02
 0.000000000000000D+00 0.000000000000000D+00 -.000000000000000D+00 -.000000000000000D+00
 0.322252020843778D+03 0.000000000000000D+00 0.000000000000000D+00 0.322252020843778D+03
 0.387781544815670D+03 0.000000000000000D+00 0.000000000000000D+00 -.387781544815670D+03
 0.252873163000455D+03 -.202076159792549D+03 0.923851006076745D+01 -.121282565924406D+03
 0.168592908344805D+03 0.103013516359308D+03 0.113584072600894D+03 0.700745506075163D+02
 0.444228912488999D+02 0.152585656531070D+02 -.113248357429614D+02 0.401536740101868D+02
 0.127147044306641D+03 -.100604864136762D+02 -.873367487562367D+02 0.110543413067030D+02
 0.116997558758648D+03 0.938645641938103D+02 -.241609981624630D+02 -.655295239718920D+02
0.630231336125D-05 0.000000000000D+00 0.000000000000D+00 0.130194325042D-07 0.000000000000D+00  7 -1 1 23 -11 11 23 21 0 0.16505367D-01 0.12271332D+00 0.65820770D+05 0.65820770D+05 0.65820770D+05 0.11369394D+01  1  2  2  2  7  2        1 0.444477521745D-03 0.100000000000D+01
-.342797868521D-06 0.000000000000D+00 -.242025427444D-07 0.130194325042D-07 0.000000000000D+00  7 -1 1 23 -11 11 23 21 2 0.16505367D-01 0.12271332D+00 0.65820770D+05 0.65820770D+05 0.65820770D+05 0.11369394D+01  1  2  3  2  7  2        1 -.312509019765D-04 0.100000000000D+01
0.404885350107D-06 0.000000000000D+00 0.000000000000D+00 0.130194325042D-07 0.000000000000D+00  7 -1 1 23 -11 11 23 21 2 0.16505367D-01 0.12271332D+00 0.65820770D+05 0.65820770D+05 0.65820770D+05 0.11369394D+01  1  2 15  2  7  2        1 0.369110591104D-04 0.100000000000D+01
0.508465563148D-05 0.000000000000D+00 0.000000000000D+00 0.130194325042D-07 0.000000000000D+00  7 -1 1 23 -11 11 23 21 2 0.16505367D-01 0.16734421D+00 0.95426067D+05 0.95426067D+05 0.95426067D+05 0.11233944D+01  1  2 12  2  7  2        1 0.267997448984D-03 0.100000000000D+01
-.597377489440D-05 0.000000000000D+00 0.000000000000D+00 0.130194325042D-07 0.000000000000D+00  7 -1 1 23 -11 11 23 21 2 0.16505367D-01 0.12271332D+00 0.65820770D+05 0.65820770D+05 0.65820770D+05 0.11369394D+01  1  2  4  2  7  2        1 -.544594557894D-03 0.100000000000D+01
-.891404641383D-05 0.000000000000D+00 -.286454858430D-05 0.130194325042D-07 0.000000000000D+00  7 -1 1 23 -11 11 23 21 2 0.16505367D-01 0.17237732D+00 0.65820770D+05 0.65820770D+05 0.65820770D+05 0.11369394D+01  1  2  5  2  7  2        1 -.458574015136D-03 0.100000000000D+01
0.949193150345D-05 0.000000000000D+00 0.270674087280D-05 0.130194325042D-07 0.000000000000D+00  7 -1 1 23 -11 11 23 21 2 0.16505367D-01 0.12271332D+00 0.65820770D+05 0.65820770D+05 0.65820770D+05 0.11369394D+01  1  2  6  2  7  2        1 0.865324578188D-03 0.100000000000D+01
0.201350841546D-06 0.000000000000D+00 0.000000000000D+00 0.130194325042D-07 0.000000000000D+00  7 -1 21 23 -11 11 23 -1 2 0.16505367D-01 0.16734421D+00 0.95426067D+05 0.95426067D+05 0.95426067D+05 0.11233944D+01  1  2 12  4  7  2        1 0.132633772169D-04 0.100000000000D+01
-.299395856600D-06 0.000000000000D+00 -.121142767208D-06 0.130194325042D-07 0.000000000000D+00  7 -1 21 23 -11 11 23 -1 2 0.16505367D-01 0.17237732D+00 0.65820770D+05 0.65820770D+05 0.65820770D+05 0.11369394D+01  1  2  5  4  7  2        1 -.188383198465D-04 0.100000000000D+01
  </mgrwgt>
  </event>
  <event>
  8     66 0.27784906E-05 0.26671141E+03 0.75467711E-02 0.96865684E-01
       -1 -1    0    0    0  501 0.00000000E+00 0.00000000E+00 0.51675205E+02 0.51676195E+02 0.32000000E+00 0.0000E+00 0.9000E+01
        1 -1    0    0  501    0 0.00000000E+00 0.00000000E+00 -.19340736E+04 0.19340736E+04 0.32000000E+00 0.0000E+00 0.9000E+01
       25  2    1    2    0    0 -.12109953E+03 -.15764300E+03 -.74224012E+03 0.82480514E+03 0.29977777E+03 0.0000E+00 0.0000E+00
       23  2    3    3    0    0 -.96090482E+02 0.10086753E+02 -.49393009E+03 0.51058891E+03 0.86017265E+02 0.0000E+00 0.0000E+00
       23  1    1    2    0    0 0.12109953E+03 0.15764300E+03 -.11401583E+04 0.11609447E+04 0.91188000E+02 0.0000E+00 0.9000E+01
      -13  1    4    4    0    0 -.24368508E+02 0.38056094E+02 -.27098223E+03 0.27472436E+03 0.10565837E+00 0.0000E+00 0.9000E+01
       13  1    4    4    0    0 -.71721974E+02 -.27969341E+02 -.22294786E+03 0.23586455E+03 0.10565837E+00 0.0000E+00 0.9000E+01
       23  1    3    3    0    0 -.25009044E+02 -.16772975E+03 -.24831003E+03 0.31421624E+03 0.91188000E+02 0.0000E+00 0.9000E+01
#aMCatNLO 1  0  0  1  1 0.25062848D+03 0.00000000D+00  -5  7  0 0.00000000D+00 0.00000000D+00 0.00000000D+00 0.00000000D+00 0.00000000D+00
  <mgrwgt>
 0.6456644385D-03    3    2    0
 0.316140252869503D+03 0.000000000000000D+00 0.000000000000000D+00 0.316140252869503D+03
 0.316140252869503D+03 0.000000000000000D+00 0.000000000000000D+00 -.316140252869503D+03
 0.251650314423959D+03 0.121099526961056D+03 0.157642998760455D+03 -.124483809860146D+03
 0.560468050836500D+02 -.243684374522275D+02 0.380561936443860D+02 -.331534272967746D+02
 0.770090324845272D+02 -.717220448492427D+02 -.279694400555858D+02 0.201240896021994D+01
 0.247574353746870D+03 -.250090446595857D+02 -.167729752349255D+03 0.155624828196700D+03
 0.000000000000000D+00 0.000000000000000D+00 -.000000000000000D+00 -.000000000000000D+00
 0.377825418997503D+03 0.000000000000000D+00 0.000000000000000D+00 0.377825418997503D+03
 0.756013873234481D+03 0.000000000000000D+00 0.000000000000000D+00 -.756013873234481D+03
 0.331445449499945D+03 0.117150267787280D+03 0.268924581416969D+03 -.124483809860146D+03
 0.757074841313409D+02 -.252607983088132D+02 0.632009927198630D+02 -.331534272967746D+02
 0.727668947798365D+02 -.727364647633561D+02 0.614719290151609D+00 0.201240896021994D+01
 0.200222270295129D+03 -.280419339976644D+02 -.822694898765872D+02 0.155624828196700D+03
 0.453697193525733D+03 0.888892928255332D+01 -.250470803550397D+03 -.378188454236978D+03
0.180716777249D-04 0.000000000000D+00 0.000000000000D+00 0.247730393183D-07 0.000000000000D+00  7 -1 1 23 -13 13 23 21 0 0.79501097D-02 0.29754986D+00 0.71134974D+05 0.71134974D+05 0.71134974D+05 0.11340663D+01  1  2  2  1  7  1       -1 0.636787316921D-03 0.100000000000D+01
-.968696201152D-06 0.000000000000D+00 -.694000008456D-07 0.247730393183D-07 0.000000000000D+00  7 -1 1 23 -13 13 23 21 2 0.79501097D-02 0.29754986D+00 0.71134974D+05 0.71134974D+05 0.71134974D+05 0.11340663D+01  1  2  3  1  7  1       -1 -.438995847857D-04 0.100000000000D+01
0.116458037702D-05 0.000000000000D+00 0.000000000000D+00 0.247730393183D-07 0.000000000000D+00  7 -1 1 23 -13 13 23 21 2 0.79501097D-02 0.29754986D+00 0.71134974D+05 0.71134974D+05 0.71134974D+05 0.11340663D+01  1  2 15  1  7  1       -1 0.527767064019D-04 0.100000000000D+01
  </mgrwgt>
  </event>
  <event>
  9     66 -.27784906E-05 0.34063696E+03 0.75467711E-02 0.98953309E-01
       -3 -1    0    0    0  501 0.00000000E+00 0.00000000E+00 0.87419869E+03 0.87419883E+03 0.50000000E+00 0.0000E+00 0.9000E+01
        3 -1    0    0  502    0 0.00000000E+00 0.00000000E+00 -.31879222E+03 0.31879261E+03 0.50000000E+00 0.0000E+00 0.9000E+01
       25  2    1    2    0    0 -.28066499E+03 -.12468980E+03 0.70801126E+03 0.82699488E+03 0.29718715E+03 0.0000E+00 0.0000E+00
       23  2    3    3    0    0 -.76273780E+02 -.50069661E+02 0.48633773E+03 0.50326917E+03 0.91819421E+02 0.0000E+00 0.0000E+00
       23  1    1    2    0    0 0.27254564E+03 0.13596741E+03 -.15104889E+03 0.35199329E+03 0.91188000E+02 0.0000E+00 0.9000E+01
      -11  1    4    4    0    0 -.78518310E+02 -.19590512E+01 0.24899605E+03 0.26109002E+03 0.51099893E-03 0.0000E+00 0.9000E+01
       11  1    4    4    0    0 0.22445297E+01 -.48110610E+02 0.23734168E+03 0.24217915E+03 0.51099893E-03 0.0000E+00 0.9000E+01
       23  1    3    3    0    0 -.20439121E+03 -.74620139E+02 0.22167353E+03 0.32372571E+03 0.91188000E+02 0.0000E+00 0.9000E+01
       21  1    1    2  502  501 0.81193527E+01 -.11277611E+02 -.15558991E+01 0.14003275E+02 0.75000000E+00 0.0000E+00 0.9000E+01
#aMCatNLO 2  0  0  2  1 0.13896344D+02 0.00000000D+00  -5  7  0 0.00000000D+00 0.00000000D+00 0.00000000D+00 0.00000000D+00 0.00000000D+00
  <mgrwgt>
 -.2206438638D-04    3    2    0
 0.519522115356812D+03 0.000000000000000D+00 0.000000000000000D+00 0.519522115356812D+03
 0.519522115356812D+03 0.000000000000000D+00 0.000000000000000D+00 -.519522115356812D+03
 0.481022814911109D+03 0.276301577492279D+03 0.130750486270315D+03 -.360040894533331D+03
 0.162192504506534D+03 -.772486961676705D+02 -.372251770466232D+01 0.142566441775179D+03
 0.148113776787454D+03 0.339971596245569D+01 -.497151397503148D+02 0.139479524250784D+03
 0.247715134508526D+03 -.202452597287064D+03 -.773128288153377D+02 0.779949285073676D+02
 0.000000000000000D+00 0.000000000000000D+00 -.000000000000000D+00 -.000000000000000D+00
 0.523285684850184D+03 0.000000000000000D+00 0.000000000000000D+00 0.523285684850184D+03
 0.532556385542914D+03 0.000000000000000D+00 0.000000000000000D+00 -.532556385542914D+03
 0.480325886557840D+03 0.272545635269396D+03 0.135967411216126D+03 -.360040894533331D+03
 0.162770246542406D+03 -.785183096967303D+02 -.195905115000200D+01 0.142566441775179D+03
 0.147560856650258D+03 0.224452967233288D+01 -.481106102297903D+02 0.139479524250784D+03
 0.248480162779776D+03 -.204391207975396D+03 -.746201392423845D+02 0.779949285073676D+02
 0.167049178628199D+02 0.811935273039768D+01 -.112776105939490D+02 -.927070069273051D+01
-.738060125153D-04 0.000000000000D+00 0.000000000000D+00 0.643464132476D-07 0.000000000000D+00  7 -3 3 23 -11 11 23 21 2 0.13352272D+00 0.49214656D-01 0.12056879D+06 0.12056879D+06 0.12056879D+06 0.11151161D+01  1  2 13  2  7  2        3 -.582778208754D-04 0.100000000000D+01
-.347075799446D-03 0.000000000000D+00 0.000000000000D+00 0.643464132476D-07 0.000000000000D+00  7 -3 3 23 -11 11 23 21 2 0.13352272D+00 0.47843860D-01 0.11603354D+06 0.11603354D+06 0.11603354D+06 0.11164604D+01  1  2  8  2  7  2        3 -.290977652573D-03 0.100000000000D+01
0.420535388991D-03 0.000000000000D+00 0.000000000000D+00 0.643464132476D-07 0.221050714021D-08  7 -3 3 23 -11 11 23 21 2 0.13448999D+00 0.49044213D-01 0.12056879D+06 0.12056879D+06 0.12056879D+06 0.11151161D+01  1  2  1  2  7  2        3 0.327191087071D-03 0.100000000000D+01
  </mgrwgt>
  </event>
  <event>
  8     66 0.27784906E-05 0.23333824E+03 0.75467711E-02 0.92350410E-01
       -1 -1    0    0    0  501 0.00000000E+00 0.00000000E+00 0.10424619E+03 0.10424668E+03 0.32000000E+00 0.0000E+00 0.9000E+01
        1 -1    0    0  501    0 0.00000000E+00 0.00000000E+00 -.88602352E+03 0.88602358E+03 0.32000000E+00 0.0000E+00 0.9000E+01
       25  2    1    2    0    0 0.16191876E+03 -.58899323E+01 -.71578408E+03 0.79298180E+03 0.30036795E+03 0.0000E+00 0.0000E+00
       23  2    3    3    0    0 0.36463339E+01 0.27214982E+02 -.62515748E+02 0.11384937E+03 0.91101637E+02 0.0000E+00 0.0000E+00
       23  1    1    2    0    0 -.16191876E+03 0.58899323E+01 -.65993243E+02 0.19728846E+03 0.91188000E+02 0.0000E+00 0.9000E+01
      -11  1    4    4    0    0 -.41203412E+02 0.28744784E+02 -.31487212E+02 0.59291047E+02 0.51099893E-03 0.0000E+00 0.9000E+01
       11  1    4    4    0    0 0.44849746E+02 -.15298022E+01 -.31028536E+02 0.54558318E+02 0.51099893E-03 0.0000E+00 0.9000E+01
       23  1    3    3    0    0 0.15827243E+03 -.33104914E+02 -.65326834E+03 0.67913244E+03 0.91188000E+02 0.0000E+00 0.9000E+01
#aMCatNLO 1  0  0  2  1 0.54287346D+03 0.00000000D+00  -5  7  0 0.00000000D+00 0.00000000D+00 0.00000000D+00 0.00000000D+00 0.00000000D+00
  <mgrwgt>
 0.3607785467D-03    5    2    0
 0.303915860943652D+03 0.000000000000000D+00 0.000000000000000D+00 0.303915860943652D+03
 0.303915860943652D+03 0.000000000000000D+00 0.000000000000000D+00 -.303915860943652D+03
 0.236540588291618D+03 -.161918761872867D+03 0.588993230779088D+01 0.146232082035071D+03
 0.560980472333357D+02 -.412034123158305D+02 0.287447837533232D+02 0.249601106548011D+02
 0.489774930555959D+02 0.448497461983961D+02 -.152980223313240D+01 0.196202649594216D+02
 0.266215593306754D+03 0.158272427990302D+03 -.331049138279817D+02 -.190812457649294D+03
 0.000000000000000D+00 -.000000000000000D+00 -.000000000000000D+00 -.000000000000000D+00
 0.558208512775822D+03 0.000000000000000D+00 0.000000000000000D+00 0.558208512775822D+03
 0.896306530778457D+03 0.000000000000000D+00 0.000000000000000D+00 -.896306530778457D+03
 0.172862284916969D+03 -.583625214563503D+01 0.121751610788524D+02 0.146232082035071D+03
 0.394777007216221D+02 -.476570367701790D+01 0.302120803459296D+02 0.249601106548011D+02
 0.105637196345921D+03 0.103795714440759D+03 0.843871128363646D+00 0.196202649594216D+02
 0.496989687827862D+03 0.449240087261899D+03 -.213880449315354D+02 -.190812457649294D+03
 0.639548173741905D+03 -.542433845880005D+03 -.218430676216103D+02 -.338098018002635D+03
0.563271076759D-05 0.000000000000D+00 0.000000000000D+00 0.423339928372D-06 0.000000000000D+00  7 -1 1 23 -11 11 23 21 0 0.16037918D-01 0.13631135D+00 0.54446737D+05 0.54446737D+05 0.54446737D+05 0.11440549D+01  1  2  2  2  7  2        1 0.352126733029D-03 0.100000000000D+01
-.286358152618D-06 0.000000000000D+00 -.216310924743D-07 0.423339928372D-06 0.000000000000D+00  7 -1 1 23 -11 11 23 21 2 0.16037918D-01 0.13631135D+00 0.54446737D+05 0.54446737D+05 0.54446737D+05 0.11440549D+01  1  2  3  2  7  2        1 -.234306756266D-04 0.100000000000D+01
0.353776482475D-06 0.000000000000D+00 0.000000000000D+00 0.423339928372D-06 0.000000000000D+00  7 -1 1 23 -11 11 23 21 2 0.16037918D-01 0.13631135D+00 0.54446737D+05 0.54446737D+05 0.54446737D+05 0.11440549D+01  1  2 15  2  7  2        1 0.289470438659D-04 0.100000000000D+01
0.166386009883D-05 0.000000000000D+00 -.186849422757D-05 0.423339928372D-06 0.000000000000D+00  7 -1 1 23 -11 11 23 21 2 0.16037918D-01 0.50534539D+00 0.54446737D+05 0.54446737D+05 0.54446737D+05 0.11440549D+01  1  2  5  2  7  2        1 0.303459325727D-05 0.100000000000D+01
0.301621175337D-06 0.000000000000D+00 -.289068263155D-06 0.423339928372D-06 0.000000000000D+00  7 -1 21 23 -11 11 23 -1 2 0.16037918D-01 0.50534539D+00 0.54446737D+05 0.54446737D+05 0.54446737D+05 0.11440549D+01  1  2  5  4  7  2        1 0.100852220601D-06 0.100000000000D+01
  </mgrwgt>
  </event>
  <event>
  8     66 0.27784906E-05 0.20217397E+03 0.75467711E-02 0.10575542E+00
       -1 -1    0    0    0  501 0.00000000E+00 0.00000000E+00 0.57105805E+02 0.57106702E+02 0.32000000E+00 0.0000E+00 0.9000E+01
        1 -1    0    0  501    0 0.00000000E+00 0.00000000E+00 -.97370371E+03 0.97370376E+03 0.32000000E+00 0.0000E+00 0.9000E+01
       25  2    1    2    0    0 0.10943564E+03 0.41847582E+02 -.65245250E+03 0.72779986E+03 0.30045132E+03 0.0000E+00 0.0000E+00
       23  2    3    3    0    0 -.19643413E+02 0.66901791E+02 -.10761207E+03 0.15994825E+03 0.95610509E+02 0.0000E+00 0.0000E+00
       23  1    1    2    0    0 -.10943564E+03 -.41847582E+02 -.26414541E+03 0.30301061E+03 0.91188000E+02 0.0000E+00 0.9000E+01
      -11  1    4    4    0    0 -.43651125E+02 0.50706090E+02 -.23375700E+02 0.70872785E+02 0.51099893E-03 0.0000E+00 0.9000E+01
       11  1    4    4    0    0 0.24007712E+02 0.16195701E+02 -.84236373E+02 0.89075460E+02 0.51099893E-03 0.0000E+00 0.9000E+01
       23  1    3    3    0    0 0.12907905E+03 -.25054209E+02 -.54484042E+03 0.56785161E+03 0.91188000E+02 0.0000E+00 0.9000E+01
#aMCatNLO 1  0  0  1  2 0.11650011D+02 0.00000000D+00  -5  7  0 0.00000000D+00 0.00000000D+00 0.00000000D+00 0.00000000D+00 0.00000000D+00
  <mgrwgt>
 0.3726315787D-03    4    2    0
 0.235806326478706D+03 0.000000000000000D+00 0.000000000000000D+00 0.235806326478706D+03
 0.235806326478706D+03 0.000000000000000D+00 0.000000000000000D+00 -.235806326478706D+03
 0.148917498460879D+03 -.109435641385668D+03 -.418475824488481D+02 0.115667731688734D+02
 0.109476051258805D+03 -.436511249466826D+02 0.507060904832255D+02 0.866514712974711D+02
 0.309767618678229D+02 0.240077120215657D+02 0.161957008877446D+02 -.109949448411570D+02
 0.182242341369905D+03 0.129079054310785D+03 -.250542089221220D+02 -.872232996251875D+02
 0.000000000000000D+00 -.000000000000000D+00 -.000000000000000D+00 -.000000000000000D+00
 0.237235852275109D+03 0.000000000000000D+00 0.000000000000000D+00 0.237235852275109D+03
 0.260871575532894D+03 0.000000000000000D+00 0.000000000000000D+00 -.260871575532894D+03
 0.146086518692580D+03 -.106198021478472D+03 -.401772272840644D+02 0.115667731688734D+02
 0.109125472198834D+03 -.412520096704944D+02 0.519438437425213D+02 0.866514712974711D+02
 0.316966860457858D+02 0.246955426639266D+02 0.165505669618660D+02 -.109949448411570D+02
 0.184847846270346D+03 0.133107807921357D+03 -.229756914945192D+02 -.872232996251875D+02
 0.263509046004578D+02 -.103533194363170D+02 -.534149192580371D+01 -.236357232577847D+02
0.341566111015D-05 0.000000000000D+00 0.000000000000D+00 0.131396096445D-07 0.000000000000D+00  7 -1 1 23 -11 11 23 21 0 0.87855815D-02 0.14980064D+00 0.40874313D+05 0.40874313D+05 0.40874313D+05 0.11550741D+01  1  2  2  1  7  1       -1 0.460855310495D-03 0.100000000000D+01
-.184295576833D-06 0.000000000000D+00 -.131170380272D-07 0.131396096445D-07 0.000000000000D+00  7 -1 1 23 -11 11 23 21 2 0.87855815D-02 0.14980064D+00 0.40874313D+05 0.40874313D+05 0.40874313D+05 0.11550741D+01  1  2  3  1  7  1       -1 -.331760286684D-04 0.100000000000D+01
0.211240161120D-06 0.000000000000D+00 0.000000000000D+00 0.131396096445D-07 0.000000000000D+00  7 -1 1 23 -11 11 23 21 2 0.87855815D-02 0.14980064D+00 0.40874313D+05 0.40874313D+05 0.40874313D+05 0.11550741D+01  1  2 15  1  7  1       -1 0.380264668401D-04 0.100000000000D+01
-.517034694362D-06 0.000000000000D+00 0.000000000000D+00 0.131396096445D-07 0.000000000000D+00  7 -1 1 23 -11 11 23 21 2 0.87855815D-02 0.14980064D+00 0.40874313D+05 0.40874313D+05 0.40874313D+05 0.11550741D+01  1  2  4  1  7  1       -1 -.930741699688D-04 0.100000000000D+01
  </mgrwgt>
  </event>
  <event>
  8     66 0.27784906E-05 0.12873091E+03 0.75467711E-02 0.10802278E+00
       -1 -1    0    0    0  501 0.00000000E+00 0.00000000E+00 0.14385613E+02 0.14389172E+02 0.32000000E+00 0.0000E+00 0.9000E+01
        1 -1    0    0  501    0 0.00000000E+00 0.00000000E+00 -.32560484E+04 0.32560484E+04 0.32000000E+00 0.0000E+00 0.9000E+01
       25  2    1    2    0    0 -.41078071E+02 0.34638624E+02 -.27780886E+04 0.27949341E+04 0.30165110E+03 0.0000E+00 0.0000E+00
       23  2    3    3    0    0 -.59914596E+02 -.51926859E+02 -.45944114E+03 0.47280372E+03 0.78556010E+02 0.0000E+00 0.0000E+00
       23  1    1    2    0    0 0.41078071E+02 -.34638624E+02 -.46357424E+03 0.47550349E+03 0.91188000E+02 0.0000E+00 0.9000E+01
      -11  1    4    4    0    0 -.42433445E+02 -.53083073E+02 -.17362562E+03 0.18645178E+03 0.51099893E-03 0.0000E+00 0.9000E+01
       11  1    4    4    0    0 -.17481151E+02 0.11562141E+01 -.28581552E+03 0.28635195E+03 0.51099893E-03 0.0000E+00 0.9000E+01
       23  1    3    3    0    0 0.18836525E+02 0.86565483E+02 -.23186474E+04 0.23221304E+04 0.91188000E+02 0.0000E+00 0.9000E+01
#aMCatNLO 1  0  0  2  1 0.35325199D+02 0.00000000D+00  -5  7  0 0.00000000D+00 0.00000000D+00 0.00000000D+00 0.00000000D+00 0.00000000D+00
  <mgrwgt>
 0.6885628784D-02    9    2    0
 0.216439591819712D+03 0.000000000000000D+00 0.000000000000000D+00 0.216439591819712D+03
 0.216439591819712D+03 0.000000000000000D+00 0.000000000000000D+00 -.216439591819712D+03
 0.120941658525403D+03 0.410780719074222D+02 -.346386245712603D+02 0.585182973014002D+02
 0.108444101578250D+03 -.424334444095622D+02 -.530830722686833D+02 0.845086587349015D+02
 0.230517980906570D+02 -.174811514921197D+02 0.115621419892080D+01 -.149819193179042D+02
 0.180441625445115D+03 0.188365239942597D+02 0.865654826410228D+02 -.128045036718398D+03
 0.000000000000000D+00 0.000000000000000D+00 0.000000000000000D+00 -.000000000000000D+00
 0.233863559928498D+03 0.000000000000000D+00 0.000000000000000D+00 0.233863559928498D+03
 0.235834745633172D+03 0.000000000000000D+00 0.000000000000000D+00 -.235834745633172D+03
 0.121191472639070D+03 0.344618650131827D+02 -.419536701277091D+02 0.585182973014002D+02
 0.114340102502367D+03 -.485209483371622D+02 -.598135704630834D+02 0.845086587349015D+02
 0.240153710024237D+02 -.187672461589188D+02 -.265724568703271D+00 -.149819193179042D+02
 0.174771206031362D+03 0.913045207739919D+01 0.758342042241066D+02 -.128045036718398D+03
 0.353801533864457D+02 0.236958774054991D+02 0.261987609353892D+02 -.197118570467419D+01
0.926049715596D-04 0.000000000000D+00 0.000000000000D+00 0.182485298050D-09 0.000000000000D+00  7 -1 1 23 -11 11 23 21 0 0.22134462D-02 0.50093080D+00 0.25353620D+05 0.25353620D+05 0.25353620D+05 0.11741779D+01  1  2  2  2  7  2        1 0.264469724763D-02 0.100000000000D+01
-.455527480267D-05 0.000000000000D+00 -.355627474238D-06 0.182485298050D-09 0.000000000000D+00  7 -1 1 23 -11 11 23 21 2 0.22134462D-02 0.50093080D+00 0.25353620D+05 0.25353620D+05 0.25353620D+05 0.11741779D+01  1  2  3  2  7  2        1 -.179359345049D-03 0.100000000000D+01
0.595129549561D-05 0.000000000000D+00 0.000000000000D+00 0.182485298050D-09 0.000000000000D+00  7 -1 1 23 -11 11 23 21 2 0.22134462D-02 0.50093080D+00 0.25353620D+05 0.25353620D+05 0.25353620D+05 0.11741779D+01  1  2 15  2  7  2        1 0.234326250013D-03 0.100000000000D+01
0.822765080302D-04 0.000000000000D+00 0.000000000000D+00 0.182485298050D-09 0.000000000000D+00  7 -1 1 23 -11 11 23 21 2 0.22134462D-02 0.56431571D+00 0.31718199D+05 0.31718199D+05 0.31718199D+05 0.11650984D+01  1  2 12  2  7  2        1 0.149057889890D-02 0.100000000000D+01
-.687153247935D-04 0.000000000000D+00 0.000000000000D+00 0.182485298050D-09 0.000000000000D+00  7 -1 1 23 -11 11 23 21 2 0.22134462D-02 0.50093080D+00 0.25353620D+05 0.25353620D+05 0.25353620D+05 0.11741779D+01  1  2  4  2  7  2        1 -.270559651914D-02 0.100000000000D+01
-.268120240432D-03 0.000000000000D+00 -.639928386778D-04 0.182485298050D-09 0.000000000000D+00  7 -1 1 23 -11 11 23 21 2 0.22134462D-02 0.55811656D+00 0.25353620D+05 0.25353620D+05 0.25353620D+05 0.11741779D+01  1  2  5  2  7  2        1 -.537304030849D-02 0.100000000000D+01
0.273836211282D-03 0.000000000000D+00 0.636450923201D-04 0.182485298050D-09 0.000000000000D+00  7 -1 1 23 -11 11 23 21 2 0.22134462D-02 0.50093080D+00 0.25353620D+05 0.25353620D+05 0.25353620D+05 0.11741779D+01  1  2  6  2  7  2        1 0.107820242760D-01 0.100000000000D+01
0.155174206095D-05 0.000000000000D+00 0.000000000000D+00 0.182485298050D-09 0.000000000000D+00  7 -1 21 23 -11 11 23 -1 2 0.22134462D-02 0.56431571D+00 0.31718199D+05 0.31718199D+05 0.31718199D+05 0.11650984D+01  1  2 12  4  7  2        1 0.343492867810D-05 0.100000000000D+01
-.441225336820D-05 0.000000000000D+00 -.111132009217D-05 0.182485298050D-09 0.000000000000D+00  7 -1 21 23 -11 11 23 -1 2 0.22134462D-02 0.55811656D+00 0.25353620D+05 0.25353620D+05 0.25353620D+05 0.11741779D+01  1  2  5  4  7  2        1 -.114366445179D-04 0.100000000000D+01
  </mgrwgt>
  </event>
  <event>
  9     66 0.27784906E-05 0.18986414E+03 0.75467711E-02 0.10143699E+00
       -3 -1    0    0    0  502 0.00000000E+00 0.00000000E+00 0.42412596E+03 0.42412626E+03 0.50000000E+00 0.0000E+00 0.9000E+01
        3 -1    0    0  501    0 0.00000000E+00 0.00000000E+00 -.38973925E+03 0.38973957E+03 0.50000000E+00 0.0000E+00 0.9000E+01
       25  2    1    2    0    0 -.75219518E+02 -.21333545E+03 -.19791072E+03 0.42475632E+03 0.30013212E+03 0.0000E+00 0.0000E+00
       23  2    3    3    0    0 0.15736150E+02 -.97754829E+02 -.20959840E+03 0.25130988E+03 0.97064586E+02 0.0000E+00 0.0000E+00
       23  1    1    2    0    0 0.62960716E+02 0.65338961E+02 0.20240438E+02 0.13022349E+03 0.91188000E+02 0.0000E+00 0.9000E+01
      -13  1    4    4    0    0 0.40607491E+02 -.34481227E+02 -.34479550E+02 0.63456866E+02 0.10565837E+00 0.0000E+00 0.9000E+01
       13  1    4    4    0    0 -.24871341E+02 -.63273602E+02 -.17511885E+03 0.18785302E+03 0.10565837E+00 0.0000E+00 0.9000E+01
       23  1    3    3    0    0 -.90955668E+02 -.11558062E+03 0.11687684E+02 0.17344644E+03 0.91188000E+02 0.0000E+00 0.9000E+01
       21  1    1    2  501  502 0.12258802E+02 0.14799649E+03 0.21205699E+03 0.25888602E+03 0.75000000E+00 0.0000E+00 0.9000E+01
#aMCatNLO 2  0  0  1  2 0.14850333D+03 0.00000000D+00  -5  7  0 0.00000000D+00 0.00000000D+00 0.00000000D+00 0.00000000D+00 0.00000000D+00
  <mgrwgt>
 0.1100509143D-04    2    2    0
 0.252181792329151D+03 0.000000000000000D+00 0.000000000000000D+00 0.252181792329151D+03
 0.252181792329151D+03 0.000000000000000D+00 0.000000000000000D+00 -.252181792329151D+03
 0.171125151260515D+03 0.667143049354650D+02 0.110654800130479D+03 0.653703508862827D+02
 0.485481762364559D+02 0.418437187926403D+02 -.195572297281149D+02 -.149513671231150D+02
 0.125845904553305D+03 -.217183182016835D+02 -.252078810071769D+02 -.121367495988251D+03
 0.158844352608025D+03 -.868397055264217D+02 -.658896893951873D+02 0.709485122250830D+02
 0.000000000000000D+00 0.000000000000000D+00 0.000000000000000D+00 0.000000000000000D+00
 0.591008855705449D+03 0.000000000000000D+00 0.000000000000000D+00 0.591008855705449D+03
 0.279688411530602D+03 0.000000000000000D+00 0.000000000000000D+00 -.279688411530602D+03
 0.144297490935093D+03 0.629607166111226D+02 0.653389618449930D+02 0.653703508862827D+02
 0.553305288040179D+02 0.406075428108732D+02 -.344811761073370D+02 -.149513671231150D+02
 0.139112207497455D+03 -.248713691967252D+02 -.632736294726089D+02 -.121367495988251D+03
 0.187031457247347D+03 -.909556922308273D+02 -.115580644226983D+03 0.709485122250830D+02
 0.344925582752139D+03 0.122588020055566D+02 0.147996487961936D+03 0.311320444174846D+03
-.285762352009D-06 0.000000000000D+00 0.000000000000D+00 0.111270581183D-07 0.000000000000D+00  7 -3 3 23 -13 13 23 21 2 0.64696390D-01 0.54062956D-01 0.81640187D+05 0.81640187D+05 0.81640187D+05 0.11290238D+01  1  2 13  1  7  1       -3 -.120454554058D-05 0.100000000000D+01
0.365260906775D-05 0.000000000000D+00 0.000000000000D+00 0.111270581183D-07 0.528422032642D-11  7 -3 3 23 -13 13 23 21 2 0.65250105D-01 0.59959849D-01 0.81640187D+05 0.81640187D+05 0.81640187D+05 0.11290238D+01  1  2  1  1  7  1       -3 0.122096369737D-04 0.100000000000D+01
  </mgrwgt>
  </event>
  <event>
  8     66 0.27784906E-05 0.19476875E+03 0.75467711E-02 0.96847982E-01
       -1 -1    0    0    0  501 0.00000000E+00 0.00000000E+00 0.17565803E+03 0.17565832E+03 0.32000000E+00 0.0000E+00 0.9000E+01
        1 -1    0    0  501    0 0.00000000E+00 0.00000000E+00 -.63462560E+03 0.63462568E+03 0.32000000E+00 0.0000E+00 0.9000E+01
       25  2    1    2    0    0 0.56994967E+02 0.10238092E+02 -.57564036E+03 0.65128388E+03 0.29909134E+03 0.0000E+00 0.0000E+00
       23  2    3    3    0    0 0.83394184E+02 0.10964978E+03 -.34504080E+03 0.38282344E+03 0.92319928E+02 0.0000E+00 0.0000E+00
       23  1    1    2    0    0 -.56994967E+02 -.10238092E+02 0.11667279E+03 0.15900011E+03 0.91188000E+02 0.0000E+00 0.9000E+01
      -11  1    4    4    0    0 0.83821316E+01 0.42697700E+02 -.21001066E+03 0.21447105E+03 0.51099893E-03 0.0000E+00 0.9000E+01
       11  1    4    4    0    0 0.75012053E+02 0.66952078E+02 -.13503014E+03 0.16835239E+03 0.51099893E-03 0.0000E+00 0.9000E+01
       23  1    3    3    0    0 -.26399217E+02 -.99411686E+02 -.23059956E+03 0.26846044E+03 0.91188000E+02 0.0000E+00 0.9000E+01
#aMCatNLO 1  0  0  2  2 0.30617982D+03 0.00000000D+00  -5  7  0 0.00000000D+00 0.00000000D+00 0.00000000D+00 0.00000000D+00 0.00000000D+00
  <mgrwgt>
 0.3396729808D-03    3    2    0
 0.333882061844948D+03 0.000000000000000D+00 0.000000000000000D+00 0.333882061844948D+03
 0.333882061844948D+03 0.000000000000000D+00 0.000000000000000D+00 -.333882061844948D+03
 0.273126791983121D+03 -.569949673283191D+02 -.102380923632005D+02 0.250858024226847D+03
 0.115900772768194D+03 0.838213156826772D+01 0.426977003353548D+02 -.107422694923880D+03
 0.111474680908534D+03 0.750120525800753D+02 0.669520778491078D+02 -.481374669365825D+02
 0.167261878030047D+03 -.263992168200239D+02 -.994116858212621D+02 -.952978623663850D+02
 0.000000000000000D+00 0.000000000000000D+00 -.000000000000000D+00 0.000000000000000D+00
 0.876566398498985D+03 0.000000000000000D+00 0.000000000000000D+00 0.876566398498985D+03
 0.413326781998383D+03 0.000000000000000D+00 0.000000000000000D+00 -.413326781998383D+03
 0.322472254520319D+03 -.175927983186574D+03 0.423402881936879D+02 0.250858024226847D+03
 0.131904004557201D+03 -.411011066679478D+02 0.645734470520755D+02 -.107422694923880D+03
 0.103589323972727D+03 0.320667005798600D+02 0.859375298224097D+02 -.481374669365825D+02
 0.176646564815587D+03 -.950730478593275D+02 -.690520855317405D+02 -.952978623663850D+02
 0.555281032631534D+03 0.280035437133990D+03 -.123799179536433D+03 0.463239616500602D+03
0.723178716217D-05 0.000000000000D+00 0.000000000000D+00 0.132008355054D-06 0.000000000000D+00  7 -1 1 23 -11 11 23 21 0 0.27024341D-01 0.97634736D-01 0.37934867D+05 0.37934867D+05 0.37934867D+05 0.11579963D+01  1  2  2  2  7  2        1 0.327880872866D-03 0.100000000000D+01
-.259862935383D-06 0.000000000000D+00 -.277719668760D-07 0.132008355054D-06 0.000000000000D+00  7 -1 1 23 -11 11 23 21 2 0.27024341D-01 0.97634736D-01 0.37934867D+05 0.37934867D+05 0.37934867D+05 0.11579963D+01  1  2  3  2  7  2        1 -.157989837398D-04 0.100000000000D+01
0.453820460732D-06 0.000000000000D+00 0.000000000000D+00 0.132008355054D-06 0.000000000000D+00  7 -1 1 23 -11 11 23 21 2 0.27024341D-01 0.97634736D-01 0.37934867D+05 0.37934867D+05 0.37934867D+05 0.11579963D+01  1  2 15  2  7  2        1 0.275910917011D-04 0.100000000000D+01
  </mgrwgt>
  </event>
  <event>
  8     66 0.27784906E-05 0.26921711E+03 0.75467711E-02 0.97644731E-01
       -1 -1    0    0    0  501 0.00000000E+00 0.00000000E+00 0.45919828E+02 0.45920943E+02 0.32000000E+00 0.0000E+00 0.9000E+01
        1 -1    0    0  501    0 0.00000000E+00 0.00000000E+00 -.21086796E+04 0.21086796E+04 0.32000000E+00 0.0000E+00 0.9000E+01
       25  2    1    2    0    0 0.17256955E+03 0.31291078E+02 -.74467655E+03 0.82177724E+03 0.30002548E+03 0.0000E+00 0.0000E+00
       23  2    3    3    0    0 -.38277789E+02 -.30324114E+02 -.30290197E+03 0.32004717E+03 0.91081544E+02 0.0000E+00 0.0000E+00
       23  1    1    2    0    0 -.17256955E+03 -.31291078E+02 -.13180832E+04 0.13328233E+04 0.91188000E+02 0.0000E+00 0.9000E+01
      -13  1    4    4    0    0 -.41897160E+02 -.59913831E+02 -.20145343E+03 0.21430944E+03 0.10565837E+00 0.0000E+00 0.9000E+01
       13  1    4    4    0    0 0.36193706E+01 0.29589716E+02 -.10144854E+03 0.10573773E+03 0.10565837E+00 0.0000E+00 0.9000E+01
       23  1    3    3    0    0 0.21084734E+03 0.61615192E+02 -.44177458E+03 0.50173007E+03 0.91188000E+02 0.0000E+00 0.9000E+01
#aMCatNLO 1  0  0  2  2 0.19823446D+03 0.00000000D+00  -5  7  0 0.00000000D+00 0.00000000D+00 0.00000000D+00 0.00000000D+00 0.00000000D+00
  <mgrwgt>
 0.4879340691D-03    3    2    0
 0.311177492601782D+03 0.000000000000000D+00 0.000000000000000D+00 0.311177492601782D+03
 0.311177492601782D+03 0.000000000000000D+00 0.000000000000000D+00 -.311177492601782D+03
 0.245539680649407D+03 -.172569553652325D+03 -.312910780068782D+02 -.145654045665810D+03
 0.742361530361773D+02 -.418972207648925D+02 -.599139509831935D+02 0.128820723244393D+02
 0.298199250705333D+02 0.361943172897847D+01 0.295898364977498D+02 -.754467499577651D+00
 0.272759226447445D+03 0.210847342688239D+03 0.616151924923220D+02 0.133526440840948D+03
 0.000000000000000D+00 0.000000000000000D+00 -.000000000000000D+00 0.000000000000000D+00
 0.689046625383840D+03 0.000000000000000D+00 0.000000000000000D+00 0.689046625383840D+03
 0.353685715174533D+03 0.000000000000000D+00 0.000000000000000D+00 -.353685715174533D+03
 0.290371269828623D+03 -.232558763588054D+03 0.264866656539662D+02 -.145654045665810D+03
 0.742844186508752D+02 -.585224301336538D+02 -.439016199949161D+02 0.128820723244393D+02
 0.370039548707210D+02 -.386075086281241D+01 0.367942666409011D+02 -.754467499577651D+00
 0.251503910025442D+03 0.152161974666961D+03 0.118137159589545D+03 0.133526440840948D+03
 0.389568787182711D+03 0.142779969917559D+03 -.137516471889496D+03 0.335360910209307D+03
0.148708720129D-04 0.000000000000D+00 0.000000000000D+00 0.749712879734D-06 0.000000000000D+00  7 -1 1 23 -13 13 23 21 0 0.70646766D-02 0.32441233D+00 0.72477851D+05 0.72477851D+05 0.72477851D+05 0.11333776D+01  1  2  2  2  7  2        1 0.481331911606D-03 0.100000000000D+01
-.805085198635D-06 0.000000000000D+00 -.571080641199D-07 0.749712879734D-06 0.000000000000D+00  7 -1 1 23 -13 13 23 21 2 0.70646766D-02 0.32441233D+00 0.72477851D+05 0.72477851D+05 0.72477851D+05 0.11333776D+01  1  2  3  2  7  2        1 -.334733594575D-04 0.100000000000D+01
0.963877126106D-06 0.000000000000D+00 0.000000000000D+00 0.749712879734D-06 0.000000000000D+00  7 -1 1 23 -13 13 23 21 2 0.70646766D-02 0.32441233D+00 0.72477851D+05 0.72477851D+05 0.72477851D+05 0.11333776D+01  1  2 15  2  7  2        1 0.400755169387D-04 0.100000000000D+01
  </mgrwgt>
  </event>
  <event>
  8     66 0.27784906E-05 0.99389510E+03 0.75467711E-02 0.87226294E-01
       -1 -1    0    0    0  501 0.00000000E+00 0.00000000E+00 0.57030028E+03 0.57030037E+03 0.32000000E+00 0.0000E+00 0.9000E+01
        1 -1    0    0  501    0 0.00000000E+00 0.00000000E+00 -.17463701E+04 0.17463702E+04 0.32000000E+00 0.0000E+00 0.9000E+01
       25  2    1    2    0    0 0.96844212E+03 -.95129206E+02 -.57888547E+03 0.11712998E+04 0.29984183E+03 0.0000E+00 0.0000E+00
       23  2    3    3    0    0 0.18906944E+03 -.10096973E+03 -.11726459E+03 0.26087957E+03 0.91460542E+02 0.0000E+00 0.0000E+00
       23  1    1    2    0    0 -.96844212E+03 0.95129206E+02 -.59718439E+03 0.11453707E+04 0.91188000E+02 0.0000E+00 0.9000E+01
      -13  1    4    4    0    0 0.19473088E+03 -.92647045E+02 -.12401104E+03 0.24876162E+03 0.10565837E+00 0.0000E+00 0.9000E+01
       13  1    4    4    0    0 -.56614472E+01 -.83226837E+01 0.67464561E+01 0.12117957E+02 0.10565837E+00 0.0000E+00 0.9000E+01
       23  1    3    3    0    0 0.77937268E+03 0.58405225E+01 -.46162089E+03 0.91042022E+03 0.91188000E+02 0.0000E+00 0.9000E+01
#aMCatNLO 1  0  0  2  2 0.43260411D+02 0.00000000D+00  -5  7  0 0.00000000D+00 0.00000000D+00 0.00000000D+00 0.00000000D+00 0.00000000D+00
  <mgrwgt>
 0.1380627288D-03    4    2    0
 0.997975711248649D+03 0.000000000000000D+00 0.000000000000000D+00 0.997975711248649D+03
 0.997975711248649D+03 0.000000000000000D+00 0.000000000000000D+00 -.997975711248649D+03
 0.977536869740120D+03 -.968442117290318D+03 0.951292062759759D+02 -.182586946099724D+02
 0.215663358016164D+03 0.194731151348280D+03 -.926471576621144D+02 0.263948148563802D+01
 0.180400639459072D+02 -.566171465237448D+01 -.832257114849420D+01 0.149707616321201D+02
 0.784711130795107D+03 0.779372680594413D+03 0.584052253463270D+01 0.648451492214225D+00
 0.000000000000000D+00 0.000000000000000D+00 0.000000000000000D+00 0.000000000000000D+00
 0.105899719157173D+04 0.000000000000000D+00 0.000000000000000D+00 0.105899719157173D+04
 0.100590688499210D+04 0.000000000000000D+00 0.000000000000000D+00 -.100590688499210D+04
 0.994489988453221D+03 -.986577236981018D+03 0.838275690434127D+02 -.182586946099724D+02
 0.213194062394436D+03 0.190787300068021D+03 -.951049289494760D+02 0.263948148563802D+01
 0.182438494067271D+02 -.599538815624341D+01 -.853051336002418D+01 0.149707616321201D+02
 0.770492281995987D+03 0.765070745548665D+03 -.307230982420841D+01 0.648451492214225D+00
 0.684838943134563D+02 0.367145795205763D+02 0.228801830902960D+02 0.530903065796240D+02
0.328560576748D-03 0.000000000000D+00 0.000000000000D+00 0.531914843896D-05 0.000000000000D+00  7 -1 1 23 -13 13 23 21 0 0.87738514D-01 0.26867234D+00 0.98782747D+06 0.98782747D+06 0.98782747D+06 0.10482182D+01  1  2  2  2  7  2        1 0.225622786662D-03 0.100000000000D+01
-.182529927995D-04 0.000000000000D+00 -.126175912670D-05 0.531914843896D-05 0.000000000000D+00  7 -1 1 23 -13 13 23 21 2 0.87738514D-01 0.26867234D+00 0.98782747D+06 0.98782747D+06 0.98782747D+06 0.10482182D+01  1  2  3  2  7  2        1 -.137722527118D-04 0.100000000000D+01
0.204052183040D-04 0.000000000000D+00 0.000000000000D+00 0.531914843896D-05 0.000000000000D+00  7 -1 1 23 -13 13 23 21 2 0.87738514D-01 0.26867234D+00 0.98782747D+06 0.98782747D+06 0.98782747D+06 0.10482182D+01  1  2 15  2  7  2        1 0.153961504401D-04 0.100000000000D+01
-.118199551898D-03 0.000000000000D+00 0.000000000000D+00 0.531914843896D-05 0.000000000000D+00  7 -1 1 23 -13 13 23 21 2 0.87738514D-01 0.26867234D+00 0.98782747D+06 0.98782747D+06 0.98782747D+06 0.10482182D+01  1  2  4  2  7  2        1 -.891839555876D-04 0.100000000000D+01
  </mgrwgt>
  </event>
  <event>
  8     66 0.27784906E-05 0.46939523E+03 0.75467711E-02 0.89848700E-01
       -1 -1    0    0    0  501 0.00000000E+00 0.00000000E+00 0.33542414E+03 0.33542429E+03 0.32000000E+00 0.0000E+00 0.9000E+01
        1 -1    0    0  501    0 0.00000000E+00 0.00000000E+00 -.74749862E+03 0.74749869E+03 0.32000000E+00 0.0000E+00 0.9000E+01
       25  2    1    2    0    0 0.21668397E+03 -.39370156E+03 -.25100748E+03 0.59690786E+03 0.30222737E+03 0.0000E+00 0.0000E+00
       23  2    3    3    0    0 0.13585252E+03 -.25276903E+03 -.22335939E+02 0.30194748E+03 0.91243084E+02 0.0000E+00 0.0000E+00
       23  1    1    2    0    0 -.21668397E+03 0.39370156E+03 -.16106700E+03 0.48601511E+03 0.91188000E+02 0.0000E+00 0.9000E+01
      -11  1    4    4    0    0 0.11369959E+03 -.14685421E+03 0.17711792E+02 0.18656758E+03 0.51099893E-03 0.0000E+00 0.9000E+01
       11  1    4    4    0    0 0.22152931E+02 -.10591481E+03 -.40047731E+02 0.11537990E+03 0.51099893E-03 0.0000E+00 0.9000E+01
       23  1    3    3    0    0 0.80831449E+02 -.14093253E+03 -.22867154E+03 0.29496038E+03 0.91188000E+02 0.0000E+00 0.9000E+01
#aMCatNLO 1  0  0  2  1 0.49474820D+03 0.00000000D+00  -5  7  0 0.00000000D+00 0.00000000D+00 0.00000000D+00 0.00000000D+00 0.00000000D+00
  <mgrwgt>
 0.3624205437D-03    5    2    0
 0.500728667226615D+03 0.000000000000000D+00 0.000000000000000D+00 0.500728667226615D+03
 0.500728667226615D+03 0.000000000000000D+00 0.000000000000000D+00 -.500728667226615D+03
 0.459276010936808D+03 -.216683967885979D+03 0.393701557572807D+03 0.258136495668742D+02
 0.209032271763949D+03 0.113699587658585D+03 -.146854212862957D+03 0.959204595978706D+02
 0.108287082498499D+03 0.221529307833560D+02 -.105914812194233D+03 0.417042583016801D+01
 0.224861969253973D+03 0.808314494440383D+02 -.140932532515617D+03 -.125904534994913D+03
 0.000000000000000D+00 -.000000000000000D+00 -.000000000000000D+00 -.000000000000000D+00
 0.646901513691063D+03 0.000000000000000D+00 0.000000000000000D+00 0.646901513691063D+03
 0.125073439686725D+04 0.000000000000000D+00 0.000000000000000D+00 -.125073439686725D+04
 0.500728455824977D+03 -.149144582310232D+02 0.491451879191218D+03 0.258136495668742D+02
 0.252069051862639D+03 0.210611832539289D+03 -.999035951900928D+02 0.959204595978706D+02
 0.107816669585140D+03 0.675726653806237D+02 -.839105278387907D+02 0.417042583016801D+01
 0.256387421236861D+03 0.181978326258703D+03 -.919303827049777D+02 -.125904534994913D+03
 0.780634312048693D+03 -.445248365947592D+03 -.215707373457357D+03 -.603832883176185D+03
0.335607416520D-04 0.000000000000D+00 0.000000000000D+00 0.946370534794D-07 0.000000000000D+00  7 -1 1 23 -11 11 23 21 0 0.51603730D-01 0.11499980D+00 0.22033188D+06 0.22033188D+06 0.22033188D+06 0.10946106D+01  1  2  2  2  7  2        1 0.378678017916D-03 0.100000000000D+01
-.185501969318D-05 0.000000000000D+00 -.128882084690D-06 0.946370534794D-07 0.000000000000D+00  7 -1 1 23 -11 11 23 21 2 0.51603730D-01 0.11499980D+00 0.22033188D+06 0.22033188D+06 0.22033188D+06 0.10946106D+01  1  2  3  2  7  2        1 -.250787763250D-04 0.100000000000D+01
0.211823661395D-05 0.000000000000D+00 0.000000000000D+00 0.946370534794D-07 0.000000000000D+00  7 -1 1 23 -11 11 23 21 2 0.51603730D-01 0.11499980D+00 0.22033188D+06 0.22033188D+06 0.22033188D+06 0.10946106D+01  1  2 15  2  7  2        1 0.286373144393D-04 0.100000000000D+01
-.124362703846D-04 0.000000000000D+00 -.102696278535D-04 0.946370534794D-07 0.000000000000D+00  7 -1 1 23 -11 11 23 21 2 0.51603730D-01 0.31944695D+00 0.22033188D+06 0.22033188D+06 0.22033188D+06 0.10946106D+01  1  2  5  2  7  2        1 -.191874255136D-04 0.100000000000D+01
-.845904215862D-06 0.000000000000D+00 -.117651097805D-05 0.946370534794D-07 0.000000000000D+00  7 -1 21 23 -11 11 23 -1 2 0.51603730D-01 0.31944695D+00 0.22033188D+06 0.22033188D+06 0.22033188D+06 0.10946106D+01  1  2  5  4  7  2        1 -.628586801061D-06 0.100000000000D+01
  </mgrwgt>
  </event>
  <event>
  8     66 0.27784906E-05 0.14065650E+03 0.75467711E-02 0.10319863E+00
       -1 -1    0    0    0  501 0.00000000E+00 0.00000000E+00 0.33271020E+03 0.33271035E+03 0.32000000E+00 0.0000E+00 0.9000E+01
        1 -1    0    0  501    0 0.00000000E+00 0.00000000E+00 -.24008233E+03 0.24008254E+03 0.32000000E+00 0.0000E+00 0.9000E+01
       25  2    1    2    0    0 -.35190622E+02 0.14733247E+03 0.17378751E+03 0.37824888E+03 0.29987478E+03 0.0000E+00 0.0000E+00
       23  2    3    3    0    0 -.50267483E+02 0.19228918E+03 0.16621120E+03 0.27519031E+03 0.92744785E+02 0.0000E+00 0.0000E+00
       23  1    1    2    0    0 0.35190622E+02 -.14733247E+03 -.81159639E+02 0.19454402E+03 0.91188000E+02 0.0000E+00 0.9000E+01
      -11  1    4    4    0    0 -.14638381E+02 -.28722889E+01 0.33038448E+02 0.36250121E+02 0.51099893E-03 0.0000E+00 0.9000E+01
       11  1    4    4    0    0 -.35629101E+02 0.19516147E+03 0.13317275E+03 0.23894019E+03 0.51099893E-03 0.0000E+00 0.9000E+01
       23  1    3    3    0    0 0.15076861E+02 -.44956711E+02 0.75763077E+01 0.10305857E+03 0.91188000E+02 0.0000E+00 0.9000E+01
#aMCatNLO 1  0  0  2  1 0.75660650D+01 0.00000000D+00  -5  7  0 0.00000000D+00 0.00000000D+00 0.00000000D+00 0.00000000D+00 0.00000000D+00
  <mgrwgt>
 0.3203045071D-03   11    2    0
 0.282626865710522D+03 0.000000000000000D+00 0.000000000000000D+00 0.282626865710522D+03
 0.282626865710522D+03 0.000000000000000D+00 0.000000000000000D+00 -.282626865710522D+03
 0.210438371647735D+03 0.351906220802690D+02 -.147332467923531D+03 -.114121956392780D+03
 0.313196182855509D+02 -.146383814911228D+02 -.287228888916678D+01 0.275388132171693D+02
 0.220304134072001D+03 -.356291013335224D+02 0.195161468056540D+03 0.957939455988533D+02
 0.103191607415756D+03 0.150768607443763D+02 -.449567112438418D+02 -.921080242324221D+01
 0.000000000000000D+00 -.000000000000000D+00 0.000000000000000D+00 -.000000000000000D+00
 0.284610978289622D+03 0.000000000000000D+00 0.000000000000000D+00 0.284610978289622D+03
 0.289958375279348D+03 0.000000000000000D+00 0.000000000000000D+00 -.289958375279348D+03
 0.212441848849531D+03 0.363976046360625D+02 -.149892232101761D+03 -.114121956392780D+03
 0.312736329612274D+02 -.144597281545434D+02 -.325117623024883D+01 0.275388132171693D+02
 0.217757679327306D+03 -.343787875531557D+02 0.192509807176135D+03 0.957939455988533D+02
 0.103831204867887D+03 0.156677441930839D+02 -.462098546950460D+02 -.921080242324221D+01
 0.926498756301927D+01 -.322683312144737D+01 0.684345585092056D+01 -.534739698972622D+01
0.295032472317D-05 0.000000000000D+00 0.000000000000D+00 0.220489238214D-06 0.000000000000D+00  7 -1 1 23 -11 11 23 21 0 0.51186213D-01 0.36935772D-01 0.60735300D+05 0.60735300D+05 0.60735300D+05 0.11399386D+01  1  2  2  2  7  2        1 0.164624258068D-03 0.100000000000D+01
-.160167203107D-06 0.000000000000D+00 -.113300237753D-07 0.220489238214D-06 0.000000000000D+00  7 -1 1 23 -11 11 23 21 2 0.51186213D-01 0.36935772D-01 0.60735300D+05 0.60735300D+05 0.60735300D+05 0.11399386D+01  1  2  3  2  7  2        1 -.116134313144D-04 0.100000000000D+01
0.190471659352D-06 0.000000000000D+00 0.000000000000D+00 0.220489238214D-06 0.000000000000D+00  7 -1 1 23 -11 11 23 21 2 0.51186213D-01 0.36935772D-01 0.60735300D+05 0.60735300D+05 0.60735300D+05 0.11399386D+01  1  2 15  2  7  2        1 0.138107520785D-04 0.100000000000D+01
0.604013093333D-05 0.000000000000D+00 0.000000000000D+00 0.220489238214D-06 0.000000000000D+00  7 -1 1 23 -11 11 23 21 2 0.51186213D-01 0.38021377D-01 0.62637662D+05 0.62637662D+05 0.62637662D+05 0.11387854D+01  1  2 12  2  7  2        1 0.420924262845D-03 0.100000000000D+01
-.649352682684D-05 0.000000000000D+00 0.000000000000D+00 0.220489238214D-06 0.000000000000D+00  7 -1 1 23 -11 11 23 21 2 0.51186213D-01 0.36935772D-01 0.60735300D+05 0.60735300D+05 0.60735300D+05 0.11399386D+01  1  2  4  2  7  2        1 -.470833768266D-03 0.100000000000D+01
-.106880346045D-03 0.000000000000D+00 -.129146500244D-04 0.220489238214D-06 0.000000000000D+00  7 -1 1 23 -11 11 23 21 2 0.51186213D-01 0.38119276D-01 0.60735300D+05 0.60735300D+05 0.60735300D+05 0.11399386D+01  1  2  5  2  7  2        1 -.744013529751D-02 0.100000000000D+01
0.107240746344D-03 0.000000000000D+00 0.129082292950D-04 0.220489238214D-06 0.000000000000D+00  7 -1 1 23 -11 11 23 21 2 0.51186213D-01 0.36935772D-01 0.60735300D+05 0.60735300D+05 0.60735300D+05 0.11399386D+01  1  2  6  2  7  2        1 0.777583061704D-02 0.100000000000D+01
0.465387587239D-06 0.000000000000D+00 0.000000000000D+00 0.220489238214D-06 0.266462173500D-07  7 -1 1 23 -11 11 23 21 2 0.51545553D-01 0.37893908D-01 0.62637662D+05 0.62637662D+05 0.62637662D+05 0.11387854D+01  1  2 11  2  7  2        1 0.321665058802D-04 0.100000000000D+01
0.172304243848D-06 0.000000000000D+00 0.000000000000D+00 0.220489238214D-06 0.000000000000D+00  7 -1 21 23 -11 11 23 -1 2 0.51186213D-01 0.38021377D-01 0.62637662D+05 0.62637662D+05 0.62637662D+05 0.11387854D+01  1  2 12  4  7  2        1 0.670644363821D-04 0.100000000000D+01
-.598563438636D-06 0.000000000000D+00 -.728855198400D-07 0.220489238214D-06 0.000000000000D+00  7 -1 21 23 -11 11 23 -1 2 0.51186213D-01 0.38119276D-01 0.60735300D+05 0.60735300D+05 0.60735300D+05 0.11399386D+01  1  2  5  4  7  2        1 -.232495928080D-03 0.100000000000D+01
0.248621605437D-08 0.000000000000D+00 0.000000000000D+00 0.220489238214D-06 0.124568663048D-09  7 -1 21 23 -11 11 23 -1 2 0.51545553D-01 0.37893908D-01 0.62637662D+05 0.62637662D+05 0.62637662D+05 0.11387854D+01  1  2 11  4  7  2        1 0.962099987675D-06 0.100000000000D+01
  </mgrwgt>
  </event>
  <event>
  8     66 0.27784906E-05 0.26377334E+03 0.75467711E-02 0.10016163E+00
       -1 -1    0    0    0  501 0.00000000E+00 0.00000000E+00 0.50473693E+03 0.50473704E+03 0.32000000E+00 0.0000E+00 0.9000E+01
        1 -1    0    0  501    0 0.00000000E+00 0.00000000E+00 -.31007773E+03 0.31007789E+03 0.32000000E+00 0.0000E+00 0.9000E+01
       25  2    1    2    0    0 -.13856711E+03 -.11116878E+03 -.17768170E+03 0.39230772E+03 0.30128927E+03 0.0000E+00 0.0000E+00
       23  2    3    3    0    0 -.15387848E+03 -.16044206E+03 -.87555457E+02 0.25410394E+03 0.86502107E+02 0.0000E+00 0.0000E+00
       23  1    1    2    0    0 0.13856711E+03 0.11116878E+03 0.37234090E+03 0.42250721E+03 0.91188000E+02 0.0000E+00 0.9000E+01
      -13  1    4    4    0    0 -.94748854E+02 -.11157598E+03 -.12706716E+02 0.14692861E+03 0.10565837E+00 0.0000E+00 0.9000E+01
       13  1    4    4    0    0 -.59129624E+02 -.48866075E+02 -.74848741E+02 0.10717533E+03 0.10565837E+00 0.0000E+00 0.9000E+01
       23  1    3    3    0    0 0.15311372E+02 0.49273282E+02 -.90126238E+02 0.13820378E+03 0.91188000E+02 0.0000E+00 0.9000E+01
#aMCatNLO 1  0  0  2  1 0.92479657D+02 0.00000000D+00  -5  7  0 0.00000000D+00 0.00000000D+00 0.00000000D+00 0.00000000D+00 0.00000000D+00
  <mgrwgt>
 0.4206106991D-03    4    2    0
 0.395610653818795D+03 0.000000000000000D+00 0.000000000000000D+00 0.395610653818795D+03
 0.395610653818795D+03 0.000000000000000D+00 0.000000000000000D+00 -.395610653818795D+03
 0.343501358398357D+03 0.138567106975815D+03 0.111168777180661D+03 0.279497033476254D+03
 0.154436103712941D+03 -.947489070202540D+02 -.111576076252423D+03 -.492334637885145D+02
 0.128785742512316D+03 -.591295707232405D+02 -.488659817723940D+02 -.103448427566367D+03
 0.164498103013975D+03 0.153113707676799D+02 0.492732808441563D+02 -.126815142121373D+03
 0.000000000000000D+00 0.000000000000000D+00 -.000000000000000D+00 0.000000000000000D+00
 0.533813560110246D+03 0.000000000000000D+00 0.000000000000000D+00 0.533813560110246D+03
 0.414082151548816D+03 0.000000000000000D+00 0.000000000000000D+00 -.414082151548816D+03
 0.347893615341350D+03 0.116598300648757D+03 0.144917082550923D+03 0.279497033476254D+03
 0.150599592101303D+03 -.104441297591067D+03 -.966867030255865D+02 -.492334637885145D+02
 0.128646165168027D+03 -.673093694447216D+02 -.363002401016768D+02 -.103448427566367D+03
 0.169468212522303D+03 0.469972100966513D+01 0.655748127154929D+02 -.126815142121373D+03
 0.151288126526078D+03 0.504526453773669D+02 -.775049521391530D+02 0.119731408561429D+03
0.262120680638D-04 0.000000000000D+00 0.000000000000D+00 0.131970074850D-07 0.000000000000D+00  7 -1 1 23 -13 13 23 21 0 0.77651857D-01 0.47704286D-01 0.69576377D+05 0.69576377D+05 0.69576377D+05 0.11348838D+01  1  2  2  2  7  2        1 0.478391174784D-03 0.100000000000D+01
-.116532183670D-05 0.000000000000D+00 -.100661243161D-06 0.131970074850D-07 0.000000000000D+00  7 -1 1 23 -13 13 23 21 2 0.77651857D-01 0.47704286D-01 0.69576377D+05 0.69576377D+05 0.69576377D+05 0.11348838D+01  1  2  3  2  7  2        1 -.273924290875D-04 0.100000000000D+01
0.167229302715D-05 0.000000000000D+00 0.000000000000D+00 0.131970074850D-07 0.000000000000D+00  7 -1 1 23 -13 13 23 21 2 0.77651857D-01 0.47704286D-01 0.69576377D+05 0.69576377D+05 0.69576377D+05 0.11348838D+01  1  2 15  2  7  2        1 0.393094565956D-04 0.100000000000D+01
-.296505367168D-05 0.000000000000D+00 0.000000000000D+00 0.131970074850D-07 0.000000000000D+00  7 -1 1 23 -13 13 23 21 2 0.77651857D-01 0.47704286D-01 0.69576377D+05 0.69576377D+05 0.69576377D+05 0.11348838D+01  1  2  4  2  7  2        1 -.696975031999D-04 0.100000000000D+01
  </mgrwgt>
  </event>
  <event>
  8     66 0.27784906E-05 0.54648829E+03 0.75467711E-02 0.86886725E-01
       -1 -1    0    0    0  501 0.00000000E+00 0.00000000E+00 0.48723396E+03 0.48723406E+03 0.32000000E+00 0.0000E+00 0.9000E+01
        1 -1    0    0  501    0 0.00000000E+00 0.00000000E+00 -.63215105E+03 0.63215113E+03 0.32000000E+00 0.0000E+00 0.9000E+01
       25  2    1    2    0    0 0.39025553E+03 -.32211849E+03 -.13966945E+03 0.60518437E+03 0.30113265E+03 0.0000E+00 0.0000E+00
       23  2    3    3    0    0 0.29233178E+03 -.32996579E+03 -.13840715E+03 0.47114153E+03 0.92100523E+02 0.0000E+00 0.0000E+00
       23  1    1    2    0    0 -.39025553E+03 0.32211849E+03 -.52476353E+01 0.51420082E+03 0.91188000E+02 0.0000E+00 0.9000E+01
      -11  1    4    4    0    0 0.12240391E+03 -.18264591E+03 -.31450501E+02 0.22210668E+03 0.51099893E-03 0.0000E+00 0.9000E+01
       11  1    4    4    0    0 0.16992787E+03 -.14731988E+03 -.10695665E+03 0.24903484E+03 0.51099893E-03 0.0000E+00 0.9000E+01
       23  1    3    3    0    0 0.97923743E+02 0.78473023E+01 -.12623062E+01 0.13404284E+03 0.91188000E+02 0.0000E+00 0.9000E+01
#aMCatNLO 1  0  0  2  1 0.76827596D+03 0.00000000D+00  -5  7  0 0.00000000D+00 0.00000000D+00 0.00000000D+00 0.00000000D+00 0.00000000D+00
  <mgrwgt>
 0.3176673768D-03    3    2    0
 0.554982486245467D+03 0.000000000000000D+00 0.000000000000000D+00 0.554982486245467D+03
 0.554982486245467D+03 0.000000000000000D+00 0.000000000000000D+00 -.554982486245467D+03
 0.517879684381210D+03 -.390255525080645D+03 0.322118485591440D+03 0.618419156809415D+02
 0.219885513001552D+03 0.122403914071262D+03 -.182645905570632D+03 -.271915911166102D+01
 0.237184122029374D+03 0.169927868412481D+03 -.147319882352245D+03 -.753503785216514D+02
 0.135015653078798D+03 0.979237425969017D+02 0.784730233143743D+01 0.162276219523709D+02
 0.000000000000000D+00 -.000000000000000D+00 -.000000000000000D+00 0.000000000000000D+00
 0.253391918565696D+04 0.000000000000000D+00 0.000000000000000D+00 0.253391918565696D+04
 0.754336154448942D+03 0.000000000000000D+00 0.000000000000000D+00 -.754336154448942D+03
 0.556461428229975D+03 -.127190222440817D+03 0.530407668255382D+03 0.618419156809415D+02
 0.255366933052082D+03 0.238775173705505D+03 -.905057627560695D+02 -.271915911166102D+01
 0.317372687235615D+03 0.305717752228525D+03 -.398045101984371D+02 -.753503785216514D+02
 0.220713836231264D+03 0.185028373207022D+03 0.768147873397765D+02 0.162276219523709D+02
 0.193834045535697D+04 -.602331076700235D+03 -.476912182640652D+03 0.177958303120802D+04
0.446147719769D-04 0.000000000000D+00 0.000000000000D+00 0.208800266002D-06 0.000000000000D+00  7 -1 1 23 -11 11 23 21 0 0.74959085D-01 0.97254021D-01 0.29864945D+06 0.29864945D+06 0.29864945D+06 0.10846969D+01  1  2  2  2  7  2        1 0.315321869723D-03 0.100000000000D+01
-.247788153418D-05 0.000000000000D+00 -.171332471730D-06 0.208800266002D-06 0.000000000000D+00  7 -1 1 23 -11 11 23 21 2 0.74959085D-01 0.97254021D-01 0.29864945D+06 0.29864945D+06 0.29864945D+06 0.10846969D+01  1  2  3  2  7  2        1 -.206050052501D-04 0.100000000000D+01
0.275994351993D-05 0.000000000000D+00 0.000000000000D+00 0.208800266002D-06 0.000000000000D+00  7 -1 1 23 -11 11 23 21 2 0.74959085D-01 0.97254021D-01 0.29864945D+06 0.29864945D+06 0.29864945D+06 0.10846969D+01  1  2 15  2  7  2        1 0.229505123364D-04 0.100000000000D+01
  </mgrwgt>
  </event>
  <event>
  8     66 0.27784906E-05 0.94455366E+03 0.75467711E-02 0.85360401E-01
       -1 -1    0    0    0  501 0.00000000E+00 0.00000000E+00 0.34004314E+03 0.34004329E+03 0.32000000E+00 0.0000E+00 0.9000E+01
        1 -1    0    0  501    0 0.00000000E+00 0.00000000E+00 -.27709550E+04 0.27709550E+04 0.32000000E+00 0.0000E+00 0.9000E+01
       25  2    1    2    0    0 0.41206062E+03 0.83274017E+03 -.15205599E+04 0.18070404E+04 0.30007108E+03 0.0000E+00 0.0000E+00
       23  2    3    3    0    0 0.31185732E+03 0.69777460E+03 -.13319052E+04 0.15384101E+04 0.92681339E+02 0.0000E+00 0.0000E+00
       23  1    1    2    0    0 -.41206062E+03 -.83274017E+03 -.91035199E+03 0.13039579E+04 0.91188000E+02 0.0000E+00 0.9000E+01
      -11  1    4    4    0    0 0.16199452E+02 0.36058217E+02 -.11975395E+03 0.12610957E+03 0.51099893E-03 0.0000E+00 0.9000E+01
       11  1    4    4    0    0 0.29565787E+03 0.66171638E+03 -.12121513E+04 0.14123006E+04 0.51099893E-03 0.0000E+00 0.9000E+01
       23  1    3    3    0    0 0.10020331E+03 0.13496558E+03 -.18865461E+03 0.26863027E+03 0.91188000E+02 0.0000E+00 0.9000E+01
#aMCatNLO 1  0  0  2  1 0.51764486D+03 0.00000000D+00  -5  7  0 0.00000000D+00 0.00000000D+00 0.00000000D+00 0.00000000D+00 0.00000000D+00
  <mgrwgt>
 0.3496215569D-03    4    2    0
 0.970692795604513D+03 0.000000000000000D+00 0.000000000000000D+00 0.970692795604513D+03
 0.970692795604513D+03 0.000000000000000D+00 0.000000000000000D+00 -.970692795604513D+03
 0.949644065950239D+03 -.412060622822637D+03 -.832740173146260D+03 0.173949555325270D+03
 0.521356430729420D+02 0.161994517900951D+02 0.360582172203048D+02 -.339927641009508D+02
 0.745360291108978D+03 0.295657865444940D+03 0.661716377886719D+03 -.174010992178894D+03
 0.194245591076868D+03 0.100203305587602D+03 0.134965578039236D+03 0.340542009545750D+02
 0.000000000000000D+00 0.000000000000000D+00 -.000000000000000D+00 0.000000000000000D+00
 0.147934160307119D+04 0.000000000000000D+00 0.000000000000000D+00 0.147934160307119D+04
 0.114571434419632D+04 0.000000000000000D+00 0.000000000000000D+00 -.114571434419632D+04
 0.909342256354922D+03 -.588510987177758D+03 -.664819116769263D+03 0.173949555325270D+03
 0.574562041955669D+02 0.579726585206172D+01 0.459575793311646D+02 -.339927641009508D+02
 0.835927616779330D+03 0.145565944837772D+03 0.804553112478458D+03 -.174010992178894D+03
 0.206486260249975D+03 0.621668335991243D+02 0.171163432209174D+03 0.340542009545750D+02
 0.615843609687715D+03 0.374980942888800D+03 -.356855007249534D+03 0.333627258874865D+03
0.108390125735D-02 0.000000000000D+00 0.000000000000D+00 0.327092899164D-05 0.000000000000D+00  7 -1 1 23 -11 11 23 21 0 0.52314343D-01 0.42630078D+00 0.89218161D+06 0.89218161D+06 0.89218161D+06 0.10511781D+01  1  2  2  2  7  2        1 0.409416074650D-03 0.100000000000D+01
-.601621801081D-04 0.000000000000D+00 -.416246622599D-05 0.327092899164D-05 0.000000000000D+00  7 -1 1 23 -11 11 23 21 2 0.52314343D-01 0.42630078D+00 0.89218161D+06 0.89218161D+06 0.89218161D+06 0.10511781D+01  1  2  3  2  7  2        1 -.251102690088D-04 0.100000000000D+01
0.683352907030D-04 0.000000000000D+00 0.000000000000D+00 0.327092899164D-05 0.000000000000D+00  7 -1 1 23 -11 11 23 21 2 0.52314343D-01 0.42630078D+00 0.89218161D+06 0.89218161D+06 0.89218161D+06 0.10511781D+01  1  2 15  2  7  2        1 0.285215317873D-04 0.100000000000D+01
-.151435954332D-03 0.000000000000D+00 0.000000000000D+00 0.327092899164D-05 0.000000000000D+00  7 -1 1 23 -11 11 23 21 2 0.52314343D-01 0.42630078D+00 0.89218161D+06 0.89218161D+06 0.89218161D+06 0.10511781D+01  1  2  4  2  7  2        1 -.632057805095D-04 0.100000000000D+01
  </mgrwgt>
  </event>
  <event>
  9     66 0.27784906E-05 0.20399325E+03 0.75467711E-02 0.10327285E+00
       21 -1    0    0  502  501 0.00000000E+00 0.00000000E+00 0.53228267E+02 0.53233550E+02 0.75000000E+00 0.0000E+00 0.9000E+01
        1 -1    0    0  501    0 0.00000000E+00 0.00000000E+00 -.16383233E+04 0.16383234E+04 0.32000000E+00 0.0000E+00 0.9000E+01
       25  2    1    2    0    0 -.11103568E+03 0.57122075E+02 -.11884537E+04 0.12324069E+04 0.30135157E+03 0.0000E+00 0.0000E+00
       23  2    3    3    0    0 -.14619237E+03 0.10884541E+03 -.59508783E+03 0.62882627E+03 0.89852205E+02 0.0000E+00 0.0000E+00
       23  1    1    2    0    0 0.74456383E+02 0.18600616E+02 -.11652519E+03 0.16668266E+03 0.91188000E+02 0.0000E+00 0.9000E+01
      -13  1    4    4    0    0 -.56631621E+02 0.27426467E+02 -.92528180E+02 0.11189650E+03 0.10565837E+00 0.0000E+00 0.9000E+01
       13  1    4    4    0    0 -.89560747E+02 0.81418946E+02 -.50255965E+03 0.51692977E+03 0.10565837E+00 0.0000E+00 0.9000E+01
       23  1    3    3    0    0 0.35156690E+02 -.51723338E+02 -.59336585E+03 0.60358063E+03 0.91188000E+02 0.0000E+00 0.9000E+01
        1  1    1    2  502    0 0.36579295E+02 -.75722691E+02 -.28011619E+03 0.29246736E+03 0.32000000E+00 0.0000E+00 0.9000E+01
#aMCatNLO 2  0  0  1  1 0.84095011D+02 0.00000000D+00  -5  7  0 0.00000000D+00 0.00000000D+00 0.00000000D+00 0.00000000D+00 0.00000000D+00
  <mgrwgt>
 0.6997353178D-04    1    2    0
 0.248701508101513D+03 0.000000000000000D+00 0.000000000000000D+00 0.248701508101513D+03
 0.248701508101513D+03 0.000000000000000D+00 0.000000000000000D+00 -.248701508101513D+03
 0.165773285153046D+03 0.863816895028473D+02 -.608589544245278D+01 0.108012482249647D+03
 0.636456011765742D+02 -.517162871749707D+02 0.172512733832122D+02 0.328417684758477D+02
 0.116525270397782D+03 -.804280352006765D+02 0.625133227916788D+02 -.565822787503151D+02
 0.151458859475623D+03 0.457626328727999D+02 -.736787007324383D+02 -.842719719751800D+02
 0.000000000000000D+00 0.000000000000000D+00 -.000000000000000D+00 -.000000000000000D+00
 0.285333616610588D+03 0.000000000000000D+00 0.000000000000000D+00 0.285333616610588D+03
 0.305640224298999D+03 0.000000000000000D+00 0.000000000000000D+00 -.305640224298999D+03
 0.160846776928015D+03 0.744563965067720D+02 0.186006183130141D+02 0.108012482249647D+03
 0.709783275850340D+02 -.566315694284121D+02 0.274263846363710D+02 0.328417684758477D+02
 0.133610424813434D+03 -.895607915756674D+02 0.814190147483243D+02 -.565822787503151D+02
 0.139026294172999D+03 0.351566690315156D+02 -.517233263576521D+02 -.842719719751800D+02
 0.865120174101053D+02 0.365792954657919D+02 -.757226913400573D+02 -.203066076884117D+02
0.700271746126D-07 0.000000000000D+00 0.000000000000D+00 0.188031727641D-07 0.458037879804D-12  7 21 1 23 -13 13 23 1 2 0.81893647D-02 0.25204990D+00 0.61954863D+05 0.61954863D+05 0.61954863D+05 0.11391948D+01  1  2  1  3  7  1       -1 0.699735317794D-04 0.100000000000D+01
  </mgrwgt>
  </event>
  <event>
  8     66 0.27784906E-05 0.73176469E+03 0.75467711E-02 0.80282920E-01
       -1 -1    0    0    0  501 0.00000000E+00 0.00000000E+00 0.50401475E+03 0.50401486E+03 0.32000000E+00 0.0000E+00 0.9000E+01
        1 -1    0    0  501    0 0.00000000E+00 0.00000000E+00 -.15227161E+04 0.15227161E+04 0.32000000E+00 0.0000E+00 0.9000E+01
       25  2    1    2    0    0 -.23125415E+02 0.70224796E+03 -.10716138E+04 0.13162368E+04 0.30072620E+03 0.0000E+00 0.0000E+00
       23  2    3    3    0    0 0.16880843E+02 0.62413570E+03 -.81505296E+03 0.10301586E+04 0.84173038E+02 0.0000E+00 0.0000E+00
       23  1    1    2    0    0 0.23125415E+02 -.70224796E+03 0.52912461E+02 0.71049417E+03 0.91188000E+02 0.0000E+00 0.9000E+01
      -11  1    4    4    0    0 0.43456374E+02 0.28749444E+03 -.41340975E+03 0.50541976E+03 0.51099893E-03 0.0000E+00 0.9000E+01
       11  1    4    4    0    0 -.26575530E+02 0.33664125E+03 -.40164321E+03 0.52473885E+03 0.51099893E-03 0.0000E+00 0.9000E+01
       23  1    3    3    0    0 -.40006259E+02 0.78112262E+02 -.25656086E+03 0.28607823E+03 0.91188000E+02 0.0000E+00 0.9000E+01
#aMCatNLO 1  0  0  1  2 0.20346306D+04 0.00000000D+00  -5  7  0 0.00000000D+00 0.00000000D+00 0.00000000D+00 0.00000000D+00 0.00000000D+00
  <mgrwgt>
 0.6824421511D-03    3    2    0
 0.876054521537024D+03 0.000000000000000D+00 0.000000000000000D+00 0.876054521537024D+03
 0.876054521537024D+03 0.000000000000000D+00 0.000000000000000D+00 -.876054521537024D+03
 0.852619621950884D+03 0.231254153598413D+02 -.702247958225290D+03 0.474297363185285D+03
 0.344275844466205D+03 0.434563739867369D+02 0.287494444654884D+03 -.184348433504121D+03
 0.373464205055531D+03 -.265755305004946D+02 0.336641251982559D+03 -.159505238471945D+03
 0.181749371601429D+03 -.400062588460836D+02 0.781122615878468D+02 -.130443691209219D+03
 0.000000000000000D+00 -.000000000000000D+00 -.000000000000000D+00 -.000000000000000D+00
 0.212801909038932D+04 0.000000000000000D+00 0.000000000000000D+00 0.212801909038932D+04
 0.266010689674792D+04 0.000000000000000D+00 0.000000000000000D+00 -.266010689674792D+04
 0.669529126735510D+03 0.441009337472493D+03 -.143201870591043D+03 0.474297363185285D+03
 0.825211762356129D+03 0.364522280602506D+03 0.717017164885077D+03 -.184348433504121D+03
 0.866964415564356D+03 0.313966205340212D+03 0.792218782066622D+03 -.159505238471945D+03
 0.323365974057241D+03 0.986658531569600D+02 0.263628137114594D+03 -.130443691209219D+03
 0.210305470842400D+04 -.121816367657217D+04 -.162966221347525D+04 -.532087806358590D+03
0.516010394896D-03 0.000000000000D+00 0.000000000000D+00 0.593130602960D-07 0.000000000000D+00  7 -1 1 23 -11 11 23 21 0 0.77540742D-01 0.23426403D+00 0.53547956D+06 0.53547956D+06 0.53547956D+06 0.10664125D+01  1  2  2  1  7  1       -1 0.674642768853D-03 0.100000000000D+01
-.275383208118D-04 0.000000000000D+00 -.198161578506D-05 0.593130602960D-07 0.000000000000D+00  7 -1 1 23 -11 11 23 21 2 0.77540742D-01 0.23426403D+00 0.53547956D+06 0.53547956D+06 0.53547956D+06 0.10664125D+01  1  2  3  1  7  1       -1 -.409452350635D-04 0.100000000000D+01
0.327839101711D-04 0.000000000000D+00 0.000000000000D+00 0.593130602960D-07 0.000000000000D+00  7 -1 1 23 -11 11 23 21 2 0.77540742D-01 0.23426403D+00 0.53547956D+06 0.53547956D+06 0.53547956D+06 0.10664125D+01  1  2 15  1  7  1       -1 0.487446172711D-04 0.100000000000D+01
  </mgrwgt>
  </event>
  <event>
  8     66 0.27784906E-05 0.29993482E+03 0.75467711E-02 0.89538204E-01
       -1 -1    0    0    0  501 0.00000000E+00 0.00000000E+00 0.15598212E+03 0.15598245E+03 0.32000000E+00 0.0000E+00 0.9000E+01
        1 -1    0    0  501    0 0.00000000E+00 0.00000000E+00 -.20237427E+04 0.20237427E+04 0.32000000E+00 0.0000E+00 0.9000E+01
       25  2    1    2    0    0 -.10007053E+03 0.23817835E+03 -.18640637E+04 0.19057326E+04 0.30056609E+03 0.0000E+00 0.0000E+00
       23  2    3    3    0    0 0.62976941E+01 0.13402661E+03 -.14086083E+04 0.14179655E+04 0.91902669E+02 0.0000E+00 0.0000E+00
       23  1    1    2    0    0 0.10007053E+03 -.23817835E+03 -.36968501E+01 0.27399262E+03 0.91188000E+02 0.0000E+00 0.9000E+01
      -13  1    4    4    0    0 0.18876683E+02 0.23195504E+01 -.61452522E+02 0.64328323E+02 0.10565837E+00 0.0000E+00 0.9000E+01
       13  1    4    4    0    0 -.12578989E+02 0.13170706E+03 -.13471557E+04 0.13536372E+04 0.10565837E+00 0.0000E+00 0.9000E+01
       23  1    3    3    0    0 -.10636822E+03 0.10415174E+03 -.45545548E+03 0.48776708E+03 0.91188000E+02 0.0000E+00 0.9000E+01
#aMCatNLO 1  0  0  1  2 0.67529661D+03 0.00000000D+00  -5  7  0 0.00000000D+00 0.00000000D+00 0.00000000D+00 0.00000000D+00 0.00000000D+00
  <mgrwgt>
 0.4716566402D-03    5    2    0
 0.561843456811209D+03 0.000000000000000D+00 0.000000000000000D+00 0.561843456811209D+03
 0.561843456811209D+03 0.000000000000000D+00 0.000000000000000D+00 -.561843456811209D+03
 0.525345424621532D+03 0.100070525195310D+03 -.238178350377573D+03 0.448251633823381D+03
 0.226388025161075D+02 0.188767245320241D+02 0.231937942026920D+01 -.122802739957310D+02
 0.386578471467262D+03 -.125790304014640D+02 0.131707228476204D+03 -.363232554382507D+03
 0.189124215017517D+03 -.106368219325870D+03 0.104151742481099D+03 -.727388054451430D+02
 0.000000000000000D+00 -.000000000000000D+00 -.000000000000000D+00 0.000000000000000D+00
 0.112539960577353D+04 0.000000000000000D+00 0.000000000000000D+00 0.112539960577353D+04
 0.898111878392503D+03 0.000000000000000D+00 0.000000000000000D+00 -.898111878392503D+03
 0.629919760604243D+03 0.407304270423287D+03 -.147164389460663D+03 0.448251633823381D+03
 0.376853334149748D+02 0.349194569252157D+02 0.707182813956898D+01 -.122802739957310D+02
 0.466249806716893D+03 0.214223983567696D+03 0.198894641870228D+03 -.363232554382507D+03
 0.177136249276244D+03 -.896411192872822D+01 0.133006429706982D+03 -.727388054451430D+02
 0.712520334153680D+03 -.647483598987470D+03 -.191808510256116D+03 0.227287727381028D+03
0.713419866294D-04 0.000000000000D+00 0.000000000000D+00 0.148619390207D-05 0.000000000000D+00  7 -1 1 23 -13 13 23 21 0 0.23997277D-01 0.31134506D+00 0.89960899D+05 0.89960899D+05 0.89960899D+05 0.11255121D+01  1  2  2  1  7  1       -1 0.387912147975D-03 0.100000000000D+01
-.206498821094D-05 0.000000000000D+00 -.273972013433D-06 0.148619390207D-05 0.000000000000D+00  7 -1 1 23 -13 13 23 21 2 0.23997277D-01 0.31134506D+00 0.89960899D+05 0.89960899D+05 0.89960899D+05 0.11255121D+01  1  2  3  1  7  1       -1 -.142234868279D-04 0.100000000000D+01
0.426568114680D-05 0.000000000000D+00 0.000000000000D+00 0.148619390207D-05 0.000000000000D+00  7 -1 1 23 -13 13 23 21 2 0.23997277D-01 0.31134506D+00 0.89960899D+05 0.89960899D+05 0.89960899D+05 0.11255121D+01  1  2 15  1  7  1       -1 0.293816978142D-04 0.100000000000D+01
0.424801377777D-04 0.000000000000D+00 -.240939303816D-04 0.148619390207D-05 0.000000000000D+00  7 -1 1 23 -13 13 23 21 2 0.85350821D-01 0.31134506D+00 0.89960899D+05 0.89960899D+05 0.89960899D+05 0.11255121D+01  1  2  5  1  7  1       -1 0.302575599849D-04 0.100000000000D+01
0.703832627215D-05 0.000000000000D+00 -.358604565507D-05 0.148619390207D-05 0.000000000000D+00  7 21 1 23 -13 13 23 1 2 0.85350821D-01 0.31134506D+00 0.89960899D+05 0.89960899D+05 0.89960899D+05 0.11255121D+01  1  2  5  3  7  1       -1 0.383287213008D-04 0.100000000000D+01
  </mgrwgt>
  </event>
  <event>
  8     66 0.27784906E-05 0.16723505E+03 0.75467711E-02 0.99513731E-01
       -1 -1    0    0    0  501 0.00000000E+00 0.00000000E+00 0.27117850E+02 0.27119738E+02 0.32000000E+00 0.0000E+00 0.9000E+01
        1 -1    0    0  501    0 0.00000000E+00 0.00000000E+00 -.22597931E+04 0.22597931E+04 0.32000000E+00 0.0000E+00 0.9000E+01
       25  2    1    2    0    0 -.38528718E+02 0.53226498E+02 -.98096549E+03 0.10301670E+04 0.30762523E+03 0.0000E+00 0.0000E+00
       23  2    3    3    0    0 -.46295189E+02 -.60423454E+02 -.73232732E+03 0.74187408E+03 0.90992367E+02 0.0000E+00 0.0000E+00
       23  1    1    2    0    0 0.38528718E+02 -.53226498E+02 -.12517098E+04 0.12567458E+04 0.91188000E+02 0.0000E+00 0.9000E+01
      -11  1    4    4    0    0 -.38329749E+02 -.48497382E+02 -.72087635E+03 0.72352186E+03 0.51099893E-03 0.0000E+00 0.9000E+01
       11  1    4    4    0    0 -.79654396E+01 -.11926072E+02 -.11450969E+02 0.18352224E+02 0.51099893E-03 0.0000E+00 0.9000E+01
       23  1    3    3    0    0 0.77664705E+01 0.11364995E+03 -.24863816E+03 0.28829294E+03 0.91188000E+02 0.0000E+00 0.9000E+01
#aMCatNLO 1  0  0  1  2 0.24936703D+03 0.00000000D+00  -5  7  0 0.00000000D+00 0.00000000D+00 0.00000000D+00 0.00000000D+00 0.00000000D+00
  <mgrwgt>
 0.3154944609D-03    5    2    0
 0.247553862545111D+03 0.000000000000000D+00 0.000000000000000D+00 0.247553862545111D+03
 0.247553862545111D+03 0.000000000000000D+00 0.000000000000000D+00 -.247553862545111D+03
 0.160382905865416D+03 0.385287195912602D+02 -.532264993893795D+02 -.114411112568865D+03
 0.911895553981054D+02 -.383297486822368D+02 -.484973794273475D+02 -.670400594297215D+02
 0.331314584564492D+02 -.796543983292584D+01 -.119260713115798D+02 0.298666056121310D+02
 0.210403805370251D+03 0.776646892390248D+01 0.113649950128307D+03 0.151584566386455D+03
 0.000000000000000D+00 0.000000000000000D+00 -.000000000000000D+00 0.000000000000000D+00
 0.606276518425851D+03 0.000000000000000D+00 0.000000000000000D+00 0.606276518425851D+03
 0.324418648494974D+03 0.000000000000000D+00 0.000000000000000D+00 -.324418648494974D+03
 0.150512319175484D+03 -.281308596838325D+02 -.213882896414330D+02 -.114411112568865D+03
 0.108995612556907D+03 -.812517944333073D+02 -.279967835595882D+02 -.670400594297215D+02
 0.381278596275254D+02 -.232442726367517D+02 -.462853525146586D+01 0.298666056121310D+02
 0.256724718400637D+03 -.923913603186213D+02 0.161487725433828D+03 0.151584566386455D+03
 0.376334657160270D+03 0.225018287072513D+03 -.107474116981341D+03 0.281857869930877D+03
0.506763642409D-05 0.000000000000D+00 0.000000000000D+00 0.234552731466D-08 0.000000000000D+00  7 -1 1 23 -11 11 23 21 0 0.41721239D-02 0.34766062D+00 0.27967561D+05 0.27967561D+05 0.27967561D+05 0.11701733D+01  1  2  2  1  7  1       -1 0.290209099365D-03 0.100000000000D+01
-.228874076965D-06 0.000000000000D+00 -.194610582078D-07 0.234552731466D-08 0.000000000000D+00  7 -1 1 23 -11 11 23 21 2 0.41721239D-02 0.34766062D+00 0.27967561D+05 0.27967561D+05 0.27967561D+05 0.11701733D+01  1  2  3  1  7  1       -1 -.179474404367D-04 0.100000000000D+01
0.317842520976D-06 0.000000000000D+00 0.000000000000D+00 0.234552731466D-08 0.000000000000D+00  7 -1 1 23 -11 11 23 21 2 0.41721239D-02 0.34766062D+00 0.27967561D+05 0.27967561D+05 0.27967561D+05 0.11701733D+01  1  2 15  1  7  1       -1 0.249240096961D-04 0.100000000000D+01
0.247388162438D-06 0.000000000000D+00 -.172603260704D-05 0.234552731466D-08 0.000000000000D+00  7 -1 1 23 -11 11 23 21 2 0.14461648D-01 0.34766062D+00 0.27967561D+05 0.27967561D+05 0.27967561D+05 0.11701733D+01  1  2  5  1  7  1       -1 0.302579648833D-05 0.100000000000D+01
0.933346563726D-07 0.000000000000D+00 -.250609475909D-06 0.234552731466D-08 0.000000000000D+00  7 21 1 23 -11 11 23 1 2 0.14461648D-01 0.34766062D+00 0.27967561D+05 0.27967561D+05 0.27967561D+05 0.11701733D+01  1  2  5  3  7  1       -1 0.152829958306D-04 0.100000000000D+01
  </mgrwgt>
  </event>
  <event>
  8     66 0.27784906E-05 0.32354786E+03 0.75467711E-02 0.91473975E-01
       -1 -1    0    0    0  501 0.00000000E+00 0.00000000E+00 0.40805789E+03 0.40805802E+03 0.32000000E+00 0.0000E+00 0.9000E+01
        1 -1    0    0  501    0 0.00000000E+00 0.00000000E+00 -.16003296E+04 0.16003296E+04 0.32000000E+00 0.0000E+00 0.9000E+01
       25  2    1    2    0    0 0.10811060E+03 -.51015942E+03 -.13317429E+04 0.14609226E+04 0.29800170E+03 0.0000E+00 0.0000E+00
       23  2    3    3    0    0 0.13695763E+03 -.37529871E+03 -.73257525E+03 0.83936267E+03 0.90866266E+02 0.0000E+00 0.0000E+00
       23  1    1    2    0    0 -.10811060E+03 0.51015942E+03 0.13947122E+03 0.54746508E+03 0.91188000E+02 0.0000E+00 0.9000E+01
      -13  1    4    4    0    0 0.21816488E+02 -.26955745E+02 -.12396744E+03 0.12872649E+03 0.10565837E+00 0.0000E+00 0.9000E+01
       13  1    4    4    0    0 0.11514114E+03 -.34834297E+03 -.60860781E+03 0.71063618E+03 0.10565837E+00 0.0000E+00 0.9000E+01
       23  1    3    3    0    0 -.28847026E+02 -.13486071E+03 -.59916768E+03 0.62155991E+03 0.91188000E+02 0.0000E+00 0.9000E+01
#aMCatNLO 1  0  0  1  2 0.22125459D+03 0.00000000D+00  -5  7  0 0.00000000D+00 0.00000000D+00 0.00000000D+00 0.00000000D+00 0.00000000D+00
  <mgrwgt>
 0.5812086447D-03    9    2    0
 0.808101036516455D+03 0.000000000000000D+00 0.000000000000000D+00 0.808101036516455D+03
 0.808101036516455D+03 0.000000000000000D+00 0.000000000000000D+00 -.808101036516455D+03
 0.783200139276840D+03 -.108110604965194D+03 0.510159421122146D+03 0.577179927712008D+03
 0.685118645811464D+02 0.218163613231209D+02 -.269553106592634D+02 -.590875045527138D+02
 0.434108995612178D+03 0.115141269705222D+03 -.348343401270448D+03 -.232055990815620D+03
 0.330381073562744D+03 -.288470260631488D+02 -.134860709192435D+03 -.286036432343674D+03
 0.000000000000000D+00 -.000000000000000D+00 -.000000000000000D+00 0.000000000000000D+00
 0.100526257075500D+04 0.000000000000000D+00 0.000000000000000D+00 0.100526257075500D+04
 0.880178427385225D+03 0.000000000000000D+00 0.000000000000000D+00 -.880178427385225D+03
 0.850555201577521D+03 -.686316991828058D+02 0.614232790153879D+03 0.577179927712008D+03
 0.667599302208633D+02 0.250851386660065D+02 -.183382362002124D+02 -.590875045527138D+02
 0.399161291115462D+03 0.135276842222329D+03 -.295262475451755D+03 -.232055990815620D+03
 0.314799989736814D+03 -.132565384462793D+02 -.937614299956199D+02 -.286036432343674D+03
 0.254164585489566D+03 -.784737432592505D+02 -.206870648506291D+03 0.125084143369775D+03
0.268455316471D-03 0.000000000000D+00 0.000000000000D+00 0.537609053201D-06 0.000000000000D+00  7 -1 1 23 -13 13 23 21 0 0.62778150D-01 0.24620457D+00 0.30046353D+06 0.30046353D+06 0.30046353D+06 0.10845023D+01  1  2  2  1  7  1       -1 0.487566508373D-03 0.100000000000D+01
-.121822399685D-04 0.000000000000D+00 -.103093910116D-05 0.537609053201D-06 0.000000000000D+00  7 -1 1 23 -13 13 23 21 2 0.62778150D-01 0.24620457D+00 0.30046353D+06 0.30046353D+06 0.30046353D+06 0.10845023D+01  1  2  3  1  7  1       -1 -.260225547770D-04 0.100000000000D+01
0.167207682084D-04 0.000000000000D+00 0.000000000000D+00 0.537609053201D-06 0.000000000000D+00  7 -1 1 23 -13 13 23 21 2 0.62778150D-01 0.24620457D+00 0.30046353D+06 0.30046353D+06 0.30046353D+06 0.10845023D+01  1  2 15  1  7  1       -1 0.357173317665D-04 0.100000000000D+01
0.210290136346D-03 0.000000000000D+00 0.000000000000D+00 0.537609053201D-06 0.000000000000D+00  7 -1 1 23 -13 13 23 21 2 0.80375282D-01 0.24620457D+00 0.44443031D+06 0.44443031D+06 0.44443031D+06 0.10721455D+01  1  2 12  1  7  1       -1 0.263118891651D-03 0.100000000000D+01
-.258652668018D-03 0.000000000000D+00 0.000000000000D+00 0.537609053201D-06 0.000000000000D+00  7 -1 1 23 -13 13 23 21 2 0.62778150D-01 0.24620457D+00 0.30046353D+06 0.30046353D+06 0.30046353D+06 0.10845023D+01  1  2  4  1  7  1       -1 -.552509492432D-03 0.100000000000D+01
-.370606044970D-03 0.000000000000D+00 -.135027748253D-03 0.537609053201D-06 0.000000000000D+00  7 -1 1 23 -13 13 23 21 2 0.83901504D-01 0.24620457D+00 0.30046353D+06 0.30046353D+06 0.30046353D+06 0.10845023D+01  1  2  5  1  7  1       -1 -.444613122762D-03 0.100000000000D+01
0.398381916911D-03 0.000000000000D+00 0.129540882096D-03 0.537609053201D-06 0.000000000000D+00  7 -1 1 23 -13 13 23 21 2 0.62778150D-01 0.24620457D+00 0.30046353D+06 0.30046353D+06 0.30046353D+06 0.10845023D+01  1  2  6  1  7  1       -1 0.850985966599D-03 0.100000000000D+01
0.705584099723D-05 0.000000000000D+00 0.000000000000D+00 0.537609053201D-06 0.000000000000D+00  7 21 1 23 -13 13 23 1 2 0.80375282D-01 0.24620457D+00 0.44443031D+06 0.44443031D+06 0.44443031D+06 0.10721455D+01  1  2 12  3  7  1       -1 0.658243734081D-04 0.100000000000D+01
-.111079321448D-04 0.000000000000D+00 -.509353812223D-05 0.537609053201D-06 0.000000000000D+00  7 21 1 23 -13 13 23 1 2 0.83901504D-01 0.24620457D+00 0.30046353D+06 0.30046353D+06 0.30046353D+06 0.10845023D+01  1  2  5  3  7  1       -1 -.988592571231D-04 0.100000000000D+01
  </mgrwgt>
  </event>
  <event>
  8     66 0.27784906E-05 0.41249068E+03 0.75467711E-02 0.88707137E-01
       -1 -1    0    0    0  501 0.00000000E+00 0.00000000E+00 0.35559764E+03 0.35559778E+03 0.32000000E+00 0.0000E+00 0.9000E+01
        1 -1    0    0  501    0 0.00000000E+00 0.00000000E+00 -.56196526E+03 0.56196535E+03 0.32000000E+00 0.0000E+00 0.9000E+01
       25  2    1    2    0    0 -.35522946E+03 -.10418442E+03 0.16592064E+02 0.47589738E+03 0.29859782E+03 0.0000E+00 0.0000E+00
       23  2    3    3    0    0 -.24033391E+03 -.15656727E+03 0.72687398E+02 0.31034712E+03 0.93585132E+02 0.0000E+00 0.0000E+00
       23  1    1    2    0    0 0.35522946E+03 0.10418442E+03 -.22295968E+03 0.44166575E+03 0.91188000E+02 0.0000E+00 0.9000E+01
      -11  1    4    4    0    0 -.55822953E+01 -.92967854E+01 -.16044653E+02 0.19365514E+02 0.51099893E-03 0.0000E+00 0.9000E+01
       11  1    4    4    0    0 -.23475162E+03 -.14727049E+03 0.88732051E+02 0.29098161E+03 0.51099893E-03 0.0000E+00 0.9000E+01
       23  1    3    3    0    0 -.11489555E+03 0.52382854E+02 -.56095334E+02 0.16555026E+03 0.91188000E+02 0.0000E+00 0.9000E+01
#aMCatNLO 1  0  0  2  1 0.68440485D+03 0.00000000D+00  -5  7  0 0.00000000D+00 0.00000000D+00 0.00000000D+00 0.00000000D+00 0.00000000D+00
  <mgrwgt>
 0.5487121802D-03    3    2    0
 0.447027545223745D+03 0.000000000000000D+00 0.000000000000000D+00 0.447027545223745D+03
 0.447027545223745D+03 0.000000000000000D+00 0.000000000000000D+00 -.447027545223745D+03
 0.401814780287311D+03 0.355229460911249D+03 0.104184419642623D+03 -.126875935928660D+03
 0.161712461063354D+02 -.558229526089907D+01 -.929678540416751D+01 -.119965395594175D+02
 0.319113909696955D+03 -.234751615461345D+03 -.147270488706761D+03 0.158230115832723D+03
 0.156955154356888D+03 -.114895550189005D+03 0.523828544683061D+02 -.193576403446464D+02
 0.000000000000000D+00 0.000000000000000D+00 0.000000000000000D+00 0.000000000000000D+00
 0.243624718497860D+04 0.000000000000000D+00 0.000000000000000D+00 0.243624718497860D+04
 0.625482933386358D+03 0.000000000000000D+00 0.000000000000000D+00 -.625482933386358D+03
 0.222648037083254D+03 0.152032682360495D+03 0.452267337923637D+02 -.126875935928660D+03
 0.264526577711437D+02 -.194518799923486D+02 -.133210550077631D+02 -.119965395594175D+02
 0.605881635130794D+03 -.535740096527725D+03 -.234602504685675D+03 0.158230115832723D+03
 0.270959275099139D+03 -.254136560449590D+03 0.119819790264459D+02 -.193576403446464D+02
 0.193578851328063D+04 0.657295854609168D+03 0.190714846874628D+03 0.181076425159224D+04
0.348167271736D-04 0.000000000000D+00 0.000000000000D+00 0.463952010338D-07 0.000000000000D+00  7 -1 1 23 -11 11 23 21 0 0.54707347D-01 0.86456212D-01 0.17014857D+06 0.17014857D+06 0.17014857D+06 0.11032581D+01  1  2  2  2  7  2        1 0.542719032546D-03 0.100000000000D+01
-.191905783702D-05 0.000000000000D+00 -.133705399802D-06 0.463952010338D-07 0.000000000000D+00  7 -1 1 23 -11 11 23 21 2 0.54707347D-01 0.86456212D-01 0.17014857D+06 0.17014857D+06 0.17014857D+06 0.11032581D+01  1  2  3  2  7  2        1 -.364107332252D-04 0.100000000000D+01
0.223493164326D-05 0.000000000000D+00 0.000000000000D+00 0.463952010338D-07 0.000000000000D+00  7 -1 1 23 -11 11 23 21 2 0.54707347D-01 0.86456212D-01 0.17014857D+06 0.17014857D+06 0.17014857D+06 0.11032581D+01  1  2 15  2  7  2        1 0.424038808363D-04 0.100000000000D+01
  </mgrwgt>
  </event>
  <event>
  8     66 0.27784906E-05 0.27867715E+03 0.75467711E-02 0.88892230E-01
       -3 -1    0    0    0  501 0.00000000E+00 0.00000000E+00 0.13019872E+03 0.13019968E+03 0.50000000E+00 0.0000E+00 0.9000E+01
        3 -1    0    0  501    0 0.00000000E+00 0.00000000E+00 -.12481642E+04 0.12481643E+04 0.50000000E+00 0.0000E+00 0.9000E+01
       25  2    1    2    0    0 0.16529710E+03 -.10637764E+03 -.15415340E+03 0.39049339E+03 0.30013745E+03 0.0000E+00 0.0000E+00
       23  2    3    3    0    0 0.20580186E+03 -.26522813E+02 -.12255003E+03 0.25884442E+03 0.94467225E+02 0.0000E+00 0.0000E+00
       23  1    1    2    0    0 -.16529710E+03 0.10637764E+03 -.96381211E+03 0.98787063E+03 0.91188000E+02 0.0000E+00 0.9000E+01
      -13  1    4    4    0    0 0.13283766E+02 0.10359353E+02 -.44986778E+02 0.48037444E+02 0.10565837E+00 0.0000E+00 0.9000E+01
       13  1    4    4    0    0 0.19251809E+03 -.36882166E+02 -.77563256E+02 0.21080697E+03 0.10565837E+00 0.0000E+00 0.9000E+01
       23  1    3    3    0    0 -.40504761E+02 -.79854828E+02 -.31603369E+02 0.13164898E+03 0.91188000E+02 0.0000E+00 0.9000E+01
#aMCatNLO 1  0  0  1  1 0.76857553D+03 0.00000000D+00  -5  7  0 0.00000000D+00 0.00000000D+00 0.00000000D+00 0.00000000D+00 0.00000000D+00
  <mgrwgt>
 0.2249718490D-04    5    2    0
 0.403125438075627D+03 0.000000000000000D+00 0.000000000000000D+00 0.403125438075627D+03
 0.403125438075627D+03 0.000000000000000D+00 0.000000000000000D+00 -.403125438075627D+03
 0.352417130413311D+03 -.165297096025030D+03 0.106377640571641D+03 -.277926699143597D+03
 0.197447007372900D+02 0.132835423792059D+02 0.103594121486770D+02 -.102996742180916D+02
 0.252844293741364D+03 0.192518315162112D+03 -.368822239717950D+02 0.159707973375174D+03
 0.181244751259288D+03 -.405047615162880D+02 -.798548287485233D+02 0.128518399986515D+03
 0.000000000000000D+00 0.000000000000000D+00 0.000000000000000D+00 0.000000000000000D+00
 0.206286331833927D+04 0.000000000000000D+00 0.000000000000000D+00 0.206286331833927D+04
 0.655008966307232D+03 0.000000000000000D+00 0.000000000000000D+00 -.655008966307232D+03
 0.483781437761304D+03 -.341740007387273D+03 -.178044223249410D+03 -.277926699143597D+03
 0.122115772655615D+02 0.654057612487138D+01 -.510092411939119D+00 -.102996742180916D+02
 0.282452685327488D+03 0.795674431742537D+02 -.218956399029158D+03 0.159707973375174D+03
 0.335443349659677D+03 -.149529048643904D+03 -.255599440459989D+03 0.128518399986515D+03
 0.160398323463247D+04 0.405161036732052D+03 0.653110155150496D+03 0.140785435203204D+04
0.158862402467D-04 0.000000000000D+00 0.000000000000D+00 0.202946836876D-06 0.000000000000D+00  7 -3 3 23 -13 13 23 21 0 0.20030654D-01 0.19202535D+00 0.77660954D+05 0.77660954D+05 0.77660954D+05 0.11308451D+01  1  2  2  1  7  1       -3 0.215645912615D-04 0.100000000000D+01
-.736304380928D-06 0.000000000000D+00 -.610073454904D-07 0.202946836876D-06 0.000000000000D+00  7 -3 3 23 -13 13 23 21 2 0.20030654D-01 0.19202535D+00 0.77660954D+05 0.77660954D+05 0.77660954D+05 0.11308451D+01  1  2  3  1  7  1       -3 -.127815562320D-05 0.100000000000D+01
0.969723282178D-06 0.000000000000D+00 0.000000000000D+00 0.202946836876D-06 0.000000000000D+00  7 -3 3 23 -13 13 23 21 2 0.20030654D-01 0.19202535D+00 0.77660954D+05 0.77660954D+05 0.77660954D+05 0.11308451D+01  1  2 15  1  7  1       -3 0.168334903087D-05 0.100000000000D+01
0.889104803419D-05 0.000000000000D+00 -.901086718372D-05 0.202946836876D-06 0.000000000000D+00  7 -3 3 23 -13 13 23 21 2 0.15281026D+00 0.19202535D+00 0.77660954D+05 0.77660954D+05 0.77660954D+05 0.11308451D+01  1  2  5  1  7  1       -3 0.163985321927D-06 0.100000000000D+01
0.120240096969D-05 0.000000000000D+00 -.222899103100D-05 0.202946836876D-06 0.000000000000D+00  7 21 3 23 -13 13 23 3 2 0.15281026D+00 0.19202535D+00 0.77660954D+05 0.77660954D+05 0.77660954D+05 0.11308451D+01  1  2  5  3  7  1       -3 0.363414908514D-06 0.100000000000D+01
  </mgrwgt>
  </event>
  <event>
  8     66 0.27784906E-05 0.31341743E+03 0.75467711E-02 0.90342255E-01
       -1 -1    0    0    0  501 0.00000000E+00 0.00000000E+00 0.79730343E+02 0.79730985E+02 0.32000000E+00 0.0000E+00 0.9000E+01
        1 -1    0    0  501    0 0.00000000E+00 0.00000000E+00 -.16228069E+04 0.16228069E+04 0.32000000E+00 0.0000E+00 0.9000E+01
       25  2    1    2    0    0 0.10863795E+03 0.26741189E+03 -.94833109E+03 0.10351934E+04 0.29829874E+03 0.0000E+00 0.0000E+00
       23  2    3    3    0    0 0.70586616E+02 0.12248930E+03 -.75619563E+03 0.77503621E+03 0.94144602E+02 0.0000E+00 0.0000E+00
       23  1    1    2    0    0 -.10863795E+03 -.26741189E+03 -.59474548E+03 0.66734456E+03 0.91188000E+02 0.0000E+00 0.9000E+01
      -13  1    4    4    0    0 -.33963662E+01 0.30486553E+02 -.47293735E+02 0.56370859E+02 0.10565837E+00 0.0000E+00 0.9000E+01
       13  1    4    4    0    0 0.73982982E+02 0.92002747E+02 -.70890189E+03 0.71866535E+03 0.10565837E+00 0.0000E+00 0.9000E+01
       23  1    3    3    0    0 0.38051339E+02 0.14492259E+03 -.19213547E+03 0.26015716E+03 0.91188000E+02 0.0000E+00 0.9000E+01
#aMCatNLO 1  0  0  1  2 0.60521953D+03 0.00000000D+00  -5  7  0 0.00000000D+00 0.00000000D+00 0.00000000D+00 0.00000000D+00 0.00000000D+00
  <mgrwgt>
 0.7379331668D-03    3    2    0
 0.359704776075485D+03 0.000000000000000D+00 0.000000000000000D+00 0.359704776075485D+03
 0.359704776075485D+03 0.000000000000000D+00 0.000000000000000D+00 -.359704776075485D+03
 0.303640127101582D+03 -.108637954499764D+03 -.267411886394645D+03 0.238904436800471D+02
 0.319644572030251D+02 -.339646314026443D+01 0.304864743357539D+02 0.898695971929705D+01
 0.180238443359258D+03 0.739830784330470D+02 0.920028241507881D+02 -.136190605103352D+03
 0.203566524487106D+03 0.380513392069818D+02 0.144922587908103D+03 0.103313201704008D+03
 0.000000000000000D+00 -.000000000000000D+00 0.000000000000000D+00 -.000000000000000D+00
 0.688463480906166D+03 0.000000000000000D+00 0.000000000000000D+00 0.688463480906166D+03
 0.889353870424258D+03 0.000000000000000D+00 0.000000000000000D+00 -.889353870424258D+03
 0.372179070678736D+03 0.127932326539388D+03 -.336548029015589D+03 0.238904436800471D+02
 0.318343146199278D+02 0.189362753046929D+02 0.239598752064605D+02 0.898695971929705D+01
 0.273566237970024D+03 0.232837253264950D+03 0.455787135699104D+02 -.136190605103352D+03
 0.262548442499871D+03 0.201214725359425D+03 0.972391380427975D+02 0.103313201704008D+03
 0.637689285561865D+03 -.580920580468455D+03 0.169770302196421D+03 -.200890389518092D+03
0.254087630168D-04 0.000000000000D+00 0.000000000000D+00 0.128259460470D-07 0.000000000000D+00  7 -1 1 23 -13 13 23 21 0 0.12266258D-01 0.24966265D+00 0.98230483D+05 0.98230483D+05 0.98230483D+05 0.11223589D+01  1  2  2  1  7  1       -1 0.730056513770D-03 0.100000000000D+01
-.137903218624D-05 0.000000000000D+00 -.975763402655D-07 0.128259460470D-07 0.000000000000D+00  7 -1 1 23 -13 13 23 21 2 0.12266258D-01 0.24966265D+00 0.98230483D+05 0.98230483D+05 0.98230483D+05 0.11223589D+01  1  2  3  1  7  1       -1 -.499126761384D-04 0.100000000000D+01
0.159665542165D-05 0.000000000000D+00 0.000000000000D+00 0.128259460470D-07 0.000000000000D+00  7 -1 1 23 -13 13 23 21 2 0.12266258D-01 0.24966265D+00 0.98230483D+05 0.98230483D+05 0.98230483D+05 0.11223589D+01  1  2 15  1  7  1       -1 0.577893291835D-04 0.100000000000D+01
  </mgrwgt>
  </event>
  <event>
  8     66 0.27784906E-05 0.41162033E+03 0.75467711E-02 0.87642095E-01
       -1 -1    0    0    0  501 0.00000000E+00 0.00000000E+00 0.10613807E+04 0.10613808E+04 0.32000000E+00 0.0000E+00 0.9000E+01
        1 -1    0    0  501    0 0.00000000E+00 0.00000000E+00 -.10001123E+04 0.10001123E+04 0.32000000E+00 0.0000E+00 0.9000E+01
       25  2    1    2    0    0 0.49257248E+03 -.79769152E+03 -.33457841E+03 0.10397547E+04 0.30034602E+03 0.0000E+00 0.0000E+00
       23  2    3    3    0    0 0.81148536E+02 -.74231151E+02 -.28621812E+02 0.14835735E+03 0.95369519E+02 0.0000E+00 0.0000E+00
       23  1    1    2    0    0 -.49257248E+03 0.79769152E+03 0.39584686E+03 0.10217384E+04 0.91188000E+02 0.0000E+00 0.9000E+01
      -13  1    4    4    0    0 0.22322237E+02 -.53315853E+02 0.27861532E+02 0.64164932E+02 0.10565837E+00 0.0000E+00 0.9000E+01
       13  1    4    4    0    0 0.58826299E+02 -.20915298E+02 -.56483344E+02 0.84192413E+02 0.10565837E+00 0.0000E+00 0.9000E+01
       23  1    3    3    0    0 0.41142394E+03 -.72346036E+03 -.30595660E+03 0.89139736E+03 0.91188000E+02 0.0000E+00 0.9000E+01
#aMCatNLO 1  0  0  1  2 0.46520165D+02 0.00000000D+00  -5  7  0 0.00000000D+00 0.00000000D+00 0.00000000D+00 0.00000000D+00 0.00000000D+00
  <mgrwgt>
 0.4375349573D-03    9    2    0
 0.103029122779521D+04 0.000000000000000D+00 0.000000000000000D+00 0.103029122779521D+04
 0.103029122779521D+04 0.000000000000000D+00 0.000000000000000D+00 -.103029122779521D+04
 0.101042003067481D+04 -.492572476624511D+03 0.797691515297186D+03 0.365641885920845D+03
 0.633648391207006D+02 0.223221916443448D+02 -.533158924226103D+02 0.259660973610989D+02
 0.859090999045916D+02 0.588263437787104D+02 -.209152582296322D+02 -.590117505013526D+02
 0.900888485890331D+03 0.411423941201456D+03 -.723460364644943D+03 -.332596232780591D+03
 0.000000000000000D+00 0.000000000000000D+00 -.000000000000000D+00 0.000000000000000D+00
 0.107498745977029D+04 0.000000000000000D+00 0.000000000000000D+00 0.107498745977029D+04
 0.104272990672966D+04 0.000000000000000D+00 0.000000000000000D+00 -.104272990672966D+04
 0.103168721634642D+04 -.502217278378973D+03 0.818625114192382D+03 0.365641885920845D+03
 0.620768849308846D+02 0.217297347290774D+02 -.520299919196625D+02 0.259660973610989D+02
 0.849463916910849D+02 0.580193992132351D+02 -.191638221406008D+02 -.590117505013526D+02
 0.882397020486618D+03 0.403001545558083D+03 -.705179942027294D+03 -.332596232780591D+03
 0.566098530449469D+02 0.194665988785777D+02 -.422513581048248D+02 0.322575530406275D+02
0.331722371637D-03 0.000000000000D+00 0.000000000000D+00 0.418283874764D-06 0.000000000000D+00  7 -1 1 23 -13 13 23 21 0 0.16328935D+00 0.15386344D+00 0.90195041D+06 0.90195041D+06 0.90195041D+06 0.10508604D+01  1  2  2  1  7  1       -1 0.158795295971D-03 0.100000000000D+01
-.182804090754D-04 0.000000000000D+00 -.127390125159D-05 0.418283874764D-06 0.000000000000D+00  7 -1 1 23 -13 13 23 21 2 0.16328935D+00 0.15386344D+00 0.90195041D+06 0.90195041D+06 0.90195041D+06 0.10508604D+01  1  2  3  1  7  1       -1 -.966359733513D-05 0.100000000000D+01
0.207830164638D-04 0.000000000000D+00 0.000000000000D+00 0.418283874764D-06 0.000000000000D+00  7 -1 1 23 -13 13 23 21 2 0.16328935D+00 0.15386344D+00 0.90195041D+06 0.90195041D+06 0.90195041D+06 0.10508604D+01  1  2 15  1  7  1       -1 0.109865540584D-04 0.100000000000D+01
0.106481901109D-02 0.000000000000D+00 0.000000000000D+00 0.418283874764D-06 0.000000000000D+00  7 -1 1 23 -13 13 23 21 2 0.17133066D+00 0.15386344D+00 0.94677088D+06 0.94677088D+06 0.94677088D+06 0.10494489D+01  1  2 12  1  7  1       -1 0.480067085779D-03 0.100000000000D+01
-.106236530103D-02 0.000000000000D+00 0.000000000000D+00 0.418283874764D-06 0.000000000000D+00  7 -1 1 23 -13 13 23 21 2 0.16328935D+00 0.15386344D+00 0.90195041D+06 0.90195041D+06 0.90195041D+06 0.10508604D+01  1  2  4  1  7  1       -1 -.561599603687D-03 0.100000000000D+01
-.558041863542D-02 0.000000000000D+00 -.750413188395D-03 0.418283874764D-06 0.000000000000D+00  7 -1 1 23 -13 13 23 21 2 0.17152281D+00 0.15386344D+00 0.90195041D+06 0.90195041D+06 0.90195041D+06 0.10508604D+01  1  2  5  1  7  1       -1 -.252171632510D-02 0.100000000000D+01
0.561144942283D-02 0.000000000000D+00 0.749506140766D-03 0.418283874764D-06 0.000000000000D+00  7 -1 1 23 -13 13 23 21 2 0.16328935D+00 0.15386344D+00 0.90195041D+06 0.90195041D+06 0.90195041D+06 0.10508604D+01  1  2  6  1  7  1       -1 0.296638808601D-02 0.100000000000D+01
0.159678542128D-04 0.000000000000D+00 0.000000000000D+00 0.418283874764D-06 0.000000000000D+00  7 21 1 23 -13 13 23 1 2 0.17133066D+00 0.15386344D+00 0.94677088D+06 0.94677088D+06 0.94677088D+06 0.10494489D+01  1  2 12  3  7  1       -1 0.435365967267D-04 0.100000000000D+01
-.472388096307D-04 0.000000000000D+00 -.643836577685D-05 0.418283874764D-06 0.000000000000D+00  7 21 1 23 -13 13 23 1 2 0.17152281D+00 0.15386344D+00 0.90195041D+06 0.90195041D+06 0.90195041D+06 0.10508604D+01  1  2  5  3  7  1       -1 -.129259135089D-03 0.100000000000D+01
  </mgrwgt>
  </event>
  <event>
  8     66 0.27784906E-05 0.24763206E+03 0.75467711E-02 0.75612815E-01
       -3 -1    0    0    0  501 0.00000000E+00 0.00000000E+00 0.23763939E+03 0.23763991E+03 0.50000000E+00 0.0000E+00 0.9000E+01
        3 -1    0    0  501    0 0.00000000E+00 0.00000000E+00 -.34965082E+03 0.34965118E+03 0.50000000E+00 0.0000E+00 0.9000E+01
       25  2    1    2    0    0 -.14706361E+03 -.76314394E+02 -.17965772E+03 0.38643576E+03 0.29933946E+03 0.0000E+00 0.0000E+00
       23  2    3    3    0    0 -.86379808E+02 -.13803931E+03 -.26546494E+02 0.18831765E+03 0.90788214E+02 0.0000E+00 0.0000E+00
       23  1    1    2    0    0 0.14706361E+03 0.76314394E+02 0.67646284E+02 0.20085533E+03 0.91188000E+02 0.0000E+00 0.9000E+01
      -11  1    4    4    0    0 -.27235004E+02 -.11291673E+03 0.59534403E+01 0.11630725E+03 0.51099893E-03 0.0000E+00 0.9000E+01
       11  1    4    4    0    0 -.59144804E+02 -.25122575E+02 -.32499935E+02 0.72010398E+02 0.51099893E-03 0.0000E+00 0.9000E+01
       23  1    3    3    0    0 -.60683803E+02 0.61724912E+02 -.15311122E+03 0.19811811E+03 0.91188000E+02 0.0000E+00 0.9000E+01
#aMCatNLO 1  0  0  1  2 0.41013374D+04 0.00000000D+00  -5  7  0 0.00000000D+00 0.00000000D+00 0.00000000D+00 0.00000000D+00 0.00000000D+00
  <mgrwgt>
 0.5448087538D-04    5    2    0
 0.288255210340172D+03 0.000000000000000D+00 0.000000000000000D+00 0.288255210340172D+03
 0.288255210340172D+03 0.000000000000000D+00 0.000000000000000D+00 -.288255210340172D+03
 0.217754438191409D+03 0.147063610565605D+03 0.763143938833862D+02 0.107935868652065D+03
 0.119638889833206D+03 -.272350036535939D+02 -.112916731025104D+03 0.286623514582281D+02
 0.670425014988183D+02 -.591448038466808D+02 -.251225750421138D+02 -.191166264913574D+02
 0.172074591156911D+03 -.606838030653302D+02 0.617249121838315D+02 -.117481593618935D+03
 0.000000000000000D+00 -.000000000000000D+00 -.000000000000000D+00 0.000000000000000D+00
 0.760104918567262D+04 0.000000000000000D+00 0.000000000000000D+00 0.760104918567262D+04
 0.283124045151653D+04 0.000000000000000D+00 0.000000000000000D+00 -.283124045151653D+04
 0.231917284238785D+04 0.620420975599816D+03 0.223017377861445D+04 0.107935868652065D+03
 0.333246380931730D+02 0.130598491941506D+01 0.169497939903767D+02 0.286623514582281D+02
 0.216760318775117D+03 -.619091895508318D+01 0.215826928138200D+03 -.191166264913574D+02
 0.157240040734100D+04 0.264812357182702D+03 0.154278977190874D+04 -.117481593618935D+03
 0.629063143059201D+04 -.880348398746850D+03 -.400574027265177D+04 0.476980873415609D+04
0.496537335628D-05 0.000000000000D+00 0.000000000000D+00 0.184323750718D-06 0.000000000000D+00  7 -3 3 23 -11 11 23 21 0 0.36559974D-01 0.53792502D-01 0.61321635D+05 0.61321635D+05 0.61321635D+05 0.11395790D+01  1  2  2  1  7  1       -3 0.537303138853D-04 0.100000000000D+01
-.268114997115D-06 0.000000000000D+00 -.190683411009D-07 0.184323750718D-06 0.000000000000D+00  7 -3 3 23 -11 11 23 21 2 0.36559974D-01 0.53792502D-01 0.61321635D+05 0.61321635D+05 0.61321635D+05 0.11395790D+01  1  2  3  1  7  1       -3 -.376770986576D-05 0.100000000000D+01
0.321522860994D-06 0.000000000000D+00 0.000000000000D+00 0.184323750718D-06 0.000000000000D+00  7 -3 3 23 -11 11 23 21 2 0.36559974D-01 0.53792502D-01 0.61321635D+05 0.61321635D+05 0.61321635D+05 0.11395790D+01  1  2 15  1  7  1       -3 0.451822862753D-05 0.100000000000D+01
0.288500902437D-04 0.000000000000D+00 -.875414920606D-05 0.184323750718D-06 0.000000000000D+00  7 -3 3 23 -11 11 23 21 2 0.99290127D+00 0.53792502D-01 0.61321635D+05 0.61321635D+05 0.61321635D+05 0.11395790D+01  1  2  5  1  7  1       -3 0.427241205673D-10 0.100000000000D+01
0.717423582059D-05 0.000000000000D+00 -.293367202057D-05 0.184323750718D-06 0.000000000000D+00  7 21 3 23 -11 11 23 3 2 0.99290127D+00 0.53792502D-01 0.61321635D+05 0.61321635D+05 0.61321635D+05 0.11395790D+01  1  2  5  3  7  1       -3 0.704580566700D-14 0.100000000000D+01
  </mgrwgt>
  </event>
  <event>
  8     66 0.27784906E-05 0.21384752E+03 0.75467711E-02 0.97317150E-01
       -1 -1    0    0    0  501 0.00000000E+00 0.00000000E+00 0.63240886E+03 0.63240894E+03 0.32000000E+00 0.0000E+00 0.9000E+01
        1 -1    0    0  501    0 0.00000000E+00 0.00000000E+00 -.26019328E+03 0.26019348E+03 0.32000000E+00 0.0000E+00 0.9000E+01
       25  2    1    2    0    0 -.18975442E+03 -.25818732E+03 0.34565880E+03 0.55840496E+03 0.29944726E+03 0.0000E+00 0.0000E+00
       23  2    3    3    0    0 0.39549922E+00 0.16378178E+02 0.59578494E+02 0.10929429E+03 0.90151224E+02 0.0000E+00 0.0000E+00
       23  1    1    2    0    0 0.18975442E+03 0.25818732E+03 0.26556782E+02 0.33419746E+03 0.91188000E+02 0.0000E+00 0.9000E+01
      -13  1    4    4    0    0 -.75154715E+01 -.29940027E+02 0.53698322E+02 0.61938748E+02 0.10565837E+00 0.0000E+00 0.9000E+01
       13  1    4    4    0    0 0.79109707E+01 0.46318205E+02 0.58801717E+01 0.47355540E+02 0.10565837E+00 0.0000E+00 0.9000E+01
       23  1    3    3    0    0 -.19014992E+03 -.27456549E+03 0.28608030E+03 0.44911067E+03 0.91188000E+02 0.0000E+00 0.9000E+01
#aMCatNLO 1  0  0  1  2 0.35889452D+02 0.00000000D+00  -5  7  0 0.00000000D+00 0.00000000D+00 0.00000000D+00 0.00000000D+00 0.00000000D+00
  <mgrwgt>
 0.4501843801D-03    9    2    0
 0.405645980829661D+03 0.000000000000000D+00 0.000000000000000D+00 0.405645980829661D+03
 0.405645980829661D+03 0.000000000000000D+00 0.000000000000000D+00 -.405645980829661D+03
 0.355507796835848D+03 0.189754423569774D+03 0.258187315301363D+03 -.124109271290486D+03
 0.435100053645472D+02 -.751549259781821D+01 -.299401314044803D+02 0.306631125184238D+02
 0.494038971944320D+02 0.791099187354717D+01 0.463183098320261D+02 -.152569800379731D+02
 0.362870262264496D+03 -.190149922845503D+03 -.274565493728909D+03 0.108703138810035D+03
 0.000000000000000D+00 0.000000000000000D+00 0.000000000000000D+00 0.000000000000000D+00
 0.444552174836378D+03 0.000000000000000D+00 0.000000000000000D+00 0.444552174836378D+03
 0.414404622186533D+03 0.000000000000000D+00 0.000000000000000D+00 -.414404622186533D+03
 0.341713379892043D+03 0.179808330840434D+03 0.246411516762843D+03 -.124109271290486D+03
 0.447789340849698D+02 -.877496377862930D+01 -.314312977643668D+02 0.306631125184238D+02
 0.476610356540347D+02 0.652632821859512D+01 0.446789203061044D+02 -.152569800379731D+02
 0.377932052166468D+03 -.200717715045991D+03 -.287077360985363D+03 0.108703138810035D+03
 0.468713952253953D+02 0.231580197655911D+02 0.274182216807826D+02 0.301475526498448D+02
0.189419382340D-04 0.000000000000D+00 0.000000000000D+00 0.393534026249D-06 0.000000000000D+00  7 -1 1 23 -13 13 23 21 0 0.97293692D-01 0.40029757D-01 0.14333965D+06 0.14333965D+06 0.14333965D+06 0.11091118D+01  1  2  2  1  7  1       -1 0.267137838878D-03 0.100000000000D+01
-.104623923619D-05 0.000000000000D+00 -.727420303456D-07 0.393534026249D-06 0.000000000000D+00  7 -1 1 23 -13 13 23 21 2 0.97293692D-01 0.40029757D-01 0.14333965D+06 0.14333965D+06 0.14333965D+06 0.11091118D+01  1  2  3  1  7  1       -1 -.181506708824D-04 0.100000000000D+01
0.122883113216D-05 0.000000000000D+00 0.000000000000D+00 0.393534026249D-06 0.000000000000D+00  7 -1 1 23 -13 13 23 21 2 0.97293692D-01 0.40029757D-01 0.14333965D+06 0.14333965D+06 0.14333965D+06 0.11091118D+01  1  2 15  1  7  1       -1 0.213183645559D-04 0.100000000000D+01
0.643948203769D-04 0.000000000000D+00 0.000000000000D+00 0.393534026249D-06 0.000000000000D+00  7 -1 1 23 -13 13 23 21 2 0.10760899D+00 0.40029757D-01 0.15761535D+06 0.15761535D+06 0.15761535D+06 0.11058587D+01  1  2 12  1  7  1       -1 0.883179282981D-03 0.100000000000D+01
-.650353030012D-04 0.000000000000D+00 0.000000000000D+00 0.393534026249D-06 0.000000000000D+00  7 -1 1 23 -13 13 23 21 2 0.97293692D-01 0.40029757D-01 0.14333965D+06 0.14333965D+06 0.14333965D+06 0.11091118D+01  1  2  4  1  7  1       -1 -.112826430101D-02 0.100000000000D+01
-.140690524235D-03 0.000000000000D+00 -.222950784535D-04 0.393534026249D-06 0.000000000000D+00  7 -1 1 23 -13 13 23 21 2 0.10810000D+00 0.40029757D-01 0.14333965D+06 0.14333965D+06 0.14333965D+06 0.11091118D+01  1  2  5  1  7  1       -1 -.192603490366D-02 0.100000000000D+01
0.142371406381D-03 0.000000000000D+00 0.221719894364D-04 0.393534026249D-06 0.000000000000D+00  7 -1 1 23 -13 13 23 21 2 0.97293692D-01 0.40029757D-01 0.14333965D+06 0.14333965D+06 0.14333965D+06 0.11091118D+01  1  2  6  1  7  1       -1 0.246992891385D-02 0.100000000000D+01
0.105286976482D-05 0.000000000000D+00 0.000000000000D+00 0.393534026249D-06 0.000000000000D+00  7 21 1 23 -13 13 23 1 2 0.10760899D+00 0.40029757D-01 0.15761535D+06 0.15761535D+06 0.15761535D+06 0.11058587D+01  1  2 12  3  7  1       -1 0.998178521893D-04 0.100000000000D+01
-.230844911802D-05 0.000000000000D+00 -.378653112472D-06 0.393534026249D-06 0.000000000000D+00  7 21 1 23 -13 13 23 1 2 0.10810000D+00 0.40029757D-01 0.14333965D+06 0.14333965D+06 0.14333965D+06 0.11091118D+01  1  2  5  3  7  1       -1 -.218747996799D-03 0.100000000000D+01
  </mgrwgt>
  </event>
  <event>
  8     66 0.27784906E-05 0.28950819E+03 0.75467711E-02 0.93290634E-01
       -1 -1    0    0    0  501 0.00000000E+00 0.00000000E+00 0.27492539E+03 0.27492558E+03 0.32000000E+00 0.0000E+00 0.9000E+01
        1 -1    0    0  501    0 0.00000000E+00 0.00000000E+00 -.10930769E+04 0.10930770E+04 0.32000000E+00 0.0000E+00 0.9000E+01
       25  2    1    2    0    0 0.36066621E+03 -.34933275E+03 -.39735712E+03 0.70656724E+03 0.29871574E+03 0.0000E+00 0.0000E+00
       23  2    3    3    0    0 0.11420413E+03 -.26867419E+03 -.16984064E+03 0.34973624E+03 0.90781001E+02 0.0000E+00 0.0000E+00
       23  1    1    2    0    0 -.36066621E+03 0.34933275E+03 -.42079441E+03 0.66143531E+03 0.91188000E+02 0.0000E+00 0.9000E+01
      -11  1    4    4    0    0 0.58644977E+02 -.20610143E+03 -.84864769E+02 0.23047573E+03 0.51099893E-03 0.0000E+00 0.9000E+01
       11  1    4    4    0    0 0.55559152E+02 -.62572753E+02 -.84975875E+02 0.11926051E+03 0.51099893E-03 0.0000E+00 0.9000E+01
       23  1    3    3    0    0 0.24646208E+03 -.80658559E+02 -.22751648E+03 0.35683100E+03 0.91188000E+02 0.0000E+00 0.9000E+01
#aMCatNLO 1  0  0  2  1 0.42778781D+02 0.00000000D+00  -5  7  0 0.00000000D+00 0.00000000D+00 0.00000000D+00 0.00000000D+00 0.00000000D+00
  <mgrwgt>
 0.7431550200D-03    9    2    0
 0.548192265365937D+03 0.000000000000000D+00 0.000000000000000D+00 0.548192265365937D+03
 0.548192265365937D+03 0.000000000000000D+00 0.000000000000000D+00 -.548192265365937D+03
 0.511291051118410D+03 -.360666212184169D+03 0.349332745962331D+03 -.314611442403218D+02
 0.224245364479881D+03 0.586449765874333D+02 -.206101434051336D+03 0.660980263983491D+02
 0.853947951387032D+02 0.555591515577702D+02 -.625727529664190D+02 -.170323897667155D+02
 0.275453319994879D+03 0.246462084038965D+03 -.806585589445754D+02 -.176044923913118D+02
 0.000000000000000D+00 0.000000000000000D+00 0.000000000000000D+00 -.000000000000000D+00
 0.564301337736088D+03 0.000000000000000D+00 0.000000000000000D+00 0.564301337736088D+03
 0.577764862326687D+03 0.000000000000000D+00 0.000000000000000D+00 -.577764862326687D+03
 0.517550314985466D+03 -.378302369123600D+03 0.339765494298813D+03 -.314611442403218D+02
 0.226239229420223D+03 0.509228755341831D+02 -.210290514722442D+03 0.660980263983491D+02
 0.847184623456873D+02 0.526431100713806D+02 -.641546453740088D+02 -.170323897667155D+02
 0.268710778780416D+03 0.237134150926062D+03 -.857187704123063D+02 -.176044923913118D+02
 0.448474145309827D+02 0.376022325919743D+02 0.203984362099446D+02 -.134635245905997D+02
0.365291276332D-04 0.000000000000D+00 0.000000000000D+00 0.305276914270D-06 0.000000000000D+00  7 -1 1 23 -11 11 23 21 0 0.42296232D-01 0.16816570D+00 0.29331645D+06 0.29331645D+06 0.29331645D+06 0.10852765D+01  1  2  2  2  7  2        1 0.307758519440D-03 0.100000000000D+01
-.202903338074D-05 0.000000000000D+00 -.140281468452D-06 0.305276914270D-06 0.000000000000D+00  7 -1 1 23 -11 11 23 21 2 0.42296232D-01 0.16816570D+00 0.29331645D+06 0.29331645D+06 0.29331645D+06 0.10852765D+01  1  2  3  2  7  2        1 -.201344977581D-04 0.100000000000D+01
0.229321511556D-05 0.000000000000D+00 0.000000000000D+00 0.305276914270D-06 0.000000000000D+00  7 -1 1 23 -11 11 23 21 2 0.42296232D-01 0.16816570D+00 0.29331645D+06 0.29331645D+06 0.29331645D+06 0.10852765D+01  1  2 15  2  7  2        1 0.227560251306D-04 0.100000000000D+01
0.980376371369D-04 0.000000000000D+00 0.000000000000D+00 0.305276914270D-06 0.000000000000D+00  7 -1 1 23 -11 11 23 21 2 0.42296232D-01 0.17960412D+00 0.31745472D+06 0.31745472D+06 0.31745472D+06 0.10827394D+01  1  2 12  2  7  2        1 0.852565696681D-03 0.100000000000D+01
-.900948695049D-04 0.000000000000D+00 0.000000000000D+00 0.305276914270D-06 0.000000000000D+00  7 -1 1 23 -11 11 23 21 2 0.42296232D-01 0.16816570D+00 0.29331645D+06 0.29331645D+06 0.29331645D+06 0.10852765D+01  1  2  4  2  7  2        1 -.894029129970D-03 0.100000000000D+01
-.375570341913D-03 0.000000000000D+00 -.627970099373D-04 0.305276914270D-06 0.000000000000D+00  7 -1 1 23 -11 11 23 21 2 0.42296232D-01 0.18051697D+00 0.29331645D+06 0.29331645D+06 0.29331645D+06 0.10852765D+01  1  2  5  2  7  2        1 -.325882230507D-02 0.100000000000D+01
0.379225599982D-03 0.000000000000D+00 0.626396162816D-04 0.305276914270D-06 0.000000000000D+00  7 -1 1 23 -11 11 23 21 2 0.42296232D-01 0.16816570D+00 0.29331645D+06 0.29331645D+06 0.29331645D+06 0.10852765D+01  1  2  6  2  7  2        1 0.376313029895D-02 0.100000000000D+01
0.118352167086D-05 0.000000000000D+00 0.000000000000D+00 0.305276914270D-06 0.000000000000D+00  7 -1 21 23 -11 11 23 -1 2 0.42296232D-01 0.17960412D+00 0.31745472D+06 0.31745472D+06 0.31745472D+06 0.10827394D+01  1  2 12  4  7  2        1 0.111740159059D-04 0.100000000000D+01
-.439336671333D-05 0.000000000000D+00 -.752661973871D-06 0.305276914270D-06 0.000000000000D+00  7 -1 21 23 -11 11 23 -1 2 0.42296232D-01 0.18051697D+00 0.29331645D+06 0.29331645D+06 0.29331645D+06 0.10852765D+01  1  2  5  4  7  2        1 -.412436032695D-04 0.100000000000D+01
  </mgrwgt>
  </event>
  <event>
  9     66 0.27784906E-05 0.23961613E+03 0.75467711E-02 0.10331303E+00
       -1 -1    0    0    0  502 0.00000000E+00 0.00000000E+00 0.78748770E+03 0.78748777E+03 0.32000000E+00 0.0000E+00 0.9000E+01
        1 -1    0    0  501    0 0.00000000E+00 0.00000000E+00 -.82816855E+02 0.82817473E+02 0.32000000E+00 0.0000E+00 0.9000E+01
       25  2    1    2    0    0 -.48548035E+02 0.11250794E+03 0.35807251E+03 0.47797292E+03 0.29193706E+03 0.0000E+00 0.0000E+00
       23  2    3    3    0    0 0.25668404E+02 -.55737839E+02 0.12167323E+03 0.16490011E+03 0.92855238E+02 0.0000E+00 0.0000E+00
       23  1    1    2    0    0 0.62451881E+02 -.12155253E+03 0.33110435E+03 0.36962223E+03 0.91188000E+02 0.0000E+00 0.9000E+01
      -13  1    4    4    0    0 -.31985379E+02 -.30878449E+01 0.46448755E+02 0.56480946E+02 0.10565837E+00 0.0000E+00 0.9000E+01
       13  1    4    4    0    0 0.57653784E+02 -.52649994E+02 0.75224478E+02 0.10841916E+03 0.10565837E+00 0.0000E+00 0.9000E+01
       23  1    3    3    0    0 -.74216439E+02 0.16824577E+03 0.23639928E+03 0.31307282E+03 0.91188000E+02 0.0000E+00 0.9000E+01
       21  1    1    2  501  502 -.13903847E+02 0.90445942E+01 0.15493991E+02 0.22710084E+02 0.75000000E+00 0.0000E+00 0.9000E+01
#aMCatNLO 2  0  0  1  2 0.16586791D+02 0.00000000D+00  -5  7  0 0.00000000D+00 0.00000000D+00 0.00000000D+00 0.00000000D+00 0.00000000D+00
  <mgrwgt>
 0.4442043317D-02    2    2    0
 0.246565249030705D+03 0.000000000000000D+00 0.000000000000000D+00 0.246565249030705D+03
 0.246565249030705D+03 0.000000000000000D+00 0.000000000000000D+00 -.246565249030705D+03
 0.168581854500214D+03 0.576451939818447D+02 -.118425740790228D+03 0.525068171936979D+02
 0.330101881296708D+02 -.329037862661097D+02 -.249041892354320D+01 0.900657146582029D+00
 0.786298953817958D+02 0.554016696851965D+02 -.511849543041805D+02 -.222129668600006D+02
 0.212908560049729D+03 -.801430774009316D+02 0.172101114017952D+03 -.311945074802793D+02
 0.000000000000000D+00 -.000000000000000D+00 0.000000000000000D+00 -.000000000000000D+00
 0.252829710716600D+03 0.000000000000000D+00 0.000000000000000D+00 0.252829710716600D+03
 0.257934097251140D+03 0.000000000000000D+00 0.000000000000000D+00 -.257934097251140D+03
 0.172474568574786D+03 0.624518889356131D+02 -.121552544924490D+03 0.525068171936979D+02
 0.321468088703231D+02 -.319854930234291D+02 -.308777805186212D+01 0.900657146582029D+00
 0.811752082487097D+02 0.576538905297172D+02 -.526500469542553D+02 -.222129668600006D+02
 0.207612787702838D+03 -.742164397438257D+02 0.168245775722773D+03 -.311945074802793D+02
 0.173544345710822D+02 -.139038466980754D+02 0.904459420783471D+01 -.510438653454010D+01
-.206614832481D-04 0.000000000000D+00 0.000000000000D+00 0.459673152328D-09 0.000000000000D+00  7 -1 1 23 -13 13 23 21 2 0.11814642D+00 0.12179136D-01 0.57415890D+05 0.57415890D+05 0.57415890D+05 0.11420495D+01  1  2  8  1  7  1       -1 -.117227445757D-02 0.100000000000D+01
0.112148457925D-03 0.000000000000D+00 0.000000000000D+00 0.459673152328D-09 0.115898278904D-10  7 -1 1 23 -13 13 23 21 2 0.12114815D+00 0.12740702D-01 0.61588750D+05 0.61588750D+05 0.61588750D+05 0.11394164D+01  1  2  1  1  7  1       -1 0.561431777494D-02 0.100000000000D+01
  </mgrwgt>
  </event>
  <event>
  8     66 0.27784906E-05 0.21939878E+03 0.75467711E-02 0.10312880E+00
       -1 -1    0    0    0  501 0.00000000E+00 0.00000000E+00 0.42022724E+03 0.42022737E+03 0.32000000E+00 0.0000E+00 0.9000E+01
        1 -1    0    0  501    0 0.00000000E+00 0.00000000E+00 -.18465420E+03 0.18465448E+03 0.32000000E+00 0.0000E+00 0.9000E+01
       25  2    1    2    0    0 -.12418604E+03 -.76674307E+01 0.29630396E+03 0.43909748E+03 0.29921496E+03 0.0000E+00 0.0000E+00
       23  2    3    3    0    0 0.17163460E+02 0.52210854E+02 0.22142061E+03 0.24547967E+03 0.90623512E+02 0.0000E+00 0.0000E+00
       23  1    1    2    0    0 0.12418604E+03 0.76674307E+01 -.60730923E+02 0.16578437E+03 0.91188000E+02 0.0000E+00 0.9000E+01
      -11  1    4    4    0    0 -.31063919E+02 0.48528026E+02 0.12042394E+03 0.13349855E+03 0.51099893E-03 0.0000E+00 0.9000E+01
       11  1    4    4    0    0 0.48227379E+02 0.36828272E+01 0.10099667E+03 0.11198112E+03 0.51099893E-03 0.0000E+00 0.9000E+01
       23  1    3    3    0    0 -.14134950E+03 -.59878284E+02 0.74883348E+02 0.19361781E+03 0.91188000E+02 0.0000E+00 0.9000E+01
#aMCatNLO 1  0  0  2  2 0.65441572D+02 0.00000000D+00  -5  7  0 0.00000000D+00 0.00000000D+00 0.00000000D+00 0.00000000D+00 0.00000000D+00
  <mgrwgt>
 0.2829744543D-03    4    2    0
 0.278562107874320D+03 0.000000000000000D+00 0.000000000000000D+00 0.278562107874320D+03
 0.278562107874320D+03 0.000000000000000D+00 0.000000000000000D+00 -.278562107874320D+03
 0.205675001791144D+03 0.124186035737772D+03 0.766743070948618D+01 -.136036737875617D+03
 0.940225046367052D+02 -.310639190861332D+02 0.485280263471013D+02 0.742986875255846D+02
 0.788751450564806D+02 0.482273793249137D+02 0.368282723426993D+01 0.623044554963308D+02
 0.178551564264309D+03 -.141349495976552D+03 -.598782842908574D+02 -.566405146298095D+00
 0.000000000000000D+00 0.000000000000000D+00 0.000000000000000D+00 0.000000000000000D+00
 0.443611452311056D+03 0.000000000000000D+00 0.000000000000000D+00 0.443611452311056D+03
 0.287040269012768D+03 0.000000000000000D+00 0.000000000000000D+00 -.287040269012768D+03
 0.201777082463388D+03 0.116903758000319D+03 -.150418408780394D+02 -.136036737875617D+03
 0.903551377383185D+02 -.343592493893474D+02 0.382517702738928D+02 0.742986875255846D+02
 0.772756547279890D+02 0.454365395258329D+02 -.502021063925742D+01 0.623044554963308D+02
 0.191546660784234D+03 -.147964158581292D+03 -.805056449830123D+02 -.566405146298095D+00
 0.169697185609895D+03 0.199831104444884D+02 0.623159262264163D+02 0.156571183298288D+03
0.581358666427D-05 0.000000000000D+00 0.000000000000D+00 0.112305615514D-06 0.000000000000D+00  7 -1 1 23 -11 11 23 21 0 0.64650376D-01 0.28408370D-01 0.48135824D+05 0.48135824D+05 0.48135824D+05 0.11487497D+01  1  2  2  2  7  2        1 0.296907138779D-03 0.100000000000D+01
-.300592911376D-06 0.000000000000D+00 -.223257035433D-07 0.112305615514D-06 0.000000000000D+00  7 -1 1 23 -11 11 23 21 2 0.64650376D-01 0.28408370D-01 0.48135824D+05 0.48135824D+05 0.48135824D+05 0.11487497D+01  1  2  3  2  7  2        1 -.202584419475D-04 0.100000000000D+01
0.372798195060D-06 0.000000000000D+00 0.000000000000D+00 0.112305615514D-06 0.000000000000D+00  7 -1 1 23 -11 11 23 21 2 0.64650376D-01 0.28408370D-01 0.48135824D+05 0.48135824D+05 0.48135824D+05 0.11487497D+01  1  2 15  2  7  2        1 0.251247128823D-04 0.100000000000D+01
-.278937183969D-06 0.000000000000D+00 0.000000000000D+00 0.112305615514D-06 0.000000000000D+00  7 -1 1 23 -11 11 23 21 2 0.64650376D-01 0.28408370D-01 0.48135824D+05 0.48135824D+05 0.48135824D+05 0.11487497D+01  1  2  4  2  7  2        1 -.187989554463D-04 0.100000000000D+01
  </mgrwgt>
  </event>
  <event>
  8     66 0.27784906E-05 0.16152087E+03 0.75467711E-02 0.92690816E-01
       -1 -1    0    0    0  501 0.00000000E+00 0.00000000E+00 0.27385412E+03 0.27385430E+03 0.32000000E+00 0.0000E+00 0.9000E+01
        1 -1    0    0  501    0 0.00000000E+00 0.00000000E+00 -.86577227E+03 0.86577233E+03 0.32000000E+00 0.0000E+00 0.9000E+01
       25  2    1    2    0    0 -.30618564E+02 -.41805424E+03 -.18375465E+03 0.54749528E+03 0.30046375E+03 0.0000E+00 0.0000E+00
       23  2    3    3    0    0 0.13146581E+02 -.16973308E+03 0.42091237E+02 0.19692374E+03 0.89583125E+02 0.0000E+00 0.0000E+00
       23  1    1    2    0    0 0.30618564E+02 0.41805424E+03 -.40816351E+03 0.59213136E+03 0.91188000E+02 0.0000E+00 0.9000E+01
      -13  1    4    4    0    0 0.20729170E+02 -.17828857E+03 0.33419208E+02 0.18257427E+03 0.10565837E+00 0.0000E+00 0.9000E+01
       13  1    4    4    0    0 -.75825884E+01 0.85554842E+01 0.86720287E+01 0.14349467E+02 0.10565837E+00 0.0000E+00 0.9000E+01
       23  1    3    3    0    0 -.43765145E+02 -.24832116E+03 -.22584588E+03 0.35057154E+03 0.91188000E+02 0.0000E+00 0.9000E+01
#aMCatNLO 1  0  0  2  1 0.26089595D+03 0.00000000D+00  -5  7  0 0.00000000D+00 0.00000000D+00 0.00000000D+00 0.00000000D+00 0.00000000D+00
  <mgrwgt>
 0.3592897358D-03    9    2    0
 0.486924473062082D+03 0.000000000000000D+00 0.000000000000000D+00 0.486924473062082D+03
 0.486924473062082D+03 0.000000000000000D+00 0.000000000000000D+00 -.486924473062082D+03
 0.444842376403979D+03 0.306185640177668D+02 0.418054242358974D+03 -.117739723474675D+03
 0.233966706467850D+03 0.207292091997019D+02 -.178288825812750D+03 0.150079359712383D+03
 0.220628456921443D+02 -.758262776388116D+01 0.855574412902815D+01 0.188698743670537D+02
 0.272977017560192D+03 -.437651454535875D+02 -.248321160675252D+03 -.512095106047616D+02
 0.000000000000000D+00 -.000000000000000D+00 0.000000000000000D+00 -.000000000000000D+00
 0.573485299401112D+03 0.000000000000000D+00 0.000000000000000D+00 0.573485299401112D+03
 0.749327879420141D+03 0.000000000000000D+00 0.000000000000000D+00 -.749327879420141D+03
 0.350188597167099D+03 0.425067906919847D+02 0.314081729018158D+03 -.117739723474675D+03
 0.290302871211710D+03 0.285686969492870D+02 -.246851721437595D+03 0.150079359712383D+03
 0.203328394103492D+02 -.694867823076634D+01 0.301132374611844D+01 0.188698743670537D+02
 0.347366382206608D+03 -.344890503108322D+02 -.329448392886633D+03 -.512095106047616D+02
 0.314622488825486D+03 -.296377590996731D+02 0.259207061559950D+03 -.175842580019029D+03
0.261950238470D-04 0.000000000000D+00 0.000000000000D+00 0.340891320344D-06 0.000000000000D+00  7 -1 1 23 -13 13 23 21 0 0.42131422D-01 0.13319575D+00 0.19714965D+06 0.19714965D+06 0.19714965D+06 0.10983045D+01  1  2  2  2  7  2        1 0.337475050036D-03 0.100000000000D+01
-.144022138382D-05 0.000000000000D+00 -.100595788881D-06 0.340891320344D-06 0.000000000000D+00  7 -1 1 23 -13 13 23 21 2 0.42131422D-01 0.13319575D+00 0.19714965D+06 0.19714965D+06 0.19714965D+06 0.10983045D+01  1  2  3  2  7  2        1 -.223819358266D-04 0.100000000000D+01
0.162908050291D-05 0.000000000000D+00 0.000000000000D+00 0.340891320344D-06 0.000000000000D+00  7 -1 1 23 -13 13 23 21 2 0.42131422D-01 0.13319575D+00 0.19714965D+06 0.19714965D+06 0.19714965D+06 0.10983045D+01  1  2 15  2  7  2        1 0.253169239689D-04 0.100000000000D+01
0.717777153807D-05 0.000000000000D+00 0.000000000000D+00 0.340891320344D-06 0.000000000000D+00  7 -1 1 23 -13 13 23 21 2 0.42131422D-01 0.21165526D+00 0.35422821D+06 0.35422821D+06 0.35422821D+06 0.10792530D+01  1  2 12  2  7  2        1 0.444360906797D-04 0.100000000000D+01
-.163297088256D-04 0.000000000000D+00 0.000000000000D+00 0.340891320344D-06 0.000000000000D+00  7 -1 1 23 -13 13 23 21 2 0.42131422D-01 0.13319575D+00 0.19714965D+06 0.19714965D+06 0.19714965D+06 0.10983045D+01  1  2  4  2  7  2        1 -.253773828876D-03 0.100000000000D+01
-.191493897414D-04 0.000000000000D+00 -.897859303437D-05 0.340891320344D-06 0.000000000000D+00  7 -1 1 23 -13 13 23 21 2 0.42131422D-01 0.22434077D+00 0.19714965D+06 0.19714965D+06 0.19714965D+06 0.10983045D+01  1  2  5  2  7  2        1 -.110638701258D-03 0.100000000000D+01
0.218840719182D-04 0.000000000000D+00 0.788282381805D-05 0.340891320344D-06 0.000000000000D+00  7 -1 1 23 -13 13 23 21 2 0.42131422D-01 0.13319575D+00 0.19714965D+06 0.19714965D+06 0.19714965D+06 0.10983045D+01  1  2  6  2  7  2        1 0.340092085009D-03 0.100000000000D+01
0.381267252599D-06 0.000000000000D+00 0.000000000000D+00 0.340891320344D-06 0.000000000000D+00  7 -1 21 23 -13 13 23 -1 2 0.42131422D-01 0.21165526D+00 0.35422821D+06 0.35422821D+06 0.35422821D+06 0.10792530D+01  1  2 12  4  7  2        1 0.204792057120D-05 0.100000000000D+01
-.692399226869D-06 0.000000000000D+00 -.523470640076D-06 0.340891320344D-06 0.000000000000D+00  7 -1 21 23 -13 13 23 -1 2 0.42131422D-01 0.22434077D+00 0.19714965D+06 0.19714965D+06 0.19714965D+06 0.10983045D+01  1  2  5  4  7  2        1 -.328386852456D-05 0.100000000000D+01
  </mgrwgt>
  </event>
  <event>
  8     66 0.27784906E-05 0.24442923E+03 0.75467711E-02 0.95258887E-01
       -1 -1    0    0    0  501 0.00000000E+00 0.00000000E+00 0.37095652E+03 0.37095666E+03 0.32000000E+00 0.0000E+00 0.9000E+01
        1 -1    0    0  501    0 0.00000000E+00 0.00000000E+00 -.25354678E+03 0.25354698E+03 0.32000000E+00 0.0000E+00 0.9000E+01
       25  2    1    2    0    0 -.32291921E+02 0.15926478E+03 0.22580261E+03 0.40892928E+03 0.29971370E+03 0.0000E+00 0.0000E+00
       23  2    3    3    0    0 0.47539669E+02 0.16956900E+03 0.20594267E+03 0.28568592E+03 0.90500783E+02 0.0000E+00 0.0000E+00
       23  1    1    2    0    0 0.32291921E+02 -.15926478E+03 -.10839286E+03 0.21557436E+03 0.91188000E+02 0.0000E+00 0.9000E+01
      -13  1    4    4    0    0 -.44360423E+01 0.53800223E+02 0.14314612E+02 0.55848561E+02 0.10565837E+00 0.0000E+00 0.9000E+01
       13  1    4    4    0    0 0.51975711E+02 0.11576878E+03 0.19162806E+03 0.22983735E+03 0.10565837E+00 0.0000E+00 0.9000E+01
       23  1    3    3    0    0 -.79831590E+02 -.10304217E+02 0.19859936E+02 0.12324337E+03 0.91188000E+02 0.0000E+00 0.9000E+01
#aMCatNLO 1  0  0  1  1 0.34375132D+03 0.00000000D+00  -5  7  0 0.00000000D+00 0.00000000D+00 0.00000000D+00 0.00000000D+00 0.00000000D+00
  <mgrwgt>
 0.3189931696D-03    5    2    0
 0.306683773166451D+03 0.000000000000000D+00 0.000000000000000D+00 0.306683773166451D+03
 0.306683773166451D+03 0.000000000000000D+00 0.000000000000000D+00 -.306683773166451D+03
 0.240236623221153D+03 0.322919210973546D+02 -.159264782096140D+03 -.151625673315615D+03
 0.541222553196594D+02 -.443611904790919D+01 0.538001388262456D+02 0.388386804048212D+01
 0.197329288189699D+03 0.519757878320762D+02 0.115768860574521D+03 0.151112330330670D+03
 0.121679379602390D+03 -.798315898815216D+02 -.103042173046269D+02 -.337052505553692D+01
 0.000000000000000D+00 -.000000000000000D+00 0.000000000000000D+00 0.000000000000000D+00
 0.625721770123716D+03 0.000000000000000D+00 0.000000000000000D+00 0.625721770123716D+03
 0.459314598415674D+03 0.000000000000000D+00 0.000000000000000D+00 -.459314598415674D+03
 0.346744271982838D+03 0.149500346602552D+03 -.258022557863089D+03 -.151625673315615D+03
 0.407130153917485D+02 0.145006007895914D+02 0.378443888585055D+02 0.388386804048212D+01
 0.206675557120591D+03 0.132647530647204D+03 0.477962566143042D+02 0.151112330330670D+03
 0.108992122276998D+03 -.337710728099970D+02 -.491140059102903D+02 -.337052505553692D+01
 0.381911401767215D+03 -.262877405229351D+03 0.221495918300570D+03 0.166407171708042D+03
0.714607152469D-05 0.000000000000D+00 0.000000000000D+00 0.419411548196D-06 0.000000000000D+00  7 -1 1 23 -13 13 23 21 0 0.57070261D-01 0.39007222D-01 0.59745649D+05 0.59745649D+05 0.59745649D+05 0.11405544D+01  1  2  2  1  7  1       -1 0.305113260871D-03 0.100000000000D+01
-.372154786115D-06 0.000000000000D+00 -.274427962586D-07 0.419411548196D-06 0.000000000000D+00  7 -1 1 23 -13 13 23 21 2 0.57070261D-01 0.39007222D-01 0.59745649D+05 0.59745649D+05 0.59745649D+05 0.11405544D+01  1  2  3  1  7  1       -1 -.206704227766D-04 0.100000000000D+01
0.463562973607D-06 0.000000000000D+00 0.000000000000D+00 0.419411548196D-06 0.000000000000D+00  7 -1 1 23 -13 13 23 21 2 0.57070261D-01 0.39007222D-01 0.59745649D+05 0.59745649D+05 0.59745649D+05 0.11405544D+01  1  2 15  1  7  1       -1 0.257474658544D-04 0.100000000000D+01
0.410022719000D-06 0.000000000000D+00 -.213895086628D-05 0.419411548196D-06 0.000000000000D+00  7 -1 1 23 -13 13 23 21 2 0.15773978D+00 0.39007222D-01 0.59745649D+05 0.59745649D+05 0.59745649D+05 0.11405544D+01  1  2  5  1  7  1       -1 0.239165225417D-05 0.100000000000D+01
0.167995496553D-06 0.000000000000D+00 -.243616871598D-06 0.419411548196D-06 0.000000000000D+00  7 21 1 23 -13 13 23 1 2 0.15773978D+00 0.39007222D-01 0.59745649D+05 0.59745649D+05 0.59745649D+05 0.11405544D+01  1  2  5  3  7  1       -1 0.641121342090D-05 0.100000000000D+01
  </mgrwgt>
  </event>
  <event>
  9     66 0.27784906E-05 0.16011528E+03 0.75467711E-02 0.10194431E+00
       -1 -1    0    0    0  501 0.00000000E+00 0.00000000E+00 0.67716981E+02 0.67717737E+02 0.32000000E+00 0.0000E+00 0.9000E+01
        1 -1    0    0  502    0 0.00000000E+00 0.00000000E+00 -.31045712E+04 0.31045712E+04 0.32000000E+00 0.0000E+00 0.9000E+01
       25  2    1    2    0    0 0.17158424E+02 -.37160087E+02 -.10296283E+04 0.10709391E+04 0.29172064E+03 0.0000E+00 0.0000E+00
       23  2    3    3    0    0 -.49159269E+01 -.52053009E+02 -.92033020E+03 0.92612753E+03 0.89279583E+02 0.0000E+00 0.0000E+00
       23  1    1    2    0    0 0.29759156E+02 -.16667975E+03 -.18397189E+03 0.26613654E+03 0.91188000E+02 0.0000E+00 0.9000E+01
      -11  1    4    4    0    0 -.55620763E+01 -.11576084E+02 -.77920691E+03 0.77931274E+03 0.51099893E-03 0.0000E+00 0.9000E+01
       11  1    4    4    0    0 0.64614934E+00 -.40476925E+02 -.14112329E+03 0.14681479E+03 0.51099893E-03 0.0000E+00 0.9000E+01
       23  1    3    3    0    0 0.22074351E+02 0.14892923E+02 -.10929807E+03 0.14481159E+03 0.91188000E+02 0.0000E+00 0.9000E+01
       21  1    1    2  502  501 -.46917580E+02 0.20383984E+03 -.18232540E+04 0.18352133E+04 0.75000000E+00 0.0000E+00 0.9000E+01
#aMCatNLO 2  0  0  2  1 0.20916964D+03 0.00000000D+00  -5  7  0 0.00000000D+00 0.00000000D+00 0.00000000D+00 0.00000000D+00 0.00000000D+00
  <mgrwgt>
 0.2129071505D-03    1    2    0
 0.260381455203188D+03 0.000000000000000D+00 0.000000000000000D+00 0.260381455203188D+03
 0.260381455203188D+03 0.000000000000000D+00 0.000000000000000D+00 -.260381455203188D+03
 0.186657231391899D+03 0.114210319793296D+02 -.870072670268780D+02 0.137204104165764D+03
 0.180995520231734D+03 -.208558608843973D+02 0.548698542471547D+02 -.171212471816812D+03
 0.321722320020934D+02 -.268339324842031D+01 -.260112723049812D+02 -.187420816812586D+02
 0.120937926780649D+03 0.121182221534880D+02 0.581486850847044D+02 0.527504493323067D+02
 0.000000000000000D+00 -.000000000000000D+00 0.000000000000000D+00 -.000000000000000D+00
 0.307777515268179D+03 0.000000000000000D+00 0.000000000000000D+00 0.307777515268179D+03
 0.683068083214575D+03 0.000000000000000D+00 0.000000000000000D+00 -.683068083214575D+03
 0.236237095868638D+03 0.297591561079411D+02 -.166679754464246D+03 0.137204104165764D+03
 0.171693485372617D+03 -.556207625156507D+01 -.115760840333056D+02 -.171212471816812D+03
 0.446101402872218D+02 0.646149342164615D+00 -.404769252998083D+02 -.187420816812586D+02
 0.108659732003838D+03 0.220743508953960D+02 0.148929225786105D+02 0.527504493323067D+02
 0.429645144950440D+03 -.469175800939366D+02 0.203839841218749D+03 -.375290567946396D+03
0.455298943291D-04 0.000000000000D+00 0.000000000000D+00 0.520081958794D-09 0.134307719969D-12  7 -1 1 23 -11 11 23 21 2 0.10418046D-01 0.47762592D+00 0.75570236D+05 0.75570236D+05 0.75570236D+05 0.11318436D+01  1  2  1  2  7  2        1 0.212907150505D-03 0.100000000000D+01
  </mgrwgt>
  </event>
  <event>
  8     66 0.27784906E-05 0.51176175E+03 0.75467711E-02 0.88015874E-01
       -1 -1    0    0    0  501 0.00000000E+00 0.00000000E+00 0.44143255E+03 0.44143267E+03 0.32000000E+00 0.0000E+00 0.9000E+01
        1 -1    0    0  501    0 0.00000000E+00 0.00000000E+00 -.83629677E+03 0.83629683E+03 0.32000000E+00 0.0000E+00 0.9000E+01
       25  2    1    2    0    0 0.40935227E+02 -.50007603E+03 0.67791037E+02 0.58916805E+03 0.30128332E+03 0.0000E+00 0.0000E+00
       23  2    3    3    0    0 -.16302555E+00 -.93865282E+02 0.10638921E+03 0.16904747E+03 0.91911171E+02 0.0000E+00 0.0000E+00
       23  1    1    2    0    0 -.40935227E+02 0.50007603E+03 -.46265525E+03 0.68856144E+03 0.91188000E+02 0.0000E+00 0.9000E+01
      -13  1    4    4    0    0 0.75940711E+01 -.59473654E+02 0.32451130E+01 0.60044378E+02 0.10565837E+00 0.0000E+00 0.9000E+01
       13  1    4    4    0    0 -.77570966E+01 -.34391629E+02 0.10314410E+03 0.10900309E+03 0.10565837E+00 0.0000E+00 0.9000E+01
       23  1    3    3    0    0 0.41098253E+02 -.40621075E+03 -.38598176E+02 0.42012059E+03 0.91188000E+02 0.0000E+00 0.9000E+01
#aMCatNLO 1  0  0  1  1 0.64928876D+03 0.00000000D+00  -5  7  0 0.00000000D+00 0.00000000D+00 0.00000000D+00 0.00000000D+00 0.00000000D+00
  <mgrwgt>
 0.4763984805D-03    5    2    0
 0.607592569302659D+03 0.000000000000000D+00 0.000000000000000D+00 0.607592569302659D+03
 0.607592569302659D+03 0.000000000000000D+00 0.000000000000000D+00 -.607592569302659D+03
 0.573665068176300D+03 -.409352270401338D+02 0.500076030467748D+03 -.262725389029136D+03
 0.641891633222042D+02 0.759409136555996D+01 -.594736870546455D+02 0.229228927594715D+02
 0.148129287385282D+03 -.775711689798876D+01 -.343915955306146D+02 0.143872621007477D+03
 0.429201619721533D+03 0.410982525725626D+02 -.406210747882488D+03 0.959298752621877D+02
 0.000000000000000D+00 0.000000000000000D+00 -.000000000000000D+00 0.000000000000000D+00
 0.141549865025077D+04 0.000000000000000D+00 0.000000000000000D+00 0.141549865025077D+04
 0.833933303461350D+03 0.000000000000000D+00 0.000000000000000D+00 -.833933303461350D+03
 0.849326112633569D+03 -.300609913692515D+03 0.744075697766375D+03 -.262725389029136D+03
 0.480600100570722D+02 -.128897101627554D+02 -.402263710287644D+02 0.229228927594715D+02
 0.158385458312434D+03 -.636914906430807D+02 0.181663521088086D+02 0.143872621007477D+03
 0.321998653978507D+03 -.959846038195774D+02 -.277402769780242D+03 0.959298752621877D+02
 0.871661718730539D+03 0.473175718317929D+03 -.444612909066177D+03 0.581565346789422D+03
0.847631324645D-04 0.000000000000D+00 0.000000000000D+00 0.468185020642D-06 0.000000000000D+00  7 -1 1 23 -13 13 23 21 0 0.67912714D-01 0.12866105D+00 0.26190009D+06 0.26190009D+06 0.26190009D+06 0.10889430D+01  1  2  2  1  7  1       -1 0.474644613997D-03 0.100000000000D+01
-.454037649882D-05 0.000000000000D+00 -.325512747309D-06 0.468185020642D-06 0.000000000000D+00  7 -1 1 23 -13 13 23 21 2 0.67912714D-01 0.12866105D+00 0.26190009D+06 0.26190009D+06 0.26190009D+06 0.10889430D+01  1  2  3  1  7  1       -1 -.301483643576D-04 0.100000000000D+01
0.538227377389D-05 0.000000000000D+00 0.000000000000D+00 0.468185020642D-06 0.000000000000D+00  7 -1 1 23 -13 13 23 21 2 0.67912714D-01 0.12866105D+00 0.26190009D+06 0.26190009D+06 0.26190009D+06 0.10889430D+01  1  2 15  1  7  1       -1 0.357386112913D-04 0.100000000000D+01
-.961879116212D-05 0.000000000000D+00 -.252501060356D-04 0.468185020642D-06 0.000000000000D+00  7 -1 1 23 -13 13 23 21 2 0.19355476D+00 0.12866105D+00 0.26190009D+06 0.26190009D+06 0.26190009D+06 0.10889430D+01  1  2  5  1  7  1       -1 -.456093606667D-05 0.100000000000D+01
0.239864027057D-06 0.000000000000D+00 -.297978116780D-05 0.468185020642D-06 0.000000000000D+00  7 21 1 23 -13 13 23 1 2 0.19355476D+00 0.12866105D+00 0.26190009D+06 0.26190009D+06 0.26190009D+06 0.10889430D+01  1  2  5  3  7  1       -1 0.724555680019D-06 0.100000000000D+01
  </mgrwgt>
  </event>
  <event>
  8     66 0.27784906E-05 0.23790768E+03 0.75467711E-02 0.94842409E-01
       -1 -1    0    0    0  501 0.00000000E+00 0.00000000E+00 0.15212880E+03 0.15212914E+03 0.32000000E+00 0.0000E+00 0.9000E+01
        1 -1    0    0  501    0 0.00000000E+00 0.00000000E+00 -.43677116E+03 0.43677128E+03 0.32000000E+00 0.0000E+00 0.9000E+01
       25  2    1    2    0    0 -.12661297E+03 -.73136117E+02 -.23817529E+03 0.41042303E+03 0.30056590E+03 0.0000E+00 0.0000E+00
       23  2    3    3    0    0 -.18301266E+03 -.68049634E+02 -.20674812E+03 0.29857619E+03 0.90986660E+02 0.0000E+00 0.0000E+00
       23  1    1    2    0    0 0.12661297E+03 0.73136117E+02 -.46467069E+02 0.17847738E+03 0.91188000E+02 0.0000E+00 0.9000E+01
      -13  1    4    4    0    0 -.63263231E+02 -.33141713E+02 -.13986070E+03 0.15704024E+03 0.10565837E+00 0.0000E+00 0.9000E+01
       13  1    4    4    0    0 -.11974943E+03 -.34907921E+02 -.66887415E+02 0.14153595E+03 0.10565837E+00 0.0000E+00 0.9000E+01
       23  1    3    3    0    0 0.56399688E+02 -.50864834E+01 -.31427172E+02 0.11184684E+03 0.91188000E+02 0.0000E+00 0.9000E+01
#aMCatNLO 1  0  0  2  2 0.38727451D+03 0.00000000D+00  -5  7  0 0.00000000D+00 0.00000000D+00 0.00000000D+00 0.00000000D+00 0.00000000D+00
  <mgrwgt>
 0.2431937600D-03    5    2    0
 0.257770452369600D+03 0.000000000000000D+00 0.000000000000000D+00 0.257770452369600D+03
 0.257770452369600D+03 0.000000000000000D+00 0.000000000000000D+00 -.257770452369600D+03
 0.178218466637272D+03 0.126612973521614D+03 0.731361193375954D+02 0.454624404403505D+02
 0.102166027235763D+03 -.632631553120806D+02 -.331417108953540D+02 -.730568087177846D+02
 0.124745880567031D+03 -.119749501998729D+03 -.349079237187170D+02 0.174021583391908D+01
 0.110410530299136D+03 0.563996837891949D+02 -.508648472352433D+01 0.258541524435150D+02
 0.000000000000000D+00 -.000000000000000D+00 0.000000000000000D+00 -.000000000000000D+00
 0.505911652907783D+03 0.000000000000000D+00 0.000000000000000D+00 0.505911652907783D+03
 0.526719044672546D+03 0.000000000000000D+00 0.000000000000000D+00 -.526719044672546D+03
 0.315994494628275D+03 0.291456642897188D+03 0.672566807959474D+02 0.454624404403505D+02
 0.811754446368032D+02 -.211000203418988D+01 -.353228453464815D+02 -.730568087177846D+02
 0.670582238597329D+02 -.557736558492489D+02 -.371897344610440D+02 0.174021583391908D+01
 0.180569457947705D+03 0.153455432498500D+03 -.854814820026892D+01 0.258541524435150D+02
 0.387833076507812D+03 -.387028417512249D+03 0.138040472118471D+02 -.208073917647635D+02
0.237820881897D-05 0.000000000000D+00 0.000000000000D+00 0.122150274820D-06 0.000000000000D+00  7 -1 1 23 -13 13 23 21 0 0.23404466D-01 0.67195598D-01 0.56600066D+05 0.56600066D+05 0.56600066D+05 0.11425889D+01  1  2  2  2  7  2        1 0.227700686986D-03 0.100000000000D+01
-.131089797943D-06 0.000000000000D+00 -.913294806163D-08 0.122150274820D-06 0.000000000000D+00  7 -1 1 23 -13 13 23 21 2 0.23404466D-01 0.67195598D-01 0.56600066D+05 0.56600066D+05 0.56600066D+05 0.11425889D+01  1  2  3  2  7  2        1 -.163856353103D-04 0.100000000000D+01
0.152421461406D-06 0.000000000000D+00 0.000000000000D+00 0.122150274820D-06 0.000000000000D+00  7 -1 1 23 -13 13 23 21 2 0.23404466D-01 0.67195598D-01 0.56600066D+05 0.56600066D+05 0.56600066D+05 0.11425889D+01  1  2 15  2  7  2        1 0.190519973274D-04 0.100000000000D+01
0.642169952204D-06 0.000000000000D+00 -.816103770199D-06 0.122150274820D-06 0.000000000000D+00  7 -1 1 23 -13 13 23 21 2 0.23404466D-01 0.22670821D+00 0.56600066D+05 0.56600066D+05 0.56600066D+05 0.11425889D+01  1  2  5  2  7  2        1 0.110456751032D-04 0.100000000000D+01
0.120842252964D-06 0.000000000000D+00 -.115381280326D-06 0.122150274820D-06 0.000000000000D+00  7 -1 21 23 -13 13 23 -1 2 0.23404466D-01 0.22670821D+00 0.56600066D+05 0.56600066D+05 0.56600066D+05 0.11425889D+01  1  2  5  4  7  2        1 0.178103585285D-05 0.100000000000D+01
  </mgrwgt>
  </event>
  <event>
  8     66 0.27784906E-05 0.22827534E+03 0.75467711E-02 0.10304517E+00
       -1 -1    0    0    0  501 0.00000000E+00 0.00000000E+00 0.67374139E+03 0.67374147E+03 0.32000000E+00 0.0000E+00 0.9000E+01
        1 -1    0    0  501    0 0.00000000E+00 0.00000000E+00 -.16661047E+03 0.16661077E+03 0.32000000E+00 0.0000E+00 0.9000E+01
       25  2    1    2    0    0 -.13114136E+03 -.12713235E+03 0.52910423E+03 0.63502624E+03 0.29991057E+03 0.0000E+00 0.0000E+00
       23  2    3    3    0    0 -.35763952E+02 -.12638269E+02 0.41482823E+03 0.42626800E+03 0.90460862E+02 0.0000E+00 0.0000E+00
       23  1    1    2    0    0 0.13114136E+03 0.12713235E+03 -.21973302E+02 0.20532601E+03 0.91188000E+02 0.0000E+00 0.9000E+01
      -11  1    4    4    0    0 -.22175027E+02 -.40797525E+02 0.36134207E+03 0.36431341E+03 0.51099893E-03 0.0000E+00 0.9000E+01
       11  1    4    4    0    0 -.13588925E+02 0.28159256E+02 0.53486153E+02 0.61954589E+02 0.51099893E-03 0.0000E+00 0.9000E+01
       23  1    3    3    0    0 -.95377409E+02 -.11449408E+03 0.11427600E+03 0.20875823E+03 0.91188000E+02 0.0000E+00 0.9000E+01
#aMCatNLO 1  0  0  1  1 0.44972783D+02 0.00000000D+00  -5  7  0 0.00000000D+00 0.00000000D+00 0.00000000D+00 0.00000000D+00 0.00000000D+00
  <mgrwgt>
 0.2996752329D-03    4    2    0
 0.335041086169571D+03 0.000000000000000D+00 0.000000000000000D+00 0.335041086169571D+03
 0.335041086169571D+03 0.000000000000000D+00 0.000000000000000D+00 -.335041086169571D+03
 0.274129826947805D+03 0.131141360910446D+03 0.127132350405851D+03 -.182951413269408D+03
 0.183416094720311D+03 -.221750265828509D+02 -.407975253539866D+02 0.177440958979292D+03
 0.372181158404337D+02 -.135889252846163D+02 0.281592559459042D+02 0.201887483736390D+02
 0.175318134830592D+03 -.953774090429784D+02 -.114494080997768D+03 -.146782940835233D+02
 0.000000000000000D+00 -.000000000000000D+00 0.000000000000000D+00 -.000000000000000D+00
 0.342582981827113D+03 0.000000000000000D+00 0.000000000000000D+00 0.342582981827113D+03
 0.410283107010550D+03 0.000000000000000D+00 0.000000000000000D+00 -.410283107010550D+03
 0.275752196471521D+03 0.145013361290849D+03 0.114995338795643D+03 -.182951413269408D+03
 0.184511633017401D+03 -.128932291030917D+02 -.489184365914589D+02 0.177440958979292D+03
 0.353709903750904D+02 -.117577031930606D+02 0.265570671355954D+02 0.201887483736390D+02
 0.175954838278138D+03 -.865157648919498D+02 -.122247388018903D+03 -.146782940835233D+02
 0.812764306955118D+02 -.338466641027466D+02 0.296134186791238D+02 -.677001251834374D+02
0.155932818921D-04 0.000000000000D+00 0.000000000000D+00 0.624202022491D-06 0.000000000000D+00  7 -1 1 23 -11 11 23 21 0 0.10365255D+00 0.25632409D-01 0.52109629D+05 0.52109629D+05 0.52109629D+05 0.11457200D+01  1  2  2  1  7  1       -1 0.348789246852D-03 0.100000000000D+01
-.711222073149D-06 0.000000000000D+00 -.598823082712D-07 0.624202022491D-06 0.000000000000D+00  7 -1 1 23 -11 11 23 21 2 0.10365255D+00 0.25632409D-01 0.52109629D+05 0.52109629D+05 0.52109629D+05 0.11457200D+01  1  2  3  1  7  1       -1 -.208827551589D-04 0.100000000000D+01
0.995949538844D-06 0.000000000000D+00 0.000000000000D+00 0.624202022491D-06 0.000000000000D+00  7 -1 1 23 -11 11 23 21 2 0.10365255D+00 0.25632409D-01 0.52109629D+05 0.52109629D+05 0.52109629D+05 0.11457200D+01  1  2 15  1  7  1       -1 0.292428640160D-04 0.100000000000D+01
-.195744596146D-05 0.000000000000D+00 0.000000000000D+00 0.624202022491D-06 0.000000000000D+00  7 -1 1 23 -11 11 23 21 2 0.10365255D+00 0.25632409D-01 0.52109629D+05 0.52109629D+05 0.52109629D+05 0.11457200D+01  1  2  4  1  7  1       -1 -.574741227712D-04 0.100000000000D+01
  </mgrwgt>
  </event>
  <event>
  8     66 0.27784906E-05 0.18954032E+03 0.75467711E-02 0.10540259E+00
       -1 -1    0    0    0  501 0.00000000E+00 0.00000000E+00 0.19223560E+02 0.19226223E+02 0.32000000E+00 0.0000E+00 0.9000E+01
        1 -1    0    0  501    0 0.00000000E+00 0.00000000E+00 -.22823483E+04 0.22823484E+04 0.32000000E+00 0.0000E+00 0.9000E+01
       25  2    1    2    0    0 0.23006912E+02 -.56875143E+02 -.15394547E+04 0.15696062E+04 0.29996451E+03 0.0000E+00 0.0000E+00
       23  2    3    3    0    0 0.10626222E+03 -.71609853E+02 -.11509526E+04 0.11616875E+04 0.91685484E+02 0.0000E+00 0.0000E+00
       23  1    1    2    0    0 -.23006912E+02 0.56875143E+02 -.72367008E+03 0.73196839E+03 0.91188000E+02 0.0000E+00 0.9000E+01
      -11  1    4    4    0    0 0.75788495E+02 -.82900664E+02 -.64616938E+03 0.65585920E+03 0.51099893E-03 0.0000E+00 0.9000E+01
       11  1    4    4    0    0 0.30473720E+02 0.11290810E+02 -.50478325E+03 0.50582829E+03 0.51099893E-03 0.0000E+00 0.9000E+01
       23  1    3    3    0    0 -.83255303E+02 0.14734710E+02 -.38850207E+03 0.40791870E+03 0.91188000E+02 0.0000E+00 0.9000E+01
#aMCatNLO 1  0  0  1  2 0.44932491D+02 0.00000000D+00  -5  7  0 0.00000000D+00 0.00000000D+00 0.00000000D+00 0.00000000D+00 0.00000000D+00
  <mgrwgt>
 0.1707958796D-02    4    2    0
 0.209470642433219D+03 0.000000000000000D+00 0.000000000000000D+00 0.209470642433219D+03
 0.209470642433219D+03 0.000000000000000D+00 0.000000000000000D+00 -.209470642433219D+03
 0.112006558749463D+03 -.230069119801486D+02 0.568751434306099D+02 -.215897642363741D+02
 0.112538248685906D+03 0.757884948084680D+02 -.829006636486421D+02 -.695998840317451D+01
 0.520694831723219D+02 0.304737203090056D+02 0.112908104504857D+02 -.406829331259734D+02
 0.142326994258746D+03 -.832553031373250D+02 0.147347097675465D+02 0.692326857655220D+02
 0.000000000000000D+00 0.000000000000000D+00 -.000000000000000D+00 -.000000000000000D+00
 0.217658004081961D+03 0.000000000000000D+00 0.000000000000000D+00 0.217658004081961D+03
 0.282920803688350D+03 0.000000000000000D+00 0.000000000000000D+00 -.282920803688350D+03
 0.118540556798574D+03 -.322357019527718D+02 0.650488574991579D+02 -.215897642363741D+02
 0.101203546040497D+03 0.672324210219343D+02 -.753227578898175D+02 -.695998840317451D+01
 0.507242822070457D+02 0.263588908134111D+02 0.149352145205305D+02 -.406829331259734D+02
 0.150875570584722D+03 -.949921877387330D+02 0.251297820437643D+02 0.692326857655220D+02
 0.792348521394717D+02 0.336365778561594D+02 -.297910961736353D+02 -.652627996063890D+02
0.204897202037D-04 0.000000000000D+00 0.000000000000D+00 0.122320482644D-06 0.000000000000D+00  7 -1 1 23 -11 11 23 21 0 0.29576773D-02 0.35113072D+00 0.35925533D+05 0.35925533D+05 0.35925533D+05 0.11601417D+01  1  2  2  1  7  1       -1 0.185160554988D-02 0.100000000000D+01
-.112448253421D-05 0.000000000000D+00 -.786859206493D-07 0.122320482644D-06 0.000000000000D+00  7 -1 1 23 -11 11 23 21 2 0.29576773D-02 0.35113072D+00 0.35925533D+05 0.35925533D+05 0.35925533D+05 0.11601417D+01  1  2  3  1  7  1       -1 -.136768868296D-03 0.100000000000D+01
0.133355596295D-05 0.000000000000D+00 0.000000000000D+00 0.122320482644D-06 0.000000000000D+00  7 -1 1 23 -11 11 23 21 2 0.29576773D-02 0.35113072D+00 0.35925533D+05 0.35925533D+05 0.35925533D+05 0.11601417D+01  1  2 15  1  7  1       -1 0.162198108297D-03 0.100000000000D+01
-.139010437109D-05 0.000000000000D+00 0.000000000000D+00 0.122320482644D-06 0.000000000000D+00  7 -1 1 23 -11 11 23 21 2 0.29576773D-02 0.35113072D+00 0.35925533D+05 0.35925533D+05 0.35925533D+05 0.11601417D+01  1  2  4  1  7  1       -1 -.169075993502D-03 0.100000000000D+01
  </mgrwgt>
  </event>
  <event>
  8     66 0.27784906E-05 0.17369946E+03 0.75467711E-02 0.96326695E-01
       -1 -1    0    0    0  501 0.00000000E+00 0.00000000E+00 0.87848831E+02 0.87849414E+02 0.32000000E+00 0.0000E+00 0.9000E+01
        1 -1    0    0  501    0 0.00000000E+00 0.00000000E+00 -.13380875E+04 0.13380875E+04 0.32000000E+00 0.0000E+00 0.9000E+01
       25  2    1    2    0    0 0.49683781E+02 -.46795726E+02 -.19483859E+03 0.36440839E+03 0.30028833E+03 0.0000E+00 0.0000E+00
       23  2    3    3    0    0 0.40947419E+02 -.11025959E+03 -.10546049E+02 0.14904131E+03 0.90929777E+02 0.0000E+00 0.0000E+00
       23  1    1    2    0    0 -.49683781E+02 0.46795726E+02 -.10554000E+04 0.10615285E+04 0.91188000E+02 0.0000E+00 0.9000E+01
      -13  1    4    4    0    0 0.45332626E+02 -.10798724E+03 -.36460028E+02 0.12266065E+03 0.10565837E+00 0.0000E+00 0.9000E+01
       13  1    4    4    0    0 -.43852075E+01 -.22723519E+01 0.25913979E+02 0.26380658E+02 0.10565837E+00 0.0000E+00 0.9000E+01
       23  1    3    3    0    0 0.87363617E+01 0.63463865E+02 -.18429254E+03 0.21536708E+03 0.91188000E+02 0.0000E+00 0.9000E+01
#aMCatNLO 1  0  0  2  2 0.35996723D+03 0.00000000D+00  -5  7  0 0.00000000D+00 0.00000000D+00 0.00000000D+00 0.00000000D+00 0.00000000D+00
  <mgrwgt>
 0.3666955980D-03    3    2    0
 0.342855453564627D+03 0.000000000000000D+00 0.000000000000000D+00 0.342855453564627D+03
 0.342855453564627D+03 0.000000000000000D+00 0.000000000000000D+00 -.342855453564627D+03
 0.283167160100073D+03 -.496837806085746D+02 0.467957261145002D+02 -.259249052412919D+03
 0.188596527316468D+03 0.453326934706010D+02 -.107987381291323D+03 0.147825310756901D+03
 0.102106776551023D+03 -.438527458305605D+01 -.227220928377616D+01 0.101987255328509D+03
 0.111840443161690D+03 0.873636172102966D+01 0.634638644605987D+02 0.943648632750940D+01
 0.000000000000000D+00 -.000000000000000D+00 -.000000000000000D+00 0.000000000000000D+00
 0.574885134225378D+03 0.000000000000000D+00 0.000000000000000D+00 0.574885134225378D+03
 0.559848004481508D+03 0.000000000000000D+00 0.000000000000000D+00 -.559848004481508D+03
 0.326485241475527D+03 0.311871027122040D+02 0.173478111024865D+03 -.259249052412919D+03
 0.178026433323808D+03 0.939655252219928D+02 -.318051651682068D+02 0.147825310756901D+03
 0.113076782426533D+03 0.241589982610260D+02 0.424417398031555D+02 0.101987255328509D+03
 0.156863512585986D+03 0.443801584106541D+02 0.119299054908452D+03 0.943648632750940D+01
 0.360281168895032D+03 -.193691784605877D+03 -.303413740568266D+03 0.150371297438696D+02
0.895639126096D-05 0.000000000000D+00 0.000000000000D+00 0.822568430832D-06 0.000000000000D+00  7 -1 1 23 -13 13 23 21 0 0.13515253D-01 0.20585966D+00 0.30171503D+05 0.30171503D+05 0.30171503D+05 0.11671063D+01  1  2  2  2  7  2        1 0.349417318949D-03 0.100000000000D+01
-.217848376463D-06 0.000000000000D+00 -.343949007141D-07 0.822568430832D-06 0.000000000000D+00  7 -1 1 23 -13 13 23 21 2 0.13515253D-01 0.20585966D+00 0.30171503D+05 0.30171503D+05 0.30171503D+05 0.11671063D+01  1  2  3  2  7  2        1 -.115767463094D-04 0.100000000000D+01
0.542986800015D-06 0.000000000000D+00 0.000000000000D+00 0.822568430832D-06 0.000000000000D+00  7 -1 1 23 -13 13 23 21 2 0.13515253D-01 0.20585966D+00 0.30171503D+05 0.30171503D+05 0.30171503D+05 0.11671063D+01  1  2 15  2  7  2        1 0.288550253859D-04 0.100000000000D+01
  </mgrwgt>
  </event>
  <event>
  8     66 0.27784906E-05 0.10928808E+03 0.75467711E-02 0.10144988E+00
       -1 -1    0    0    0  501 0.00000000E+00 0.00000000E+00 0.73839672E+02 0.73840365E+02 0.32000000E+00 0.0000E+00 0.9000E+01
        1 -1    0    0  501    0 0.00000000E+00 0.00000000E+00 -.78915144E+03 0.78915150E+03 0.32000000E+00 0.0000E+00 0.9000E+01
       25  2    1    2    0    0 -.26126193E+02 0.94259077E+02 -.33836074E+03 0.46302352E+03 0.30055854E+03 0.0000E+00 0.0000E+00
       23  2    3    3    0    0 0.82151050E+02 0.16655788E+01 -.17113891E+03 0.22516661E+03 0.12107810E+03 0.0000E+00 0.0000E+00
       23  1    1    2    0    0 0.26126193E+02 -.94259077E+02 -.37695103E+03 0.39996835E+03 0.91188000E+02 0.0000E+00 0.9000E+01
      -13  1    4    4    0    0 -.24903382E+02 0.19314647E+02 -.14677037E+02 0.34765797E+02 0.10565837E+00 0.0000E+00 0.9000E+01
       13  1    4    4    0    0 0.10705443E+03 -.17649068E+02 -.15646188E+03 0.19040082E+03 0.10565837E+00 0.0000E+00 0.9000E+01
       23  1    3    3    0    0 -.10827724E+03 0.92593498E+02 -.16722183E+03 0.23785691E+03 0.91188000E+02 0.0000E+00 0.9000E+01
#aMCatNLO 1  0  0  2  1 0.11200685D+03 0.00000000D+00  -5  7  0 0.00000000D+00 0.00000000D+00 0.00000000D+00 0.00000000D+00 0.00000000D+00
  <mgrwgt>
 0.4984253576D-03    9    2    0
 0.241393890353723D+03 0.000000000000000D+00 0.000000000000000D+00 0.241393890353723D+03
 0.241393890353723D+03 0.000000000000000D+00 0.000000000000000D+00 -.241393890353723D+03
 0.156449548913197D+03 0.261261948874798D+02 -.942590836241567D+02 -.812025683471810D+02
 0.403966634429582D+02 -.249019414175298D+02 0.193137557155203D+02 0.252737526125971D+02
 0.108526793748509D+03 0.107054594816577D+03 -.176493254745609D+02 0.242487118892735D+01
 0.177414774602782D+03 -.108278848286527D+03 0.925946533831973D+02 0.535039445456566D+02
 0.000000000000000D+00 0.000000000000000D+00 0.000000000000000D+00 -.000000000000000D+00
 0.278886400711850D+03 0.000000000000000D+00 0.000000000000000D+00 0.278886400711850D+03
 0.348714343224731D+03 0.000000000000000D+00 0.000000000000000D+00 -.348714343224731D+03
 0.165169654480743D+03 -.665135753156483D+01 -.111030021859390D+03 -.812025683471810D+02
 0.445717045341693D+02 -.335614216536016D+02 0.148830524606914D+02 0.252737526125971D+02
 0.911637652006329D+02 0.867032983315639D+02 -.280622547864753D+02 0.242487118892735D+01
 0.194705181735153D+03 -.146203142751305D+03 0.731903369183090D+02 0.535039445456566D+02
 0.131990437985883D+03 0.997126236049079D+02 0.510188872668651D+02 -.698279425128805D+02
0.336749330105D-05 0.000000000000D+00 0.000000000000D+00 0.355236164725D-09 0.000000000000D+00  7 -1 1 23 -13 13 23 21 0 0.11360008D-01 0.12140797D+00 0.49038827D+05 0.49038827D+05 0.49038827D+05 0.11480376D+01  1  2  2  2  7  2        1 0.431474968316D-03 0.100000000000D+01
-.185390980280D-06 0.000000000000D+00 -.129320609574D-07 0.355236164725D-09 0.000000000000D+00  7 -1 1 23 -13 13 23 21 2 0.11360008D-01 0.12140797D+00 0.49038827D+05 0.49038827D+05 0.49038827D+05 0.11480376D+01  1  2  3  2  7  2        1 -.313075948529D-04 0.100000000000D+01
0.215710371435D-06 0.000000000000D+00 0.000000000000D+00 0.355236164725D-09 0.000000000000D+00  7 -1 1 23 -13 13 23 21 2 0.11360008D-01 0.12140797D+00 0.49038827D+05 0.49038827D+05 0.49038827D+05 0.11480376D+01  1  2 15  2  7  2        1 0.364277318361D-04 0.100000000000D+01
0.143029707602D-05 0.000000000000D+00 0.000000000000D+00 0.355236164725D-09 0.000000000000D+00  7 -1 1 23 -13 13 23 21 2 0.11360008D-01 0.18147640D+00 0.81479327D+05 0.81479327D+05 0.81479327D+05 0.11290955D+01  1  2 12  2  7  2        1 0.117546883185D-03 0.100000000000D+01
-.229764159191D-05 0.000000000000D+00 0.000000000000D+00 0.355236164725D-09 0.000000000000D+00  7 -1 1 23 -13 13 23 21 2 0.11360008D-01 0.12140797D+00 0.49038827D+05 0.49038827D+05 0.49038827D+05 0.11480376D+01  1  2  4  2  7  2        1 -.388010419752D-03 0.100000000000D+01
-.302882259217D-05 0.000000000000D+00 -.126291925740D-05 0.355236164725D-09 0.000000000000D+00  7 -1 1 23 -13 13 23 21 2 0.11360008D-01 0.19123248D+00 0.49038827D+05 0.49038827D+05 0.49038827D+05 0.11480376D+01  1  2  5  2  7  2        1 -.233974944208D-03 0.100000000000D+01
0.336888849065D-05 0.000000000000D+00 0.114291645232D-05 0.355236164725D-09 0.000000000000D+00  7 -1 1 23 -13 13 23 21 2 0.11360008D-01 0.12140797D+00 0.49038827D+05 0.49038827D+05 0.49038827D+05 0.11480376D+01  1  2  6  2  7  2        1 0.568915466172D-03 0.100000000000D+01
0.683277672500D-07 0.000000000000D+00 0.000000000000D+00 0.355236164725D-09 0.000000000000D+00  7 -1 21 23 -13 13 23 -1 2 0.11360008D-01 0.18147640D+00 0.81479327D+05 0.81479327D+05 0.81479327D+05 0.11290955D+01  1  2 12  4  7  2        1 0.636727693507D-05 0.100000000000D+01
-.107684986728D-06 0.000000000000D+00 -.661072897422D-07 0.355236164725D-09 0.000000000000D+00  7 -1 21 23 -13 13 23 -1 2 0.11360008D-01 0.19123248D+00 0.49038827D+05 0.49038827D+05 0.49038827D+05 0.11480376D+01  1  2  5  4  7  2        1 -.901401007656D-05 0.100000000000D+01
  </mgrwgt>
  </event>
  <event>
  8     66 0.27784906E-05 0.83643512E+02 0.75467711E-02 0.10453775E+00
       -1 -1    0    0    0  501 0.00000000E+00 0.00000000E+00 0.31597519E+03 0.31597535E+03 0.32000000E+00 0.0000E+00 0.9000E+01
        1 -1    0    0  501    0 0.00000000E+00 0.00000000E+00 -.32784097E+03 0.32784113E+03 0.32000000E+00 0.0000E+00 0.9000E+01
       25  2    1    2    0    0 0.90352689E+02 -.43449650E+02 0.21336721E+03 0.38095410E+03 0.29924735E+03 0.0000E+00 0.0000E+00
       23  2    3    3    0    0 0.14172486E+03 -.88124931E+02 0.18153199E+03 0.26278594E+03 0.90833077E+02 0.0000E+00 0.0000E+00
       23  1    1    2    0    0 -.90352689E+02 0.43449650E+02 -.22523299E+03 0.26286238E+03 0.91188000E+02 0.0000E+00 0.9000E+01
      -13  1    4    4    0    0 0.14093302E+03 -.72029552E+02 0.18770662E+03 0.24552832E+03 0.10565837E+00 0.0000E+00 0.9000E+01
       13  1    4    4    0    0 0.79184336E+00 -.16095379E+02 -.61746265E+01 0.17257619E+02 0.10565837E+00 0.0000E+00 0.9000E+01
       23  1    3    3    0    0 -.51372171E+02 0.44675281E+02 0.31835212E+02 0.11816815E+03 0.91188000E+02 0.0000E+00 0.9000E+01
#aMCatNLO 1  0  0  1  2 0.29479699D+02 0.00000000D+00  -5  7  0 0.00000000D+00 0.00000000D+00 0.00000000D+00 0.00000000D+00 0.00000000D+00
  <mgrwgt>
 0.3141184401D-03    9    2    0
 0.321853562076773D+03 0.000000000000000D+00 0.000000000000000D+00 0.321853562076773D+03
 0.321853562076773D+03 0.000000000000000D+00 0.000000000000000D+00 -.321853562076773D+03
 0.258755201997348D+03 -.903526892573541D+02 0.434496505365747D+02 -.220425775781559D+03
 0.249030441143033D+03 0.140933206004087D+03 -.720296279182526D+02 0.192264725738398D+03
 0.171464170860625D+02 0.791653782458937D+00 -.160953033792565D+02 -.585782487853899D+01
 0.118775063927101D+03 -.513721705291920D+02 0.446752807609343D+02 0.340188749217003D+02
 0.000000000000000D+00 0.000000000000000D+00 -.000000000000000D+00 0.000000000000000D+00
 0.349616004090782D+03 0.000000000000000D+00 0.000000000000000D+00 0.349616004090782D+03
 0.330112959311251D+03 0.000000000000000D+00 0.000000000000000D+00 -.330112959311251D+03
 0.263504995843584D+03 -.102001223540180D+03 0.461287248678256D+02 -.220425775781559D+03
 0.242262011232349D+03 0.129975378855768D+03 -.695094109770852D+02 0.192264725738398D+03
 0.169638389731806D+02 0.308558339561216D-01 -.159203256347940D+02 -.585782487853899D+01
 0.121650961836150D+03 -.567346523249803D+02 0.459086108076234D+02 0.340188749217003D+02
 0.353471555167685D+02 0.287296411754364D+02 -.660759906356974D+01 0.195030447795312D+02
0.555873946576D-05 0.000000000000D+00 0.000000000000D+00 0.364092586232D-06 0.000000000000D+00  7 -1 1 23 -13 13 23 21 0 0.48611592D-01 0.50437097D-01 0.44882765D+05 0.44882765D+05 0.44882765D+05 0.11514428D+01  1  2  2  1  7  1       -1 0.227625636440D-03 0.100000000000D+01
-.243153406087D-06 0.000000000000D+00 -.213470231982D-07 0.364092586232D-06 0.000000000000D+00  7 -1 1 23 -13 13 23 21 2 0.48611592D-01 0.50437097D-01 0.44882765D+05 0.44882765D+05 0.44882765D+05 0.11514428D+01  1  2  3  1  7  1       -1 -.132010953294D-04 0.100000000000D+01
0.341680630955D-06 0.000000000000D+00 0.000000000000D+00 0.364092586232D-06 0.000000000000D+00  7 -1 1 23 -13 13 23 21 2 0.48611592D-01 0.50437097D-01 0.44882765D+05 0.44882765D+05 0.44882765D+05 0.11514428D+01  1  2 15  1  7  1       -1 0.185502586785D-04 0.100000000000D+01
0.166823217402D-04 0.000000000000D+00 0.000000000000D+00 0.364092586232D-06 0.000000000000D+00  7 -1 1 23 -13 13 23 21 2 0.53391491D-01 0.50437097D-01 0.51524083D+05 0.51524083D+05 0.51524083D+05 0.11461501D+01  1  2 12  1  7  1       -1 0.757781885599D-03 0.100000000000D+01
-.166413700723D-04 0.000000000000D+00 0.000000000000D+00 0.364092586232D-06 0.000000000000D+00  7 -1 1 23 -13 13 23 21 2 0.48611592D-01 0.50437097D-01 0.44882765D+05 0.44882765D+05 0.44882765D+05 0.11514428D+01  1  2  4  1  7  1       -1 -.903480301892D-03 0.100000000000D+01
-.360551173943D-04 0.000000000000D+00 -.701791577650D-05 0.364092586232D-06 0.000000000000D+00  7 -1 1 23 -13 13 23 21 2 0.53905288D-01 0.50437097D-01 0.44882765D+05 0.44882765D+05 0.44882765D+05 0.11514428D+01  1  2  5  1  7  1       -1 -.162744735163D-02 0.100000000000D+01
0.366220399548D-04 0.000000000000D+00 0.698058999599D-05 0.364092586232D-06 0.000000000000D+00  7 -1 1 23 -13 13 23 21 2 0.48611592D-01 0.50437097D-01 0.44882765D+05 0.44882765D+05 0.44882765D+05 0.11514428D+01  1  2  6  1  7  1       -1 0.198825526807D-02 0.100000000000D+01
0.256297124378D-06 0.000000000000D+00 0.000000000000D+00 0.364092586232D-06 0.000000000000D+00  7 21 1 23 -13 13 23 1 2 0.53391491D-01 0.50437097D-01 0.51524083D+05 0.51524083D+05 0.51524083D+05 0.11461501D+01  1  2 12  3  7  1       -1 0.107760461508D-03 0.100000000000D+01
-.577949500121D-06 0.000000000000D+00 -.117286865518D-06 0.364092586232D-06 0.000000000000D+00  7 21 1 23 -13 13 23 1 2 0.53905288D-01 0.50437097D-01 0.44882765D+05 0.44882765D+05 0.44882765D+05 0.11514428D+01  1  2  5  3  7  1       -1 -.241726321338D-03 0.100000000000D+01
  </mgrwgt>
  </event>
  <event>
  8     66 0.27784906E-05 0.25718351E+03 0.75467711E-02 0.93243106E-01
       -1 -1    0    0    0  501 0.00000000E+00 0.00000000E+00 0.40123907E+03 0.40123920E+03 0.32000000E+00 0.0000E+00 0.9000E+01
        1 -1    0    0  501    0 0.00000000E+00 0.00000000E+00 -.67027760E+03 0.67027768E+03 0.32000000E+00 0.0000E+00 0.9000E+01
       25  2    1    2    0    0 -.26756321E+03 -.24418142E+03 -.45539123E+03 0.65407560E+03 0.29869563E+03 0.0000E+00 0.0000E+00
       23  2    3    3    0    0 -.16957938E+02 -.95446692E+02 -.38784471E+02 0.13754732E+03 0.89539857E+02 0.0000E+00 0.0000E+00
       23  1    1    2    0    0 0.26756321E+03 0.24418142E+03 0.18635270E+03 0.41744128E+03 0.91188000E+02 0.0000E+00 0.9000E+01
      -13  1    4    4    0    0 -.38494240E+01 0.11415172E+02 0.13302144E+02 0.17946655E+02 0.10565837E+00 0.0000E+00 0.9000E+01
       13  1    4    4    0    0 -.13108514E+02 -.10686186E+03 -.52086615E+02 0.11960066E+03 0.10565837E+00 0.0000E+00 0.9000E+01
       23  1    3    3    0    0 -.25060528E+03 -.14873473E+03 -.41660676E+03 0.51652828E+03 0.91188000E+02 0.0000E+00 0.9000E+01
#aMCatNLO 1  0  0  1  2 0.28652777D+03 0.00000000D+00  -5  7  0 0.00000000D+00 0.00000000D+00 0.00000000D+00 0.00000000D+00 0.00000000D+00
  <mgrwgt>
 0.2948546162D-03    9    2    0
 0.518595864025388D+03 0.000000000000000D+00 0.000000000000000D+00 0.518595864025388D+03
 0.518595864025388D+03 0.000000000000000D+00 0.000000000000000D+00 -.518595864025388D+03
 0.479594480261564D+03 0.267563213795987D+03 0.244181417015726D+03 0.300800559109711D+03
 0.219909255077554D+02 -.384941111476461D+01 0.114153371560379D+02 0.183976334448526D+02
 0.110048068087865D+03 -.131085266576654D+02 -.106862029072435D+03 -.227870700455031D+02
 0.425558254193591D+03 -.250605276023557D+03 -.148734725099329D+03 -.296411122509061D+03
 0.000000000000000D+00 -.000000000000000D+00 -.000000000000000D+00 0.000000000000000D+00
 0.767716204729266D+03 0.000000000000000D+00 0.000000000000000D+00 0.767716204729266D+03
 0.627376045875736D+03 0.000000000000000D+00 0.000000000000000D+00 -.627376045875736D+03
 0.571919509563367D+03 0.281505955971832D+03 0.386070064194146D+03 0.300800559109711D+03
 0.258490424262872D+02 -.321506830519714D+01 0.178707418362461D+02 0.183976334448526D+02
 0.844364447116313D+02 -.105297236694050D+02 -.806187791629698D+02 -.227870700455031D+02
 0.393836285495658D+03 -.239740364174800D+03 -.381676914060835D+02 -.296411122509061D+03
 0.319050968408060D+03 -.280207998224296D+02 -.285154335461339D+03 0.140340158853531D+03
0.312846067840D-04 0.000000000000D+00 0.000000000000D+00 0.101587021852D-06 0.000000000000D+00  7 -1 1 23 -13 13 23 21 0 0.61729103D-01 0.10311965D+00 0.15944034D+06 0.15944034D+06 0.15944034D+06 0.11054662D+01  1  2  2  1  7  1       -1 0.301805923110D-03 0.100000000000D+01
-.159362549955D-05 0.000000000000D+00 -.120141127477D-06 0.101587021852D-06 0.000000000000D+00  7 -1 1 23 -13 13 23 21 2 0.61729103D-01 0.10311965D+00 0.15944034D+06 0.15944034D+06 0.15944034D+06 0.11054662D+01  1  2  3  1  7  1       -1 -.187877273614D-04 0.100000000000D+01
0.193911457248D-05 0.000000000000D+00 0.000000000000D+00 0.101587021852D-06 0.000000000000D+00  7 -1 1 23 -13 13 23 21 2 0.61729103D-01 0.10311965D+00 0.15944034D+06 0.15944034D+06 0.15944034D+06 0.11054662D+01  1  2 15  1  7  1       -1 0.228608013115D-04 0.100000000000D+01
0.287787689863D-05 0.000000000000D+00 0.000000000000D+00 0.101587021852D-06 0.000000000000D+00  7 -1 1 23 -13 13 23 21 2 0.95355209D-01 0.10311965D+00 0.32020705D+06 0.32020705D+06 0.32020705D+06 0.10824636D+01  1  2 12  1  7  1       -1 0.131594436127D-04 0.100000000000D+01
-.156928330612D-04 0.000000000000D+00 0.000000000000D+00 0.101587021852D-06 0.000000000000D+00  7 -1 1 23 -13 13 23 21 2 0.61729103D-01 0.10311965D+00 0.15944034D+06 0.15944034D+06 0.15944034D+06 0.11054662D+01  1  2  4  1  7  1       -1 -.185007499669D-03 0.100000000000D+01
-.147645770435D-04 0.000000000000D+00 -.104745178212D-04 0.101587021852D-06 0.000000000000D+00  7 -1 1 23 -13 13 23 21 2 0.10600194D+00 0.10311965D+00 0.15944034D+06 0.15944034D+06 0.15944034D+06 0.11054662D+01  1  2  5  1  7  1       -1 -.572871382796D-04 0.100000000000D+01
0.189538141971D-04 0.000000000000D+00 0.911005426043D-05 0.101587021852D-06 0.000000000000D+00  7 -1 1 23 -13 13 23 21 2 0.61729103D-01 0.10311965D+00 0.15944034D+06 0.15944034D+06 0.15944034D+06 0.11054662D+01  1  2  6  1  7  1       -1 0.223452181013D-03 0.100000000000D+01
0.145738340829D-06 0.000000000000D+00 0.000000000000D+00 0.101587021852D-06 0.000000000000D+00  7 21 1 23 -13 13 23 1 2 0.95355209D-01 0.10311965D+00 0.32020705D+06 0.32020705D+06 0.32020705D+06 0.10824636D+01  1  2 12  3  7  1       -1 0.470639453535D-05 0.100000000000D+01
-.372866203308D-06 0.000000000000D+00 -.629159056486D-06 0.101587021852D-06 0.000000000000D+00  7 21 1 23 -13 13 23 1 2 0.10600194D+00 0.10311965D+00 0.15944034D+06 0.15944034D+06 0.15944034D+06 0.11054662D+01  1  2  5  3  7  1       -1 -.100477620577D-04 0.100000000000D+01
  </mgrwgt>
  </event>
  <event>
  8     66 0.27784906E-05 0.42983726E+03 0.75467711E-02 0.85492313E-01
       -1 -1    0    0    0  501 0.00000000E+00 0.00000000E+00 0.13212739E+04 0.13212739E+04 0.32000000E+00 0.0000E+00 0.9000E+01
        1 -1    0    0  501    0 0.00000000E+00 0.00000000E+00 -.11599969E+04 0.11599969E+04 0.32000000E+00 0.0000E+00 0.9000E+01
       25  2    1    2    0    0 0.56645782E+02 -.11882748E+04 0.34463524E+03 0.12741498E+04 0.29912938E+03 0.0000E+00 0.0000E+00
       23  2    3    3    0    0 0.10676207E+02 -.11667169E+03 0.19068312E+02 0.14953626E+03 0.90946286E+02 0.0000E+00 0.0000E+00
       23  1    1    2    0    0 -.56645782E+02 0.11882748E+04 -.18335821E+03 0.12071211E+04 0.91188000E+02 0.0000E+00 0.9000E+01
      -11  1    4    4    0    0 -.14098184E+02 -.10079107E+03 -.16791039E+02 0.10314814E+03 0.51099893E-03 0.0000E+00 0.9000E+01
       11  1    4    4    0    0 0.24774391E+02 -.15880614E+02 0.35859351E+02 0.46388118E+02 0.51099893E-03 0.0000E+00 0.9000E+01
       23  1    3    3    0    0 0.45969575E+02 -.10716031E+04 0.32556692E+03 0.11246135E+04 0.91188000E+02 0.0000E+00 0.9000E+01
#aMCatNLO 1  0  0  2  1 0.41286212D+02 0.00000000D+00  -5  7  0 0.00000000D+00 0.00000000D+00 0.00000000D+00 0.00000000D+00 0.00000000D+00
  <mgrwgt>
 0.4276722786D-03    9    2    0
 0.123801199123160D+04 0.000000000000000D+00 0.000000000000000D+00 0.123801199123160D+04
 0.123801199123160D+04 0.000000000000000D+00 0.000000000000000D+00 -.123801199123160D+04
 0.122162217902187D+04 -.566457818278962D+02 0.118827482825955D+04 -.262373178621558D+03
 0.104460409199979D+03 -.140981842381252D+02 -.100791074410082D+03 -.235452247956207D+02
 0.441507009946518D+02 0.247743913324202D+02 -.158806143769543D+02 0.329138271770045D+02
 0.110579069324669D+04 0.459695747336011D+02 -.107160313947251D+04 0.253004576240174D+03
 0.000000000000000D+00 0.000000000000000D+00 0.000000000000000D+00 -.000000000000000D+00
 0.125550101963082D+04 0.000000000000000D+00 0.000000000000000D+00 0.125550101963082D+04
 0.126279224082086D+04 0.000000000000000D+00 0.000000000000000D+00 -.126279224082086D+04
 0.120235276207147D+04 -.597211102986559D+02 0.116830245109801D+04 -.262373178621558D+03
 0.106171760151940D+03 -.143654160053701D+02 -.102526581265921D+03 -.235452247956207D+02
 0.443556860483831D+02 0.246621021303731D+02 -.166098640541111D+02 0.329138271770045D+02
 0.112348796165805D+04 0.431412599682706D+02 -.108997131372180D+04 0.253004576240174D+03
 0.419250905218378D+02 0.628316420538228D+01 0.408053079438258D+02 -.729122119003719D+01
0.884547864684D-03 0.000000000000D+00 0.000000000000D+00 0.260047143816D-05 0.000000000000D+00  7 -1 1 23 -11 11 23 21 0 0.20327291D+00 0.17846106D+00 0.14409260D+07 0.14409260D+07 0.14409260D+07 0.10374642D+01  1  2  2  2  7  2        1 0.145139272960D-03 0.100000000000D+01
-.490846324384D-04 0.000000000000D+00 -.339689670719D-05 0.260047143816D-05 0.000000000000D+00  7 -1 1 23 -11 11 23 21 2 0.20327291D+00 0.17846106D+00 0.14409260D+07 0.14409260D+07 0.14409260D+07 0.10374642D+01  1  2  3  2  7  2        1 -.866872775078D-05 0.100000000000D+01
0.556076670388D-04 0.000000000000D+00 0.000000000000D+00 0.260047143816D-05 0.000000000000D+00  7 -1 1 23 -11 11 23 21 2 0.20327291D+00 0.17846106D+00 0.14409260D+07 0.14409260D+07 0.14409260D+07 0.10374642D+01  1  2 15  2  7  2        1 0.982074638168D-05 0.100000000000D+01
0.107784069511D-02 0.000000000000D+00 0.000000000000D+00 0.260047143816D-05 0.000000000000D+00  7 -1 1 23 -11 11 23 21 2 0.20327291D+00 0.18327220D+00 0.14915179D+07 0.14915179D+07 0.14915179D+07 0.10364980D+01  1  2 12  2  7  2        1 0.179763514794D-03 0.100000000000D+01
-.922376256914D-03 0.000000000000D+00 0.000000000000D+00 0.260047143816D-05 0.000000000000D+00  7 -1 1 23 -11 11 23 21 2 0.20327291D+00 0.17846106D+00 0.14409260D+07 0.14409260D+07 0.14409260D+07 0.10374642D+01  1  2  4  2  7  2        1 -.162898818994D-03 0.100000000000D+01
-.270127658777D-01 0.000000000000D+00 -.358662769467D-02 0.260047143816D-05 0.000000000000D+00  7 -1 1 23 -11 11 23 21 2 0.20327291D+00 0.18371341D+00 0.14409260D+07 0.14409260D+07 0.14409260D+07 0.10374642D+01  1  2  5  2  7  2        1 -.450392672711D-02 0.100000000000D+01
0.271069054946D-01 0.000000000000D+00 0.358511936534D-02 0.260047143816D-05 0.000000000000D+00  7 -1 1 23 -11 11 23 21 2 0.20327291D+00 0.17846106D+00 0.14409260D+07 0.14409260D+07 0.14409260D+07 0.10374642D+01  1  2  6  2  7  2        1 0.478729028263D-02 0.100000000000D+01
0.259391893412D-04 0.000000000000D+00 0.000000000000D+00 0.260047143816D-05 0.000000000000D+00  7 -1 21 23 -11 11 23 -1 2 0.20327291D+00 0.18327220D+00 0.14915179D+07 0.14915179D+07 0.14915179D+07 0.10364980D+01  1  2 12  4  7  2        1 0.431172869106D-05 0.100000000000D+01
-.139636420924D-03 0.000000000000D+00 -.186851296781D-04 0.260047143816D-05 0.000000000000D+00  7 -1 21 23 -11 11 23 -1 2 0.20327291D+00 0.18371341D+00 0.14409260D+07 0.14409260D+07 0.14409260D+07 0.10374642D+01  1  2  5  4  7  2        1 -.231589929643D-04 0.100000000000D+01
  </mgrwgt>
  </event>
  <event>
  8     66 0.27784906E-05 0.37545470E+03 0.75467711E-02 0.94798327E-01
       -1 -1    0    0    0  501 0.00000000E+00 0.00000000E+00 0.30560499E+03 0.30560516E+03 0.32000000E+00 0.0000E+00 0.9000E+01
        1 -1    0    0  501    0 0.00000000E+00 0.00000000E+00 -.89647987E+03 0.89647993E+03 0.32000000E+00 0.0000E+00 0.9000E+01
       25  2    1    2    0    0 0.14579895E+03 -.30465800E+03 0.67366952E+02 0.45665139E+03 0.29986390E+03 0.0000E+00 0.0000E+00
       23  2    3    3    0    0 0.98227608E+01 -.67771544E+02 0.11716771E+03 0.16441846E+03 0.92820748E+02 0.0000E+00 0.0000E+00
       23  1    1    2    0    0 -.14579895E+03 0.30465800E+03 -.65824183E+03 0.74543369E+03 0.91188000E+02 0.0000E+00 0.9000E+01
      -11  1    4    4    0    0 0.47625007E+02 -.56008791E+02 0.60077996E+02 0.94944677E+02 0.51099893E-03 0.0000E+00 0.9000E+01
       11  1    4    4    0    0 -.37802247E+02 -.11762753E+02 0.57089711E+02 0.69473788E+02 0.51099893E-03 0.0000E+00 0.9000E+01
       23  1    3    3    0    0 0.13597619E+03 -.23688645E+03 -.49800754E+02 0.29223292E+03 0.91188000E+02 0.0000E+00 0.9000E+01
#aMCatNLO 1  0  0  1  1 0.20507607D+03 0.00000000D+00  -5  7  0 0.00000000D+00 0.00000000D+00 0.00000000D+00 0.00000000D+00 0.00000000D+00
  <mgrwgt>
 0.4333517062D-03    4    2    0
 0.523420342313279D+03 0.000000000000000D+00 0.000000000000000D+00 0.523420342313279D+03
 0.523420342313279D+03 0.000000000000000D+00 0.000000000000000D+00 -.523420342313279D+03
 0.484444447622875D+03 -.145798948378632D+03 0.304657997192741D+03 -.335107957062833D+03
 0.142934985423651D+03 0.476250073035117D+02 -.560087910079175D+02 0.122577665450241D+03
 0.112000118303632D+03 -.378022465469624D+02 -.117627530808624D+02 0.104769529425253D+03
 0.307461133276399D+03 0.135976187622083D+03 -.236886453103961D+03 0.107760762187339D+03
 0.000000000000000D+00 0.000000000000000D+00 -.000000000000000D+00 -.000000000000000D+00
 0.561407887277624D+03 0.000000000000000D+00 0.000000000000000D+00 0.561407887277624D+03
 0.908355534495996D+03 0.000000000000000D+00 0.000000000000000D+00 -.908355534495996D+03
 0.555675763299631D+03 -.154935168539041D+03 0.405164229958151D+03 -.335107957062833D+03
 0.133880180860559D+03 0.451935149852635D+02 -.292602967056285D+02 0.122577665450241D+03
 0.112504534951232D+03 -.397742531646913D+02 0.993100567894314D+01 0.104769529425253D+03
 0.264678296193911D+03 0.130950622562198D+03 -.181600940844171D+03 0.107760762187339D+03
 0.403024646468287D+03 0.185652841562708D+02 -.204233998087294D+03 -.346947647218372D+03
0.449828046449D-04 0.000000000000D+00 0.000000000000D+00 0.849562790610D-06 0.000000000000D+00  7 -1 1 23 -11 11 23 21 0 0.47016169D-01 0.13792000D+00 0.14096623D+06 0.14096623D+06 0.14096623D+06 0.11096870D+01  1  2  2  1  7  1       -1 0.455084626951D-03 0.100000000000D+01
-.216363334427D-05 0.000000000000D+00 -.172745814081D-06 0.849562790610D-06 0.000000000000D+00  7 -1 1 23 -11 11 23 21 2 0.47016169D-01 0.13792000D+00 0.14096623D+06 0.14096623D+06 0.14096623D+06 0.11096870D+01  1  2  3  1  7  1       -1 -.269544395572D-04 0.100000000000D+01
0.282159014820D-05 0.000000000000D+00 0.000000000000D+00 0.849562790610D-06 0.000000000000D+00  7 -1 1 23 -11 11 23 21 2 0.47016169D-01 0.13792000D+00 0.14096623D+06 0.14096623D+06 0.14096623D+06 0.11096870D+01  1  2 15  1  7  1       -1 0.351512335979D-04 0.100000000000D+01
-.240245874398D-05 0.000000000000D+00 0.000000000000D+00 0.849562790610D-06 0.000000000000D+00  7 -1 1 23 -11 11 23 21 2 0.47016169D-01 0.13792000D+00 0.14096623D+06 0.14096623D+06 0.14096623D+06 0.11096870D+01  1  2  4  1  7  1       -1 -.299297148358D-04 0.100000000000D+01
  </mgrwgt>
  </event>
  <event>
  8     66 0.27784906E-05 0.34866804E+03 0.75467711E-02 0.91186040E-01
       -1 -1    0    0    0  501 0.00000000E+00 0.00000000E+00 0.39783027E+03 0.39783039E+03 0.32000000E+00 0.0000E+00 0.9000E+01
        1 -1    0    0  501    0 0.00000000E+00 0.00000000E+00 -.62265820E+03 0.62265828E+03 0.32000000E+00 0.0000E+00 0.9000E+01
       25  2    1    2    0    0 0.18567874E+03 -.21500339E+03 -.47592440E+03 0.63053003E+03 0.30060112E+03 0.0000E+00 0.0000E+00
       23  2    3    3    0    0 0.97926735E+02 -.23556306E+03 -.39491777E+03 0.47887108E+03 0.90982744E+02 0.0000E+00 0.0000E+00
       23  1    1    2    0    0 -.18567874E+03 0.21500339E+03 0.25109647E+03 0.38995864E+03 0.91188000E+02 0.0000E+00 0.9000E+01
      -13  1    4    4    0    0 0.94965567E+02 -.11064275E+03 -.20680896E+03 0.25304196E+03 0.10565837E+00 0.0000E+00 0.9000E+01
       13  1    4    4    0    0 0.29611677E+01 -.12492031E+03 -.18810881E+03 0.22582912E+03 0.10565837E+00 0.0000E+00 0.9000E+01
       23  1    3    3    0    0 0.87752003E+02 0.20559670E+02 -.81006630E+02 0.15165896E+03 0.91188000E+02 0.0000E+00 0.9000E+01
#aMCatNLO 1  0  0  1  1 0.52231108D+03 0.00000000D+00  -5  7  0 0.00000000D+00 0.00000000D+00 0.00000000D+00 0.00000000D+00 0.00000000D+00
  <mgrwgt>
 0.3782184114D-03    3    2    0
 0.497707126048794D+03 0.000000000000000D+00 0.000000000000000D+00 0.497707126048794D+03
 0.497707126048794D+03 0.000000000000000D+00 0.000000000000000D+00 -.497707126048794D+03
 0.456495246609861D+03 -.185678738471220D+03 0.215003394314524D+03 0.345499067070183D+03
 0.212705468297745D+03 0.949656914441214D+02 -.110642729907625D+03 -.154865490057958D+03
 0.189030755856960D+03 0.296104363652792D+01 -.124920333852286D+03 -.141840646750745D+03
 0.137182781333023D+03 0.877520033905712D+02 0.205596694453861D+02 -.487929302614806D+02
 0.000000000000000D+00 -.000000000000000D+00 -.000000000000000D+00 -.000000000000000D+00
 0.641994552258825D+03 0.000000000000000D+00 0.000000000000000D+00 0.641994552258825D+03
 0.141531848598083D+04 0.000000000000000D+00 0.000000000000000D+00 -.141531848598083D+04
 0.446785595905425D+03 0.308946702905982D+02 0.266417025292743D+03 0.345499067070183D+03
 0.275282296135903D+03 0.211967147251777D+03 -.828670684947094D+02 -.154865490057958D+03
 0.199844929930007D+03 0.961990809018296D+02 -.102786009659404D+03 -.141840646750745D+03
 0.202212791911982D+03 0.169126535824650D+03 0.398776466869597D+02 -.487929302614806D+02
 0.933187424356339D+03 -.508187434268855D+03 -.120641593825589D+03 -.773323933722006D+03
0.338181915567D-04 0.000000000000D+00 0.000000000000D+00 0.928045054561D-06 0.000000000000D+00  7 -1 1 23 -13 13 23 21 0 0.61204672D-01 0.95793585D-01 0.12156940D+06 0.12156940D+06 0.12156940D+06 0.11148270D+01  1  2  2  1  7  1       -1 0.372608226677D-03 0.100000000000D+01
-.158945763599D-05 0.000000000000D+00 -.129870760112D-06 0.928045054561D-06 0.000000000000D+00  7 -1 1 23 -13 13 23 21 2 0.61204672D-01 0.95793585D-01 0.12156940D+06 0.12156940D+06 0.12156940D+06 0.11148270D+01  1  2  3  1  7  1       -1 -.217653655241D-04 0.100000000000D+01
0.199915215457D-05 0.000000000000D+00 0.000000000000D+00 0.928045054561D-06 0.000000000000D+00  7 -1 1 23 -13 13 23 21 2 0.61204672D-01 0.95793585D-01 0.12156940D+06 0.12156940D+06 0.12156940D+06 0.11148270D+01  1  2 15  1  7  1       -1 0.273755502489D-04 0.100000000000D+01
  </mgrwgt>
  </event>
  <event>
  8     66 0.27784906E-05 0.26424291E+03 0.75467711E-02 0.96744607E-01
       -1 -1    0    0    0  501 0.00000000E+00 0.00000000E+00 0.33692161E+03 0.33692176E+03 0.32000000E+00 0.0000E+00 0.9000E+01
        1 -1    0    0  501    0 0.00000000E+00 0.00000000E+00 -.59297479E+03 0.59297487E+03 0.32000000E+00 0.0000E+00 0.9000E+01
       25  2    1    2    0    0 -.20811378E+03 0.31130143E+03 -.24167243E+02 0.48011194E+03 0.29950542E+03 0.0000E+00 0.0000E+00
       23  2    3    3    0    0 -.44612306E+02 0.20929963E+03 0.76331137E+02 0.24441664E+03 0.90091393E+02 0.0000E+00 0.0000E+00
       23  1    1    2    0    0 0.20811378E+03 -.31130143E+03 -.23188594E+03 0.44978469E+03 0.91188000E+02 0.0000E+00 0.9000E+01
      -13  1    4    4    0    0 -.28785918E+02 0.10116480E+03 -.92808667E+01 0.10558925E+03 0.10565837E+00 0.0000E+00 0.9000E+01
       13  1    4    4    0    0 -.15826388E+02 0.10813483E+03 0.85612004E+02 0.13882739E+03 0.10565837E+00 0.0000E+00 0.9000E+01
       23  1    3    3    0    0 -.16350148E+03 0.10200180E+03 -.10049838E+03 0.23569530E+03 0.91188000E+02 0.0000E+00 0.9000E+01
#aMCatNLO 1  0  0  1  2 0.20538120D+02 0.00000000D+00  -5  7  0 0.00000000D+00 0.00000000D+00 0.00000000D+00 0.00000000D+00 0.00000000D+00
  <mgrwgt>
 0.2224447567D-03    9    2    0
 0.446974416996759D+03 0.000000000000000D+00 0.000000000000000D+00 0.446974416996759D+03
 0.446974416996759D+03 0.000000000000000D+00 0.000000000000000D+00 -.446974416996759D+03
 0.401452659752387D+03 0.208113781978964D+03 -.311301432437876D+03 -.112379084312004D+03
 0.107176850723428D+03 -.287859355622646D+02 0.101164786245036D+03 0.205896398412740D+02
 0.168931838086314D+03 -.158263706359918D+02 0.108134841553074D+03 0.128819051207515D+03
 0.216387485431389D+03 -.163501475780708D+03 0.102001804639766D+03 -.370296067367854D+02
 0.000000000000000D+00 -.000000000000000D+00 0.000000000000000D+00 0.000000000000000D+00
 0.491199401101801D+03 0.000000000000000D+00 0.000000000000000D+00 0.491199401101801D+03
 0.449483221775626D+03 0.000000000000000D+00 0.000000000000000D+00 -.449483221775626D+03
 0.409875615961939D+03 0.215101718080572D+03 -.317466473039533D+03 -.112379084312004D+03
 0.105171558504258D+03 -.269569877006180D+02 0.995512142745123D+02 0.205896398412740D+02
 0.167060170980082D+03 -.129324856817917D+02 0.105581738894470D+03 0.128819051207515D+03
 0.212077385009595D+03 -.159811125985135D+03 0.987460284000847D+02 -.370296067367854D+02
 0.464978924215527D+02 -.154011187130278D+02 0.135874914704659D+02 0.417161793261743D+02
0.121108518049D-04 0.000000000000D+00 0.000000000000D+00 0.392926146640D-06 0.000000000000D+00  7 -1 1 23 -13 13 23 21 0 0.51834112D-01 0.91226909D-01 0.16526891D+06 0.16526891D+06 0.16526891D+06 0.11042449D+01  1  2  2  1  7  1       -1 0.193084624183D-03 0.100000000000D+01
-.665467483694D-06 0.000000000000D+00 -.465088597915D-07 0.392926146640D-06 0.000000000000D+00  7 -1 1 23 -13 13 23 21 2 0.51834112D-01 0.91226909D-01 0.16526891D+06 0.16526891D+06 0.16526891D+06 0.11042449D+01  1  2  3  1  7  1       -1 -.129369118442D-04 0.100000000000D+01
0.769267036375D-06 0.000000000000D+00 0.000000000000D+00 0.392926146640D-06 0.000000000000D+00  7 -1 1 23 -13 13 23 21 2 0.51834112D-01 0.91226909D-01 0.16526891D+06 0.16526891D+06 0.16526891D+06 0.11042449D+01  1  2 15  1  7  1       -1 0.149548100818D-04 0.100000000000D+01
0.147134676093D-03 0.000000000000D+00 0.000000000000D+00 0.392926146640D-06 0.000000000000D+00  7 -1 1 23 -13 13 23 21 2 0.57099647D-01 0.91226909D-01 0.17348628D+06 0.17348628D+06 0.17348628D+06 0.11026008D+01  1  2 12  1  7  1       -1 0.238393623586D-02 0.100000000000D+01
-.149052511443D-03 0.000000000000D+00 0.000000000000D+00 0.392926146640D-06 0.000000000000D+00  7 -1 1 23 -13 13 23 21 2 0.51834112D-01 0.91226909D-01 0.16526891D+06 0.16526891D+06 0.16526891D+06 0.11042449D+01  1  2  4  1  7  1       -1 -.289763098565D-02 0.100000000000D+01
-.204369477083D-03 0.000000000000D+00 -.160842096319D-04 0.392926146640D-06 0.000000000000D+00  7 -1 1 23 -13 13 23 21 2 0.57147980D-01 0.91226909D-01 0.16526891D+06 0.16526891D+06 0.16526891D+06 0.11042449D+01  1  2  5  1  7  1       -1 -.332029366961D-02 0.100000000000D+01
0.205038262722D-03 0.000000000000D+00 0.160079122361D-04 0.392926146640D-06 0.000000000000D+00  7 -1 1 23 -13 13 23 21 2 0.51834112D-01 0.91226909D-01 0.16526891D+06 0.16526891D+06 0.16526891D+06 0.11042449D+01  1  2  6  1  7  1       -1 0.398601283235D-02 0.100000000000D+01
0.232852867055D-05 0.000000000000D+00 0.000000000000D+00 0.392926146640D-06 0.000000000000D+00  7 21 1 23 -13 13 23 1 2 0.57099647D-01 0.91226909D-01 0.17348628D+06 0.17348628D+06 0.17348628D+06 0.11026008D+01  1  2 12  3  7  1       -1 0.328682102745D-03 0.100000000000D+01
-.319956621794D-05 0.000000000000D+00 -.255800344890D-06 0.392926146640D-06 0.000000000000D+00  7 21 1 23 -13 13 23 1 2 0.57147980D-01 0.91226909D-01 0.16526891D+06 0.16526891D+06 0.16526891D+06 0.11042449D+01  1  2  5  3  7  1       -1 -.453364281460D-03 0.100000000000D+01
  </mgrwgt>
  </event>
  <event>
  8     66 0.27784906E-05 0.15281567E+03 0.75467711E-02 0.98218155E-01
       -1 -1    0    0    0  501 0.00000000E+00 0.00000000E+00 0.21910510E+03 0.21910533E+03 0.32000000E+00 0.0000E+00 0.9000E+01
        1 -1    0    0  501    0 0.00000000E+00 0.00000000E+00 -.66605912E+03 0.66605920E+03 0.32000000E+00 0.0000E+00 0.9000E+01
       25  2    1    2    0    0 0.17061374E+03 0.15968279E+03 -.50062574E+03 0.62864250E+03 0.29992935E+03 0.0000E+00 0.0000E+00
       23  2    3    3    0    0 -.25129350E+02 0.89745814E+01 -.24424712E+03 0.26111893E+03 0.88399176E+02 0.0000E+00 0.0000E+00
       23  1    1    2    0    0 -.17061374E+03 -.15968279E+03 0.53671719E+02 0.25652203E+03 0.91188000E+02 0.0000E+00 0.9000E+01
      -13  1    4    4    0    0 -.47559323E+02 0.29539668E+02 -.19795897E+03 0.20572371E+03 0.10565837E+00 0.0000E+00 0.9000E+01
       13  1    4    4    0    0 0.22429973E+02 -.20565086E+02 -.46288155E+02 0.55395225E+02 0.10565837E+00 0.0000E+00 0.9000E+01
       23  1    3    3    0    0 0.19574309E+03 0.15070821E+03 -.25637862E+03 0.36752357E+03 0.91188000E+02 0.0000E+00 0.9000E+01
#aMCatNLO 1  0  0  2  1 0.11396002D+03 0.00000000D+00  -5  7  0 0.00000000D+00 0.00000000D+00 0.00000000D+00 0.00000000D+00 0.00000000D+00
  <mgrwgt>
 0.4904000891D-03    9    2    0
 0.382017127549659D+03 0.000000000000000D+00 0.000000000000000D+00 0.382017127549659D+03
 0.382017127549659D+03 0.000000000000000D+00 0.000000000000000D+00 -.382017127549659D+03
 0.328588655042660D+03 -.170613744797040D+03 -.159682794939104D+03 0.212244217743407D+03
 0.122534907732207D+03 -.475594232500791D+02 0.295397392903762D+02 -.108996828741559D+03
 0.370992757730000D+02 0.224300730100671D+02 -.205651579591274D+02 -.212208003091377D+02
 0.275811416551451D+03 0.195743095037052D+03 0.150708213607855D+03 -.820265886927101D+02
 0.000000000000000D+00 0.000000000000000D+00 0.000000000000000D+00 -.000000000000000D+00
 0.421860965875969D+03 0.000000000000000D+00 0.000000000000000D+00 0.421860965875969D+03
 0.477397744388496D+03 0.000000000000000D+00 0.000000000000000D+00 -.477397744388496D+03
 0.358568347205164D+03 -.221540856092217D+03 -.161641731585194D+03 0.212244217743407D+03
 0.130809611567224D+03 -.663354882369453D+02 0.288175086191932D+02 -.108996828741559D+03
 0.342844895743936D+02 0.171396241743229D+02 -.207686577028794D+02 -.212208003091377D+02
 0.248823945905401D+03 0.156860913227327D+03 0.149212591160599D+03 -.820265886927101D+02
 0.126772316012283D+03 0.113875806927513D+03 0.438028950828100D+01 -.555367785125268D+02
0.129344189950D-04 0.000000000000D+00 0.000000000000D+00 0.198107291264D-06 0.000000000000D+00  7 -1 1 23 -13 13 23 21 0 0.33708500D-01 0.10247066D+00 0.90178113D+05 0.90178113D+05 0.90178113D+05 0.11254252D+01  1  2  2  2  7  2        1 0.374388708697D-03 0.100000000000D+01
-.667962812038D-06 0.000000000000D+00 -.496715746516D-07 0.198107291264D-06 0.000000000000D+00  7 -1 1 23 -13 13 23 21 2 0.33708500D-01 0.10247066D+00 0.90178113D+05 0.90178113D+05 0.90178113D+05 0.11254252D+01  1  2  3  2  7  2        1 -.244884559728D-04 0.100000000000D+01
0.814983298023D-06 0.000000000000D+00 0.000000000000D+00 0.198107291264D-06 0.000000000000D+00  7 -1 1 23 -13 13 23 21 2 0.33708500D-01 0.10247066D+00 0.90178113D+05 0.90178113D+05 0.90178113D+05 0.11254252D+01  1  2 15  2  7  2        1 0.298784337279D-04 0.100000000000D+01
0.101392036659D-04 0.000000000000D+00 0.000000000000D+00 0.198107291264D-06 0.000000000000D+00  7 -1 1 23 -13 13 23 21 2 0.33708500D-01 0.13236610D+00 0.13584083D+06 0.13584083D+06 0.13584083D+06 0.11109661D+01  1  2 12  2  7  2        1 0.241797107878D-03 0.100000000000D+01
-.117662772249D-04 0.000000000000D+00 0.000000000000D+00 0.198107291264D-06 0.000000000000D+00  7 -1 1 23 -13 13 23 21 2 0.33708500D-01 0.10247066D+00 0.90178113D+05 0.90178113D+05 0.90178113D+05 0.11254252D+01  1  2  4  2  7  2        1 -.431368268700D-03 0.100000000000D+01
-.193957659858D-04 0.000000000000D+00 -.675121460463D-05 0.198107291264D-06 0.000000000000D+00  7 -1 1 23 -13 13 23 21 2 0.33708500D-01 0.13716196D+00 0.90178113D+05 0.90178113D+05 0.90178113D+05 0.11254252D+01  1  2  5  2  7  2        1 -.452299157248D-03 0.100000000000D+01
0.207529968557D-04 0.000000000000D+00 0.647404004368D-05 0.198107291264D-06 0.000000000000D+00  7 -1 1 23 -13 13 23 21 2 0.33708500D-01 0.10247066D+00 0.90178113D+05 0.90178113D+05 0.90178113D+05 0.11254252D+01  1  2  6  2  7  2        1 0.760834047412D-03 0.100000000000D+01
0.349184225154D-06 0.000000000000D+00 0.000000000000D+00 0.198107291264D-06 0.000000000000D+00  7 -1 21 23 -13 13 23 -1 2 0.33708500D-01 0.13236610D+00 0.13584083D+06 0.13584083D+06 0.13584083D+06 0.11109661D+01  1  2 12  4  7  2        1 0.136973707764D-04 0.100000000000D+01
-.589671827753D-06 0.000000000000D+00 -.255655042892D-06 0.198107291264D-06 0.000000000000D+00  7 -1 21 23 -13 13 23 -1 2 0.33708500D-01 0.13716196D+00 0.90178113D+05 0.90178113D+05 0.90178113D+05 0.11254252D+01  1  2  5  4  7  2        1 -.220396974676D-04 0.100000000000D+01
  </mgrwgt>
  </event>
  <event>
  8     66 0.27784906E-05 0.26880304E+03 0.75467711E-02 0.95127384E-01
       -1 -1    0    0    0  501 0.00000000E+00 0.00000000E+00 0.31768971E+03 0.31768987E+03 0.32000000E+00 0.0000E+00 0.9000E+01
        1 -1    0    0  501    0 0.00000000E+00 0.00000000E+00 -.34830599E+03 0.34830614E+03 0.32000000E+00 0.0000E+00 0.9000E+01
       25  2    1    2    0    0 0.68480918E+02 0.21682756E+03 0.98038453E+02 0.38928114E+03 0.30037383E+03 0.0000E+00 0.0000E+00
       23  2    3    3    0    0 0.13525250E+02 0.82988817E+02 -.75860098E+02 0.14537769E+03 0.91158329E+02 0.0000E+00 0.0000E+00
       23  1    1    2    0    0 -.68480918E+02 -.21682756E+03 -.12865474E+03 0.27671488E+03 0.91188000E+02 0.0000E+00 0.9000E+01
      -11  1    4    4    0    0 -.77643706E+01 0.96218837E+02 -.47686351E+02 0.10766772E+03 0.51099893E-03 0.0000E+00 0.9000E+01
       11  1    4    4    0    0 0.21289621E+02 -.13230021E+02 -.28173746E+02 0.37709964E+02 0.51099893E-03 0.0000E+00 0.9000E+01
       23  1    3    3    0    0 0.54955668E+02 0.13383875E+03 0.17389855E+03 0.24390345E+03 0.91188000E+02 0.0000E+00 0.9000E+01
#aMCatNLO 1  0  0  2  1 0.32244751D+03 0.00000000D+00  -5  7  0 0.00000000D+00 0.00000000D+00 0.00000000D+00 0.00000000D+00 0.00000000D+00
  <mgrwgt>
 0.2076848346D-03    5    2    0
 0.332645956238600D+03 0.000000000000000D+00 0.000000000000000D+00 0.332645956238600D+03
 0.332645956238600D+03 0.000000000000000D+00 0.000000000000000D+00 -.332645956238600D+03
 0.271087125773145D+03 -.684809179256651D+02 -.216827563911696D+03 -.116056666435508D+03
 0.105587175167498D+03 -.776437061870881D+01 0.962188371981948D+02 -.427820228247152D+02
 0.364533368078410D+02 0.212896210135102D+02 -.132300206834204D+02 -.264681762545753D+02
 0.252164274728716D+03 0.549556675308636D+02 0.133838747396922D+03 0.185306865514798D+03
 0.000000000000000D+00 -.000000000000000D+00 -.000000000000000D+00 -.000000000000000D+00
 0.506451730133223D+03 0.000000000000000D+00 0.000000000000000D+00 0.506451730133223D+03
 0.559672787407601D+03 0.000000000000000D+00 0.000000000000000D+00 -.559672787407601D+03
 0.210725709822472D+03 0.190374280885711D+02 -.149192828057633D+03 -.116056666435508D+03
 0.142873859849697D+03 0.373670522642226D+02 0.131096688579305D+03 -.427820228247152D+02
 0.447527982997548D+02 0.360402173151627D+02 -.183066580541688D+01 -.264681762545753D+02
 0.340961993922703D+03 0.162693415832644D+03 0.217099166266323D+03 0.185306865514798D+03
 0.326810155646198D+03 -.255138113500600D+03 -.197172360982578D+03 -.532210572743783D+02
0.539922360147D-05 0.000000000000D+00 0.000000000000D+00 0.415576522976D-06 0.000000000000D+00  7 -1 1 23 -11 11 23 21 0 0.48875363D-01 0.53585561D-01 0.72255073D+05 0.72255073D+05 0.72255073D+05 0.11334909D+01  1  2  2  2  7  2        1 0.201198344354D-03 0.100000000000D+01
-.283395107080D-06 0.000000000000D+00 -.207344402779D-07 0.415576522976D-06 0.000000000000D+00  7 -1 1 23 -11 11 23 21 2 0.48875363D-01 0.53585561D-01 0.72255073D+05 0.72255073D+05 0.72255073D+05 0.11334909D+01  1  2  3  2  7  2        1 -.135681765062D-04 0.100000000000D+01
0.333048598890D-06 0.000000000000D+00 0.000000000000D+00 0.415576522976D-06 0.000000000000D+00  7 -1 1 23 -11 11 23 21 2 0.48875363D-01 0.53585561D-01 0.72255073D+05 0.72255073D+05 0.72255073D+05 0.11334909D+01  1  2 15  2  7  2        1 0.159454488168D-04 0.100000000000D+01
0.837102006346D-07 0.000000000000D+00 -.174041602578D-05 0.415576522976D-06 0.000000000000D+00  7 -1 1 23 -11 11 23 21 2 0.48875363D-01 0.12729239D+00 0.72255073D+05 0.72255073D+05 0.72255073D+05 0.11334909D+01  1  2  5  2  7  2        1 0.118045214775D-05 0.100000000000D+01
0.117556147481D-06 0.000000000000D+00 -.164521805593D-06 0.415576522976D-06 0.000000000000D+00  7 -1 21 23 -11 11 23 -1 2 0.48875363D-01 0.12729239D+00 0.72255073D+05 0.72255073D+05 0.72255073D+05 0.11334909D+01  1  2  5  4  7  2        1 0.292876574731D-05 0.100000000000D+01
  </mgrwgt>
  </event>
  <event>
  8     66 0.27784906E-05 0.44668314E+03 0.75467711E-02 0.79549387E-01
       -1 -1    0    0    0  501 0.00000000E+00 0.00000000E+00 0.61355135E+03 0.61355143E+03 0.32000000E+00 0.0000E+00 0.9000E+01
        1 -1    0    0  501    0 0.00000000E+00 0.00000000E+00 -.35860184E+03 0.35860199E+03 0.32000000E+00 0.0000E+00 0.9000E+01
       25  2    1    2    0    0 0.20990628E+03 -.32990471E+03 -.64958259E+01 0.49302225E+03 0.30021822E+03 0.0000E+00 0.0000E+00
       23  2    3    3    0    0 0.19372300E+03 -.85574864E+02 -.19331567E+02 0.23141381E+03 0.91252302E+02 0.0000E+00 0.0000E+00
       23  1    1    2    0    0 -.20990628E+03 0.32990471E+03 0.26144533E+03 0.47913117E+03 0.91188000E+02 0.0000E+00 0.9000E+01
      -11  1    4    4    0    0 0.91473770E+02 0.81732032E+01 -.99499717E+01 0.92375613E+02 0.51099893E-03 0.0000E+00 0.9000E+01
       11  1    4    4    0    0 0.10224923E+03 -.93748067E+02 -.93815955E+01 0.13903819E+03 0.51099893E-03 0.0000E+00 0.9000E+01
       23  1    3    3    0    0 0.16183286E+02 -.24432984E+03 0.12835741E+02 0.26160844E+03 0.91188000E+02 0.0000E+00 0.9000E+01
#aMCatNLO 1  0  0  2  2 0.23807288D+04 0.00000000D+00  -5  7  0 0.00000000D+00 0.00000000D+00 0.00000000D+00 0.00000000D+00 0.00000000D+00
  <mgrwgt>
 0.3687076923D-03    5    2    0
 0.469063698792218D+03 0.000000000000000D+00 0.000000000000000D+00 0.469063698792218D+03
 0.469063698792218D+03 0.000000000000000D+00 0.000000000000000D+00 -.469063698792218D+03
 0.425457825681644D+03 -.209906283484777D+03 0.329904706346177D+03 0.140717258977012D+03
 0.984301364244940D+02 0.914737702419690D+02 0.817320325012303D+01 -.354152490164355D+02
 0.146630710410474D+03 0.102249227563147D+03 -.937480672019343D+02 -.475074793492758D+02
 0.267608725067823D+03 0.161832856796618D+02 -.244329842394365D+03 -.577945306113007D+02
 0.000000000000000D+00 0.000000000000000D+00 -.000000000000000D+00 -.000000000000000D+00
 0.243392958590625D+04 0.000000000000000D+00 0.000000000000000D+00 0.243392958590625D+04
 0.250681127023550D+04 0.000000000000000D+00 0.000000000000000D+00 -.250681127023550D+04
 0.209791222302951D+04 -.155649890978165D+04 0.139657804689432D+04 0.140717258977012D+03
 0.993979661922939D+02 -.140968987901584D+02 0.917986561163523D+02 -.354152490164355D+02
 0.488353055653666D+02 -.206091749034434D+01 -.111211103150204D+02 -.475074793492758D+02
 0.312751259563343D+03 -.293524946096039D+03 0.998631660869819D+00 -.577945306113007D+02
 0.238184410179124D+04 0.186618167215820D+04 -.147825422435652D+04 -.728816843292496D+02
0.372516451442D-04 0.000000000000D+00 0.000000000000D+00 0.122603720458D-05 0.000000000000D+00  7 -1 1 23 -11 11 23 21 0 0.94392532D-01 0.55169532D-01 0.19952582D+06 0.19952582D+06 0.19952582D+06 0.10979046D+01  1  2  2  2  7  2        1 0.363734680647D-03 0.100000000000D+01
-.206352163152D-05 0.000000000000D+00 -.143056125937D-06 0.122603720458D-05 0.000000000000D+00  7 -1 1 23 -11 11 23 21 2 0.94392532D-01 0.55169532D-01 0.19952582D+06 0.19952582D+06 0.19952582D+06 0.10979046D+01  1  2  3  2  7  2        1 -.242872007532D-04 0.100000000000D+01
0.243159810083D-05 0.000000000000D+00 0.000000000000D+00 0.122603720458D-05 0.000000000000D+00  7 -1 1 23 -11 11 23 21 2 0.94392532D-01 0.55169532D-01 0.19952582D+06 0.19952582D+06 0.19952582D+06 0.10979046D+01  1  2 15  2  7  2        1 0.286193807343D-04 0.100000000000D+01
0.987856836284D-04 0.000000000000D+00 -.334504477324D-04 0.122603720458D-05 0.000000000000D+00  7 -1 1 23 -11 11 23 21 2 0.94392532D-01 0.67853816D+00 0.19952582D+06 0.19952582D+06 0.19952582D+06 0.10979046D+01  1  2  5  2  7  2        1 0.632393714812D-06 0.100000000000D+01
0.223037263340D-04 0.000000000000D+00 -.973805139354D-05 0.122603720458D-05 0.000000000000D+00  7 -1 21 23 -11 11 23 -1 2 0.94392532D-01 0.67853816D+00 0.19952582D+06 0.19952582D+06 0.19952582D+06 0.10979046D+01  1  2  5  4  7  2        1 0.843792987549D-08 0.100000000000D+01
  </mgrwgt>
  </event>
  <event>
  8     66 0.27784906E-05 0.21102649E+03 0.75467711E-02 0.92311918E-01
       -3 -1    0    0    0  501 0.00000000E+00 0.00000000E+00 0.68350867E+03 0.68350885E+03 0.50000000E+00 0.0000E+00 0.9000E+01
        3 -1    0    0  501    0 0.00000000E+00 0.00000000E+00 -.54699214E+03 0.54699237E+03 0.50000000E+00 0.0000E+00 0.9000E+01
       25  2    1    2    0    0 0.48321623E+03 -.22998951E+02 0.37709696E+03 0.68257689E+03 0.29946990E+03 0.0000E+00 0.0000E+00
       23  2    3    3    0    0 0.42753129E+03 0.33238609E+02 0.34861686E+03 0.55852109E+03 0.80772994E+02 0.0000E+00 0.0000E+00
       23  1    1    2    0    0 -.48321623E+03 0.22998951E+02 -.24058043E+03 0.54792433E+03 0.91188000E+02 0.0000E+00 0.9000E+01
      -11  1    4    4    0    0 0.99978259E+02 0.31564479E+02 0.53861434E+02 0.11786867E+03 0.51099893E-03 0.0000E+00 0.9000E+01
       11  1    4    4    0    0 0.32755303E+03 0.16741304E+01 0.29475543E+03 0.44065242E+03 0.51099893E-03 0.0000E+00 0.9000E+01
       23  1    3    3    0    0 0.55684937E+02 -.56237561E+02 0.28480096E+02 0.12405580E+03 0.91188000E+02 0.0000E+00 0.9000E+01
#aMCatNLO 1  0  0  2  1 0.17403216D+03 0.00000000D+00  -5  7  0 0.00000000D+00 0.00000000D+00 0.00000000D+00 0.00000000D+00 0.00000000D+00
  <mgrwgt>
 0.4637901369D-04    9    2    0
 0.611452470299697D+03 0.000000000000000D+00 0.000000000000000D+00 0.611452470299697D+03
 0.611452470299697D+03 0.000000000000000D+00 0.000000000000000D+00 -.611452470299697D+03
 0.578184565969440D+03 -.483216230672663D+03 0.229989514773427D+02 -.303241263067407D+03
 0.112588115631290D+03 0.999782592873915D+02 0.315644788362974D+02 0.410379717707986D+02
 0.410485178916926D+03 0.327553034491059D+03 0.167413042701155D+01 0.247395005999461D+03
 0.121647080081737D+03 0.556849368942121D+02 -.562375607406516D+02 0.148082852971470D+02
 0.000000000000000D+00 0.000000000000000D+00 -.000000000000000D+00 -.000000000000000D+00
 0.667866216310137D+03 0.000000000000000D+00 0.000000000000000D+00 0.667866216310137D+03
 0.768286247456714D+03 0.000000000000000D+00 0.000000000000000D+00 -.768286247456714D+03
 0.627599826526907D+03 -.534065467455708D+03 0.915702121718810D+02 -.303241263067407D+03
 0.108855760644314D+03 0.906397306342038D+02 0.441576802940360D+02 0.410379717707986D+02
 0.387046633851449D+03 0.293920252177870D+03 0.470286417192894D+02 0.247395005999461D+03
 0.111723947431861D+03 0.458434273256783D+02 -.429660789850643D+02 0.148082852971470D+02
 0.200926295312320D+03 0.103662057317956D+03 -.139790455200142D+03 -.100420031146577D+03
0.874001962292D-04 0.000000000000D+00 0.000000000000D+00 0.199313899583D-07 0.000000000000D+00  7 -3 3 23 -11 11 23 21 0 0.10515521D+00 0.84152669D-01 0.27322829D+06 0.27322829D+06 0.27322829D+06 0.10875681D+01  1  2  2  2  7  2        3 0.339300720816D-04 0.100000000000D+01
-.471040698922D-05 0.000000000000D+00 -.335639766520D-06 0.199313899583D-07 0.000000000000D+00  7 -3 3 23 -11 11 23 21 2 0.10515521D+00 0.84152669D-01 0.27322829D+06 0.27322829D+06 0.27322829D+06 0.10875681D+01  1  2  3  2  7  2        3 -.216293646696D-05 0.100000000000D+01
0.558601985314D-05 0.000000000000D+00 0.000000000000D+00 0.199313899583D-07 0.000000000000D+00  7 -3 3 23 -11 11 23 21 2 0.10515521D+00 0.84152669D-01 0.27322829D+06 0.27322829D+06 0.27322829D+06 0.10875681D+01  1  2 15  2  7  2        3 0.256500257264D-05 0.100000000000D+01
0.820499104103D-04 0.000000000000D+00 0.000000000000D+00 0.199313899583D-07 0.000000000000D+00  7 -3 3 23 -11 11 23 21 2 0.10515521D+00 0.10886091D+00 0.37990666D+06 0.37990666D+06 0.37990666D+06 0.10770449D+01  1  2 12  2  7  2        3 0.197581255067D-04 0.100000000000D+01
-.899554372973D-04 0.000000000000D+00 0.000000000000D+00 0.199313899583D-07 0.000000000000D+00  7 -3 3 23 -11 11 23 21 2 0.10515521D+00 0.84152669D-01 0.27322829D+06 0.27322829D+06 0.27322829D+06 0.10875681D+01  1  2  4  2  7  2        3 -.413059627707D-04 0.100000000000D+01
-.149477971594D-03 0.000000000000D+00 -.465342196826D-04 0.199313899583D-07 0.000000000000D+00  7 -3 3 23 -11 11 23 21 2 0.10515521D+00 0.11265696D+00 0.27322829D+06 0.27322829D+06 0.27322829D+06 0.10875681D+01  1  2  5  2  7  2        3 -.340795646834D-04 0.100000000000D+01
0.158186311990D-03 0.000000000000D+00 0.446221024914D-04 0.199313899583D-07 0.000000000000D+00  7 -3 3 23 -11 11 23 21 2 0.10515521D+00 0.84152669D-01 0.27322829D+06 0.27322829D+06 0.27322829D+06 0.10875681D+01  1  2  6  2  7  2        3 0.726363865287D-04 0.100000000000D+01
0.283741624926D-05 0.000000000000D+00 0.000000000000D+00 0.199313899583D-07 0.000000000000D+00  7 -3 21 23 -11 11 23 -3 2 0.10515521D+00 0.10886091D+00 0.37990666D+06 0.37990666D+06 0.37990666D+06 0.10770449D+01  1  2 12  4  7  2        3 0.875380816537D-05 0.100000000000D+01
-.466343814280D-05 0.000000000000D+00 -.176272201703D-05 0.199313899583D-07 0.000000000000D+00  7 -3 21 23 -11 11 23 -3 2 0.10515521D+00 0.11265696D+00 0.27322829D+06 0.27322829D+06 0.27322829D+06 0.10875681D+01  1  2  5  4  7  2        3 -.137159172453D-04 0.100000000000D+01
  </mgrwgt>
  </event>
  <event>
  8     66 0.27784906E-05 0.20145295E+03 0.75467711E-02 0.99364164E-01
       -1 -1    0    0    0  501 0.00000000E+00 0.00000000E+00 0.55950027E+03 0.55950036E+03 0.32000000E+00 0.0000E+00 0.9000E+01
        1 -1    0    0  501    0 0.00000000E+00 0.00000000E+00 -.18591325E+04 0.18591325E+04 0.32000000E+00 0.0000E+00 0.9000E+01
       25  2    1    2    0    0 -.27240197E+03 0.27316043E+02 -.17976641E+04 0.18430461E+04 0.30045593E+03 0.0000E+00 0.0000E+00
       23  2    3    3    0    0 -.46543156E+02 -.86596867E+02 -.49979400E+03 0.51761396E+03 0.92004803E+02 0.0000E+00 0.0000E+00
       23  1    1    2    0    0 0.27240197E+03 -.27316043E+02 0.49803194E+03 0.57558671E+03 0.91188000E+02 0.0000E+00 0.9000E+01
      -11  1    4    4    0    0 -.41003492E+02 -.39975245E+02 -.10131665E+03 0.11638028E+03 0.51099893E-03 0.0000E+00 0.9000E+01
       11  1    4    4    0    0 -.55396649E+01 -.46621622E+02 -.39847735E+03 0.40123368E+03 0.51099893E-03 0.0000E+00 0.9000E+01
       23  1    3    3    0    0 -.22585881E+03 0.11391291E+03 -.12978701E+04 0.13254322E+04 0.91188000E+02 0.0000E+00 0.9000E+01
#aMCatNLO 1  0  0  1  2 0.11139269D+02 0.00000000D+00  -5  7  0 0.00000000D+00 0.00000000D+00 0.00000000D+00 0.00000000D+00 0.00000000D+00
  <mgrwgt>
 0.3814322908D-03    6    2    0
 0.101989473093584D+04 0.000000000000000D+00 0.000000000000000D+00 0.101989473093584D+04
 0.101989473093584D+04 0.000000000000000D+00 0.000000000000000D+00 -.101989473093584D+04
 0.999804786676849D+03 0.272401971342250D+03 -.273160433243774D+02 0.957259296065541D+03
 0.734422819005056D+02 -.410034915208481D+02 -.399752449327149D+02 -.459832822493407D+02
 0.221867485803869D+03 -.553966494524082D+01 -.466216219690119D+02 -.216843071676739D+03
 0.744674907490453D+03 -.225858814876162D+03 0.113912910226104D+03 -.694432942139462D+03
 0.000000000000000D+00 0.000000000000000D+00 -.000000000000000D+00 -.000000000000000D+00
 0.102499595670824D+04 0.000000000000000D+00 0.000000000000000D+00 0.102499595670824D+04
 0.102600917549749D+04 0.000000000000000D+00 0.000000000000000D+00 -.102600917549749D+04
 0.998938988500740D+03 0.269643108415886D+03 -.226072020118396D+02 0.957259296065541D+03
 0.733682151628456D+02 -.412061338217669D+02 -.396293740200589D+02 -.459832822493407D+02
 0.221666413550355D+03 -.615187409716444D+01 -.455767002663267D+02 -.216843071676739D+03
 0.745846260146895D+03 -.227916178927234D+03 0.117424429680747D+03 -.694432942139462D+03
 0.111852548448929D+02 0.563107843027924D+01 -.961115338252216D+01 -.101321878924350D+01
0.399455510858D-03 0.000000000000D+00 0.000000000000D+00 0.490127362417D-05 0.000000000000D+00  7 -1 1 23 -11 11 23 21 0 0.86076974D-01 0.28602039D+00 0.10944967D+06 0.10944967D+06 0.10944967D+06 0.11185182D+01  1  2  2  1  7  1       -1 0.278819123906D-03 0.100000000000D+01
0.120086763674D-04 0.000000000000D+00 -.153401434074D-05 0.490127362417D-05 0.000000000000D+00  7 -1 1 23 -11 11 23 21 2 0.86076974D-01 0.28602039D+00 0.10944967D+06 0.10944967D+06 0.10944967D+06 0.11185182D+01  1  2  3  1  7  1       -1 0.104866162807D-04 0.100000000000D+01
0.240495315692D-04 0.000000000000D+00 0.000000000000D+00 0.490127362417D-05 0.000000000000D+00  7 -1 1 23 -11 11 23 21 2 0.86076974D-01 0.28602039D+00 0.10944967D+06 0.10944967D+06 0.10944967D+06 0.11185182D+01  1  2 15  1  7  1       -1 0.210013328348D-04 0.100000000000D+01
0.796719250640D-04 0.000000000000D+00 0.000000000000D+00 0.490127362417D-05 0.000000000000D+00  7 -1 1 23 -11 11 23 21 2 0.86764117D-01 0.28602039D+00 0.11288292D+06 0.11288292D+06 0.11288292D+06 0.11174287D+01  1  2 12  1  7  1       -1 0.681506728567D-04 0.100000000000D+01
-.553436424573D-04 0.000000000000D+00 0.000000000000D+00 0.490127362417D-05 0.000000000000D+00  7 -1 1 23 -11 11 23 21 2 0.86076974D-01 0.28602039D+00 0.10944967D+06 0.10944967D+06 0.10944967D+06 0.11185182D+01  1  2  4  1  7  1       -1 -.483290184755D-04 0.100000000000D+01
0.794960622772D-05 0.000000000000D+00 0.000000000000D+00 0.490127362417D-05 0.000000000000D+00  7 21 1 23 -11 11 23 1 2 0.86764117D-01 0.28602039D+00 0.11288292D+06 0.11288292D+06 0.11288292D+06 0.11174287D+01  1  2 12  3  7  1       -1 0.513035633770D-04 0.100000000000D+01
  </mgrwgt>
  </event>
  <event>
  8     66 0.27784906E-05 0.25995610E+03 0.75467711E-02 0.97908385E-01
       -1 -1    0    0    0  501 0.00000000E+00 0.00000000E+00 0.22204170E+03 0.22204193E+03 0.32000000E+00 0.0000E+00 0.9000E+01
        1 -1    0    0  501    0 0.00000000E+00 0.00000000E+00 -.39634722E+03 0.39634735E+03 0.32000000E+00 0.0000E+00 0.9000E+01
       25  2    1    2    0    0 0.73212962E+02 0.19186729E+03 -.61902531E+02 0.36714662E+03 0.29797906E+03 0.0000E+00 0.0000E+00
       23  2    3    3    0    0 -.23882013E+02 0.76775568E+02 -.13058668E+03 0.17818550E+03 0.90732318E+02 0.0000E+00 0.0000E+00
       23  1    1    2    0    0 -.73212962E+02 -.19186729E+03 -.11240299E+03 0.25124266E+03 0.91188000E+02 0.0000E+00 0.9000E+01
      -13  1    4    4    0    0 -.28472906E+02 -.11555922E+02 -.20376329E+02 0.36870743E+02 0.10565837E+00 0.0000E+00 0.9000E+01
       13  1    4    4    0    0 0.45908933E+01 0.88331490E+02 -.11021035E+03 0.14131476E+03 0.10565837E+00 0.0000E+00 0.9000E+01
       23  1    3    3    0    0 0.97094974E+02 0.11509172E+03 0.68684151E+02 0.18896111E+03 0.91188000E+02 0.0000E+00 0.9000E+01
#aMCatNLO 1  0  0  2  2 0.20798575D+03 0.00000000D+00  -5  7  0 0.00000000D+00 0.00000000D+00 0.00000000D+00 0.00000000D+00 0.00000000D+00
  <mgrwgt>
 0.3655707654D-03    6    2    0
 0.296657583759112D+03 0.000000000000000D+00 0.000000000000000D+00 0.296657583759112D+03
 0.296657583759112D+03 0.000000000000000D+00 0.000000000000000D+00 -.296657583759112D+03
 0.228838428049977D+03 -.732129621735759D+02 -.191867288623618D+03 -.433425949197355D+02
 0.324426203350707D+02 -.284729502978723D+02 -.115560574560847D+02 -.104053953126298D+02
 0.114909124615921D+03 0.459093817135780D+01 0.883316256042359D+02 -.733522605297012D+02
 0.217124994517256D+03 0.970949743000905D+02 0.115091720475466D+03 0.127100250762066D+03
 0.000000000000000D+00 0.000000000000000D+00 0.000000000000000D+00 -.000000000000000D+00
 0.391081289691960D+03 0.000000000000000D+00 0.000000000000000D+00 0.391081289691960D+03
 0.455309619545294D+03 0.000000000000000D+00 0.000000000000000D+00 -.455309619545294D+03
 0.281237194155469D+03 -.158229840478928D+03 -.209436971616946D+03 -.433425949197355D+02
 0.449726761016351D+02 -.413761484700862D+02 -.142226467969877D+02 -.104053953126298D+02
 0.113922089304213D+03 -.335495151641639D+02 0.804494769334728D+02 -.733522605297012D+02
 0.188581776181659D+03 0.294737792250698D+02 0.101117048801085D+03 0.127100250762066D+03
 0.217677173494278D+03 0.203681724888108D+03 0.420930926793761D+02 -.642283298533336D+02
0.421680703934D-05 0.000000000000D+00 0.000000000000D+00 0.210215217126D-07 0.000000000000D+00  7 -1 1 23 -13 13 23 21 0 0.34160289D-01 0.60976523D-01 0.67577172D+05 0.67577172D+05 0.67577172D+05 0.11359624D+01  1  2  2  2  7  2        1 0.246357405563D-03 0.100000000000D+01
-.229299150879D-06 0.000000000000D+00 -.161936493419D-07 0.210215217126D-07 0.000000000000D+00  7 -1 1 23 -13 13 23 21 2 0.34160289D-01 0.60976523D-01 0.67577172D+05 0.67577172D+05 0.67577172D+05 0.11359624D+01  1  2  3  2  7  2        1 -.172867064090D-04 0.100000000000D+01
0.267349643106D-06 0.000000000000D+00 0.000000000000D+00 0.210215217126D-07 0.000000000000D+00  7 -1 1 23 -13 13 23 21 2 0.34160289D-01 0.60976523D-01 0.67577172D+05 0.67577172D+05 0.67577172D+05 0.11359624D+01  1  2 15  2  7  2        1 0.201553070355D-04 0.100000000000D+01
-.139661249912D-05 0.000000000000D+00 -.142454775007D-05 0.210215217126D-07 0.000000000000D+00  7 -1 1 23 -13 13 23 21 2 0.34160289D-01 0.11674815D+00 0.67577172D+05 0.67577172D+05 0.67577172D+05 0.11359624D+01  1  2  5  2  7  2        1 -.421478555466D-04 0.100000000000D+01
0.211521270596D-05 0.000000000000D+00 0.116913204765D-05 0.210215217126D-07 0.000000000000D+00  7 -1 1 23 -13 13 23 21 2 0.34160289D-01 0.60976523D-01 0.67577172D+05 0.67577172D+05 0.67577172D+05 0.11359624D+01  1  2  6  2  7  2        1 0.159464441540D-03 0.100000000000D+01
-.164389003486D-07 0.000000000000D+00 -.100449521868D-06 0.210215217126D-07 0.000000000000D+00  7 -1 21 23 -13 13 23 -1 2 0.34160289D-01 0.11674815D+00 0.67577172D+05 0.67577172D+05 0.67577172D+05 0.11359624D+01  1  2  5  4  7  2        1 -.971826805005D-06 0.100000000000D+01
  </mgrwgt>
  </event>
  <event>
  8     66 0.27784906E-05 0.21406792E+03 0.75467711E-02 0.96403372E-01
       -1 -1    0    0    0  501 0.00000000E+00 0.00000000E+00 0.10336325E+03 0.10336375E+03 0.32000000E+00 0.0000E+00 0.9000E+01
        1 -1    0    0  501    0 0.00000000E+00 0.00000000E+00 -.73096835E+03 0.73096842E+03 0.32000000E+00 0.0000E+00 0.9000E+01
       25  2    1    2    0    0 -.66403347E+01 -.91882172E+02 -.63045236E+03 0.70467961E+03 0.30102616E+03 0.0000E+00 0.0000E+00
       23  2    3    3    0    0 0.11176619E+03 -.52013235E+02 -.25311233E+03 0.29686791E+03 0.94168167E+02 0.0000E+00 0.0000E+00
       23  1    1    2    0    0 0.66403347E+01 0.91882172E+02 0.28472560E+01 0.12965256E+03 0.91188000E+02 0.0000E+00 0.9000E+01
      -11  1    4    4    0    0 0.25136223E+02 0.19251920E+02 -.18134580E+02 0.36487383E+02 0.51099893E-03 0.0000E+00 0.9000E+01
       11  1    4    4    0    0 0.86629969E+02 -.71265155E+02 -.23497775E+03 0.26038052E+03 0.51099893E-03 0.0000E+00 0.9000E+01
       23  1    3    3    0    0 -.11840653E+03 -.39868938E+02 -.37734003E+03 0.40781170E+03 0.91188000E+02 0.0000E+00 0.9000E+01
#aMCatNLO 1  0  0  2  1 0.31890029D+03 0.00000000D+00  -5  7  0 0.00000000D+00 0.00000000D+00 0.00000000D+00 0.00000000D+00 0.00000000D+00
  <mgrwgt>
 0.4328622748D-03    3    2    0
 0.274873608378632D+03 0.000000000000000D+00 0.000000000000000D+00 0.274873608378632D+03
 0.274873608378632D+03 0.000000000000000D+00 0.000000000000000D+00 -.274873608378632D+03
 0.200019661887766D+03 0.664033470925662D+01 0.918821724492805D+02 0.152335767758744D+03
 0.346727398389120D+02 0.251362226771178D+02 0.192519200309645D+02 0.141326845498149D+02
 0.126913987957385D+03 0.866299691260643D+02 -.712651545476839D+02 -.593606480402554D+02
 0.188140827073202D+03 -.118406526512439D+03 -.398689379325610D+02 -.107107804268303D+03
 0.000000000000000D+00 0.000000000000000D+00 -.000000000000000D+00 0.000000000000000D+00
 0.101313478459795D+04 0.000000000000000D+00 0.000000000000000D+00 0.101313478459795D+04
 0.354336045502335D+03 0.000000000000000D+00 0.000000000000000D+00 -.354336045502335D+03
 0.281577139647334D+03 -.279259672352221D+02 0.216758825525758D+03 0.152335767758744D+03
 0.469573190999551D+02 0.192772774847236D+02 0.404183574288639D+02 0.141326845498149D+02
 0.934737801517183D+02 0.708117782389020D+02 -.141192458274955D+02 -.593606480402554D+02
 0.213538295847213D+03 -.147236788265430D+03 0.642852929948642D+02 -.107107804268303D+03
 0.731924295354066D+03 0.850736997770266D+02 -.307343230121990D+03 0.658798739095618D+03
0.497917135181D-05 0.000000000000D+00 0.000000000000D+00 0.160759178432D-07 0.000000000000D+00  7 -1 1 23 -11 11 23 21 0 0.15902082D-01 0.11245671D+00 0.45825075D+05 0.45825075D+05 0.45825075D+05 0.11506411D+01  1  2  2  2  7  2        1 0.426256805493D-03 0.100000000000D+01
-.255596951552D-06 0.000000000000D+00 -.191213290369D-07 0.160759178432D-07 0.000000000000D+00  7 -1 1 23 -11 11 23 21 2 0.15902082D-01 0.11245671D+00 0.45825075D+05 0.45825075D+05 0.45825075D+05 0.11506411D+01  1  2  3  2  7  2        1 -.289700797788D-04 0.100000000000D+01
0.313875625211D-06 0.000000000000D+00 0.000000000000D+00 0.160759178432D-07 0.000000000000D+00  7 -1 1 23 -11 11 23 21 2 0.15902082D-01 0.11245671D+00 0.45825075D+05 0.45825075D+05 0.45825075D+05 0.11506411D+01  1  2 15  2  7  2        1 0.355755491126D-04 0.100000000000D+01
  </mgrwgt>
  </event>
  <event>
  8     66 0.27784906E-05 0.22910224E+03 0.75467711E-02 0.99544200E-01
       -1 -1    0    0    0  501 0.00000000E+00 0.00000000E+00 0.11477945E+03 0.11477990E+03 0.32000000E+00 0.0000E+00 0.9000E+01
        1 -1    0    0  501    0 0.00000000E+00 0.00000000E+00 -.98732491E+03 0.98732497E+03 0.32000000E+00 0.0000E+00 0.9000E+01
       25  2    1    2    0    0 -.15847765E+02 -.26284163E+03 -.51437535E+03 0.64830099E+03 0.29389675E+03 0.0000E+00 0.0000E+00
       23  2    3    3    0    0 0.31625006E+02 -.88217432E+01 -.64783036E+02 0.12177629E+03 0.97747930E+02 0.0000E+00 0.0000E+00
       23  1    1    2    0    0 0.15847765E+02 0.26284163E+03 -.35817011E+03 0.45380387E+03 0.91188000E+02 0.0000E+00 0.9000E+01
      -11  1    4    4    0    0 0.22533198E+02 0.34514114E+01 -.89699550E+02 0.92550886E+02 0.51099893E-03 0.0000E+00 0.9000E+01
       11  1    4    4    0    0 0.90918077E+01 -.12273155E+02 0.24916514E+02 0.29225399E+02 0.51099893E-03 0.0000E+00 0.9000E+01
       23  1    3    3    0    0 -.47472770E+02 -.25401989E+03 -.44959232E+03 0.52652471E+03 0.91188000E+02 0.0000E+00 0.9000E+01
#aMCatNLO 1  0  0  1  2 0.63520189D+02 0.00000000D+00  -5  7  0 0.00000000D+00 0.00000000D+00 0.00000000D+00 0.00000000D+00 0.00000000D+00
  <mgrwgt>
 0.5801869891D-02    9    2    0
 0.336637620504702D+03 0.000000000000000D+00 0.000000000000000D+00 0.336637620504702D+03
 0.336637620504702D+03 0.000000000000000D+00 0.000000000000000D+00 -.336637620504702D+03
 0.278667234726778D+03 0.158477648176346D+02 0.262841629952869D+03 0.181721772859803D+01
 0.352513282200006D+02 0.225331978135670D+02 0.345141147447448D+01 -.268886387978778D+02
 0.801310412535081D+02 0.909180777076666D+01 -.122731545502450D+02 0.786618870941745D+02
 0.279225636809118D+03 -.474727704019682D+02 -.254019886877098D+03 -.535904660248947D+02
 0.000000000000000D+00 -.000000000000000D+00 -.000000000000000D+00 0.000000000000000D+00
 0.516954536526061D+03 0.000000000000000D+00 0.000000000000000D+00 0.516954536526061D+03
 0.343773329236318D+03 0.000000000000000D+00 0.000000000000000D+00 -.343773329236318D+03
 0.282460869849897D+03 0.422347048923278D+02 0.263973140820701D+03 0.181721772859803D+01
 0.375457607790085D+02 0.259564667772168D+02 0.359820629133906D+01 -.268886387978778D+02
 0.812942461359128D+02 0.166828005407657D+02 -.119476415960118D+02 0.786618870941745D+02
 0.274964133818206D+03 -.214121041329292D+02 -.252902367110771D+03 -.535904660248947D+02
 0.184462855179355D+03 -.634618680773811D+02 -.272133840525662D+01 0.173181207289743D+03
0.115637334182D-03 0.000000000000D+00 0.000000000000D+00 0.389702211504D-09 0.000000000000D+00  7 -1 1 23 -11 11 23 21 0 0.17658416D-01 0.15189618D+00 0.87251081D+05 0.87251081D+05 0.87251081D+05 0.11266151D+01  1  2  2  1  7  1       -1 0.515671376684D-02 0.100000000000D+01
-.629079458329D-05 0.000000000000D+00 -.444077811268D-06 0.389702211504D-09 0.000000000000D+00  7 -1 1 23 -11 11 23 21 2 0.17658416D-01 0.15189618D+00 0.87251081D+05 0.87251081D+05 0.87251081D+05 0.11266151D+01  1  2  3  1  7  1       -1 -.356066911693D-03 0.100000000000D+01
0.735520791711D-05 0.000000000000D+00 0.000000000000D+00 0.389702211504D-09 0.000000000000D+00  7 -1 1 23 -11 11 23 21 2 0.17658416D-01 0.15189618D+00 0.87251081D+05 0.87251081D+05 0.87251081D+05 0.11266151D+01  1  2 15  1  7  1       -1 0.416314049557D-03 0.100000000000D+01
0.493819358830D-03 0.000000000000D+00 0.000000000000D+00 0.389702211504D-09 0.000000000000D+00  7 -1 1 23 -11 11 23 21 2 0.27222414D-01 0.15189618D+00 0.10969042D+06 0.10969042D+06 0.10969042D+06 0.11184406D+01  1  2 12  1  7  1       -1 0.136244849168D-01 0.100000000000D+01
-.470757495818D-03 0.000000000000D+00 0.000000000000D+00 0.389702211504D-09 0.000000000000D+00  7 -1 1 23 -11 11 23 21 2 0.17658416D-01 0.15189618D+00 0.87251081D+05 0.87251081D+05 0.87251081D+05 0.11266151D+01  1  2  4  1  7  1       -1 -.266454683065D-01 0.100000000000D+01
-.525003741142D-03 0.000000000000D+00 -.452339151830D-04 0.389702211504D-09 0.000000000000D+00  7 -1 1 23 -11 11 23 21 2 0.27506198D-01 0.15189618D+00 0.87251081D+05 0.87251081D+05 0.87251081D+05 0.11266151D+01  1  2  5  1  7  1       -1 -.145233046236D-01 0.100000000000D+01
0.499310626797D-03 0.000000000000D+00 0.411280670318D-04 0.389702211504D-09 0.000000000000D+00  7 -1 1 23 -11 11 23 21 2 0.17658416D-01 0.15189618D+00 0.87251081D+05 0.87251081D+05 0.87251081D+05 0.11266151D+01  1  2  6  1  7  1       -1 0.282616115508D-01 0.100000000000D+01
0.249201534464D-04 0.000000000000D+00 0.000000000000D+00 0.389702211504D-09 0.000000000000D+00  7 21 1 23 -11 11 23 1 2 0.27222414D-01 0.15189618D+00 0.10969042D+06 0.10969042D+06 0.10969042D+06 0.11184406D+01  1  2 12  3  7  1       -1 0.767382442787D-02 0.100000000000D+01
-.252034976466D-04 0.000000000000D+00 -.232366971528D-05 0.389702211504D-09 0.000000000000D+00  7 21 1 23 -11 11 23 1 2 0.27506198D-01 0.15189618D+00 0.87251081D+05 0.87251081D+05 0.87251081D+05 0.11266151D+01  1  2  5  3  7  1       -1 -.780623897907D-02 0.100000000000D+01
  </mgrwgt>
  </event>
  <event>
  8     66 0.27784906E-05 0.20319671E+03 0.75467711E-02 0.96944768E-01
       -1 -1    0    0    0  501 0.00000000E+00 0.00000000E+00 0.24810733E+03 0.24810753E+03 0.32000000E+00 0.0000E+00 0.9000E+01
        1 -1    0    0  501    0 0.00000000E+00 0.00000000E+00 -.64479995E+03 0.64480002E+03 0.32000000E+00 0.0000E+00 0.9000E+01
       25  2    1    2    0    0 -.23313669E+03 -.16769126E+03 -.41955546E+03 0.59073039E+03 0.30076990E+03 0.0000E+00 0.0000E+00
       23  2    3    3    0    0 -.15467503E+03 -.16421212E+03 -.12719830E+03 0.27457173E+03 0.91215350E+02 0.0000E+00 0.0000E+00
       23  1    1    2    0    0 0.23313669E+03 0.16769126E+03 0.22862845E+02 0.30217716E+03 0.91188000E+02 0.0000E+00 0.9000E+01
      -11  1    4    4    0    0 -.16023008E+02 -.70764436E+02 -.17631287E+02 0.74667291E+02 0.51099893E-03 0.0000E+00 0.9000E+01
       11  1    4    4    0    0 -.13865202E+03 -.93447686E+02 -.10956701E+03 0.19990443E+03 0.51099893E-03 0.0000E+00 0.9000E+01
       23  1    3    3    0    0 -.78461662E+02 -.34791424E+01 -.29235717E+03 0.31615867E+03 0.91188000E+02 0.0000E+00 0.9000E+01
#aMCatNLO 1  0  0  2  1 0.14102769D+03 0.00000000D+00  -5  7  0 0.00000000D+00 0.00000000D+00 0.00000000D+00 0.00000000D+00 0.00000000D+00
  <mgrwgt>
 0.2195738879D-03    7    2    0
 0.399974645807307D+03 0.000000000000000D+00 0.000000000000000D+00 0.399974645807307D+03
 0.399974645807307D+03 0.000000000000000D+00 0.000000000000000D+00 -.399974645807307D+03
 0.348629341589821D+03 0.233136692844736D+03 0.167691263637800D+03 0.175368437930915D+03
 0.746007128153137D+02 -.160230082832595D+02 -.707644355326529D+02 0.173471675455249D+02
 0.168800394730790D+03 -.138652022973488D+03 -.934476857239165D+02 -.231672143227018D+02
 0.207918842478689D+03 -.784616615879886D+02 -.347914238123084D+01 -.169548391153739D+03
 0.000000000000000D+00 0.000000000000000D+00 0.000000000000000D+00 -.000000000000000D+00
 0.408638238829340D+03 0.000000000000000D+00 0.000000000000000D+00 0.408638238829340D+03
 0.239860538819724D+04 0.000000000000000D+00 0.000000000000000D+00 -.239860538819724D+04
 0.312887561933195D+03 0.175271556258368D+03 0.167657888609333D+03 0.175368437930915D+03
 0.785831288536982D+02 -.294225206370562D+02 -.707721640049703D+02 0.173471675455249D+02
 0.195856763835917D+03 -.170549826605236D+03 -.934660835048092D+02 -.231672143227018D+02
 0.224958011299361D+03 -.116326874306733D+03 -.350098200050683D+01 -.169548391153739D+03
 0.199495816110441D+04 0.141027665290658D+03 0.813409009532357D-01 -.198996714936791D+04
0.912675363282D-05 0.000000000000D+00 0.000000000000D+00 0.333320474650D-06 0.000000000000D+00  7 -1 1 23 -11 11 23 21 0 0.38170380D-01 0.99200014D-01 0.10936831D+06 0.10936831D+06 0.10936831D+06 0.11185444D+01  1  2  2  2  7  2        1 0.223380018755D-03 0.100000000000D+01
-.484748435597D-06 0.000000000000D+00 -.350491370795D-07 0.333320474650D-06 0.000000000000D+00  7 -1 1 23 -11 11 23 21 2 0.38170380D-01 0.99200014D-01 0.10936831D+06 0.10936831D+06 0.10936831D+06 0.11185444D+01  1  2  3  2  7  2        1 -.148439986487D-04 0.100000000000D+01
0.587515972231D-06 0.000000000000D+00 0.000000000000D+00 0.333320474650D-06 0.000000000000D+00  7 -1 1 23 -11 11 23 21 2 0.38170380D-01 0.99200014D-01 0.10936831D+06 0.10936831D+06 0.10936831D+06 0.11185444D+01  1  2 15  2  7  2        1 0.179909529509D-04 0.100000000000D+01
0.219433985129D-03 0.000000000000D+00 0.000000000000D+00 0.333320474650D-06 0.000000000000D+00  7 -1 1 23 -11 11 23 21 2 0.38170380D-01 0.58770728D+00 0.16774186D+06 0.16774186D+06 0.16774186D+06 0.11037409D+01  1  2 12  2  7  2        1 0.298904306566D-04 0.100000000000D+01
-.280497265366D-03 0.000000000000D+00 -.429330257821D-05 0.333320474650D-06 0.000000000000D+00  7 -1 1 23 -11 11 23 21 2 0.38170380D-01 0.59571162D+00 0.10936831D+06 0.10936831D+06 0.10936831D+06 0.11185444D+01  1  2  5  2  7  2        1 -.367106403008D-04 0.100000000000D+01
0.478425234966D-04 0.000000000000D+00 0.000000000000D+00 0.333320474650D-06 0.000000000000D+00  7 -1 21 23 -11 11 23 -1 2 0.38170380D-01 0.58770728D+00 0.16774186D+06 0.16774186D+06 0.16774186D+06 0.11037409D+01  1  2 12  4  7  2        1 0.634058711789D-06 0.100000000000D+01
-.619005354545D-04 0.000000000000D+00 -.943240913841D-06 0.333320474650D-06 0.000000000000D+00  7 -1 21 23 -11 11 23 -1 2 0.38170380D-01 0.59571162D+00 0.10936831D+06 0.10936831D+06 0.10936831D+06 0.11185444D+01  1  2  5  4  7  2        1 -.766934238826D-06 0.100000000000D+01
  </mgrwgt>
  </event>
  <event>
  8     66 0.27784906E-05 0.15450187E+03 0.75467711E-02 0.98312169E-01
       -1 -1    0    0    0  501 0.00000000E+00 0.00000000E+00 0.12898457E+03 0.12898497E+03 0.32000000E+00 0.0000E+00 0.9000E+01
        1 -1    0    0  501    0 0.00000000E+00 0.00000000E+00 -.12836547E+04 0.12836547E+04 0.32000000E+00 0.0000E+00 0.9000E+01
       25  2    1    2    0    0 0.13281841E+02 0.25239569E+03 -.24162679E+03 0.46088167E+03 0.30024725E+03 0.0000E+00 0.0000E+00
       23  2    3    3    0    0 0.44476986E+01 0.27112269E+03 -.22899031E+03 0.36652238E+03 0.91513943E+02 0.0000E+00 0.0000E+00
       23  1    1    2    0    0 -.13281841E+02 -.25239569E+03 -.91304332E+03 0.95175803E+03 0.91188000E+02 0.0000E+00 0.9000E+01
      -11  1    4    4    0    0 0.24889803E+02 0.24551415E+03 -.17205554E+03 0.30083186E+03 0.51099893E-03 0.0000E+00 0.9000E+01
       11  1    4    4    0    0 -.20442104E+02 0.25608538E+02 -.56934763E+02 0.65690518E+02 0.51099893E-03 0.0000E+00 0.9000E+01
       23  1    3    3    0    0 0.88341429E+01 -.18727000E+02 -.12636484E+02 0.94359285E+02 0.91188000E+02 0.0000E+00 0.9000E+01
#aMCatNLO 1  0  0  2  1 0.88014534D+02 0.00000000D+00  -5  7  0 0.00000000D+00 0.00000000D+00 0.00000000D+00 0.00000000D+00 0.00000000D+00
  <mgrwgt>
 0.2707269570D-02    8    2    0
 0.406905348079995D+03 0.000000000000000D+00 0.000000000000000D+00 0.406905348079995D+03
 0.406905348079995D+03 0.000000000000000D+00 0.000000000000000D+00 -.406905348079995D+03
 0.356627585041476D+03 -.132818414933680D+02 -.252395689299067D+03 -.234495184978944D+03
 0.278074056365018D+03 0.248898025981766D+02 0.245514151577168D+03 0.128173631942231D+03
 0.332462615783668D+02 -.204421040321262D+02 0.256085375720536D+02 -.562468622214919D+01
 0.145862793175129D+03 0.883414292731763D+01 -.187269998501547D+02 0.111946239258862D+03
 0.000000000000000D+00 0.000000000000000D+00 -.000000000000000D+00 -.000000000000000D+00
 0.414116393861821D+03 0.000000000000000D+00 0.000000000000000D+00 0.414116393861821D+03
 0.809555293063766D+03 0.000000000000000D+00 0.000000000000000D+00 -.809555293063766D+03
 0.344624666030924D+03 -.446197667860933D+02 -.231240121359965D+03 -.234495184978944D+03
 0.292321200865304D+03 -.600317299582105D+00 0.262721990265777D+03 0.128173631942231D+03
 0.368221490032274D+02 -.235733576043295D+02 0.277223803699583D+02 -.562468622214919D+01
 0.144788278640150D+03 -.415462332743390D+01 -.995855955358860D+01 0.111946239258862D+03
 0.405115392385982D+03 0.729480650174388D+02 -.492456897221815D+02 -.395438899201945D+03
0.165773946546D-04 0.000000000000D+00 0.000000000000D+00 0.122473624181D-05 0.000000000000D+00  7 -1 1 23 -11 11 23 21 0 0.19843814D-01 0.19748537D+00 0.10295776D+06 0.10295776D+06 0.10295776D+06 0.11206847D+01  1  2  2  2  7  2        1 0.375503937786D-03 0.100000000000D+01
-.857781686522D-06 0.000000000000D+00 -.636615604020D-07 0.122473624181D-05 0.000000000000D+00  7 -1 1 23 -11 11 23 21 2 0.19843814D-01 0.19748537D+00 0.10295776D+06 0.10295776D+06 0.10295776D+06 0.11206847D+01  1  2  3  2  7  2        1 -.244029243522D-04 0.100000000000D+01
0.108703255450D-05 0.000000000000D+00 0.000000000000D+00 0.122473624181D-05 0.000000000000D+00  7 -1 1 23 -11 11 23 21 2 0.19843814D-01 0.19748537D+00 0.10295776D+06 0.10295776D+06 0.10295776D+06 0.11206847D+01  1  2 15  2  7  2        1 0.309248537393D-04 0.100000000000D+01
0.964452835516D-04 0.000000000000D+00 0.000000000000D+00 0.122473624181D-05 0.000000000000D+00  7 -1 1 23 -11 11 23 21 2 0.19843814D-01 0.39294965D+00 0.13377117D+06 0.13377117D+06 0.13377117D+06 0.11114977D+01  1  2 12  2  7  2        1 0.380850410821D-03 0.100000000000D+01
-.985256364902D-04 0.000000000000D+00 -.469389015353D-05 0.122473624181D-05 0.000000000000D+00  7 -1 1 23 -11 11 23 21 2 0.19843814D-01 0.39438975D+00 0.10295776D+06 0.10295776D+06 0.10295776D+06 0.11206847D+01  1  2  5  2  7  2        1 -.395109504179D-03 0.100000000000D+01
0.822387433495D-04 0.000000000000D+00 0.375842759782D-05 0.122473624181D-05 0.000000000000D+00  7 -1 1 23 -11 11 23 21 2 0.19843814D-01 0.19748537D+00 0.10295776D+06 0.10295776D+06 0.10295776D+06 0.11206847D+01  1  2  6  2  7  2        1 0.233959976566D-02 0.100000000000D+01
0.718156960491D-05 0.000000000000D+00 0.000000000000D+00 0.122473624181D-05 0.000000000000D+00  7 -1 21 23 -11 11 23 -1 2 0.19843814D-01 0.39294965D+00 0.13377117D+06 0.13377117D+06 0.13377117D+06 0.11114977D+01  1  2 12  4  7  2        1 0.961501131126D-05 0.100000000000D+01
-.709290468079D-05 0.000000000000D+00 -.351316754741D-06 0.122473624181D-05 0.000000000000D+00  7 -1 21 23 -11 11 23 -1 2 0.19843814D-01 0.39438975D+00 0.10295776D+06 0.10295776D+06 0.10295776D+06 0.11206847D+01  1  2  5  4  7  2        1 -.971198043137D-05 0.100000000000D+01
  </mgrwgt>
  </event>
  <event>
  8     66 0.27784906E-05 0.11385124E+03 0.75467711E-02 0.10140335E+00
       -1 -1    0    0    0  501 0.00000000E+00 0.00000000E+00 0.13042950E+03 0.13042990E+03 0.32000000E+00 0.0000E+00 0.9000E+01
        1 -1    0    0  501    0 0.00000000E+00 0.00000000E+00 -.51541989E+03 0.51541999E+03 0.32000000E+00 0.0000E+00 0.9000E+01
       25  2    1    2    0    0 -.28530800E+02 -.43331135E+01 -.44179081E+03 0.53460995E+03 0.29965964E+03 0.0000E+00 0.0000E+00
       23  2    3    3    0    0 -.12356216E+03 -.50000616E+02 -.21701361E+03 0.27011700E+03 0.90003434E+02 0.0000E+00 0.0000E+00
       23  1    1    2    0    0 0.28530800E+02 0.43331135E+01 0.56800426E+02 0.11123993E+03 0.91188000E+02 0.0000E+00 0.9000E+01
      -11  1    4    4    0    0 -.54037355E+02 0.23840226E+02 -.88618615E+02 0.10649719E+03 0.51099893E-03 0.0000E+00 0.9000E+01
       11  1    4    4    0    0 -.69524806E+02 -.73840841E+02 -.12839500E+03 0.16361981E+03 0.51099893E-03 0.0000E+00 0.9000E+01
       23  1    3    3    0    0 0.95031362E+02 0.45667502E+02 -.22477720E+03 0.26449295E+03 0.91188000E+02 0.0000E+00 0.9000E+01
#aMCatNLO 1  0  0  2  1 0.14567089D+03 0.00000000D+00  -5  7  0 0.00000000D+00 0.00000000D+00 0.00000000D+00 0.00000000D+00 0.00000000D+00
  <mgrwgt>
 0.1474890122D-03    7    2    0
 0.259280001201791D+03 0.000000000000000D+00 0.000000000000000D+00 0.259280001201791D+03
 0.259280001201791D+03 0.000000000000000D+00 0.000000000000000D+00 -.259280001201791D+03
 0.180715662000347D+03 0.285307996420062D+02 0.433311353082815D+01 0.153330090807839D+03
 0.668464239263410D+02 -.540373549186428D+02 0.238402257161779D+02 -.313057870518919D+02
 0.108459963858641D+03 -.695248063191439D+02 -.738408414742173D+02 -.384368988978401D+02
 0.162537952618253D+03 0.950313615957806D+02 0.456675022272112D+02 -.835874048581075D+02
 0.000000000000000D+00 -.000000000000000D+00 0.000000000000000D+00 -.000000000000000D+00
 0.285397295890765D+03 0.000000000000000D+00 0.000000000000000D+00 0.285397295890765D+03
 0.599202973863311D+03 0.000000000000000D+00 0.000000000000000D+00 -.599202973863311D+03
 0.195451999256878D+03 0.797762689613694D+02 -.344424635786453D+01 0.153330090807839D+03
 0.534209775897524D+02 -.376532792277288D+02 0.213536672987361D+02 -.313057870518919D+02
 0.964612072068582D+02 -.416083141102503D+02 -.780776376168260D+02 -.384368988978401D+02
 0.193297863887726D+03 0.143507015660627D+03 0.383105082819996D+02 -.835874048581075D+02
 0.345968221812861D+03 -.144021691284018D+03 0.218577083939548D+02 -.313805677972546D+03
0.233539824113D-05 0.000000000000D+00 0.000000000000D+00 0.159475176647D-06 0.000000000000D+00  7 -1 1 23 -11 11 23 21 0 0.20066115D-01 0.79295405D-01 0.39110296D+05 0.39110296D+05 0.39110296D+05 0.11567987D+01  1  2  2  2  7  2        1 0.228520903203D-03 0.100000000000D+01
-.118172856281D-06 0.000000000000D+00 -.896854417041D-08 0.159475176647D-06 0.000000000000D+00  7 -1 1 23 -11 11 23 21 2 0.20066115D-01 0.79295405D-01 0.39110296D+05 0.39110296D+05 0.39110296D+05 0.11567987D+01  1  2  3  2  7  2        1 -.154738477490D-04 0.100000000000D+01
0.146869935735D-06 0.000000000000D+00 0.000000000000D+00 0.159475176647D-06 0.000000000000D+00  7 -1 1 23 -11 11 23 21 2 0.20066115D-01 0.79295405D-01 0.39110296D+05 0.39110296D+05 0.39110296D+05 0.11567987D+01  1  2 15  2  7  2        1 0.192315147149D-04 0.100000000000D+01
0.564993938582D-06 0.000000000000D+00 0.000000000000D+00 0.159475176647D-06 0.000000000000D+00  7 -1 1 23 -11 11 23 21 2 0.20066115D-01 0.18193568D+00 0.82061814D+05 0.82061814D+05 0.82061814D+05 0.11288366D+01  1  2 12  2  7  2        1 0.189190439074D-04 0.100000000000D+01
-.297109843122D-05 0.000000000000D+00 -.732200300889D-06 0.159475176647D-06 0.000000000000D+00  7 -1 1 23 -11 11 23 21 2 0.20066115D-01 0.19065305D+00 0.39110296D+05 0.39110296D+05 0.39110296D+05 0.11567987D+01  1  2  5  2  7  2        1 -.970473516893D-04 0.100000000000D+01
0.510511026786D-07 0.000000000000D+00 0.000000000000D+00 0.159475176647D-06 0.000000000000D+00  7 -1 21 23 -11 11 23 -1 2 0.20066115D-01 0.18193568D+00 0.82061814D+05 0.82061814D+05 0.82061814D+05 0.11288366D+01  1  2 12  4  7  2        1 0.193139536840D-05 0.100000000000D+01
-.239258740015D-06 0.000000000000D+00 -.702954081551D-07 0.159475176647D-06 0.000000000000D+00  7 -1 21 23 -11 11 23 -1 2 0.20066115D-01 0.19065305D+00 0.39110296D+05 0.39110296D+05 0.39110296D+05 0.11567987D+01  1  2  5  4  7  2        1 -.859264552209D-05 0.100000000000D+01
  </mgrwgt>
  </event>
  <event>
  8     66 0.27784906E-05 0.15576437E+03 0.75467711E-02 0.10227700E+00
       -1 -1    0    0    0  501 0.00000000E+00 0.00000000E+00 0.34424043E+02 0.34425530E+02 0.32000000E+00 0.0000E+00 0.9000E+01
        1 -1    0    0  501    0 0.00000000E+00 0.00000000E+00 -.20876681E+04 0.20876682E+04 0.32000000E+00 0.0000E+00 0.9000E+01
       25  2    1    2    0    0 0.12666253E+03 -.11114039E+03 -.13466311E+04 0.13899648E+04 0.30031844E+03 0.0000E+00 0.0000E+00
       23  2    3    3    0    0 0.33452332E+02 -.17366240E+03 -.73765678E+03 0.76405574E+03 0.91465630E+02 0.0000E+00 0.0000E+00
       23  1    1    2    0    0 -.12666253E+03 0.11114039E+03 -.70661298E+03 0.73212890E+03 0.91188000E+02 0.0000E+00 0.9000E+01
      -13  1    4    4    0    0 0.25011041E+02 -.29633900E+02 -.31661482E+03 0.31898069E+03 0.10565837E+00 0.0000E+00 0.9000E+01
       13  1    4    4    0    0 0.84412906E+01 -.14402850E+03 -.42104196E+03 0.44507505E+03 0.10565837E+00 0.0000E+00 0.9000E+01
       23  1    3    3    0    0 0.93210194E+02 0.62522006E+02 -.60897433E+03 0.62590904E+03 0.91188000E+02 0.0000E+00 0.9000E+01
#aMCatNLO 1  0  0  2  1 0.16223329D+02 0.00000000D+00  -5  7  0 0.00000000D+00 0.00000000D+00 0.00000000D+00 0.00000000D+00 0.00000000D+00
  <mgrwgt>
 0.6431462622D-03    9    2    0
 0.268081297176508D+03 0.000000000000000D+00 0.000000000000000D+00 0.268081297176508D+03
 0.268081297176508D+03 0.000000000000000D+00 0.000000000000000D+00 -.268081297176508D+03
 0.191727676828973D+03 -.126662526901512D+03 0.111140392514821D+03 0.697625607402096D+01
 0.500208589770893D+02 0.250110631904051D+02 -.296337478875814D+02 -.315970574108836D+02
 0.149188185720809D+03 0.844126932969587D+01 -.144028649569258D+03 0.379685110851876D+02
 0.145225872826145D+03 0.932101943814112D+02 0.625220049420186D+02 -.133477097483250D+02
 0.000000000000000D+00 -.000000000000000D+00 0.000000000000000D+00 -.000000000000000D+00
 0.274236242594087D+03 0.000000000000000D+00 0.000000000000000D+00 0.274236242594087D+03
 0.279111875477972D+03 0.000000000000000D+00 0.000000000000000D+00 -.279111875477972D+03
 0.187878300345168D+03 -.125736280857109D+03 0.105473806814777D+03 0.697625607402096D+01
 0.510507559225857D+02 0.252576799170414D+02 -.311424990719921D+02 -.315970574108836D+02
 0.153598641224079D+03 0.918007513787306D+01 -.148548513867760D+03 0.379685110851876D+02
 0.143880285270949D+03 0.939156190887443D+02 0.582063594575533D+02 -.133477097483250D+02
 0.169401353092775D+02 -.261709328654955D+01 0.160108466674223D+02 -.487563288388498D+01
0.370094620594D-05 0.000000000000D+00 0.000000000000D+00 0.264905989423D-06 0.000000000000D+00  7 -1 1 23 -13 13 23 21 0 0.52961229D-02 0.32117983D+00 0.67409145D+05 0.67409145D+05 0.67409145D+05 0.11360547D+01  1  2  2  2  7  2        1 0.190481164529D-03 0.100000000000D+01
-.205351776449D-06 0.000000000000D+00 -.142126079123D-07 0.264905989423D-06 0.000000000000D+00  7 -1 1 23 -13 13 23 21 2 0.52961229D-02 0.32117983D+00 0.67409145D+05 0.67409145D+05 0.67409145D+05 0.11360547D+01  1  2  3  2  7  2        1 -.136406849598D-04 0.100000000000D+01
0.236334657256D-06 0.000000000000D+00 0.000000000000D+00 0.264905989423D-06 0.000000000000D+00  7 -1 1 23 -13 13 23 21 2 0.52961229D-02 0.32117983D+00 0.67409145D+05 0.67409145D+05 0.67409145D+05 0.11360547D+01  1  2 15  2  7  2        1 0.156987519683D-04 0.100000000000D+01
0.857914559623D-05 0.000000000000D+00 0.000000000000D+00 0.264905989423D-06 0.000000000000D+00  7 -1 1 23 -13 13 23 21 2 0.52961229D-02 0.33796304D+00 0.71867217D+05 0.71867217D+05 0.71867217D+05 0.11336890D+01  1  2 12  2  7  2        1 0.480427850085D-03 0.100000000000D+01
-.782538970508D-05 0.000000000000D+00 0.000000000000D+00 0.264905989423D-06 0.000000000000D+00  7 -1 1 23 -13 13 23 21 2 0.52961229D-02 0.32117983D+00 0.67409145D+05 0.67409145D+05 0.67409145D+05 0.11360547D+01  1  2  4  2  7  2        1 -.519808873829D-03 0.100000000000D+01
-.477081936040D-04 0.000000000000D+00 -.722182667249D-05 0.264905989423D-06 0.000000000000D+00  7 -1 1 23 -13 13 23 21 2 0.52961229D-02 0.33777435D+00 0.67409145D+05 0.67409145D+05 0.67409145D+05 0.11360547D+01  1  2  5  2  7  2        1 -.269172940549D-02 0.100000000000D+01
0.480202144604D-04 0.000000000000D+00 0.721267246723D-05 0.264905989423D-06 0.000000000000D+00  7 -1 1 23 -13 13 23 21 2 0.52961229D-02 0.32117983D+00 0.67409145D+05 0.67409145D+05 0.67409145D+05 0.11360547D+01  1  2  6  2  7  2        1 0.318978792628D-02 0.100000000000D+01
0.106898578808D-06 0.000000000000D+00 0.000000000000D+00 0.264905989423D-06 0.000000000000D+00  7 -1 21 23 -13 13 23 -1 2 0.52961229D-02 0.33796304D+00 0.71867217D+05 0.71867217D+05 0.71867217D+05 0.11336890D+01  1  2 12  4  7  2        1 0.278150199226D-05 0.100000000000D+01
-.412018561967D-06 0.000000000000D+00 -.633453743701D-07 0.264905989423D-06 0.000000000000D+00  7 -1 21 23 -13 13 23 -1 2 0.52961229D-02 0.33777435D+00 0.67409145D+05 0.67409145D+05 0.67409145D+05 0.11360547D+01  1  2  5  4  7  2        1 -.108519683566D-04 0.100000000000D+01
  </mgrwgt>
  </event>
  <event>
  8     66 0.27784906E-05 0.45346016E+03 0.75467711E-02 0.84719106E-01
       -1 -1    0    0    0  501 0.00000000E+00 0.00000000E+00 0.30366177E+03 0.30366194E+03 0.32000000E+00 0.0000E+00 0.9000E+01
        1 -1    0    0  501    0 0.00000000E+00 0.00000000E+00 -.87771975E+03 0.87771981E+03 0.32000000E+00 0.0000E+00 0.9000E+01
       25  2    1    2    0    0 0.43336147E+03 -.13445855E+02 -.10781708E+03 0.53820309E+03 0.30009179E+03 0.0000E+00 0.0000E+00
       23  2    3    3    0    0 0.25742281E+03 -.44088236E+02 -.17410671E+03 0.32700902E+03 0.91714079E+02 0.0000E+00 0.0000E+00
       23  1    1    2    0    0 -.43336147E+03 0.13445855E+02 -.46624090E+03 0.64317866E+03 0.91188000E+02 0.0000E+00 0.9000E+01
      -13  1    4    4    0    0 0.11914370E+03 -.37508235E+02 -.32696278E+02 0.12911679E+03 0.10565837E+00 0.0000E+00 0.9000E+01
       13  1    4    4    0    0 0.13827912E+03 -.65800015E+01 -.14141044E+03 0.19789223E+03 0.10565837E+00 0.0000E+00 0.9000E+01
       23  1    3    3    0    0 0.17593866E+03 0.30642381E+02 0.66289637E+02 0.21119407E+03 0.91188000E+02 0.0000E+00 0.9000E+01
#aMCatNLO 1  0  0  1  2 0.12035559D+04 0.00000000D+00  -5  7  0 0.00000000D+00 0.00000000D+00 0.00000000D+00 0.00000000D+00 0.00000000D+00
  <mgrwgt>
 0.3707081203D-03    3    2    0
 0.516265499564786D+03 0.000000000000000D+00 0.000000000000000D+00 0.516265499564786D+03
 0.516265499564786D+03 0.000000000000000D+00 0.000000000000000D+00 -.516265499564786D+03
 0.476683234551956D+03 -.433361472503293D+03 0.134458554404381D+02 -.175865567636668D+03
 0.129552173908161D+03 0.119143670516821D+03 -.375082756177743D+02 0.343755843628965D+02
 0.147800404965054D+03 0.138279143017512D+03 -.657996051434648D+01 -.517739551686562D+02
 0.278495185704401D+03 0.175938658968960D+03 0.306423806916827D+02 0.193263938442428D+03
 0.000000000000000D+00 0.000000000000000D+00 0.000000000000000D+00 -.000000000000000D+00
 0.949388328080411D+03 0.000000000000000D+00 0.000000000000000D+00 0.949388328080411D+03
 0.310680928587035D+04 0.000000000000000D+00 0.000000000000000D+00 -.310680928587035D+04
 0.113377744065346D+04 -.103539072826941D+04 -.417340838553196D+03 -.175865567636668D+03
 0.111467764206656D+03 0.290445726611400D+02 -.101979382503876D+03 0.343755843628965D+02
 0.100375140786852D+03 0.455051054960358D+02 -.729651411837799D+02 -.517739551686562D+02
 0.240149799553391D+03 -.179434142097286D+02 -.108091437522837D+03 0.193263938442428D+03
 0.247042746875041D+04 0.978784464321963D+03 0.700376799763689D+03 -.215742095778994D+04
0.350627009859D-04 0.000000000000D+00 0.000000000000D+00 0.160883715127D-05 0.000000000000D+00  7 -1 1 23 -13 13 23 21 0 0.46717213D-01 0.13503382D+00 0.20562612D+06 0.20562612D+06 0.20562612D+06 0.10969012D+01  1  2  2  1  7  1       -1 0.367160008752D-03 0.100000000000D+01
-.190807800727D-05 0.000000000000D+00 -.134650004007D-06 0.160883715127D-05 0.000000000000D+00  7 -1 1 23 -13 13 23 21 2 0.46717213D-01 0.13503382D+00 0.20562612D+06 0.20562612D+06 0.20562612D+06 0.10969012D+01  1  2  3  1  7  1       -1 -.240403721021D-04 0.100000000000D+01
0.218969069028D-05 0.000000000000D+00 0.000000000000D+00 0.160883715127D-05 0.000000000000D+00  7 -1 1 23 -13 13 23 21 2 0.46717213D-01 0.13503382D+00 0.20562612D+06 0.20562612D+06 0.20562612D+06 0.10969012D+01  1  2 15  1  7  1       -1 0.275884836899D-04 0.100000000000D+01
  </mgrwgt>
  </event>
  <event>
  8     66 0.27784906E-05 0.21665783E+03 0.75467711E-02 0.97961693E-01
       -1 -1    0    0    0  501 0.00000000E+00 0.00000000E+00 0.74998896E+03 0.74998903E+03 0.32000000E+00 0.0000E+00 0.9000E+01
        1 -1    0    0  501    0 0.00000000E+00 0.00000000E+00 -.22624108E+03 0.22624131E+03 0.32000000E+00 0.0000E+00 0.9000E+01
       25  2    1    2    0    0 0.13570660E+03 -.34187911E+02 0.67372146E+03 0.75174778E+03 0.30271939E+03 0.0000E+00 0.0000E+00
       23  2    3    3    0    0 0.24526202E+02 0.53519752E+02 0.49152790E+03 0.50362794E+03 0.92604111E+02 0.0000E+00 0.0000E+00
       23  1    1    2    0    0 -.13570660E+03 0.34187911E+02 -.14997358E+03 0.22448256E+03 0.91188000E+02 0.0000E+00 0.9000E+01
      -11  1    4    4    0    0 -.30708902E+01 -.19525847E+02 0.32750819E+02 0.38253173E+02 0.51099893E-03 0.0000E+00 0.9000E+01
       11  1    4    4    0    0 0.27597092E+02 0.73045599E+02 0.45877708E+03 0.46537476E+03 0.51099893E-03 0.0000E+00 0.9000E+01
       23  1    3    3    0    0 0.11118040E+03 -.87707663E+02 0.18219356E+03 0.24811985E+03 0.91188000E+02 0.0000E+00 0.9000E+01
#aMCatNLO 1  0  0  2  2 0.22571880D+03 0.00000000D+00  -5  7  0 0.00000000D+00 0.00000000D+00 0.00000000D+00 0.00000000D+00 0.00000000D+00
  <mgrwgt>
 0.5293589547D-03    6    2    0
 0.411920453806061D+03 0.000000000000000D+00 0.000000000000000D+00 0.411920453806061D+03
 0.411920453806061D+03 0.000000000000000D+00 0.000000000000000D+00 -.411920453806061D+03
 0.361350144178033D+03 -.135706599095810D+03 0.341879112934996D+02 -.320427185233591D+03
 0.245080519819275D+02 -.307089022661249D+01 -.195258467669870D+02 0.144898431046404D+02
 0.259794625553508D+03 0.275970917807334D+02 0.730455986873175D+02 0.247782139195190D+03
 0.178188085898653D+03 0.111180397541689D+03 -.877076632138301D+02 0.581552029337613D+02
 0.000000000000000D+00 0.000000000000000D+00 -.000000000000000D+00 -.000000000000000D+00
 0.469775722423846D+03 0.000000000000000D+00 0.000000000000000D+00 0.469775722423846D+03
 0.725577922339693D+03 0.000000000000000D+00 0.000000000000000D+00 -.725577922339693D+03
 0.410370875898823D+03 -.220191567150456D+03 0.945044822274140D+02 -.320427185233591D+03
 0.229875819217969D+02 -.827052456168822D+01 -.158136584283567D+02 0.144898431046404D+02
 0.274844079801461D+03 -.309330412175789D+02 0.114832167352180D+03 0.247782139195190D+03
 0.146000492823702D+03 0.756895128767732D+02 -.623695644763817D+02 0.581552029337613D+02
 0.341150614317756D+03 0.183705620052950D+03 -.131153426674855D+03 -.255802199915848D+03
0.282992526307D-04 0.000000000000D+00 0.000000000000D+00 0.393195068738D-07 0.000000000000D+00  7 -1 1 23 -11 11 23 21 0 0.11538294D+00 0.34806343D-01 0.46940616D+05 0.46940616D+05 0.46940616D+05 0.11497152D+01  1  2  2  2  7  2        1 0.335168634769D-03 0.100000000000D+01
-.783057080588D-06 0.000000000000D+00 -.108676581466D-06 0.393195068738D-07 0.000000000000D+00  7 -1 1 23 -11 11 23 21 2 0.11538294D+00 0.34806343D-01 0.46940616D+05 0.46940616D+05 0.46940616D+05 0.11497152D+01  1  2  3  2  7  2        1 -.122592064439D-04 0.100000000000D+01
0.175010164779D-05 0.000000000000D+00 0.000000000000D+00 0.393195068738D-07 0.000000000000D+00  7 -1 1 23 -11 11 23 21 2 0.11538294D+00 0.34806343D-01 0.46940616D+05 0.46940616D+05 0.46940616D+05 0.11497152D+01  1  2 15  2  7  2        1 0.273988422172D-04 0.100000000000D+01
-.133144131516D-04 0.000000000000D+00 -.973660426465D-05 0.393195068738D-07 0.000000000000D+00  7 -1 1 23 -11 11 23 21 2 0.11538294D+00 0.67893179D-01 0.46940616D+05 0.46940616D+05 0.46940616D+05 0.11497152D+01  1  2  5  2  7  2        1 -.871799479394D-04 0.100000000000D+01
0.175790811628D-04 0.000000000000D+00 0.790545824695D-05 0.393195068738D-07 0.000000000000D+00  7 -1 1 23 -11 11 23 21 2 0.11538294D+00 0.34806343D-01 0.46940616D+05 0.46940616D+05 0.46940616D+05 0.11497152D+01  1  2  6  2  7  2        1 0.275210569460D-03 0.100000000000D+01
-.392537004264D-06 0.000000000000D+00 -.704974882525D-06 0.393195068738D-07 0.000000000000D+00  7 -1 21 23 -11 11 23 -1 2 0.11538294D+00 0.67893179D-01 0.46940616D+05 0.46940616D+05 0.46940616D+05 0.11497152D+01  1  2  5  4  7  2        1 -.897993740155D-05 0.100000000000D+01
  </mgrwgt>
  </event>
  <event>
  8     66 0.27784906E-05 0.59629224E+03 0.75467711E-02 0.86341789E-01
       -1 -1    0    0    0  501 0.00000000E+00 0.00000000E+00 0.57605354E+03 0.57605363E+03 0.32000000E+00 0.0000E+00 0.9000E+01
        1 -1    0    0  501    0 0.00000000E+00 0.00000000E+00 -.69160169E+03 0.69160176E+03 0.32000000E+00 0.0000E+00 0.9000E+01
       25  2    1    2    0    0 -.52295097E+03 0.23147547E+03 0.92289384E+02 0.65237472E+03 0.30002806E+03 0.0000E+00 0.0000E+00
       23  2    3    3    0    0 -.10911545E+03 0.96370387E+02 -.59004904E+02 0.18256792E+03 0.93037804E+02 0.0000E+00 0.0000E+00
       23  1    1    2    0    0 0.52295097E+03 -.23147547E+03 -.20783753E+03 0.61528067E+03 0.91188000E+02 0.0000E+00 0.9000E+01
      -13  1    4    4    0    0 -.80202833E+02 0.14028994E+02 -.88191966E+01 0.81896865E+02 0.10565837E+00 0.0000E+00 0.9000E+01
       13  1    4    4    0    0 -.28912616E+02 0.82341393E+02 -.50185707E+02 0.10067105E+03 0.10565837E+00 0.0000E+00 0.9000E+01
       23  1    3    3    0    0 -.41383552E+03 0.13510508E+03 0.15129429E+03 0.46980681E+03 0.91188000E+02 0.0000E+00 0.9000E+01
#aMCatNLO 1  0  0  1  2 0.79594099D+03 0.00000000D+00  -5  7  0 0.00000000D+00 0.00000000D+00 0.00000000D+00 0.00000000D+00 0.00000000D+00
  <mgrwgt>
 0.3574666268D-03    5    2    0
 0.631189120061945D+03 0.000000000000000D+00 0.000000000000000D+00 0.631189120061945D+03
 0.631189120061945D+03 0.000000000000000D+00 0.000000000000000D+00 -.631189120061945D+03
 0.598828934910696D+03 0.522950971576956D+03 -.231475468007502D+03 -.152388421409583D+03
 0.814319608770046D+02 -.802028986122588D+02 0.140289058054277D+02 -.135981924099323D+01
 0.964983053645741D+02 -.289125496685814D+02 0.823414810986640D+02 -.411809167014864D+02
 0.485619038971614D+03 -.413835523296116D+03 0.135105081103410D+03 0.194929157352063D+03
 0.000000000000000D+00 0.000000000000000D+00 0.000000000000000D+00 0.000000000000000D+00
 0.119025229462846D+04 0.000000000000000D+00 0.000000000000000D+00 0.119025229462846D+04
 0.110282951977912D+04 0.000000000000000D+00 0.000000000000000D+00 -.110282951977912D+04
 0.606175793778597D+03 0.297918262572916D+03 -.497148186625419D+03 -.152388421409583D+03
 0.122201587781725D+03 -.118231138674540D+03 -.308670827213759D+02 -.135981924099323D+01
 0.862447819688302D+02 -.630395294349832D+02 0.420513049154505D+02 -.411809167014864D+02
 0.677731978425195D+03 -.631089468226413D+03 -.121384059677733D+03 0.194929157352063D+03
 0.800727672453229D+03 0.514441873763020D+03 0.607348024109077D+03 0.874227748493427D+02
0.806725364370D-04 0.000000000000D+00 0.000000000000D+00 0.104598106723D-05 0.000000000000D+00  7 -1 1 23 -13 13 23 21 0 0.88623634D-01 0.10640027D+00 0.35556443D+06 0.35556443D+06 0.35556443D+06 0.10791339D+01  1  2  2  1  7  1       -1 0.350210769367D-03 0.100000000000D+01
-.446418082809D-05 0.000000000000D+00 -.309803781485D-06 0.104598106723D-05 0.000000000000D+00  7 -1 1 23 -13 13 23 21 2 0.88623634D-01 0.10640027D+00 0.35556443D+06 0.35556443D+06 0.35556443D+06 0.10791339D+01  1  2  3  1  7  1       -1 -.225681642187D-04 0.100000000000D+01
0.504748479387D-05 0.000000000000D+00 0.000000000000D+00 0.104598106723D-05 0.000000000000D+00  7 -1 1 23 -13 13 23 21 2 0.88623634D-01 0.10640027D+00 0.35556443D+06 0.35556443D+06 0.35556443D+06 0.10791339D+01  1  2 15  1  7  1       -1 0.255169918303D-04 0.100000000000D+01
0.536633468270D-05 0.000000000000D+00 -.233772637596D-04 0.104598106723D-05 0.000000000000D+00  7 -1 1 23 -13 13 23 21 2 0.24691334D+00 0.10640027D+00 0.35556443D+06 0.35556443D+06 0.35556443D+06 0.10791339D+01  1  2  5  1  7  1       -1 0.120827511582D-05 0.100000000000D+01
0.192960824599D-05 0.000000000000D+00 -.268745487834D-05 0.104598106723D-05 0.000000000000D+00  7 21 1 23 -13 13 23 1 2 0.24691334D+00 0.10640027D+00 0.35556443D+06 0.35556443D+06 0.35556443D+06 0.10791339D+01  1  2  5  3  7  1       -1 0.309875473518D-05 0.100000000000D+01
  </mgrwgt>
  </event>
  <event>
  8     66 0.27784906E-05 0.38423582E+03 0.75467711E-02 0.93998144E-01
       -1 -1    0    0    0  501 0.00000000E+00 0.00000000E+00 0.12012431E+04 0.12012431E+04 0.32000000E+00 0.0000E+00 0.9000E+01
        1 -1    0    0  501    0 0.00000000E+00 0.00000000E+00 -.46589312E+03 0.46589323E+03 0.32000000E+00 0.0000E+00 0.9000E+01
       25  2    1    2    0    0 0.28031015E+03 -.15451234E+03 -.33185359E+03 0.54924257E+03 0.29848409E+03 0.0000E+00 0.0000E+00
       23  2    3    3    0    0 0.13445363E+03 -.20146299E+03 -.20117442E+03 0.32817519E+03 0.92534825E+02 0.0000E+00 0.0000E+00
       23  1    1    2    0    0 -.28031015E+03 0.15451234E+03 0.10672035E+04 0.11178938E+04 0.91188000E+02 0.0000E+00 0.9000E+01
      -13  1    4    4    0    0 0.58245283E+01 -.80726250E+02 -.45240412E+02 0.92721943E+02 0.10565837E+00 0.0000E+00 0.9000E+01
       13  1    4    4    0    0 0.12862910E+03 -.12073674E+03 -.15593401E+03 0.23545325E+03 0.10565837E+00 0.0000E+00 0.9000E+01
       23  1    3    3    0    0 0.14585652E+03 0.46950651E+02 -.13067917E+03 0.22106738E+03 0.91188000E+02 0.0000E+00 0.9000E+01
#aMCatNLO 1  0  0  2  2 0.24973333D+03 0.00000000D+00  -5  7  0 0.00000000D+00 0.00000000D+00 0.00000000D+00 0.00000000D+00 0.00000000D+00
  <mgrwgt>
 0.4210498345D-03    4    2    0
 0.748098260417996D+03 0.000000000000000D+00 0.000000000000000D+00 0.748098260417996D+03
 0.748098260417996D+03 0.000000000000000D+00 0.000000000000000D+00 -.748098260417996D+03
 0.721103979641984D+03 -.280310147387956D+03 0.154512339028687D+03 0.639709196800182D+03
 0.125549842868819D+03 0.582436817086986D+01 -.807261982029752D+02 -.959797932040353D+02
 0.338992333084005D+03 0.128629262757605D+03 -.120736792208816D+03 -.289470104949193D+03
 0.310550365241184D+03 0.145856516459480D+03 0.469506513831040D+02 -.254259298646953D+03
 0.000000000000000D+00 0.000000000000000D+00 0.000000000000000D+00 0.000000000000000D+00
 0.119593721917030D+04 0.000000000000000D+00 0.000000000000000D+00 0.119593721917030D+04
 0.794086531975155D+03 0.000000000000000D+00 0.000000000000000D+00 -.794086531975155D+03
 0.746584759312383D+03 -.367424216086801D+03 0.696070431479183D+02 0.639709196800182D+03
 0.135995099578496D+03 -.969952560814976D+01 -.958564844382084D+02 -.959797932040353D+02
 0.342372694664521D+03 0.881871184112754D+02 -.160153528025030D+03 -.289470104949193D+03
 0.291942554055872D+03 0.110095794060258D+03 0.120966402966462D+02 -.254259298646953D+03
 0.473128643534179D+03 0.178840829223416D+03 0.174306329018674D+03 0.401850687195141D+03
0.376183007142D-03 0.000000000000D+00 0.000000000000D+00 0.287544762422D-06 0.000000000000D+00  7 -1 1 23 -13 13 23 21 0 0.18480664D+00 0.71675876D-01 0.14763717D+06 0.14763717D+06 0.14763717D+06 0.11080965D+01  1  2  2  2  7  2        1 0.435729037632D-03 0.100000000000D+01
-.961880096724D-05 0.000000000000D+00 -.144464179868D-05 0.287544762422D-06 0.000000000000D+00  7 -1 1 23 -13 13 23 21 2 0.18480664D+00 0.71675876D-01 0.14763717D+06 0.14763717D+06 0.14763717D+06 0.11080965D+01  1  2  3  2  7  2        1 -.136802302414D-04 0.100000000000D+01
0.229549351258D-04 0.000000000000D+00 0.000000000000D+00 0.287544762422D-06 0.000000000000D+00  7 -1 1 23 -13 13 23 21 2 0.18480664D+00 0.71675876D-01 0.14763717D+06 0.14763717D+06 0.14763717D+06 0.11080965D+01  1  2 15  2  7  2        1 0.326473953217D-04 0.100000000000D+01
-.236573298130D-04 0.000000000000D+00 0.000000000000D+00 0.287544762422D-06 0.000000000000D+00  7 -1 1 23 -13 13 23 21 2 0.18480664D+00 0.71675876D-01 0.14763717D+06 0.14763717D+06 0.14763717D+06 0.11080965D+01  1  2  4  2  7  2        1 -.336463681742D-04 0.100000000000D+01
  </mgrwgt>
  </event>
  <event>
  8     66 0.27784906E-05 0.19889426E+03 0.75467711E-02 0.10363658E+00
       -1 -1    0    0    0  501 0.00000000E+00 0.00000000E+00 0.75729892E+03 0.75729899E+03 0.32000000E+00 0.0000E+00 0.9000E+01
        1 -1    0    0  501    0 0.00000000E+00 0.00000000E+00 -.11759396E+03 0.11759439E+03 0.32000000E+00 0.0000E+00 0.9000E+01
       25  2    1    2    0    0 -.25136690E+02 -.12733882E+02 0.69828281E+03 0.76290847E+03 0.30600071E+03 0.0000E+00 0.0000E+00
       23  2    3    3    0    0 0.72470516E+02 -.91286531E+02 0.27699630E+03 0.31402623E+03 0.91106069E+02 0.0000E+00 0.0000E+00
       23  1    1    2    0    0 0.25136690E+02 0.12733882E+02 -.58577849E+02 0.11198491E+03 0.91188000E+02 0.0000E+00 0.9000E+01
      -13  1    4    4    0    0 -.15019055E+02 0.63306865E+01 0.22885046E+02 0.28096016E+02 0.10565837E+00 0.0000E+00 0.9000E+01
       13  1    4    4    0    0 0.87489571E+02 -.97617218E+02 0.25411126E+03 0.28593022E+03 0.10565837E+00 0.0000E+00 0.9000E+01
       23  1    3    3    0    0 -.97607206E+02 0.78552649E+02 0.42128651E+03 0.44888223E+03 0.91188000E+02 0.0000E+00 0.9000E+01
#aMCatNLO 1  0  0  1  2 0.81029355D+02 0.00000000D+00  -5  7  0 0.00000000D+00 0.00000000D+00 0.00000000D+00 0.00000000D+00 0.00000000D+00
  <mgrwgt>
 0.3776086482D-03    4    2    0
 0.298419161227637D+03 0.000000000000000D+00 0.000000000000000D+00 0.298419161227637D+03
 0.298419161227637D+03 0.000000000000000D+00 0.000000000000000D+00 -.298419161227637D+03
 0.226941610066353D+03 0.251367013004344D+02 0.127338879731715D+02 -.205896181072715D+03
 0.166565141564139D+02 -.150192032041753D+02 0.633083296701550D+01 0.343271800447650D+01
 0.146777249999746D+03 0.874896445318064D+02 -.976172957370246D+02 0.660301960482948D+02
 0.206462948232760D+03 -.976071426280655D+02 0.785525747968376D+02 0.136433267019944D+03
 0.000000000000000D+00 -.000000000000000D+00 0.000000000000000D+00 -.000000000000000D+00
 0.323296871412569D+03 0.000000000000000D+00 0.000000000000000D+00 0.323296871412569D+03
 0.375295755884514D+03 0.000000000000000D+00 0.000000000000000D+00 -.375295755884514D+03
 0.230027976874714D+03 0.458335829983763D+02 -.101815563779126D+02 -.205896181072715D+03
 0.148047402684918D+02 -.135942727941235D+02 0.475315986667807D+01 0.343271800447650D+01
 0.165920459797854D+03 0.101652222724856D+03 -.113298004415133D+03 0.660301960482948D+02
 0.191560478539922D+03 -.795800265740904D+02 0.585930765122976D+02 0.136433267019944D+03
 0.962789718161012D+02 -.543115063550181D+02 0.601333244140699D+02 -.519988844719448D+02
0.190249960759D-04 0.000000000000D+00 0.000000000000D+00 0.961645166889D-08 0.000000000000D+00  7 -1 1 23 -13 13 23 21 0 0.11650757D+00 0.18091416D-01 0.39558926D+05 0.39558926D+05 0.39558926D+05 0.11563521D+01  1  2  2  1  7  1       -1 0.512900930174D-03 0.100000000000D+01
-.845401193222D-06 0.000000000000D+00 -.730609943278D-07 0.961645166889D-08 0.000000000000D+00  7 -1 1 23 -13 13 23 21 2 0.11650757D+00 0.18091416D-01 0.39558926D+05 0.39558926D+05 0.39558926D+05 0.11563521D+01  1  2  3  1  7  1       -1 -.304755770118D-04 0.100000000000D+01
0.118288612884D-05 0.000000000000D+00 0.000000000000D+00 0.961645166889D-08 0.000000000000D+00  7 -1 1 23 -13 13 23 21 2 0.11650757D+00 0.18091416D-01 0.39558926D+05 0.39558926D+05 0.39558926D+05 0.11563521D+01  1  2 15  1  7  1       -1 0.426414554471D-04 0.100000000000D+01
-.409053140217D-05 0.000000000000D+00 0.000000000000D+00 0.961645166889D-08 0.000000000000D+00  7 -1 1 23 -13 13 23 21 2 0.11650757D+00 0.18091416D-01 0.39558926D+05 0.39558926D+05 0.39558926D+05 0.11563521D+01  1  2  4  1  7  1       -1 -.147458160416D-03 0.100000000000D+01
  </mgrwgt>
  </event>
  <event>
  9     66 -.27784906E-05 0.32354010E+03 0.75467711E-02 0.99645738E-01
       -3 -1    0    0    0  502 0.00000000E+00 0.00000000E+00 0.73690003E+03 0.73690020E+03 0.50000000E+00 0.0000E+00 0.9000E+01
        3 -1    0    0  501    0 0.00000000E+00 0.00000000E+00 -.19067842E+03 0.19067907E+03 0.50000000E+00 0.0000E+00 0.9000E+01
       25  2    1    2    0    0 0.14704926E+03 -.23169721E+03 0.14037432E+03 0.42857732E+03 0.29776919E+03 0.0000E+00 0.0000E+00
       23  2    3    3    0    0 0.14840513E+03 -.21196284E+03 0.17537619E+02 0.27431978E+03 0.89394874E+02 0.0000E+00 0.0000E+00
       23  1    1    2    0    0 -.14488766E+03 0.22230105E+03 0.39014785E+03 0.48056299E+03 0.91188000E+02 0.0000E+00 0.9000E+01
      -13  1    4    4    0    0 0.14663404E+03 -.22050729E+03 0.15018896E+02 0.26523685E+03 0.10565837E+00 0.0000E+00 0.9000E+01
       13  1    4    4    0    0 0.17710895E+01 0.85444527E+01 0.25187229E+01 0.90829267E+01 0.10565837E+00 0.0000E+00 0.9000E+01
       23  1    3    3    0    0 -.13558744E+01 -.19734370E+02 0.12283670E+03 0.15425754E+03 0.91188000E+02 0.0000E+00 0.9000E+01
       21  1    1    2  501  502 -.21615997E+01 0.93961592E+01 0.15699446E+02 0.18438965E+02 0.75000000E+00 0.0000E+00 0.9000E+01
#aMCatNLO 2  0  0  1  2 0.96415932D+01 0.00000000D+00  -5  7  0 0.00000000D+00 0.00000000D+00 0.00000000D+00 0.00000000D+00 0.00000000D+00
  <mgrwgt>
 -.4872301255D-04    3    2    0
 0.369116978365171D+03 0.000000000000000D+00 0.000000000000000D+00 0.369116978365171D+03
 0.369116978365171D+03 0.000000000000000D+00 0.000000000000000D+00 -.369116978365171D+03
 0.314695722715826D+03 -.145804267852280D+03 0.226285418848074D+03 0.135107998447348D+03
 0.312612392151836D+03 0.145714236057808D+03 -.216508466684717D+03 -.172098672251750D+03
 0.947878439756602D+01 0.174328654119325D+01 0.866474817752577D+01 -.342497368032216D+01
 0.101447057465113D+03 -.165325474672118D+01 -.184417003408822D+02 0.404156474847248D+02
 0.000000000000000D+00 -.000000000000000D+00 0.000000000000000D+00 0.000000000000000D+00
 0.377889520530696D+03 0.000000000000000D+00 0.000000000000000D+00 0.377889520530696D+03
 0.371807182396105D+03 0.000000000000000D+00 0.000000000000000D+00 -.371807182396105D+03
 0.311415500445386D+03 -.144887658625219D+03 0.222301051970754D+03 0.135107998447348D+03
 0.315821409394889D+03 0.146634245474325D+03 -.220507613690626D+03 -.172098672251750D+03
 0.937441329198636D+01 0.177088709253717D+01 0.854477259870363D+01 -.342497368032216D+01
 0.101685592200414D+03 -.135587425885696D+01 -.197343700313296D+02 0.404156474847248D+02
 0.113997875941257D+02 -.216159968278697D+01 0.939615915249726D+01 0.608233813459103D+01
-.318029143379D-04 0.000000000000D+00 0.000000000000D+00 0.220896054886D-07 0.000000000000D+00  7 -3 3 23 -13 13 23 21 2 0.11376271D+00 0.29121989D-01 0.10793490D+06 0.10793490D+06 0.10793490D+06 0.11190108D+01  1  2 13  1  7  1       -3 -.110146919696D-03 0.100000000000D+01
-.166698487944D-03 0.000000000000D+00 0.000000000000D+00 0.220896054886D-07 0.000000000000D+00  7 -3 3 23 -13 13 23 21 2 0.11073382D+00 0.29121989D-01 0.10467820D+06 0.10467820D+06 0.10467820D+06 0.11200962D+01  1  2  8  1  7  1       -3 -.622502519773D-03 0.100000000000D+01
0.198243050627D-03 0.000000000000D+00 0.000000000000D+00 0.220896054886D-07 0.158769064919D-08  7 -3 3 23 -13 13 23 21 2 0.11336556D+00 0.29334236D-01 0.10793490D+06 0.10793490D+06 0.10793490D+06 0.11190108D+01  1  2  1  1  7  1       -3 0.683926426923D-03 0.100000000000D+01
  </mgrwgt>
  </event>
  <event>
  8     66 0.27784906E-05 0.73049462E+03 0.75467711E-02 0.84302190E-01
       -1 -1    0    0    0  501 0.00000000E+00 0.00000000E+00 0.24862715E+03 0.24862736E+03 0.32000000E+00 0.0000E+00 0.9000E+01
        1 -1    0    0  501    0 0.00000000E+00 0.00000000E+00 -.21767228E+04 0.21767228E+04 0.32000000E+00 0.0000E+00 0.9000E+01
       25  2    1    2    0    0 -.69285069E+03 -.11182308E+03 -.97364975E+03 0.12371462E+04 0.29998395E+03 0.0000E+00 0.0000E+00
       23  2    3    3    0    0 -.34829003E+03 0.59346010E+02 -.51726197E+03 0.63330352E+03 0.93196103E+02 0.0000E+00 0.0000E+00
       23  1    1    2    0    0 0.69285069E+03 0.11182308E+03 -.95444587E+03 0.11882040E+04 0.91188000E+02 0.0000E+00 0.9000E+01
      -13  1    4    4    0    0 -.80230253E+02 0.38559051E+02 -.18956522E+03 0.20942463E+03 0.10565837E+00 0.0000E+00 0.9000E+01
       13  1    4    4    0    0 -.26805977E+03 0.20786959E+02 -.32769675E+03 0.42387889E+03 0.10565837E+00 0.0000E+00 0.9000E+01
       23  1    3    3    0    0 -.34456066E+03 -.17116909E+03 -.45638778E+03 0.60384267E+03 0.91188000E+02 0.0000E+00 0.9000E+01
#aMCatNLO 1  0  0  1  2 0.10115219D+04 0.00000000D+00  -5  7  0 0.00000000D+00 0.00000000D+00 0.00000000D+00 0.00000000D+00 0.00000000D+00
  <mgrwgt>
 0.2128156917D-03    5    2    0
 0.735657974048087D+03 0.000000000000000D+00 0.000000000000000D+00 0.735657974048087D+03
 0.735657974048087D+03 0.000000000000000D+00 0.000000000000000D+00 -.735657974048087D+03
 0.707902167660425D+03 0.692850691335624D+03 0.111823076853388D+03 -.162402781108843D+02
 0.968030498712552D+02 -.802300111109068D+02 0.385590733786790D+02 -.380417355242653D+02
 0.269299316951297D+03 -.268060015261858D+03 0.207869365885199D+02 0.152922724116546D+02
 0.397311413613196D+03 -.344560664962859D+03 -.171169086820586D+03 0.389897412234950D+02
 0.000000000000000D+00 -.000000000000000D+00 0.000000000000000D+00 0.000000000000000D+00
 0.673786121627859D+04 0.000000000000000D+00 0.000000000000000D+00 0.673786121627859D+04
 0.936503183540690D+03 0.000000000000000D+00 0.000000000000000D+00 -.936503183540690D+03
 0.964338637342798D+03 0.885490887022952D+03 -.370507622720980D+03 -.162402781108843D+02
 0.723965737253739D+02 -.607384112753113D+02 -.102438098980059D+02 -.380417355242653D+02
 0.245176404561532D+03 -.208793010550524D+03 -.127605229138373D+03 0.152922724116546D+02
 0.503570745422140D+03 -.240780088093456D+03 -.431013913415846D+03 0.389897412234950D+02
 0.588888203876743D+04 -.375179377103661D+03 0.939370575173205D+03 0.580135803273790D+04
0.119835297383D-03 0.000000000000D+00 0.000000000000D+00 0.881521476153D-06 0.000000000000D+00  7 -1 1 23 -13 13 23 21 0 0.38250348D-01 0.33488044D+00 0.53362239D+06 0.53362239D+06 0.53362239D+06 0.10665186D+01  1  2  2  1  7  1       -1 0.214329106252D-03 0.100000000000D+01
-.665711494940D-05 0.000000000000D+00 -.460199095309D-06 0.881521476153D-06 0.000000000000D+00  7 -1 1 23 -13 13 23 21 2 0.38250348D-01 0.33488044D+00 0.53362239D+06 0.53362239D+06 0.53362239D+06 0.10665186D+01  1  2  3  1  7  1       -1 -.135431375027D-04 0.100000000000D+01
0.761255075968D-05 0.000000000000D+00 0.000000000000D+00 0.881521476153D-06 0.000000000000D+00  7 -1 1 23 -13 13 23 21 2 0.38250348D-01 0.33488044D+00 0.53362239D+06 0.53362239D+06 0.53362239D+06 0.10665186D+01  1  2 15  1  7  1       -1 0.154868621720D-04 0.100000000000D+01
-.508739583503D-03 0.000000000000D+00 -.817637277278D-04 0.881521476153D-06 0.000000000000D+00  7 -1 1 23 -13 13 23 21 2 0.37166431D+00 0.33488044D+00 0.53362239D+06 0.53362239D+06 0.53362239D+06 0.10665186D+01  1  2  5  1  7  1       -1 -.678504733069D-06 0.100000000000D+01
-.150725480017D-03 0.000000000000D+00 -.221918551820D-04 0.881521476153D-06 0.000000000000D+00  7 21 1 23 -13 13 23 1 2 0.37166431D+00 0.33488044D+00 0.53362239D+06 0.53362239D+06 0.53362239D+06 0.10665186D+01  1  2  5  3  7  1       -1 -.277863445508D-05 0.100000000000D+01
  </mgrwgt>
  </event>
  <event>
  9     66 0.27784906E-05 0.43414639E+03 0.75467711E-02 0.94850285E-01
       -1 -1    0    0    0  502 0.00000000E+00 0.00000000E+00 0.19912701E+03 0.19912727E+03 0.32000000E+00 0.0000E+00 0.9000E+01
        1 -1    0    0  501    0 0.00000000E+00 0.00000000E+00 -.17034839E+04 0.17034839E+04 0.32000000E+00 0.0000E+00 0.9000E+01
       25  2    1    2    0    0 0.25905847E+03 0.21461181E+03 -.38551793E+03 0.59331053E+03 0.30037274E+03 0.0000E+00 0.0000E+00
       23  2    3    3    0    0 0.13843250E+03 -.24795385E+02 -.11730222E+03 0.20328315E+03 0.88237531E+02 0.0000E+00 0.0000E+00
       23  1    1    2    0    0 -.32562942E+03 -.29709721E+03 -.11158926E+04 0.12032593E+04 0.91188000E+02 0.0000E+00 0.9000E+01
      -11  1    4    4    0    0 0.96070007E+02 -.11570251E+02 -.12517088E+03 0.15821209E+03 0.51099893E-03 0.0000E+00 0.9000E+01
       11  1    4    4    0    0 0.42362489E+02 -.13225134E+02 0.78686597E+01 0.45071059E+02 0.51099893E-03 0.0000E+00 0.9000E+01
       23  1    3    3    0    0 0.12062598E+03 0.23940720E+03 -.26821572E+03 0.39002738E+03 0.91188000E+02 0.0000E+00 0.9000E+01
       21  1    1    2  501  502 0.66570948E+02 0.82485393E+02 -.29463029E+01 0.10604138E+03 0.75000000E+00 0.0000E+00 0.9000E+01
#aMCatNLO 2  0  0  1  2 0.10599779D+03 0.00000000D+00  -5  7  0 0.00000000D+00 0.00000000D+00 0.00000000D+00 0.00000000D+00 0.00000000D+00
  <mgrwgt>
 0.4372227254D-05    2    2    0
 0.490457396345643D+03 0.000000000000000D+00 0.000000000000000D+00 0.490457396345643D+03
 0.490457396345643D+03 0.000000000000000D+00 0.000000000000000D+00 -.490457396345643D+03
 0.448706303050449D+03 -.293769895322965D+03 -.257621350014895D+03 -.200879525267356D+03
 0.103726929758027D+03 0.102882221211710D+03 -.312950890394828D+01 0.128347454042397D+02
 0.963555893167449D+02 0.488046256284792D+02 -.524293983827634D+01 0.829157385041791D+02
 0.332125970566065D+03 0.142083048482776D+03 0.265993798757119D+03 0.105129041358937D+03
 0.000000000000000D+00 0.000000000000000D+00 0.000000000000000D+00 0.000000000000000D+00
 0.665619009348448D+03 0.000000000000000D+00 0.000000000000000D+00 0.665619009348448D+03
 0.509614294559461D+03 0.000000000000000D+00 0.000000000000000D+00 -.509614294559461D+03
 0.492918962710726D+03 -.325629418015644D+03 -.297097207841092D+03 -.200879525267356D+03
 0.976117185308271D+02 0.960700067700266D+02 -.115702508251464D+02 0.128347454042397D+02
 0.940452247011973D+02 0.423624885326722D+02 -.132251337507227D+02 0.829157385041791D+02
 0.302049332802276D+03 0.120625975055092D+03 0.239407198946188D+03 0.105129041358937D+03
 0.188608065162882D+03 0.665709476578535D+02 0.824853934707737D+02 0.156004714788987D+03
-.552886566701D-04 0.000000000000D+00 0.000000000000D+00 0.151311441074D-06 0.000000000000D+00  7 -1 1 23 -11 11 23 21 2 0.30958473D-01 0.25222247D+00 0.24031273D+06 0.24031273D+06 0.24031273D+06 0.10917526D+01  1  2 13  1  7  1       -1 -.402878758040D-03 0.100000000000D+01
0.605504439919D-04 0.000000000000D+00 0.000000000000D+00 0.151311441074D-06 0.917392684875D-10  7 -1 1 23 -11 11 23 21 2 0.30634904D-01 0.26207409D+00 0.24031273D+06 0.24031273D+06 0.24031273D+06 0.10917526D+01  1  2  1  1  7  1       -1 0.407250985294D-03 0.100000000000D+01
  </mgrwgt>
  </event>
  <event>
  8     66 0.27784906E-05 0.25124259E+03 0.75467711E-02 0.95593767E-01
       -1 -1    0    0    0  501 0.00000000E+00 0.00000000E+00 0.57960530E+03 0.57960539E+03 0.32000000E+00 0.0000E+00 0.9000E+01
        1 -1    0    0  501    0 0.00000000E+00 0.00000000E+00 -.38068352E+03 0.38068366E+03 0.32000000E+00 0.0000E+00 0.9000E+01
       25  2    1    2    0    0 -.98149395E+02 -.40471325E+03 0.10315444E+03 0.52335341E+03 0.29971958E+03 0.0000E+00 0.0000E+00
       23  2    3    3    0    0 -.25322632E+02 -.12342598E+03 0.14861419E+03 0.21544415E+03 0.91949965E+02 0.0000E+00 0.0000E+00
       23  1    1    2    0    0 0.98149395E+02 0.40471325E+03 0.95767339E+02 0.43693564E+03 0.91188000E+02 0.0000E+00 0.9000E+01
      -13  1    4    4    0    0 0.59949510E+01 -.53338062E+02 0.66908874E+01 0.54089440E+02 0.10565837E+00 0.0000E+00 0.9000E+01
       13  1    4    4    0    0 -.31317584E+02 -.70087915E+02 0.14192331E+03 0.16135471E+03 0.10565837E+00 0.0000E+00 0.9000E+01
       23  1    3    3    0    0 -.72826763E+02 -.28128728E+03 -.45459750E+02 0.30790925E+03 0.91188000E+02 0.0000E+00 0.9000E+01
#aMCatNLO 1  0  0  2  1 0.52727769D+02 0.00000000D+00  -5  7  0 0.00000000D+00 0.00000000D+00 0.00000000D+00 0.00000000D+00 0.00000000D+00
  <mgrwgt>
 0.4040076900D-03    9    2    0
 0.469730023966481D+03 0.000000000000000D+00 0.000000000000000D+00 0.469730023966481D+03
 0.469730023966481D+03 0.000000000000000D+00 0.000000000000000D+00 -.469730023966481D+03
 0.426345221865682D+03 0.981493953168186D+02 0.404713253026729D+03 0.537362886352736D+01
 0.538718307190189D+02 0.599500029285168D+01 -.533380401799900D+02 -.461384723036124D+01
 0.134881336002048D+03 -.313176327222924D+02 -.700879370646541D+02 0.110904741830050D+03
 0.324361659346212D+03 -.728267628873778D+02 -.281287275782085D+03 -.111664523463216D+03
 0.000000000000000D+00 -.000000000000000D+00 0.000000000000000D+00 -.000000000000000D+00
 0.481960814708296D+03 0.000000000000000D+00 0.000000000000000D+00 0.481960814708296D+03
 0.530953359283997D+03 0.000000000000000D+00 0.000000000000000D+00 -.530953359283997D+03
 0.406326312376363D+03 0.103834443033148D+03 0.382067210498633D+03 0.537362886352736D+01
 0.569420766230345D+02 0.675157995838081D+01 -.563518293575640D+02 -.461384723036124D+01
 0.138480977362354D+03 -.294512571691310D+02 -.775225308023445D+02 0.110904741830050D+03
 0.339189207239052D+03 -.682963830393591D+02 -.299333768938505D+03 -.111664523463216D+03
 0.719756003914893D+02 -.128383827830387D+02 0.511409185997808D+02 -.489925445757017D+02
0.268741611582D-04 0.000000000000D+00 0.000000000000D+00 0.103012628764D-05 0.000000000000D+00  7 -1 1 23 -13 13 23 21 0 0.89170064D-01 0.58566713D-01 0.18545373D+06 0.18545373D+06 0.18545373D+06 0.11003530D+01  1  2  2  2  7  2        1 0.274260325120D-03 0.100000000000D+01
-.147930767324D-05 0.000000000000D+00 -.103203854977D-06 0.103012628764D-05 0.000000000000D+00  7 -1 1 23 -13 13 23 21 2 0.89170064D-01 0.58566713D-01 0.18545373D+06 0.18545373D+06 0.18545373D+06 0.11003530D+01  1  2  3  2  7  2        1 -.182789245401D-04 0.100000000000D+01
0.170005733389D-05 0.000000000000D+00 0.000000000000D+00 0.103012628764D-05 0.000000000000D+00  7 -1 1 23 -13 13 23 21 2 0.89170064D-01 0.58566713D-01 0.18545373D+06 0.18545373D+06 0.18545373D+06 0.11003530D+01  1  2 15  2  7  2        1 0.210065967223D-04 0.100000000000D+01
0.852434527474D-04 0.000000000000D+00 0.000000000000D+00 0.103012628764D-05 0.000000000000D+00  7 -1 1 23 -13 13 23 21 2 0.89170064D-01 0.66896196D-01 0.21113265D+06 0.21113265D+06 0.21113265D+06 0.10960231D+01  1  2 12  2  7  2        1 0.869337739296D-03 0.100000000000D+01
-.863819216022D-04 0.000000000000D+00 0.000000000000D+00 0.103012628764D-05 0.000000000000D+00  7 -1 1 23 -13 13 23 21 2 0.89170064D-01 0.58566713D-01 0.18545373D+06 0.18545373D+06 0.18545373D+06 0.11003530D+01  1  2  4  2  7  2        1 -.106736999689D-02 0.100000000000D+01
-.162140863353D-03 0.000000000000D+00 -.273648510907D-04 0.103012628764D-05 0.000000000000D+00  7 -1 1 23 -13 13 23 21 2 0.89170064D-01 0.67450544D-01 0.18545373D+06 0.18545373D+06 0.18545373D+06 0.11003530D+01  1  2  5  2  7  2        1 -.165497596149D-02 0.100000000000D+01
0.164631650341D-03 0.000000000000D+00 0.270941994571D-04 0.103012628764D-05 0.000000000000D+00  7 -1 1 23 -13 13 23 21 2 0.89170064D-01 0.58566713D-01 0.18545373D+06 0.18545373D+06 0.18545373D+06 0.11003530D+01  1  2  6  2  7  2        1 0.203425532627D-02 0.100000000000D+01
0.176196298348D-05 0.000000000000D+00 0.000000000000D+00 0.103012628764D-05 0.000000000000D+00  7 -1 21 23 -13 13 23 -1 2 0.89170064D-01 0.66896196D-01 0.21113265D+06 0.21113265D+06 0.21113265D+06 0.10960231D+01  1  2 12  4  7  2        1 0.604539198331D-04 0.100000000000D+01
-.335119818856D-05 0.000000000000D+00 -.594343235236D-06 0.103012628764D-05 0.000000000000D+00  7 -1 21 23 -13 13 23 -1 2 0.89170064D-01 0.67450544D-01 0.18545373D+06 0.18545373D+06 0.18545373D+06 0.11003530D+01  1  2  5  4  7  2        1 -.114681334272D-03 0.100000000000D+01
  </mgrwgt>
  </event>
  <event>
  8     66 0.27784906E-05 0.14597550E+03 0.75467711E-02 0.99707669E-01
       -1 -1    0    0    0  501 0.00000000E+00 0.00000000E+00 0.11502295E+03 0.11502339E+03 0.32000000E+00 0.0000E+00 0.9000E+01
        1 -1    0    0  501    0 0.00000000E+00 0.00000000E+00 -.55812247E+03 0.55812256E+03 0.32000000E+00 0.0000E+00 0.9000E+01
       25  2    1    2    0    0 -.99620407E+02 -.69768479E+02 -.18659043E+03 0.37497816E+03 0.30166334E+03 0.0000E+00 0.0000E+00
       23  2    3    3    0    0 -.69385413E+02 0.67605458E+02 -.13450653E+02 0.13398359E+03 0.91574276E+02 0.0000E+00 0.0000E+00
       23  1    1    2    0    0 0.99620407E+02 0.69768479E+02 -.25650909E+03 0.29816779E+03 0.91188000E+02 0.0000E+00 0.9000E+01
      -11  1    4    4    0    0 -.31824660E+02 -.19606255E+02 -.11121548E+02 0.38998757E+02 0.51099893E-03 0.0000E+00 0.9000E+01
       11  1    4    4    0    0 -.37560753E+02 0.87211714E+02 -.23291055E+01 0.94984830E+02 0.51099893E-03 0.0000E+00 0.9000E+01
       23  1    3    3    0    0 -.30234994E+02 -.13737394E+03 -.17313977E+03 0.24099458E+03 0.91188000E+02 0.0000E+00 0.9000E+01
#aMCatNLO 1  0  0  2  1 0.18187527D+03 0.00000000D+00  -5  7  0 0.00000000D+00 0.00000000D+00 0.00000000D+00 0.00000000D+00 0.00000000D+00
  <mgrwgt>
 0.2904923376D-03    7    2    0
 0.253371413904200D+03 0.000000000000000D+00 0.000000000000000D+00 0.253371413904200D+03
 0.253371413904200D+03 0.000000000000000D+00 0.000000000000000D+00 -.253371413904200D+03
 0.171786126883818D+03 0.996204071231191D+02 0.697684790618453D+02 -.800209713747841D+02
 0.420803256638862D+02 -.318246601400608D+02 -.196062552838206D+02 0.193271717717313D+02
 0.124139158751820D+03 -.375607526257256D+02 0.872117135631062D+02 0.799614758192056D+02
 0.168737216508876D+03 -.302349943573327D+02 -.137373937341131D+03 -.192676762161528D+02
 0.000000000000000D+00 -.000000000000000D+00 0.000000000000000D+00 -.000000000000000D+00
 0.293581341667205D+03 0.000000000000000D+00 0.000000000000000D+00 0.293581341667205D+03
 0.608326617188334D+03 0.000000000000000D+00 0.000000000000000D+00 -.608326617188334D+03
 0.165807953742006D+03 0.112336947201573D+03 0.124129212427327D+02 -.800209713747841D+02
 0.491062061614250D+02 -.283898333669664D+02 -.350983942121324D+02 0.193271717717313D+02
 0.984154662087828D+02 -.291775345233514D+02 0.494007879800041D+02 0.799614758192056D+02
 0.225063267410805D+03 -.154012637794866D+02 -.204278683961034D+03 -.192676762161528D+02
 0.363515065332520D+03 -.393683155317686D+02 0.177563368950429D+03 -.314745275521129D+03
0.340441095184D-05 0.000000000000D+00 0.000000000000D+00 0.444173291988D-07 0.000000000000D+00  7 -1 1 23 -11 11 23 21 0 0.17695880D-01 0.85865036D-01 0.51071344D+05 0.51071344D+05 0.51071344D+05 0.11464864D+01  1  2  2  2  7  2        1 0.364088968183D-03 0.100000000000D+01
-.186126115806D-06 0.000000000000D+00 -.130738344570D-07 0.444173291988D-07 0.000000000000D+00  7 -1 1 23 -11 11 23 21 2 0.17695880D-01 0.85865036D-01 0.51071344D+05 0.51071344D+05 0.51071344D+05 0.11464864D+01  1  2  3  2  7  2        1 -.261643933876D-04 0.100000000000D+01
0.219401612331D-06 0.000000000000D+00 0.000000000000D+00 0.444173291988D-07 0.000000000000D+00  7 -1 1 23 -11 11 23 21 2 0.17695880D-01 0.85865036D-01 0.51071344D+05 0.51071344D+05 0.51071344D+05 0.11464864D+01  1  2 15  2  7  2        1 0.308420452984D-04 0.100000000000D+01
0.278835551471D-06 0.000000000000D+00 0.000000000000D+00 0.444173291988D-07 0.000000000000D+00  7 -1 1 23 -11 11 23 21 2 0.17695880D-01 0.20349594D+00 0.10687973D+06 0.10687973D+06 0.10687973D+06 0.11193585D+01  1  2 12  2  7  2        1 0.892832831984D-05 0.100000000000D+01
-.282832339923D-05 0.000000000000D+00 -.106276098571D-05 0.444173291988D-07 0.000000000000D+00  7 -1 1 23 -11 11 23 21 2 0.17695880D-01 0.21990663D+00 0.51071344D+05 0.51071344D+05 0.51071344D+05 0.11464864D+01  1  2  5  2  7  2        1 -.820452286731D-04 0.100000000000D+01
0.262790881876D-07 0.000000000000D+00 0.000000000000D+00 0.444173291988D-07 0.000000000000D+00  7 -1 21 23 -11 11 23 -1 2 0.17695880D-01 0.20349594D+00 0.10687973D+06 0.10687973D+06 0.10687973D+06 0.11193585D+01  1  2 12  4  7  2        1 0.810495515170D-06 0.100000000000D+01
-.229217430411D-06 0.000000000000D+00 -.110451445440D-06 0.444173291988D-07 0.000000000000D+00  7 -1 21 23 -11 11 23 -1 2 0.17695880D-01 0.21990663D+00 0.51071344D+05 0.51071344D+05 0.51071344D+05 0.11464864D+01  1  2  5  4  7  2        1 -.596787764511D-05 0.100000000000D+01
  </mgrwgt>
  </event>
  <event>
  8     66 0.27784906E-05 0.21011430E+03 0.75467711E-02 0.10017626E+00
       -1 -1    0    0    0  501 0.00000000E+00 0.00000000E+00 0.79850457E+03 0.79850463E+03 0.32000000E+00 0.0000E+00 0.9000E+01
        1 -1    0    0  501    0 0.00000000E+00 0.00000000E+00 -.20861290E+03 0.20861315E+03 0.32000000E+00 0.0000E+00 0.9000E+01
       25  2    1    2    0    0 0.24256697E+03 -.12051447E+03 0.59721468E+03 0.72123083E+03 0.30024333E+03 0.0000E+00 0.0000E+00
       23  2    3    3    0    0 0.82481145E+02 -.10464278E+03 0.46872412E+03 0.49605433E+03 0.92813475E+02 0.0000E+00 0.0000E+00
       23  1    1    2    0    0 -.24256697E+03 0.12051447E+03 -.73230116E+01 0.28588695E+03 0.91188000E+02 0.0000E+00 0.9000E+01
      -13  1    4    4    0    0 0.16384258E+02 -.33166759E+01 0.59750513E+01 0.17752652E+02 0.10565837E+00 0.0000E+00 0.9000E+01
       13  1    4    4    0    0 0.66096887E+02 -.10132610E+03 0.46274907E+03 0.47830167E+03 0.10565837E+00 0.0000E+00 0.9000E+01
       23  1    3    3    0    0 0.16008582E+03 -.15871692E+02 0.12849056E+03 0.22517650E+03 0.91188000E+02 0.0000E+00 0.9000E+01
#aMCatNLO 1  0  0  2  1 0.19910023D+02 0.00000000D+00  -5  7  0 0.00000000D+00 0.00000000D+00 0.00000000D+00 0.00000000D+00 0.00000000D+00
  <mgrwgt>
 0.3709330585D-03    9    2    0
 0.408140307781173D+03 0.000000000000000D+00 0.000000000000000D+00 0.408140307781173D+03
 0.408140307781173D+03 0.000000000000000D+00 0.000000000000000D+00 -.408140307781173D+03
 0.358016119057340D+03 -.242566969482156D+03 0.120514471383282D+03 -.215633526299438D+03
 0.175847939025558D+02 0.163841934178745D+02 -.331654895317029D+01 -.545744314512446D+01
 0.255714207153309D+03 0.660969513588727D+02 -.101326230816767D+03 0.225286359350884D+03
 0.184965495449141D+03 0.160085824705409D+03 -.158716916133442D+02 -.419538990632185D+01
 0.000000000000000D+00 -.000000000000000D+00 0.000000000000000D+00 -.000000000000000D+00
 0.417057433203642D+03 0.000000000000000D+00 0.000000000000000D+00 0.417057433203642D+03
 0.419528775478759D+03 0.000000000000000D+00 0.000000000000000D+00 -.419528775478759D+03
 0.351789615314010D+03 -.236233148650231D+03 0.114615722801223D+03 -.215633526299438D+03
 0.179376018199022D+02 0.167011709782574D+02 -.361175321998951D+01 -.545744314512446D+01
 0.258654412488593D+03 0.706868250674331D+02 -.105600824580729D+03 0.225286359350884D+03
 0.188141764015250D+03 0.163415178665378D+03 -.189723511475626D+02 -.419538990632185D+01
 0.200628150446448D+02 -.145700260608375D+02 0.135692061470581D+02 -.247134227511721D+01
0.171271324722D-04 0.000000000000D+00 0.000000000000D+00 0.584345572805D-06 0.000000000000D+00  7 -1 1 23 -13 13 23 21 0 0.12284688D+00 0.32094316D-01 0.92539500D+05 0.92539500D+05 0.92539500D+05 0.11244958D+01  1  2  2  2  7  2        1 0.189961349275D-03 0.100000000000D+01
-.851567472839D-06 0.000000000000D+00 -.657726983706D-07 0.584345572805D-06 0.000000000000D+00  7 -1 1 23 -13 13 23 21 2 0.12284688D+00 0.32094316D-01 0.92539500D+05 0.92539500D+05 0.92539500D+05 0.11244958D+01  1  2  3  2  7  2        1 -.119430523121D-04 0.100000000000D+01
0.108511637865D-05 0.000000000000D+00 0.000000000000D+00 0.584345572805D-06 0.000000000000D+00  7 -1 1 23 -13 13 23 21 2 0.12284688D+00 0.32094316D-01 0.92539500D+05 0.92539500D+05 0.92539500D+05 0.11244958D+01  1  2 15  2  7  2        1 0.152185259398D-04 0.100000000000D+01
0.328684752082D-04 0.000000000000D+00 0.000000000000D+00 0.584345572805D-06 0.000000000000D+00  7 -1 1 23 -13 13 23 21 2 0.12284688D+00 0.33331772D-01 0.99263152D+05 0.99263152D+05 0.99263152D+05 0.11219857D+01  1  2 12  2  7  2        1 0.436007182183D-03 0.100000000000D+01
-.273438159924D-04 0.000000000000D+00 0.000000000000D+00 0.584345572805D-06 0.000000000000D+00  7 -1 1 23 -13 13 23 21 2 0.12284688D+00 0.32094316D-01 0.92539500D+05 0.92539500D+05 0.92539500D+05 0.11244958D+01  1  2  4  2  7  2        1 -.383491191509D-03 0.100000000000D+01
-.295213419480D-03 0.000000000000D+00 -.498412837238D-04 0.584345572805D-06 0.000000000000D+00  7 -1 1 23 -13 13 23 21 2 0.12284688D+00 0.33675994D-01 0.92539500D+05 0.92539500D+05 0.92539500D+05 0.11244958D+01  1  2  5  2  7  2        1 -.388979641752D-02 0.100000000000D+01
0.297324611682D-03 0.000000000000D+00 0.497836675743D-04 0.584345572805D-06 0.000000000000D+00  7 -1 1 23 -13 13 23 21 2 0.12284688D+00 0.32094316D-01 0.92539500D+05 0.92539500D+05 0.92539500D+05 0.11244958D+01  1  2  6  2  7  2        1 0.416991431008D-02 0.100000000000D+01
0.480335325769D-06 0.000000000000D+00 0.000000000000D+00 0.584345572805D-06 0.000000000000D+00  7 -1 21 23 -13 13 23 -1 2 0.12284688D+00 0.33331772D-01 0.99263152D+05 0.99263152D+05 0.99263152D+05 0.11219857D+01  1  2 12  4  7  2        1 0.385405539678D-04 0.100000000000D+01
-.244011315764D-05 0.000000000000D+00 -.418838789741D-06 0.584345572805D-06 0.000000000000D+00  7 -1 21 23 -13 13 23 -1 2 0.12284688D+00 0.33675994D-01 0.92539500D+05 0.92539500D+05 0.92539500D+05 0.11244958D+01  1  2  5  4  7  2        1 -.193478201649D-03 0.100000000000D+01
  </mgrwgt>
  </event>
  <event>
  8     66 0.27784906E-05 0.16392300E+03 0.75467711E-02 0.97772039E-01
       -1 -1    0    0    0  501 0.00000000E+00 0.00000000E+00 0.11331450E+03 0.11331495E+03 0.32000000E+00 0.0000E+00 0.9000E+01
        1 -1    0    0  501    0 0.00000000E+00 0.00000000E+00 -.18960626E+04 0.18960626E+04 0.32000000E+00 0.0000E+00 0.9000E+01
       25  2    1    2    0    0 -.18779624E+03 0.26094050E+03 -.15260535E+04 0.15879932E+04 0.29920881E+03 0.0000E+00 0.0000E+00
       23  2    3    3    0    0 -.77091330E+02 -.20760648E+02 -.49367762E+03 0.50830518E+03 0.91008191E+02 0.0000E+00 0.0000E+00
       23  1    1    2    0    0 0.18779624E+03 -.26094050E+03 -.25669459E+03 0.42138431E+03 0.91188000E+02 0.0000E+00 0.9000E+01
      -11  1    4    4    0    0 -.82783460E+02 -.36127810E+02 -.28466455E+03 0.29865068E+03 0.51099893E-03 0.0000E+00 0.9000E+01
       11  1    4    4    0    0 0.56921301E+01 0.15367161E+02 -.20901306E+03 0.20965450E+03 0.51099893E-03 0.0000E+00 0.9000E+01
       23  1    3    3    0    0 -.11070491E+03 0.28170115E+03 -.10323759E+04 0.10796880E+04 0.91188000E+02 0.0000E+00 0.9000E+01
#aMCatNLO 1  0  0  1  2 0.77334520D+01 0.00000000D+00  -5  7  0 0.00000000D+00 0.00000000D+00 0.00000000D+00 0.00000000D+00 0.00000000D+00
  <mgrwgt>
 0.3779386770D-03   11    2    0
 0.463521149278140D+03 0.000000000000000D+00 0.000000000000000D+00 0.463521149278140D+03
 0.463521149278140D+03 0.000000000000000D+00 0.000000000000000D+00 -.463521149278140D+03
 0.419720202566992D+03 0.187796239820710D+03 -.260940498948999D+03 0.253953589099123D+03
 0.999056709573050D+02 -.827834596940352D+02 -.361278096278808D+02 -.426945343341153D+02
 0.524867256668045D+02 0.569213012822984D+01 0.153671612579461D+02 -.498628757764529D+02
 0.354929699365178D+03 -.110704910254905D+03 0.281701147318934D+03 -.161396178988555D+03
 0.000000000000000D+00 0.000000000000000D+00 0.000000000000000D+00 0.000000000000000D+00
 0.478254068381478D+03 0.000000000000000D+00 0.000000000000000D+00 0.478254068381478D+03
 0.464553230378383D+03 0.000000000000000D+00 0.000000000000000D+00 -.464553230378383D+03
 0.420960577494560D+03 0.186201029496726D+03 -.264063075151727D+03 0.253953589099123D+03
 0.100491706242631D+03 -.831637181376566D+02 -.368721540877218D+02 -.426945343341153D+02
 0.523527898725129D+02 0.549319483493389D+01 0.149777514081043D+02 -.498628757764529D+02
 0.353269480885574D+03 -.112048733820956D+03 0.279070653129593D+03 -.161396178988555D+03
 0.157327442645828D+02 0.351822762695279D+01 0.688682470175123D+01 0.137008380030953D+02
0.170323023093D-04 0.000000000000D+00 0.000000000000D+00 0.598617843337D-06 0.000000000000D+00  7 -1 1 23 -11 11 23 21 0 0.17433036D-01 0.29170197D+00 0.14326103D+06 0.14326103D+06 0.14326103D+06 0.11091307D+01  1  2  2  1  7  1       -1 0.184318687410D-03 0.100000000000D+01
-.898996438424D-06 0.000000000000D+00 -.654085255758D-07 0.598617843337D-06 0.000000000000D+00  7 -1 1 23 -11 11 23 21 2 0.17433036D-01 0.29170197D+00 0.14326103D+06 0.14326103D+06 0.14326103D+06 0.11091307D+01  1  2  3  1  7  1       -1 -.119679415472D-04 0.100000000000D+01
0.110523164750D-05 0.000000000000D+00 0.000000000000D+00 0.598617843337D-06 0.000000000000D+00  7 -1 1 23 -11 11 23 21 2 0.17433036D-01 0.29170197D+00 0.14326103D+06 0.14326103D+06 0.14326103D+06 0.11091307D+01  1  2 15  1  7  1       -1 0.147134595735D-04 0.100000000000D+01
0.999266816316D-04 0.000000000000D+00 0.000000000000D+00 0.598617843337D-06 0.000000000000D+00  7 -1 1 23 -11 11 23 21 2 0.18006206D-01 0.29170197D+00 0.14616673D+06 0.14616673D+06 0.14616673D+06 0.11084402D+01  1  2 12  1  7  1       -1 0.126083503895D-02 0.100000000000D+01
-.106647995221D-03 0.000000000000D+00 0.000000000000D+00 0.598617843337D-06 0.000000000000D+00  7 -1 1 23 -11 11 23 21 2 0.17433036D-01 0.29170197D+00 0.14326103D+06 0.14326103D+06 0.14326103D+06 0.11091307D+01  1  2  4  1  7  1       -1 -.141975754117D-02 0.100000000000D+01
-.882200624409D-03 0.000000000000D+00 -.665804393983D-04 0.598617843337D-06 0.000000000000D+00  7 -1 1 23 -11 11 23 21 2 0.18020498D-01 0.29170197D+00 0.14326103D+06 0.14326103D+06 0.14326103D+06 0.11091307D+01  1  2  5  1  7  1       -1 -.111394137258D-01 0.100000000000D+01
0.883958305202D-03 0.000000000000D+00 0.665438885243D-04 0.598617843337D-06 0.000000000000D+00  7 -1 1 23 -11 11 23 21 2 0.17433036D-01 0.29170197D+00 0.14326103D+06 0.14326103D+06 0.14326103D+06 0.11091307D+01  1  2  6  1  7  1       -1 0.117677455379D-01 0.100000000000D+01
0.503460388726D-05 0.000000000000D+00 0.000000000000D+00 0.598617843337D-06 0.656148658987D-07  7 -1 1 23 -11 11 23 21 2 0.17987142D-01 0.29235148D+00 0.14616673D+06 0.14616673D+06 0.14616673D+06 0.11084402D+01  1  2 11  1  7  1       -1 0.632267559847D-04 0.100000000000D+01
0.296817268531D-05 0.000000000000D+00 0.000000000000D+00 0.598617843337D-06 0.000000000000D+00  7 21 1 23 -11 11 23 1 2 0.18006206D-01 0.29170197D+00 0.14616673D+06 0.14616673D+06 0.14616673D+06 0.11084402D+01  1  2 12  3  7  1       -1 0.460738267865D-03 0.100000000000D+01
-.519335655330D-05 0.000000000000D+00 -.393932210885D-06 0.598617843337D-06 0.000000000000D+00  7 21 1 23 -11 11 23 1 2 0.18020498D-01 0.29170197D+00 0.14326103D+06 0.14326103D+06 0.14326103D+06 0.11091307D+01  1  2  5  3  7  1       -1 -.806956880211D-03 0.100000000000D+01
0.288412027624D-07 0.000000000000D+00 0.000000000000D+00 0.598617843337D-06 0.368891788280D-09  7 21 1 23 -11 11 23 1 2 0.17987142D-01 0.29235148D+00 0.14616673D+06 0.14616673D+06 0.14616673D+06 0.11084402D+01  1  2 11  3  7  1       -1 0.445701812373D-05 0.100000000000D+01
  </mgrwgt>
  </event>
  <event>
  9     66 0.27784906E-05 0.19698228E+03 0.75467711E-02 0.10535339E+00
       -1 -1    0    0    0  502 0.00000000E+00 0.00000000E+00 0.27202721E+02 0.27204604E+02 0.32000000E+00 0.0000E+00 0.9000E+01
        1 -1    0    0  501    0 0.00000000E+00 0.00000000E+00 -.20019894E+04 0.20019894E+04 0.32000000E+00 0.0000E+00 0.9000E+01
       25  2    1    2    0    0 -.57490460E+02 0.14610428E+02 -.99594641E+03 0.10418888E+04 0.30017406E+03 0.0000E+00 0.0000E+00
       23  2    3    3    0    0 0.48201727E+02 0.98380120E+02 -.49202109E+03 0.51231902E+03 0.91564051E+02 0.0000E+00 0.0000E+00
       23  1    1    2    0    0 0.24102398E+02 -.11401635E+02 -.68543033E+03 0.69198332E+03 0.91188000E+02 0.0000E+00 0.9000E+01
      -11  1    4    4    0    0 -.16360754E+02 0.59214114E+02 -.29485928E+03 0.30119094E+03 0.51099893E-03 0.0000E+00 0.9000E+01
       11  1    4    4    0    0 0.64562481E+02 0.39166006E+02 -.19716181E+03 0.21112808E+03 0.51099893E-03 0.0000E+00 0.9000E+01
       23  1    3    3    0    0 -.10569219E+03 -.83769692E+02 -.50392532E+03 0.52956981E+03 0.91188000E+02 0.0000E+00 0.9000E+01
       21  1    1    2  501  502 0.33388061E+02 -.32087927E+01 -.29340989E+03 0.29532184E+03 0.75000000E+00 0.0000E+00 0.9000E+01
#aMCatNLO 2  0  0  1  2 0.33541899D+02 0.00000000D+00  -5  7  0 0.00000000D+00 0.00000000D+00 0.00000000D+00 0.00000000D+00 0.00000000D+00
  <mgrwgt>
 0.5944936407D-04    1    2    0
 0.211044914567466D+03 0.000000000000000D+00 0.000000000000000D+00 0.211044914567466D+03
 0.211044914567466D+03 0.000000000000000D+00 0.000000000000000D+00 -.211044914567466D+03
 0.114158886544703D+03 0.330257307126899D+02 -.122592211493078D+02 -.589577190945480D+02
 0.609367499244361D+02 -.114870314942808D+02 0.587457201100272D+02 -.114138498131443D+02
 0.867013776646860D+02 0.712098478104642D+02 0.385271543614153D+02 0.310152356202031D+02
 0.160292815001107D+03 -.927485470288734D+02 -.850136533221347D+02 0.393563332874892D+02
 0.000000000000000D+00 0.000000000000000D+00 -.000000000000000D+00 -.000000000000000D+00
 0.219417847250491D+03 0.000000000000000D+00 0.000000000000000D+00 0.219417847250491D+03
 0.248202008660527D+03 0.000000000000000D+00 0.000000000000000D+00 -.248202008660527D+03
 0.111813178526913D+03 0.241023985564469D+02 -.114016354653950D+02 -.589577190945480D+02
 0.624840903235627D+02 -.163607540589990D+02 0.592141140491613D+02 -.114138498131443D+02
 0.816347644933875D+02 0.645624805356598D+02 0.391660061838922D+02 0.310152356202031D+02
 0.167488422981534D+03 -.105692186147172D+03 -.837696920517006D+02 0.393563332874892D+02
 0.441993995856215D+02 0.333880611140644D+02 -.320879271595779D+01 -.287841614100352D+02
0.539374448604D-06 0.000000000000D+00 0.000000000000D+00 0.134908066231D-06 0.859412033390D-09  7 -1 1 23 -11 11 23 21 2 0.41851215D-02 0.30799414D+00 0.45858759D+05 0.45858759D+05 0.45858759D+05 0.11506128D+01  1  2  1  1  7  1       -1 0.594493640698D-04 0.100000000000D+01
  </mgrwgt>
  </event>
  <event>
  8     66 0.27784906E-05 0.19906587E+03 0.75467711E-02 0.10621710E+00
       -1 -1    0    0    0  501 0.00000000E+00 0.00000000E+00 0.84795231E+02 0.84795835E+02 0.32000000E+00 0.0000E+00 0.9000E+01
        1 -1    0    0  501    0 0.00000000E+00 0.00000000E+00 -.12666898E+04 0.12666899E+04 0.32000000E+00 0.0000E+00 0.9000E+01
       25  2    1    2    0    0 0.85141355E+02 0.10974844E+03 -.11303046E+04 0.11775014E+04 0.29937791E+03 0.0000E+00 0.0000E+00
       23  2    3    3    0    0 0.64094878E+02 0.55540502E+02 -.10014707E+04 0.10092905E+04 0.92362889E+02 0.0000E+00 0.0000E+00
       23  1    1    2    0    0 -.85141355E+02 -.10974844E+03 -.51589952E+02 0.17398433E+03 0.91188000E+02 0.0000E+00 0.9000E+01
      -13  1    4    4    0    0 0.99278067E+01 -.24920643E+02 -.29009922E+03 0.29133687E+03 0.10565837E+00 0.0000E+00 0.9000E+01
       13  1    4    4    0    0 0.54167071E+02 0.80461146E+02 -.71137145E+03 0.71795364E+03 0.10565837E+00 0.0000E+00 0.9000E+01
       23  1    3    3    0    0 0.21046477E+02 0.54207940E+02 -.12883396E+03 0.16821087E+03 0.91188000E+02 0.0000E+00 0.9000E+01
#aMCatNLO 1  0  0  2  2 0.51792120D+01 0.00000000D+00  -5  7  0 0.00000000D+00 0.00000000D+00 0.00000000D+00 0.00000000D+00 0.00000000D+00
  <mgrwgt>
 0.1774920318D-03    6    2    0
 0.327734178207000D+03 0.000000000000000D+00 0.000000000000000D+00 0.327734178207000D+03
 0.327734178207000D+03 0.000000000000000D+00 0.000000000000000D+00 -.327734178207000D+03
 0.265708391689001D+03 -.851413550655206D+02 -.109748442962457D+03 0.207344946875681D+03
 0.776098545098569D+02 0.992774895819511D+01 -.249207806811308D+02 -.728263963677127D+02
 0.197626779331167D+03 0.541671287727065D+02 0.804612830133060D+02 -.172186666165483D+03
 0.114523330883976D+03 0.210464773346190D+02 0.542079406302816D+02 0.376681156575141D+02
 0.000000000000000D+00 0.000000000000000D+00 -.000000000000000D+00 0.000000000000000D+00
 0.333987617413195D+03 0.000000000000000D+00 0.000000000000000D+00 0.333987617413195D+03
 0.328818545682881D+03 0.000000000000000D+00 0.000000000000000D+00 -.328818545682881D+03
 0.265979223020983D+03 -.870608303932618D+02 -.108895273318920D+03 0.207344946875681D+03
 0.774606154278283D+02 0.936792034291134D+01 -.246719476936781D+02 -.728263963677127D+02
 0.197500066447510D+03 0.527406591487825D+02 0.810953211605907D+02 -.172186666165483D+03
 0.114548913083867D+03 0.202194907575357D+02 0.545755201625543D+02 0.376681156575141D+02
 0.731734511588853D+01 0.473276014403221D+01 -.210362031054693D+01 0.516907173031411D+01
0.422944860338D-05 0.000000000000D+00 0.000000000000D+00 0.186901148159D-06 0.000000000000D+00  7 -1 1 23 -13 13 23 21 0 0.13045470D-01 0.19487541D+00 0.39627222D+05 0.39627222D+05 0.39627222D+05 0.11562846D+01  1  2  2  2  7  2        1 0.193697353895D-03 0.100000000000D+01
-.163956031737D-06 0.000000000000D+00 -.162421962764D-07 0.186901148159D-06 0.000000000000D+00  7 -1 1 23 -13 13 23 21 2 0.13045470D-01 0.19487541D+00 0.39627222D+05 0.39627222D+05 0.39627222D+05 0.11562846D+01  1  2  3  2  7  2        1 -.100391466541D-04 0.100000000000D+01
0.255201897352D-06 0.000000000000D+00 0.000000000000D+00 0.186901148159D-06 0.000000000000D+00  7 -1 1 23 -13 13 23 21 2 0.13045470D-01 0.19487541D+00 0.39627222D+05 0.39627222D+05 0.39627222D+05 0.11562846D+01  1  2 15  2  7  2        1 0.156261971381D-04 0.100000000000D+01
-.409230449593D-05 0.000000000000D+00 0.000000000000D+00 0.186901148159D-06 0.000000000000D+00  7 -1 1 23 -13 13 23 21 2 0.13045470D-01 0.19487541D+00 0.39627222D+05 0.39627222D+05 0.39627222D+05 0.11562846D+01  1  2  4  2  7  2        1 -.250574770274D-03 0.100000000000D+01
0.384266054438D-05 0.000000000000D+00 0.000000000000D+00 0.186901148159D-06 0.496079730151D-07  7 -1 1 23 -13 13 23 21 2 0.13294388D-01 0.19552019D+00 0.40617863D+05 0.40617863D+05 0.40617863D+05 0.11553196D+01  1  2 11  2  7  2        1 0.226585179714D-03 0.100000000000D+01
0.350917014651D-07 0.000000000000D+00 0.000000000000D+00 0.186901148159D-06 0.308419154628D-10  7 -1 21 23 -13 13 23 -1 2 0.13294388D-01 0.19552019D+00 0.40617863D+05 0.40617863D+05 0.40617863D+05 0.11553196D+01  1  2 11  4  7  2        1 0.219721801624D-05 0.100000000000D+01
  </mgrwgt>
  </event>
  <event>
  8     66 0.27784906E-05 0.21257811E+03 0.75467711E-02 0.10246821E+00
       -1 -1    0    0    0  501 0.00000000E+00 0.00000000E+00 0.97538817E+02 0.97539341E+02 0.32000000E+00 0.0000E+00 0.9000E+01
        1 -1    0    0  501    0 0.00000000E+00 0.00000000E+00 -.75528981E+03 0.75528988E+03 0.32000000E+00 0.0000E+00 0.9000E+01
       25  2    1    2    0    0 0.32793718E+02 0.12251563E+03 -.23346557E+03 0.40070216E+03 0.29995089E+03 0.0000E+00 0.0000E+00
       23  2    3    3    0    0 0.35116206E+02 0.14843969E+03 -.24575404E+03 0.30507941E+03 0.97009857E+02 0.0000E+00 0.0000E+00
       23  1    1    2    0    0 -.32793718E+02 -.12251563E+03 -.42428543E+03 0.45212707E+03 0.91188000E+02 0.0000E+00 0.9000E+01
      -13  1    4    4    0    0 -.13294090E+02 -.42352969E+01 -.30375808E+01 0.14279658E+02 0.10565837E+00 0.0000E+00 0.9000E+01
       13  1    4    4    0    0 0.48410296E+02 0.15267498E+03 -.24271646E+03 0.29079976E+03 0.10565837E+00 0.0000E+00 0.9000E+01
       23  1    3    3    0    0 -.23224876E+01 -.25924056E+02 0.12288473E+02 0.95622741E+02 0.91188000E+02 0.0000E+00 0.9000E+01
#aMCatNLO 1  0  0  1  2 0.10143570D+03 0.00000000D+00  -5  7  0 0.00000000D+00 0.00000000D+00 0.00000000D+00 0.00000000D+00 0.00000000D+00
  <mgrwgt>
 0.4211538005D-03    4    2    0
 0.271422783231856D+03 0.000000000000000D+00 0.000000000000000D+00 0.271422783231856D+03
 0.271422783231856D+03 0.000000000000000D+00 0.000000000000000D+00 -.271422783231856D+03
 0.196212363073892D+03 -.327937183252440D+02 -.122515631970235D+03 -.118737239484414D+03
 0.187530951884202D+02 -.132941530919650D+02 -.423547116083977D+01 0.125301578904274D+02
 0.162763839599087D+03 0.484103606890123D+02 0.152675168966353D+03 -.289619964797422D+02
 0.165116268602313D+03 -.232248927180326D+01 -.259240658352780D+02 0.135169078073729D+03
 0.000000000000000D+00 -.000000000000000D+00 -.000000000000000D+00 -.000000000000000D+00
 0.297226555075978D+03 0.000000000000000D+00 0.000000000000000D+00 0.297226555075978D+03
 0.397996693815638D+03 0.000000000000000D+00 0.000000000000000D+00 -.397996693815638D+03
 0.176151061467753D+03 -.192201733954260D+02 -.908074777013807D+02 -.118737239484414D+03
 0.173725102260672D+02 -.119772876430719D+02 -.115923919485559D+01 0.125301578904274D+02
 0.195367673568034D+03 0.614651181232081D+02 0.183171422141647D+03 -.289619964797422D+02
 0.163350106844324D+03 0.965090234298137D+01 0.204608863844299D+01 0.135169078073729D+03
 0.142981896785437D+03 -.399185594276917D+02 -.932507938838540D+02 -.100770138739660D+03
0.541722313909D-05 0.000000000000D+00 0.000000000000D+00 0.268639547503D-07 0.000000000000D+00  7 -1 1 23 -13 13 23 21 0 0.15006017D-01 0.11619848D+00 0.45189453D+05 0.45189453D+05 0.45189453D+05 0.11511799D+01  1  2  2  1  7  1       -1 0.483142993176D-03 0.100000000000D+01
-.279105652069D-06 0.000000000000D+00 -.208035632417D-07 0.268639547503D-07 0.000000000000D+00  7 -1 1 23 -13 13 23 21 2 0.15006017D-01 0.11619848D+00 0.45189453D+05 0.45189453D+05 0.45189453D+05 0.11511799D+01  1  2  3  1  7  1       -1 -.329878466135D-04 0.100000000000D+01
0.336674258115D-06 0.000000000000D+00 0.000000000000D+00 0.268639547503D-07 0.000000000000D+00  7 -1 1 23 -13 13 23 21 2 0.15006017D-01 0.11619848D+00 0.45189453D+05 0.45189453D+05 0.45189453D+05 0.11511799D+01  1  2 15  1  7  1       -1 0.397919522700D-04 0.100000000000D+01
-.582050674676D-06 0.000000000000D+00 0.000000000000D+00 0.268639547503D-07 0.000000000000D+00  7 -1 1 23 -13 13 23 21 2 0.15006017D-01 0.11619848D+00 0.45189453D+05 0.45189453D+05 0.45189453D+05 0.11511799D+01  1  2  4  1  7  1       -1 -.687932982909D-04 0.100000000000D+01
  </mgrwgt>
  </event>
  <event>
  8     66 0.27784906E-05 0.29087423E+03 0.75467711E-02 0.89928237E-01
       -1 -1    0    0    0  501 0.00000000E+00 0.00000000E+00 0.25459096E+03 0.25459116E+03 0.32000000E+00 0.0000E+00 0.9000E+01
        1 -1    0    0  501    0 0.00000000E+00 0.00000000E+00 -.10387078E+04 0.10387079E+04 0.32000000E+00 0.0000E+00 0.9000E+01
       25  2    1    2    0    0 -.13792902E+02 0.23934309E+03 0.79969627E+02 0.39194667E+03 0.29958586E+03 0.0000E+00 0.0000E+00
       23  2    3    3    0    0 -.78975557E+02 0.18015639E+03 -.36101486E+02 0.22007579E+03 0.91850818E+02 0.0000E+00 0.0000E+00
       23  1    1    2    0    0 0.13792902E+02 -.23934309E+03 -.86408650E+03 0.90135237E+03 0.91188000E+02 0.0000E+00 0.9000E+01
      -13  1    4    4    0    0 -.69455358E+02 0.12947645E+03 0.14732309E+02 0.14766601E+03 0.10565837E+00 0.0000E+00 0.9000E+01
       13  1    4    4    0    0 -.95201988E+01 0.50679935E+02 -.50833796E+02 0.72409778E+02 0.10565837E+00 0.0000E+00 0.9000E+01
       23  1    3    3    0    0 0.65182655E+02 0.59186704E+02 0.11607111E+03 0.17187088E+03 0.91188000E+02 0.0000E+00 0.9000E+01
#aMCatNLO 1  0  0  2  2 0.66087756D+03 0.00000000D+00  -5  7  0 0.00000000D+00 0.00000000D+00 0.00000000D+00 0.00000000D+00 0.00000000D+00
  <mgrwgt>
 0.4151607565D-03    5    2    0
 0.514242920429919D+03 0.000000000000000D+00 0.000000000000000D+00 0.514242920429919D+03
 0.514242920429919D+03 0.000000000000000D+00 0.000000000000000D+00 -.514242920429919D+03
 0.474652468785733D+03 0.137929019774130D+02 -.239343091977075D+03 -.399379963140724D+03
 0.196918956382086D+03 -.694554372641220D+02 0.129476557321876D+03 0.131106211603931D+03
 0.522979123916057D+02 -.952011950619032D+01 0.506798309259192D+02 -.871743668908267D+01
 0.304616503300413D+03 0.651826547928993D+02 0.591867037292802D+02 0.276991188225876D+03
 0.000000000000000D+00 -.000000000000000D+00 0.000000000000000D+00 -.000000000000000D+00
 0.657750181992334D+03 0.000000000000000D+00 0.000000000000000D+00 0.657750181992334D+03
 0.295978770310027D+04 0.000000000000000D+00 0.000000000000000D+00 -.295978770310027D+04
 0.662735167597481D+03 0.282338620831998D+03 -.437816399024593D+03 -.399379963140724D+03
 0.148727530227645D+03 0.121542806956553D+02 0.691614993132137D+02 0.131106211603931D+03
 0.378890002805979D+02 0.117736844003192D+02 0.349422809140540D+02 -.871743668908267D+01
 0.373163035297578D+03 0.225211467833734D+03 -.590853278732861D+02 0.276991188225876D+03
 0.239502315168930D+04 -.531478053761706D+03 0.392797946670611D+03 -.230203752110794D+04
0.364985355859D-04 0.000000000000D+00 0.000000000000D+00 0.120740707454D-05 0.000000000000D+00  7 -1 1 23 -13 13 23 21 0 0.39167859D-01 0.15980122D+00 0.84607818D+05 0.84607818D+05 0.84607818D+05 0.11277280D+01  1  2  2  2  7  2        1 0.401953774914D-03 0.100000000000D+01
-.122724197728D-05 0.000000000000D+00 -.140163986935D-06 0.120740707454D-05 0.000000000000D+00  7 -1 1 23 -13 13 23 21 2 0.39167859D-01 0.15980122D+00 0.84607818D+05 0.84607818D+05 0.84607818D+05 0.11277280D+01  1  2  3  2  7  2        1 -.171885633998D-04 0.100000000000D+01
0.217038589987D-05 0.000000000000D+00 0.000000000000D+00 0.120740707454D-05 0.000000000000D+00  7 -1 1 23 -13 13 23 21 2 0.39167859D-01 0.15980122D+00 0.84607818D+05 0.84607818D+05 0.84607818D+05 0.11277280D+01  1  2 15  2  7  2        1 0.303980929046D-04 0.100000000000D+01
-.348950099273D-04 0.000000000000D+00 -.155775067594D-04 0.120740707454D-05 0.000000000000D+00  7 -1 1 23 -13 13 23 21 2 0.39167859D-01 0.92442676D+00 0.84607818D+05 0.84607818D+05 0.84607818D+05 0.11277280D+01  1  2  5  2  7  2        1 -.254097762653D-08 0.100000000000D+01
-.838790625617D-05 0.000000000000D+00 -.334993961510D-05 0.120740707454D-05 0.000000000000D+00  7 -1 21 23 -13 13 23 -1 2 0.39167859D-01 0.92442676D+00 0.84607818D+05 0.84607818D+05 0.84607818D+05 0.11277280D+01  1  2  5  4  7  2        1 -.692625639514D-11 0.100000000000D+01
  </mgrwgt>
  </event>
  <event>
  8     66 0.27784906E-05 0.22046197E+03 0.75467711E-02 0.95412888E-01
       -1 -1    0    0    0  501 0.00000000E+00 0.00000000E+00 0.10525721E+03 0.10525770E+03 0.32000000E+00 0.0000E+00 0.9000E+01
        1 -1    0    0  501    0 0.00000000E+00 0.00000000E+00 -.73458112E+03 0.73458119E+03 0.32000000E+00 0.0000E+00 0.9000E+01
       25  2    1    2    0    0 -.91180814E+02 -.10739626E+03 -.57400031E+03 0.66313617E+03 0.30070806E+03 0.0000E+00 0.0000E+00
       23  2    3    3    0    0 -.11656813E+03 -.98380556E+02 -.52848592E+03 0.55771981E+03 0.92125785E+02 0.0000E+00 0.0000E+00
       23  1    1    2    0    0 0.91180814E+02 0.10739626E+03 -.55323607E+02 0.17670272E+03 0.91188000E+02 0.0000E+00 0.9000E+01
      -11  1    4    4    0    0 -.10307569E+03 -.28631073E+02 -.32961064E+03 0.34653645E+03 0.51099893E-03 0.0000E+00 0.9000E+01
       11  1    4    4    0    0 -.13492434E+02 -.69749482E+02 -.19887528E+03 0.21118336E+03 0.51099893E-03 0.0000E+00 0.9000E+01
       23  1    3    3    0    0 0.25387313E+02 -.90157023E+01 -.45514385E+02 0.10541636E+03 0.91188000E+02 0.0000E+00 0.9000E+01
#aMCatNLO 1  0  0  1  2 0.37393903D+03 0.00000000D+00  -5  7  0 0.00000000D+00 0.00000000D+00 0.00000000D+00 0.00000000D+00 0.00000000D+00
  <mgrwgt>
 0.3424856472D-03    3    2    0
 0.278065088782860D+03 0.000000000000000D+00 0.000000000000000D+00 0.278065088782860D+03
 0.278065088782860D+03 0.000000000000000D+00 0.000000000000000D+00 -.278065088782860D+03
 0.204242367157847D+03 0.911808136069836D+02 0.107396257991972D+03 0.116412182341587D+03
 0.150329784006633D+03 -.103075692034173D+03 -.286310732690435D+02 -.105615847838380D+03
 0.938683683067008D+02 -.134924344162335D+02 -.697494824617628D+02 -.613533575153171D+02
 0.107689658094539D+03 0.253873128434230D+02 -.901570226116615D+01 0.505570230121097D+02
 0.000000000000000D+00 0.000000000000000D+00 -.000000000000000D+00 -.000000000000000D+00
 0.400286632624976D+03 0.000000000000000D+00 0.000000000000000D+00 0.400286632624976D+03
 0.871173754735831D+03 0.000000000000000D+00 0.000000000000000D+00 -.871173754735831D+03
 0.312802168936695D+03 0.776448985792396D+02 0.264479524868352D+03 0.116412182341587D+03
 0.167922885238892D+03 -.111407355532252D+03 0.680572494716379D+02 -.105615847838380D+03
 0.671677200256405D+02 -.177082623689502D+02 -.208251189411472D+02 -.613533575153171D+02
 0.122264796651011D+03 0.193672435023985D+02 0.608467456762061D+02 0.505570230121097D+02
 0.601302816508569D+03 0.321034758195643D+02 -.372558401075049D+03 -.470887122110855D+03
0.408562899229D-05 0.000000000000D+00 0.000000000000D+00 0.988518398237D-07 0.000000000000D+00  7 -1 1 23 -11 11 23 21 0 0.16193460D-01 0.11301252D+00 0.48603479D+05 0.48603479D+05 0.48603479D+05 0.11483791D+01  1  2  2  1  7  1       -1 0.337396966820D-03 0.100000000000D+01
-.212108717572D-06 0.000000000000D+00 -.156898911012D-07 0.988518398237D-07 0.000000000000D+00  7 -1 1 23 -11 11 23 21 2 0.16193460D-01 0.11301252D+00 0.48603479D+05 0.48603479D+05 0.48603479D+05 0.11483791D+01  1  2  3  1  7  1       -1 -.230999650833D-04 0.100000000000D+01
0.258834046380D-06 0.000000000000D+00 0.000000000000D+00 0.988518398237D-07 0.000000000000D+00  7 -1 1 23 -11 11 23 21 2 0.16193460D-01 0.11301252D+00 0.48603479D+05 0.48603479D+05 0.48603479D+05 0.11483791D+01  1  2 15  1  7  1       -1 0.281886454371D-04 0.100000000000D+01
  </mgrwgt>
  </event>
  <event>
  8     66 0.27784906E-05 0.92757919E+02 0.75467711E-02 0.10438436E+00
       -1 -1    0    0    0  501 0.00000000E+00 0.00000000E+00 0.21843888E+03 0.21843912E+03 0.32000000E+00 0.0000E+00 0.9000E+01
        1 -1    0    0  501    0 0.00000000E+00 0.00000000E+00 -.20452225E+03 0.20452250E+03 0.32000000E+00 0.0000E+00 0.9000E+01
       25  2    1    2    0    0 0.34857642E+02 -.54619384E+02 0.35975243E+02 0.30894335E+03 0.29992239E+03 0.0000E+00 0.0000E+00
       23  2    3    3    0    0 -.10189508E+03 -.21310737E+02 0.45666815E+01 0.13831943E+03 0.90965132E+02 0.0000E+00 0.0000E+00
       23  1    1    2    0    0 -.34857642E+02 0.54619384E+02 -.22058606E+02 0.11401827E+03 0.91188000E+02 0.0000E+00 0.9000E+01
      -11  1    4    4    0    0 0.12915320E+02 -.12993169E+02 0.13656033E+02 0.22849840E+02 0.51099893E-03 0.0000E+00 0.9000E+01
       11  1    4    4    0    0 -.11481040E+03 -.83175677E+01 -.90893512E+01 0.11546959E+03 0.51099893E-03 0.0000E+00 0.9000E+01
       23  1    3    3    0    0 0.13675272E+03 -.33308647E+02 0.31408561E+02 0.17062392E+03 0.91188000E+02 0.0000E+00 0.9000E+01
#aMCatNLO 1  0  0  1  2 0.43633920D+02 0.00000000D+00  -5  7  0 0.00000000D+00 0.00000000D+00 0.00000000D+00 0.00000000D+00 0.00000000D+00
  <mgrwgt>
 0.4415779219D-03    9    2    0
 0.211366302903886D+03 0.000000000000000D+00 0.000000000000000D+00 0.211366302903886D+03
 0.211366302903886D+03 0.000000000000000D+00 0.000000000000000D+00 -.211366302903886D+03
 0.114806221298110D+03 -.348576422179442D+02 0.546193837110815D+02 -.258241128943107D+02
 0.224126526505732D+02 0.129153203936758D+02 -.129931690820633D+02 0.129111988277177D+02
 0.115831370338101D+03 -.114810398713860D+03 -.831756775700591D+01 -.128956104227154D+02
 0.169682361520987D+03 0.136752720538128D+03 -.333086468720123D+02 0.258085244893084D+02
 0.000000000000000D+00 -.000000000000000D+00 -.000000000000000D+00 0.000000000000000D+00
 0.275290751132359D+03 0.000000000000000D+00 0.000000000000000D+00 0.275290751132359D+03
 0.220068396923883D+03 0.000000000000000D+00 0.000000000000000D+00 -.220068396923883D+03
 0.116324383521175D+03 -.257910160653763D+02 0.623221432648040D+02 -.258241128943107D+02
 0.226793546763904D+02 0.146841574251113D+02 -.114904131380555D+02 0.129111988277177D+02
 0.106859584422177D+03 -.106074837121104D+03 -.896071669767762D+00 -.128956104227154D+02
 0.179115235688728D+03 0.150435103359248D+03 -.216844657025681D+02 0.258085244893084D+02
 0.703805897477715D+02 -.332534075978794D+02 -.282511927544126D+02 0.552223542084765D+02
0.237369183094D-05 0.000000000000D+00 0.000000000000D+00 0.210228139438D-06 0.000000000000D+00  7 -1 1 23 -11 11 23 21 0 0.33606019D-01 0.31464998D-01 0.42643019D+05 0.42643019D+05 0.42643019D+05 0.11534254D+01  1  2  2  1  7  1       -1 0.336788170384D-03 0.100000000000D+01
-.131784848370D-06 0.000000000000D+00 -.911560163822D-08 0.210228139438D-06 0.000000000000D+00  7 -1 1 23 -11 11 23 21 2 0.33606019D-01 0.31464998D-01 0.42643019D+05 0.42643019D+05 0.42643019D+05 0.11534254D+01  1  2  3  1  7  1       -1 -.248757973812D-04 0.100000000000D+01
0.155053219523D-06 0.000000000000D+00 0.000000000000D+00 0.210228139438D-06 0.000000000000D+00  7 -1 1 23 -11 11 23 21 2 0.33606019D-01 0.31464998D-01 0.42643019D+05 0.42643019D+05 0.42643019D+05 0.11534254D+01  1  2 15  1  7  1       -1 0.292679509052D-04 0.100000000000D+01
0.474057247991D-05 0.000000000000D+00 0.000000000000D+00 0.210228139438D-06 0.000000000000D+00  7 -1 1 23 -11 11 23 21 2 0.44309404D-01 0.31464998D-01 0.52676178D+05 0.52676178D+05 0.52676178D+05 0.11453089D+01  1  2 12  1  7  1       -1 0.550879494866D-03 0.100000000000D+01
-.482180803324D-05 0.000000000000D+00 0.000000000000D+00 0.210228139438D-06 0.000000000000D+00  7 -1 1 23 -11 11 23 21 2 0.33606019D-01 0.31464998D-01 0.42643019D+05 0.42643019D+05 0.42643019D+05 0.11534254D+01  1  2  4  1  7  1       -1 -.910167755467D-03 0.100000000000D+01
-.663556999472D-05 0.000000000000D+00 -.121450357292D-05 0.210228139438D-06 0.000000000000D+00  7 -1 1 23 -11 11 23 21 2 0.45143361D-01 0.31464998D-01 0.42643019D+05 0.42643019D+05 0.42643019D+05 0.11534254D+01  1  2  5  1  7  1       -1 -.756878402751D-03 0.100000000000D+01
0.674897795933D-05 0.000000000000D+00 0.116346214490D-05 0.210228139438D-06 0.000000000000D+00  7 -1 1 23 -11 11 23 21 2 0.33606019D-01 0.31464998D-01 0.42643019D+05 0.42643019D+05 0.42643019D+05 0.11534254D+01  1  2  6  1  7  1       -1 0.127394165811D-02 0.100000000000D+01
0.172721377321D-06 0.000000000000D+00 0.000000000000D+00 0.210228139438D-06 0.000000000000D+00  7 21 1 23 -11 11 23 1 2 0.44309404D-01 0.31464998D-01 0.52676178D+05 0.52676178D+05 0.52676178D+05 0.11453089D+01  1  2 12  3  7  1       -1 0.197688309775D-03 0.100000000000D+01
-.226939839356D-06 0.000000000000D+00 -.463956377103D-07 0.210228139438D-06 0.000000000000D+00  7 21 1 23 -11 11 23 1 2 0.45143361D-01 0.31464998D-01 0.42643019D+05 0.42643019D+05 0.42643019D+05 0.11534254D+01  1  2  5  3  7  1       -1 -.255065706570D-03 0.100000000000D+01
  </mgrwgt>
  </event>
  <event>
  8     66 0.27784906E-05 0.30564116E+03 0.75467711E-02 0.88814018E-01
       -1 -1    0    0    0  501 0.00000000E+00 0.00000000E+00 0.10473939E+04 0.10473939E+04 0.32000000E+00 0.0000E+00 0.9000E+01
        1 -1    0    0  501    0 0.00000000E+00 0.00000000E+00 -.37595785E+03 0.37595799E+03 0.32000000E+00 0.0000E+00 0.9000E+01
       25  2    1    2    0    0 -.49770585E+03 -.26466260E+03 0.16527243E+03 0.66028296E+03 0.30149826E+03 0.0000E+00 0.0000E+00
       23  2    3    3    0    0 -.54500263E+02 -.10965842E+03 -.53214728E+01 0.15246899E+03 0.90682017E+02 0.0000E+00 0.0000E+00
       23  1    1    2    0    0 0.49770585E+03 0.26466260E+03 0.50616361E+03 0.76306898E+03 0.91188000E+02 0.0000E+00 0.9000E+01
      -13  1    4    4    0    0 0.13532476E+02 -.74517492E+02 -.38180706E+00 0.75737318E+02 0.10565837E+00 0.0000E+00 0.9000E+01
       13  1    4    4    0    0 -.68032739E+02 -.35140924E+02 -.49396658E+01 0.76731672E+02 0.10565837E+00 0.0000E+00 0.9000E+01
       23  1    3    3    0    0 -.44320559E+03 -.15500418E+03 0.17059391E+03 0.50781397E+03 0.91188000E+02 0.0000E+00 0.9000E+01
#aMCatNLO 1  0  0  1  2 0.44874241D+03 0.00000000D+00  -5  7  0 0.00000000D+00 0.00000000D+00 0.00000000D+00 0.00000000D+00 0.00000000D+00
  <mgrwgt>
 0.3255514630D-03    7    2    0
 0.627515809259843D+03 0.000000000000000D+00 0.000000000000000D+00 0.627515809259843D+03
 0.627515809259843D+03 0.000000000000000D+00 0.000000000000000D+00 -.627515809259843D+03
 0.594613870503528D+03 0.497705854724000D+03 0.264662597512178D+03 0.165810118215825D+03
 0.860991944581071D+02 0.135325861339674D+02 -.745175449863730D+02 -.409521170156753D+02
 0.896653506362402D+02 -.680328494928453D+02 -.351408707549238D+02 -.466532495887425D+02
 0.484653202921811D+03 -.443205591365122D+03 -.155004181770881D+03 -.782047516114070D+02
 0.000000000000000D+00 0.000000000000000D+00 0.000000000000000D+00 0.000000000000000D+00
 0.120002811188869D+04 0.000000000000000D+00 0.000000000000000D+00 0.120002811188869D+04
 0.760766037130462D+03 0.000000000000000D+00 0.000000000000000D+00 -.760766037130462D+03
 0.444222170020763D+03 0.381223337167715D+03 0.127255085909841D+03 0.165810118215825D+03
 0.108632634465319D+03 -.830228750970464D+01 -.100274849313854D+03 -.409521170156753D+02
 0.120538782991854D+03 -.916026003780579D+02 -.629447067825842D+02 -.466532495887425D+02
 0.659450783412710D+03 -.571491584029728D+03 -.306335552308621D+03 -.782047516114070D+02
 0.627949778128508D+03 0.290173134749775D+03 0.342300022495218D+03 0.439262074758229D+03
0.143334923012D-03 0.000000000000D+00 0.000000000000D+00 0.335313258076D-06 0.000000000000D+00  7 -1 1 23 -13 13 23 21 0 0.16113754D+00 0.57839684D-01 0.36098379D+06 0.36098379D+06 0.36098379D+06 0.10786556D+01  1  2  2  1  7  1       -1 0.329896647619D-03 0.100000000000D+01
-.794475198776D-05 0.000000000000D+00 -.550443845320D-06 0.335313258076D-06 0.000000000000D+00  7 -1 1 23 -13 13 23 21 2 0.16113754D+00 0.57839684D-01 0.36098379D+06 0.36098379D+06 0.36098379D+06 0.10786556D+01  1  2  3  1  7  1       -1 -.212751114866D-04 0.100000000000D+01
0.917432200945D-05 0.000000000000D+00 0.000000000000D+00 0.335313258076D-06 0.000000000000D+00  7 -1 1 23 -13 13 23 21 2 0.16113754D+00 0.57839684D-01 0.36098379D+06 0.36098379D+06 0.36098379D+06 0.10786556D+01  1  2 15  1  7  1       -1 0.245677554020D-04 0.100000000000D+01
0.115585558265D-04 0.000000000000D+00 0.000000000000D+00 0.335313258076D-06 0.000000000000D+00  7 -1 1 23 -13 13 23 21 2 0.31172293D+00 0.57839684D-01 0.74599396D+06 0.74599396D+06 0.74599396D+06 0.10564421D+01  1  2 12  1  7  1       -1 0.153188774758D-05 0.100000000000D+01
-.730712386120D-04 0.000000000000D+00 -.385213890770D-04 0.335313258076D-06 0.000000000000D+00  7 -1 1 23 -13 13 23 21 2 0.33270400D+00 0.57839684D-01 0.36098379D+06 0.36098379D+06 0.36098379D+06 0.10786556D+01  1  2  5  1  7  1       -1 -.678079347024D-05 0.100000000000D+01
0.827117191244D-06 0.000000000000D+00 0.000000000000D+00 0.335313258076D-06 0.000000000000D+00  7 21 1 23 -13 13 23 1 2 0.31172293D+00 0.57839684D-01 0.74599396D+06 0.74599396D+06 0.74599396D+06 0.10564421D+01  1  2 12  3  7  1       -1 0.102818551578D-05 0.100000000000D+01
-.336490465391D-05 0.000000000000D+00 -.301986440827D-05 0.335313258076D-06 0.000000000000D+00  7 21 1 23 -13 13 23 1 2 0.33270400D+00 0.57839684D-01 0.36098379D+06 0.36098379D+06 0.36098379D+06 0.10786556D+01  1  2  5  3  7  1       -1 -.341710837709D-05 0.100000000000D+01
  </mgrwgt>
  </event>
  <event>
  8     66 0.27784906E-05 0.30169748E+03 0.75467711E-02 0.97395265E-01
       -1 -1    0    0    0  501 0.00000000E+00 0.00000000E+00 0.10043130E+03 0.10043181E+03 0.32000000E+00 0.0000E+00 0.9000E+01
        1 -1    0    0  501    0 0.00000000E+00 0.00000000E+00 -.28050453E+04 0.28050453E+04 0.32000000E+00 0.0000E+00 0.9000E+01
       25  2    1    2    0    0 0.18545199E+03 -.16218660E+03 -.25894147E+04 0.26186269E+04 0.30239258E+03 0.0000E+00 0.0000E+00
       23  2    3    3    0    0 -.12758735E+02 -.76384069E+02 -.14460362E+04 0.14514597E+04 0.98576133E+02 0.0000E+00 0.0000E+00
       23  1    1    2    0    0 -.18545199E+03 0.16218660E+03 -.11519928E+03 0.28685024E+03 0.91188000E+02 0.0000E+00 0.9000E+01
      -11  1    4    4    0    0 0.30131700E+02 -.23849347E+02 -.20492582E+03 0.20849773E+03 0.51099893E-03 0.0000E+00 0.9000E+01
       11  1    4    4    0    0 -.42890435E+02 -.52534722E+02 -.12411104E+04 0.12429620E+04 0.51099893E-03 0.0000E+00 0.9000E+01
       23  1    3    3    0    0 0.19821072E+03 -.85802529E+02 -.11433785E+04 0.11671672E+04 0.91188000E+02 0.0000E+00 0.9000E+01
#aMCatNLO 1  0  0  2  2 0.14779794D+03 0.00000000D+00  -5  7  0 0.00000000D+00 0.00000000D+00 0.00000000D+00 0.00000000D+00 0.00000000D+00
  <mgrwgt>
 0.3193420636D-03    4    2    0
 0.530768411665090D+03 0.000000000000000D+00 0.000000000000000D+00 0.530768411665090D+03
 0.530768411665090D+03 0.000000000000000D+00 0.000000000000000D+00 -.530768411665090D+03
 0.491614791672587D+03 -.185451985068236D+03 0.162186597679941D+03 0.415539313199770D+03
 0.485523765161573D+02 0.301316999245445D+02 -.238493465021225D+02 -.296752859538978D+02
 0.239909777077392D+03 -.428904345326850D+02 -.525347222171821D+02 -.230124346222830D+03
 0.281459878064044D+03 0.198210719676376D+03 -.858025289606366D+02 -.155739681023042D+03
 0.000000000000000D+00 0.000000000000000D+00 0.000000000000000D+00 0.000000000000000D+00
 0.631010598806214D+03 0.000000000000000D+00 0.000000000000000D+00 0.631010598806214D+03
 0.593299053658953D+03 0.000000000000000D+00 0.000000000000000D+00 -.593299053658953D+03
 0.500706691305596D+03 -.236907310381379D+03 0.116593073754499D+03 0.415539313199770D+03
 0.480829236960422D+02 0.251208230117232D+02 -.282893832723071D+02 -.296752859538978D+02
 0.251544273538047D+03 -.683740388732708D+02 -.751152290381590D+02 -.230124346222830D+03
 0.271442514792470D+03 0.169540804755797D+03 -.111206361196013D+03 -.155739681023042D+03
 0.152533249133011D+03 0.110619721487129D+03 0.980178997519809D+02 0.377115451472610D+02
0.167435099773D-03 0.000000000000D+00 0.000000000000D+00 0.586445649447D-08 0.000000000000D+00  7 -1 1 23 -11 11 23 21 0 0.15451009D-01 0.43154548D+00 0.91021371D+05 0.91021371D+05 0.91021371D+05 0.11250903D+01  1  2  2  2  7  2        1 0.542517993052D-03 0.100000000000D+01
-.569283959433D-05 0.000000000000D+00 -.642994869802D-06 0.586445649447D-08 0.000000000000D+00  7 -1 1 23 -11 11 23 21 2 0.15451009D-01 0.43154548D+00 0.91021371D+05 0.91021371D+05 0.91021371D+05 0.11250903D+01  1  2  3  2  7  2        1 -.233491647341D-04 0.100000000000D+01
0.102798137525D-04 0.000000000000D+00 0.000000000000D+00 0.586445649447D-08 0.000000000000D+00  7 -1 1 23 -11 11 23 21 2 0.15451009D-01 0.43154548D+00 0.91021371D+05 0.91021371D+05 0.91021371D+05 0.11250903D+01  1  2 15  2  7  2        1 0.421626256573D-04 0.100000000000D+01
-.590002596940D-04 0.000000000000D+00 0.000000000000D+00 0.586445649447D-08 0.000000000000D+00  7 -1 1 23 -11 11 23 21 2 0.15451009D-01 0.43154548D+00 0.91021371D+05 0.91021371D+05 0.91021371D+05 0.11250903D+01  1  2  4  2  7  2        1 -.241989390378D-03 0.100000000000D+01
  </mgrwgt>
  </event>
  <event>
  8     66 0.27784906E-05 0.73647155E+03 0.75467711E-02 0.80222153E-01
       -1 -1    0    0    0  501 0.00000000E+00 0.00000000E+00 0.49754795E+03 0.49754805E+03 0.32000000E+00 0.0000E+00 0.9000E+01
        1 -1    0    0  501    0 0.00000000E+00 0.00000000E+00 -.12756752E+04 0.12756752E+04 0.32000000E+00 0.0000E+00 0.9000E+01
       25  2    1    2    0    0 -.83104244E+02 -.70728529E+03 -.88780239E+02 0.77789754E+03 0.30013972E+03 0.0000E+00 0.0000E+00
       23  2    3    3    0    0 -.11588851E+03 -.25039375E+03 -.10920841E+03 0.31039646E+03 0.91062133E+02 0.0000E+00 0.0000E+00
       23  1    1    2    0    0 0.83104244E+02 0.70728529E+03 -.68934702E+03 0.99532576E+03 0.91188000E+02 0.0000E+00 0.9000E+01
      -11  1    4    4    0    0 -.12886895E+03 -.23236413E+03 -.88589439E+02 0.28008638E+03 0.51099893E-03 0.0000E+00 0.9000E+01
       11  1    4    4    0    0 0.12980437E+02 -.18029619E+02 -.20618972E+02 0.30310079E+02 0.51099893E-03 0.0000E+00 0.9000E+01
       23  1    3    3    0    0 0.32784270E+02 -.45689155E+03 0.20428172E+02 0.46750107E+03 0.91188000E+02 0.0000E+00 0.9000E+01
#aMCatNLO 1  0  0  2  2 0.20482121D+04 0.00000000D+00  -5  7  0 0.00000000D+00 0.00000000D+00 0.00000000D+00 0.00000000D+00 0.00000000D+00
  <mgrwgt>
 0.4371751778D-03    5    2    0
 0.796686704779040D+03 0.000000000000000D+00 0.000000000000000D+00 0.796686704779040D+03
 0.796686704779040D+03 0.000000000000000D+00 0.000000000000000D+00 -.796686704779040D+03
 0.771027748091454D+03 0.831042442901404D+02 0.707285291173382D+03 -.281086709848984D+03
 0.268437919977751D+03 -.128868951295911D+03 -.232364126733799D+03 0.381919216734681D+02
 0.236619705987653D+02 0.129804372033390D+02 -.180296190286591D+02 -.814431951168525D+01
 0.530245770890110D+03 0.327842698024319D+02 -.456891545410924D+03 0.251039107687201D+03
 0.000000000000000D+00 0.000000000000000D+00 0.000000000000000D+00 -.000000000000000D+00
 0.197233926499499D+04 0.000000000000000D+00 0.000000000000000D+00 0.197233926499499D+04
 0.285163350458383D+04 0.000000000000000D+00 0.000000000000000D+00 -.285163350458383D+04
 0.377305877627908D+03 -.136807818216066D+03 0.190573755721502D+03 -.281086709848984D+03
 0.776892854130725D+03 -.329055413998680D+03 -.702727840943014D+03 0.381919216734681D+02
 0.533272941352798D+02 -.176342087004456D+01 -.526722005076427D+02 -.814431951168525D+01
 0.138747139014006D+04 -.334468875747062D+03 -.131979981235083D+04 0.251039107687201D+03
 0.222897535354484D+04 0.802095528831853D+03 0.188462609807999D+04 -.879294239588838D+03
0.218369496459D-03 0.000000000000D+00 0.000000000000D+00 0.524545920833D-05 0.000000000000D+00  7 -1 1 23 -11 11 23 21 0 0.76545849D-01 0.19625773D+00 0.54239034D+06 0.54239034D+06 0.54239034D+06 0.10660215D+01  1  2  2  2  7  2        1 0.433417359113D-03 0.100000000000D+01
-.120405329994D-04 0.000000000000D+00 -.838596364413D-06 0.524545920833D-05 0.000000000000D+00  7 -1 1 23 -11 11 23 21 2 0.76545849D-01 0.19625773D+00 0.54239034D+06 0.54239034D+06 0.54239034D+06 0.10660215D+01  1  2  3  2  7  2        1 -.271576387544D-04 0.100000000000D+01
0.136873621660D-04 0.000000000000D+00 0.000000000000D+00 0.524545920833D-05 0.000000000000D+00  7 -1 1 23 -11 11 23 21 2 0.76545849D-01 0.19625773D+00 0.54239034D+06 0.54239034D+06 0.54239034D+06 0.10660215D+01  1  2 15  2  7  2        1 0.308720915614D-04 0.100000000000D+01
0.679845040373D-04 0.000000000000D+00 -.712793137281D-04 0.524545920833D-05 0.000000000000D+00  7 -1 1 23 -11 11 23 21 2 0.76545849D-01 0.80798617D+00 0.54239034D+06 0.54239034D+06 0.54239034D+06 0.10660215D+01  1  2  5  2  7  2        1 0.431406959419D-07 0.100000000000D+01
0.120120594691D-04 0.000000000000D+00 -.120812203366D-04 0.524545920833D-05 0.000000000000D+00  7 -1 21 23 -11 11 23 -1 2 0.76545849D-01 0.80798617D+00 0.54239034D+06 0.54239034D+06 0.54239034D+06 0.10660215D+01  1  2  5  4  7  2        1 0.225179566709D-09 0.100000000000D+01
  </mgrwgt>
  </event>
  <event>
  8     66 0.27784906E-05 0.11803391E+03 0.75467711E-02 0.10240069E+00
       -1 -1    0    0    0  501 0.00000000E+00 0.00000000E+00 0.20792480E+03 0.20792505E+03 0.32000000E+00 0.0000E+00 0.9000E+01
        1 -1    0    0  501    0 0.00000000E+00 0.00000000E+00 -.25164423E+03 0.25164443E+03 0.32000000E+00 0.0000E+00 0.9000E+01
       25  2    1    2    0    0 -.41784001E+02 0.98043442E+02 -.28605831E+02 0.31849471E+03 0.29876775E+03 0.0000E+00 0.0000E+00
       23  2    3    3    0    0 -.10304226E+03 0.14070202E+03 0.16206083E+01 0.19683445E+03 0.91249159E+02 0.0000E+00 0.0000E+00
       23  1    1    2    0    0 0.41784001E+02 -.98043442E+02 -.15113596E+02 0.14107477E+03 0.91188000E+02 0.0000E+00 0.9000E+01
      -11  1    4    4    0    0 0.12212081E+02 0.32216741E+02 0.15832905E+02 0.37917466E+02 0.51099893E-03 0.0000E+00 0.9000E+01
       11  1    4    4    0    0 -.11525434E+03 0.10848528E+03 -.14212297E+02 0.15891699E+03 0.51099893E-03 0.0000E+00 0.9000E+01
       23  1    3    3    0    0 0.61258258E+02 -.42658580E+02 -.30226440E+02 0.12166026E+03 0.91188000E+02 0.0000E+00 0.9000E+01
#aMCatNLO 1  0  0  2  1 0.75040553D+02 0.00000000D+00  -5  7  0 0.00000000D+00 0.00000000D+00 0.00000000D+00 0.00000000D+00 0.00000000D+00
  <mgrwgt>
 0.4000709001D-03    9    2    0
 0.228742606132094D+03 0.000000000000000D+00 0.000000000000000D+00 0.228742606132094D+03
 0.228742606132094D+03 0.000000000000000D+00 0.000000000000000D+00 -.228742606132094D+03
 0.140273172803799D+03 0.417840012632904D+02 -.980434422429598D+02 -.170068692747111D+01
 0.396032817127360D+02 0.122120811402672D+02 0.322167411137904D+02 0.195286094909204D+02
 0.158282807407705D+03 -.115254340855709D+03 0.108485281455349D+03 0.909803459095317D+00
 0.119325950339948D+03 0.612582584521519D+02 -.426585803261800D+02 -.187377260225446D+02
 0.000000000000000D+00 0.000000000000000D+00 0.000000000000000D+00 -.000000000000000D+00
 0.267370107985979D+03 0.000000000000000D+00 0.000000000000000D+00 0.267370107985979D+03
 0.271376047844723D+03 0.000000000000000D+00 0.000000000000000D+00 -.271376047844723D+03
 0.147771614405874D+03 0.243032962512345D+02 -.113699851079137D+03 -.170068692747111D+01
 0.351147473858016D+02 0.767763412455714D+01 0.281555115309459D+02 0.195286094909204D+02
 0.162608419633871D+03 -.134728412701305D+03 0.910435346659921D+02 0.909803459095317D+00
 0.118103971811394D+03 0.468492407769186D+02 -.555638648381931D+02 -.187377260225446D+02
 0.751474025937611D+02 0.558982415485947D+02 0.500646697203918D+02 -.400593985874321D+01
0.221204991372D-05 0.000000000000D+00 0.000000000000D+00 0.347856197862D-07 0.000000000000D+00  7 -1 1 23 -11 11 23 21 0 0.31988466D-01 0.38714531D-01 0.50814689D+05 0.50814689D+05 0.50814689D+05 0.11466785D+01  1  2  2  2  7  2        1 0.261313342238D-03 0.100000000000D+01
-.122859693903D-06 0.000000000000D+00 -.849485411480D-08 0.347856197862D-07 0.000000000000D+00  7 -1 1 23 -11 11 23 21 2 0.31988466D-01 0.38714531D-01 0.50814689D+05 0.50814689D+05 0.50814689D+05 0.11466785D+01  1  2  3  2  7  2        1 -.190835611943D-04 0.100000000000D+01
0.144883244474D-06 0.000000000000D+00 0.000000000000D+00 0.347856197862D-07 0.000000000000D+00  7 -1 1 23 -11 11 23 21 2 0.31988466D-01 0.38714531D-01 0.50814689D+05 0.50814689D+05 0.50814689D+05 0.11466785D+01  1  2 15  2  7  2        1 0.225044371682D-04 0.100000000000D+01
0.127495324699D-05 0.000000000000D+00 0.000000000000D+00 0.347856197862D-07 0.000000000000D+00  7 -1 1 23 -11 11 23 21 2 0.31988466D-01 0.48651512D-01 0.70543328D+05 0.70543328D+05 0.70543328D+05 0.11343743D+01  1  2 12  2  7  2        1 0.144126016134D-03 0.100000000000D+01
-.119629411338D-05 0.000000000000D+00 0.000000000000D+00 0.347856197862D-07 0.000000000000D+00  7 -1 1 23 -11 11 23 21 2 0.31988466D-01 0.38714531D-01 0.50814689D+05 0.50814689D+05 0.50814689D+05 0.11466785D+01  1  2  4  2  7  2        1 -.185818075837D-03 0.100000000000D+01
-.304216853012D-05 0.000000000000D+00 -.117200642854D-05 0.347856197862D-07 0.000000000000D+00  7 -1 1 23 -11 11 23 21 2 0.31988466D-01 0.52926359D-01 0.50814689D+05 0.50814689D+05 0.50814689D+05 0.11466785D+01  1  2  5  2  7  2        1 -.314845287801D-03 0.100000000000D+01
0.330099641268D-05 0.000000000000D+00 0.111695609707D-05 0.347856197862D-07 0.000000000000D+00  7 -1 1 23 -11 11 23 21 2 0.31988466D-01 0.38714531D-01 0.50814689D+05 0.50814689D+05 0.50814689D+05 0.11466785D+01  1  2  6  2  7  2        1 0.512737457194D-03 0.100000000000D+01
0.403555010089D-07 0.000000000000D+00 0.000000000000D+00 0.347856197862D-07 0.000000000000D+00  7 -1 21 23 -11 11 23 -1 2 0.31988466D-01 0.48651512D-01 0.70543328D+05 0.70543328D+05 0.70543328D+05 0.11343743D+01  1  2 12  4  7  2        1 0.210165993925D-04 0.100000000000D+01
-.931553895429D-07 0.000000000000D+00 -.466788561729D-07 0.347856197862D-07 0.000000000000D+00  7 -1 21 23 -11 11 23 -1 2 0.31988466D-01 0.52926359D-01 0.50814689D+05 0.50814689D+05 0.50814689D+05 0.11466785D+01  1  2  5  4  7  2        1 -.418800272048D-04 0.100000000000D+01
  </mgrwgt>
  </event>
  <event>
  9     66 0.27784906E-05 0.27082196E+03 0.75467711E-02 0.10113515E+00
       21 -1    0    0  502  501 0.00000000E+00 0.00000000E+00 0.17805956E+04 0.17805957E+04 0.75000000E+00 0.0000E+00 0.9000E+01
        1 -1    0    0  501    0 0.00000000E+00 0.00000000E+00 -.68998439E+02 0.68999181E+02 0.32000000E+00 0.0000E+00 0.9000E+01
       25  2    1    2    0    0 -.15915817E+03 0.22715509E+02 0.46551943E+03 0.57673534E+03 0.30011330E+03 0.0000E+00 0.0000E+00
       23  2    3    3    0    0 0.61599413E+02 -.17548315E+02 0.11440119E+03 0.15017426E+03 0.73227349E+02 0.0000E+00 0.0000E+00
       23  1    1    2    0    0 0.19752168E+03 -.14822357E+02 0.11119626E+04 0.11331419E+04 0.91188000E+02 0.0000E+00 0.9000E+01
      -11  1    4    4    0    0 0.54632972E+02 -.36171061E+02 0.11251399E+03 0.13020179E+03 0.51099893E-03 0.0000E+00 0.9000E+01
       11  1    4    4    0    0 0.69664416E+01 0.18622745E+02 0.18871938E+01 0.19972468E+02 0.51099893E-03 0.0000E+00 0.9000E+01
       23  1    3    3    0    0 -.22075758E+03 0.40263824E+02 0.35111824E+03 0.42656108E+03 0.91188000E+02 0.0000E+00 0.9000E+01
        1  1    1    2  502    0 -.38363516E+02 -.78931522E+01 0.13411512E+03 0.13971767E+03 0.32000000E+00 0.0000E+00 0.9000E+01
#aMCatNLO 2  0  0  1  2 0.39167094D+02 0.00000000D+00  -5  7  0 0.00000000D+00 0.00000000D+00 0.00000000D+00 0.00000000D+00 0.00000000D+00
  <mgrwgt>
 0.7201163381D-04    2    2    0
 0.329278223426012D+03 0.000000000000000D+00 0.000000000000000D+00 0.329278223426012D+03
 0.329278223426012D+03 0.000000000000000D+00 0.000000000000000D+00 -.329278223426012D+03
 0.267208568059370D+03 0.181654085625382D+03 -.180870568583065D+02 0.172510344762713D+03
 0.657952183220200D+02 0.507270408732639D+02 -.369746916771845D+02 -.197142145078528D+02
 0.467070115573154D+02 0.423209973978357D+01 0.180601647220179D+02 -.428656588730571D+02
 0.278845648913317D+03 -.236613226238430D+03 0.370015838134731D+02 -.109930471381803D+03
 0.000000000000000D+00 -.000000000000000D+00 -.000000000000000D+00 0.000000000000000D+00
 0.357336352173890D+03 0.000000000000000D+00 0.000000000000000D+00 0.357336352173890D+03
 0.343818114771941D+03 0.000000000000000D+00 0.000000000000000D+00 -.343818114771941D+03
 0.278046018222440D+03 0.197521683846380D+03 -.148223569547651D+02 0.172510344762713D+03
 0.684233693744997D+02 0.546329715649819D+02 -.361710608204606D+02 -.197142145078528D+02
 0.472525413986489D+02 0.696644159190187D+01 0.186227454892222D+02 -.428656588730571D+02
 0.265998204783058D+03 -.220757580855255D+03 0.402638244646471D+02 -.109930471381803D+03
 0.414343331671840D+02 -.383635161480088D+02 -.789315217864362D+01 0.135182374019487D+02
-.141199608066D-04 0.000000000000D+00 0.000000000000D+00 0.317792190066D-08 0.000000000000D+00  7 21 1 23 -11 11 23 1 2 0.27914194D+00 0.10166284D-01 0.85512588D+05 0.85512588D+05 0.85512588D+05 0.11273428D+01  1  2 13  3  7  1       -1 -.401151413360D-03 0.100000000000D+01
0.163050081261D-04 0.000000000000D+00 0.000000000000D+00 0.317792190066D-08 0.204667446151D-12  7 21 1 23 -11 11 23 1 2 0.27393736D+00 0.10615195D-01 0.85512588D+05 0.85512588D+05 0.85512588D+05 0.11273428D+01  1  2  1  3  7  1       -1 0.473163047172D-03 0.100000000000D+01
  </mgrwgt>
  </event>
  <event>
  8     66 0.27784906E-05 0.42453377E+03 0.75467711E-02 0.89402262E-01
       -1 -1    0    0    0  501 0.00000000E+00 0.00000000E+00 0.23122905E+03 0.23122927E+03 0.32000000E+00 0.0000E+00 0.9000E+01
        1 -1    0    0  501    0 0.00000000E+00 0.00000000E+00 -.85780157E+03 0.85780163E+03 0.32000000E+00 0.0000E+00 0.9000E+01
       25  2    1    2    0    0 0.11647063E+03 0.35374841E+03 -.48388769E+03 0.67991287E+03 0.29904993E+03 0.0000E+00 0.0000E+00
       23  2    3    3    0    0 0.18519713E+03 0.23227596E+03 -.31142307E+03 0.44004168E+03 0.91663802E+02 0.0000E+00 0.0000E+00
       23  1    1    2    0    0 -.11647063E+03 -.35374841E+03 -.14268483E+03 0.40911803E+03 0.91188000E+02 0.0000E+00 0.9000E+01
      -13  1    4    4    0    0 0.16595870E+03 0.18875315E+03 -.20816883E+03 0.32634998E+03 0.10565837E+00 0.0000E+00 0.9000E+01
       13  1    4    4    0    0 0.19238438E+02 0.43522817E+02 -.10325424E+03 0.11369170E+03 0.10565837E+00 0.0000E+00 0.9000E+01
       23  1    3    3    0    0 -.68726503E+02 0.12147245E+03 -.17246462E+03 0.23987118E+03 0.91188000E+02 0.0000E+00 0.9000E+01
#aMCatNLO 1  0  0  1  2 0.60217989D+03 0.00000000D+00  -5  7  0 0.00000000D+00 0.00000000D+00 0.00000000D+00 0.00000000D+00 0.00000000D+00
  <mgrwgt>
 0.4759082493D-03    5    2    0
 0.445363662581953D+03 0.000000000000000D+00 0.000000000000000D+00 0.445363662581953D+03
 0.445363662581953D+03 0.000000000000000D+00 0.000000000000000D+00 -.445363662581953D+03
 0.399830305472781D+03 -.116470631112914D+03 -.353748415028811D+03 0.113338752345437D+03
 0.252571759216070D+03 0.165958891294978D+03 0.188753339887401D+03 -.249462749722938D+02
 0.663696748749115D+02 0.192382429168867D+02 0.435226240268893D+02 -.462666721332576D+02
 0.171955585600145D+03 -.687265030989505D+02 0.121472451114521D+03 -.421258052398857D+02
 0.000000000000000D+00 0.000000000000000D+00 0.000000000000000D+00 0.000000000000000D+00
 0.913812288692593D+03 0.000000000000000D+00 0.000000000000000D+00 0.913812288692593D+03
 0.778553116041165D+03 0.000000000000000D+00 0.000000000000000D+00 -.778553116041165D+03
 0.713101862983563D+03 -.344428473010543D+03 -.607225139337161D+03 0.113338752345437D+03
 0.134968478903226D+03 0.865804360449149D+02 0.100488814087588D+03 -.249462749722938D+02
 0.495389198427771D+02 -.450289230960189D+01 0.171237726494738D+02 -.462666721332576D+02
 0.177572485949645D+03 -.140319064740550D+03 0.418654156263292D+02 -.421258052398857D+02
 0.617183657054547D+03 0.402669994015780D+03 0.447747136973770D+03 0.135259172651428D+03
0.254896099301D-04 0.000000000000D+00 0.000000000000D+00 0.313926195107D-06 0.000000000000D+00  7 -1 1 23 -13 13 23 21 0 0.35573721D-01 0.13196949D+00 0.18022892D+06 0.18022892D+06 0.18022892D+06 0.11013143D+01  1  2  2  1  7  1       -1 0.448364622949D-03 0.100000000000D+01
-.141213908422D-05 0.000000000000D+00 -.978868137000D-07 0.313926195107D-06 0.000000000000D+00  7 -1 1 23 -13 13 23 21 2 0.35573721D-01 0.13196949D+00 0.18022892D+06 0.18022892D+06 0.18022892D+06 0.11013143D+01  1  2  3  1  7  1       -1 -.301278500853D-04 0.100000000000D+01
0.164388220637D-05 0.000000000000D+00 0.000000000000D+00 0.313926195107D-06 0.000000000000D+00  7 -1 1 23 -13 13 23 21 2 0.35573721D-01 0.13196949D+00 0.18022892D+06 0.18022892D+06 0.18022892D+06 0.11013143D+01  1  2 15  1  7  1       -1 0.350720670683D-04 0.100000000000D+01
0.500830125556D-05 0.000000000000D+00 -.832571589584D-05 0.313926195107D-06 0.000000000000D+00  7 -1 1 23 -13 13 23 21 2 0.12052653D+00 0.13196949D+00 0.18022892D+06 0.18022892D+06 0.18022892D+06 0.11013143D+01  1  2  5  1  7  1       -1 0.963541176461D-05 0.100000000000D+01
0.101311608954D-05 0.000000000000D+00 -.118203251375D-05 0.313926195107D-06 0.000000000000D+00  7 21 1 23 -13 13 23 1 2 0.12052653D+00 0.13196949D+00 0.18022892D+06 0.18022892D+06 0.18022892D+06 0.11013143D+01  1  2  5  3  7  1       -1 0.129639976470D-04 0.100000000000D+01
  </mgrwgt>
  </event>
  <event>
  8     66 0.27784906E-05 0.37073522E+03 0.75467711E-02 0.95376424E-01
       -3 -1    0    0    0  501 0.00000000E+00 0.00000000E+00 0.50095010E+03 0.50095035E+03 0.50000000E+00 0.0000E+00 0.9000E+01
        3 -1    0    0  501    0 0.00000000E+00 0.00000000E+00 -.43637593E+03 0.43637622E+03 0.50000000E+00 0.0000E+00 0.9000E+01
       25  2    1    2    0    0 0.28081988E+03 -.15088514E+03 -.22767333E+03 0.49534243E+03 0.30315481E+03 0.0000E+00 0.0000E+00
       23  2    3    3    0    0 0.27637551E+03 -.13980728E+03 -.10393455E+03 0.34117041E+03 0.98312583E+02 0.0000E+00 0.0000E+00
       23  1    1    2    0    0 -.28081988E+03 0.15088514E+03 0.29224750E+03 0.44198415E+03 0.91188000E+02 0.0000E+00 0.9000E+01
      -11  1    4    4    0    0 0.48558005E+02 -.58526315E+02 0.43149389E+01 0.76169733E+02 0.51099893E-03 0.0000E+00 0.9000E+01
       11  1    4    4    0    0 0.22781750E+03 -.81280964E+02 -.10824948E+03 0.26500068E+03 0.51099893E-03 0.0000E+00 0.9000E+01
       23  1    3    3    0    0 0.44443765E+01 -.11077864E+02 -.12373879E+03 0.15417202E+03 0.91188000E+02 0.0000E+00 0.9000E+01
#aMCatNLO 1  0  0  1  2 0.17425838D+03 0.00000000D+00  -5  7  0 0.00000000D+00 0.00000000D+00 0.00000000D+00 0.00000000D+00 0.00000000D+00
  <mgrwgt>
 0.4900613009D-04    3    2    0
 0.467549804409337D+03 0.000000000000000D+00 0.000000000000000D+00 0.467549804409337D+03
 0.467549804409337D+03 0.000000000000000D+00 0.000000000000000D+00 -.467549804409337D+03
 0.422855320623492D+03 -.280819881878604D+03 0.150885143589292D+03 0.262421870699303D+03
 0.760531605552320D+02 0.485580051923295D+02 -.585263153879584D+02 -.934756273486748D+00
 0.273107051625143D+03 0.227817500166684D+03 -.812809639128187D+02 -.126807149524719D+03
 0.163084076014807D+03 0.444437651959090D+01 -.110778642885145D+02 -.134679964901097D+03
 0.000000000000000D+00 0.000000000000000D+00 0.000000000000000D+00 -.000000000000000D+00
 0.479870509510802D+03 0.000000000000000D+00 0.000000000000000D+00 0.479870509510802D+03
 0.225279768281893D+04 0.000000000000000D+00 0.000000000000000D+00 -.225279768281893D+04
 0.429043509894338D+03 -.316788944460046D+03 0.808863924589360D+02 0.262421870699303D+03
 0.829274629111024D+02 0.418454898209663D+02 -.715894218249097D+02 -.934756273486748D+00
 0.271877556273253D+03 0.204807038401518D+03 -.126061213129695D+03 -.126807149524719D+03
 0.167349274687057D+03 -.950725417247885D+01 -.382288839311752D+02 -.134679964901097D+03
 0.178147038856398D+04 0.796436704100406D+02 0.154993126426844D+03 -.177292717330813D+04
0.342951590611D-04 0.000000000000D+00 0.000000000000D+00 0.155610207836D-08 0.000000000000D+00  7 -3 3 23 -11 11 23 21 0 0.77069288D-01 0.67134800D-01 0.13744460D+06 0.13744460D+06 0.13744460D+06 0.11105603D+01  1  2  2  1  7  1       -3 0.483037263148D-04 0.100000000000D+01
-.178058149860D-05 0.000000000000D+00 -.131702440917D-06 0.155610207836D-08 0.000000000000D+00  7 -3 3 23 -11 11 23 21 2 0.77069288D-01 0.67134800D-01 0.13744460D+06 0.13744460D+06 0.13744460D+06 0.11105603D+01  1  2  3  1  7  1       -3 -.309309986031D-05 0.100000000000D+01
0.218492898850D-05 0.000000000000D+00 0.000000000000D+00 0.155610207836D-08 0.000000000000D+00  7 -3 3 23 -11 11 23 21 2 0.77069288D-01 0.67134800D-01 0.13744460D+06 0.13744460D+06 0.13744460D+06 0.11105603D+01  1  2 15  1  7  1       -3 0.379550363430D-05 0.100000000000D+01
  </mgrwgt>
  </event>
  <event>
  8     66 0.27784906E-05 0.23943082E+03 0.75467711E-02 0.10165747E+00
       -3 -1    0    0    0  501 0.00000000E+00 0.00000000E+00 0.24535370E+03 0.24535421E+03 0.50000000E+00 0.0000E+00 0.9000E+01
        3 -1    0    0  501    0 0.00000000E+00 0.00000000E+00 -.30938546E+03 0.30938586E+03 0.50000000E+00 0.0000E+00 0.9000E+01
       25  2    1    2    0    0 -.16746947E+02 -.15224877E+03 0.53939973E+02 0.34098149E+03 0.29983113E+03 0.0000E+00 0.0000E+00
       23  2    3    3    0    0 0.23533133E+02 -.18189762E+03 -.39379599E+02 0.20124841E+03 0.72867118E+02 0.0000E+00 0.0000E+00
       23  1    1    2    0    0 0.16746947E+02 0.15224877E+03 -.11797173E+03 0.21375858E+03 0.91188000E+02 0.0000E+00 0.9000E+01
      -13  1    4    4    0    0 0.46418160E+02 -.15212578E+03 -.38701954E+02 0.16369102E+03 0.10565837E+00 0.0000E+00 0.9000E+01
       13  1    4    4    0    0 -.22885027E+02 -.29771840E+02 -.67764497E+00 0.37557386E+02 0.10565837E+00 0.0000E+00 0.9000E+01
       23  1    3    3    0    0 -.40280080E+02 0.29648851E+02 0.93319572E+02 0.13973308E+03 0.91188000E+02 0.0000E+00 0.9000E+01
#aMCatNLO 1  0  0  1  2 0.81065852D+02 0.00000000D+00  -5  7  0 0.00000000D+00 0.00000000D+00 0.00000000D+00 0.00000000D+00 0.00000000D+00
  <mgrwgt>
 0.3614172599D-03    4    2    0
 0.275516095110385D+03 0.000000000000000D+00 0.000000000000000D+00 0.275516095110385D+03
 0.275516095110385D+03 0.000000000000000D+00 0.000000000000000D+00 -.275516095110385D+03
 0.201488247125778D+03 0.167469473592477D+02 0.152248771464431D+03 -.939261078057451D+02
 0.160295458027307D+03 0.464183030694121D+02 -.152126039507617D+03 -.199409906490909D+02
 0.377311047363485D+02 -.228851696902736D+02 -.297715828729458D+02 0.368213608004949D+01
 0.151517380331337D+03 -.402800807383862D+02 0.296488509161317D+02 0.110184962374786D+03
 0.000000000000000D+00 -.000000000000000D+00 0.000000000000000D+00 -.000000000000000D+00
 0.306963278857779D+03 0.000000000000000D+00 0.000000000000000D+00 0.306963278857779D+03
 0.336165121816823D+03 0.000000000000000D+00 0.000000000000000D+00 -.336165121816823D+03
 0.192213724072675D+03 0.398129038479798D+02 0.134995123384297D+03 -.939261078057451D+02
 0.180894494036732D+03 0.664077193396567D+02 -.167078393806152D+03 -.199409906490909D+02
 0.380647068463815D+02 -.184444936970255D+02 -.330932687030059D+02 0.368213608004949D+01
 0.145790401520004D+03 -.228616046787686D+02 0.166195947406203D+02 0.110184962374786D+03
 0.861650741988089D+02 -.649145248118424D+02 0.485569443842411D+02 -.292018429590438D+02
0.452972588249D-04 0.000000000000D+00 0.000000000000D+00 0.187571692432D-08 0.000000000000D+00  7 -3 3 23 -13 13 23 21 0 0.37746793D-01 0.47597833D-01 0.57327118D+05 0.57327118D+05 0.57327118D+05 0.11421078D+01  1  2  2  1  7  1       -3 0.588179542014D-03 0.100000000000D+01
-.245621667176D-05 0.000000000000D+00 -.173953400930D-06 0.187571692432D-08 0.000000000000D+00  7 -3 3 23 -13 13 23 21 2 0.37746793D-01 0.47597833D-01 0.57327118D+05 0.57327118D+05 0.57327118D+05 0.11421078D+01  1  2  3  1  7  1       -3 -.416024470175D-04 0.100000000000D+01
0.287965988619D-05 0.000000000000D+00 0.000000000000D+00 0.187571692432D-08 0.000000000000D+00  7 -3 3 23 -13 13 23 21 2 0.37746793D-01 0.47597833D-01 0.57327118D+05 0.57327118D+05 0.57327118D+05 0.11421078D+01  1  2 15  1  7  1       -3 0.487745642398D-04 0.100000000000D+01
-.138115330424D-04 0.000000000000D+00 0.000000000000D+00 0.187571692432D-08 0.000000000000D+00  7 -3 3 23 -13 13 23 21 2 0.37746793D-01 0.47597833D-01 0.57327118D+05 0.57327118D+05 0.57327118D+05 0.11421078D+01  1  2  4  1  7  1       -3 -.233934399287D-03 0.100000000000D+01
  </mgrwgt>
  </event>
  <event>
  8     66 0.27784906E-05 0.17405264E+03 0.75467711E-02 0.10232202E+00
       -3 -1    0    0    0  501 0.00000000E+00 0.00000000E+00 0.94657563E+03 0.94657576E+03 0.50000000E+00 0.0000E+00 0.9000E+01
        3 -1    0    0  501    0 0.00000000E+00 0.00000000E+00 -.61170461E+02 0.61172504E+02 0.50000000E+00 0.0000E+00 0.9000E+01
       25  2    1    2    0    0 -.59466233E+01 0.51789813E+02 0.83970832E+03 0.89320133E+03 0.29996833E+03 0.0000E+00 0.0000E+00
       23  2    3    3    0    0 -.94218647E+02 0.64679417E+02 0.63608393E+03 0.65291767E+03 0.92941588E+02 0.0000E+00 0.0000E+00
       23  1    1    2    0    0 0.59466233E+01 -.51789813E+02 0.45696842E+02 0.11454693E+03 0.91188000E+02 0.0000E+00 0.9000E+01
      -13  1    4    4    0    0 -.43729047E+02 0.20018171E+02 0.84480199E+02 0.97210451E+02 0.10565837E+00 0.0000E+00 0.9000E+01
       13  1    4    4    0    0 -.50489600E+02 0.44661246E+02 0.55160373E+03 0.55570722E+03 0.10565837E+00 0.0000E+00 0.9000E+01
       23  1    3    3    0    0 0.88272024E+02 -.12889604E+02 0.20362439E+03 0.24028366E+03 0.91188000E+02 0.0000E+00 0.9000E+01
#aMCatNLO 1  0  0  2  2 0.14543172D+03 0.00000000D+00  -5  7  0 0.00000000D+00 0.00000000D+00 0.00000000D+00 0.00000000D+00 0.00000000D+00
  <mgrwgt>
 0.1119829067D-03    3    2    0
 0.240631593234659D+03 0.000000000000000D+00 0.000000000000000D+00 0.240631593234659D+03
 0.240631593234659D+03 0.000000000000000D+00 0.000000000000000D+00 -.240631593234659D+03
 0.155786387812033D+03 0.594662344972859D+01 -.517898139108728D+02 -.115050424284944D+03
 0.481324896641842D+02 -.437290358190583D+02 0.200181387680335D+02 -.194476422017526D+01
 0.148817230659763D+03 -.504896132122898D+02 0.446612788020845D+02 0.132675307705228D+03
 0.128527078333339D+03 0.882720255816195D+02 -.128896036592452D+02 -.156801192001090D+02
 0.000000000000000D+00 0.000000000000000D+00 -.000000000000000D+00 0.000000000000000D+00
 0.478124669326086D+03 0.000000000000000D+00 0.000000000000000D+00 0.478124669326086D+03
 0.274697973900895D+03 0.000000000000000D+00 0.000000000000000D+00 -.274697973900895D+03
 0.153171503522226D+03 -.332464109686513D+02 -.283607858991478D+02 -.115050424284944D+03
 0.647282892791392D+02 -.580460560916534D+02 0.285766460127229D+02 -.194476422017526D+01
 0.175484240057728D+03 -.916290663878379D+02 0.692538477404302D+02 0.132675307705228D+03
 0.109373006401490D+03 0.580930708739695D+02 0.515093812841805D+01 -.156801192001090D+02
 0.250065603966398D+03 0.124828462574173D+03 -.746206459824233D+02 0.203426695425191D+03
0.118348710803D-04 0.000000000000D+00 0.000000000000D+00 0.109146686662D-06 0.000000000000D+00  7 -3 3 23 -13 13 23 21 0 0.14562719D+00 0.94110075D-02 0.30294321D+05 0.30294321D+05 0.30294321D+05 0.11669427D+01  1  2  2  2  7  2        3 0.109754484765D-03 0.100000000000D+01
-.573620361438D-06 0.000000000000D+00 -.454490211415D-07 0.109146686662D-06 0.000000000000D+00  7 -3 3 23 -13 13 23 21 2 0.14562719D+00 0.94110075D-02 0.30294321D+05 0.30294321D+05 0.30294321D+05 0.11669427D+01  1  2  3  2  7  2        3 -.724406585364D-05 0.100000000000D+01
0.750077649064D-06 0.000000000000D+00 0.000000000000D+00 0.109146686662D-06 0.000000000000D+00  7 -3 3 23 -13 13 23 21 2 0.14562719D+00 0.94110075D-02 0.30294321D+05 0.30294321D+05 0.30294321D+05 0.11669427D+01  1  2 15  2  7  2        3 0.947248781675D-05 0.100000000000D+01
  </mgrwgt>
  </event>
  <event>
  8     66 0.27784906E-05 0.24355162E+03 0.75467711E-02 0.10169988E+00
       -1 -1    0    0    0  501 0.00000000E+00 0.00000000E+00 0.49097618E+02 0.49098660E+02 0.32000000E+00 0.0000E+00 0.9000E+01
        1 -1    0    0  501    0 0.00000000E+00 0.00000000E+00 -.17458139E+04 0.17458139E+04 0.32000000E+00 0.0000E+00 0.9000E+01
       25  2    1    2    0    0 0.12715267E+03 -.15169546E+03 -.92690073E+03 0.99484350E+03 0.30230664E+03 0.0000E+00 0.0000E+00
       23  2    3    3    0    0 -.64716127E+02 -.35186800E+02 -.30431789E+03 0.32677722E+03 0.93529072E+02 0.0000E+00 0.0000E+00
       23  1    1    2    0    0 -.12715267E+03 0.15169546E+03 -.76981553E+03 0.80006907E+03 0.91188000E+02 0.0000E+00 0.9000E+01
      -13  1    4    4    0    0 -.86724710E+01 0.19270292E+02 -.12228189E+02 0.24415071E+02 0.10565837E+00 0.0000E+00 0.9000E+01
       13  1    4    4    0    0 -.56043656E+02 -.54457092E+02 -.29208970E+03 0.30236215E+03 0.10565837E+00 0.0000E+00 0.9000E+01
       23  1    3    3    0    0 0.19186880E+03 -.11650866E+03 -.62258284E+03 0.66806628E+03 0.91188000E+02 0.0000E+00 0.9000E+01
#aMCatNLO 1  0  0  1  1 0.62444322D+00 0.00000000D+00  -5  7  0 0.00000000D+00 0.00000000D+00 0.00000000D+00 0.00000000D+00 0.00000000D+00
  <mgrwgt>
 0.2283887158D-03    7    2    0
 0.292773401425497D+03 0.000000000000000D+00 0.000000000000000D+00 0.292773401425497D+03
 0.292773401425497D+03 0.000000000000000D+00 0.000000000000000D+00 -.292773401425497D+03
 0.221836254206731D+03 -.127152680516114D+03 0.151695473089801D+03 -.414337014771979D+02
 0.394078099659351D+02 -.867240543090764D+01 0.192703818190342D+02 0.332628509737494D+02
 0.804723161066643D+02 -.560437059530947D+02 -.544571868000246D+02 -.192174787222775D+02
 0.243830422571663D+03 0.191868791900116D+03 -.116508668108811D+03 0.273883292257261D+02
 0.000000000000000D+00 -.000000000000000D+00 0.000000000000000D+00 -.000000000000000D+00
 0.292995656446219D+03 0.000000000000000D+00 0.000000000000000D+00 0.292995656446219D+03
 0.293212502453073D+03 0.000000000000000D+00 0.000000000000000D+00 -.293212502453073D+03
 0.221668088401748D+03 -.127140963730481D+03 0.151459280980956D+03 -.414337014771979D+02
 0.393868489220191D+02 -.867032378245788D+01 0.192284190356733D+02 0.332628509737494D+02
 0.805274039839038D+02 -.560394525579728D+02 -.545429286062672D+02 -.192174787222775D+02
 0.243964794504939D+03 0.191881678790824D+03 -.116768447709453D+03 0.273883292257261D+02
 0.661023086682019D+00 -.309387199126703D-01 0.623676299091279D+00 -.216846006854159D+00
0.406734121403D-05 0.000000000000D+00 0.000000000000D+00 0.451399880382D-08 0.000000000000D+00  7 -1 1 23 -13 13 23 21 0 0.75535621D-02 0.26858683D+00 0.78258871D+05 0.78258871D+05 0.78258871D+05 0.11305650D+01  1  2  2  1  7  1       -1 0.204917204446D-03 0.100000000000D+01
-.225394368225D-06 0.000000000000D+00 -.156196612174D-07 0.451399880382D-08 0.000000000000D+00  7 -1 1 23 -13 13 23 21 2 0.75535621D-02 0.26858683D+00 0.78258871D+05 0.78258871D+05 0.78258871D+05 0.11305650D+01  1  2  3  1  7  1       -1 -.145144950274D-04 0.100000000000D+01
0.266100922352D-06 0.000000000000D+00 0.000000000000D+00 0.451399880382D-08 0.000000000000D+00  7 -1 1 23 -13 13 23 21 2 0.75535621D-02 0.26858683D+00 0.78258871D+05 0.78258871D+05 0.78258871D+05 0.11305650D+01  1  2 15  1  7  1       -1 0.171358341589D-04 0.100000000000D+01
-.121842600133D-03 0.000000000000D+00 0.000000000000D+00 0.451399880382D-08 0.000000000000D+00  7 -1 1 23 -13 13 23 21 2 0.75535621D-02 0.26858683D+00 0.78258871D+05 0.78258871D+05 0.78258871D+05 0.11305650D+01  1  2  4  1  7  1       -1 -.784617569498D-02 0.100000000000D+01
0.121842847006D-03 0.000000000000D+00 0.000000000000D+00 0.451399880382D-08 0.789051704259D-07  7 -1 1 23 -13 13 23 21 2 0.75592963D-02 0.26898966D+00 0.78428519D+05 0.78428519D+05 0.78428519D+05 0.11304859D+01  1  2 11  1  7  1       -1 0.780508964144D-02 0.100000000000D+01
0.202312852931D-14 0.000000000000D+00 0.000000000000D+00 0.451399880382D-08 0.000000000000D+00  7 21 1 23 -13 13 23 1 2 0.75649543D-02 0.26858683D+00 0.78428519D+05 0.78428519D+05 0.78428519D+05 0.11304859D+01  1  2 12  3  7  1       -1 0.191984977090D-11 0.100000000000D+01
0.654427240149D-07 0.000000000000D+00 0.000000000000D+00 0.451399880382D-08 0.112253967605D-10  7 21 1 23 -13 13 23 1 2 0.75592963D-02 0.26898966D+00 0.78428519D+05 0.78428519D+05 0.78428519D+05 0.11304859D+01  1  2 11  3  7  1       -1 0.619362238028D-04 0.100000000000D+01
  </mgrwgt>
  </event>
  <event>
  8     66 0.27784906E-05 0.32137427E+03 0.75467711E-02 0.94403742E-01
       -1 -1    0    0    0  501 0.00000000E+00 0.00000000E+00 0.12386214E+03 0.12386256E+03 0.32000000E+00 0.0000E+00 0.9000E+01
        1 -1    0    0  501    0 0.00000000E+00 0.00000000E+00 -.18555301E+04 0.18555301E+04 0.32000000E+00 0.0000E+00 0.9000E+01
       25  2    1    2    0    0 0.25645113E+03 -.11598818E+03 -.16056515E+04 0.16578093E+04 0.30165334E+03 0.0000E+00 0.0000E+00
       23  2    3    3    0    0 0.18970266E+03 -.48353068E+02 -.50316089E+03 0.54748029E+03 0.90767148E+02 0.0000E+00 0.0000E+00
       23  1    1    2    0    0 -.25645113E+03 0.11598818E+03 -.12601650E+03 0.32158335E+03 0.91188000E+02 0.0000E+00 0.9000E+01
      -11  1    4    4    0    0 0.19952389E+03 -.43423831E+02 -.46709684E+03 0.50977924E+03 0.51099893E-03 0.0000E+00 0.9000E+01
       11  1    4    4    0    0 -.98212364E+01 -.49292374E+01 -.36064044E+02 0.37701052E+02 0.51099893E-03 0.0000E+00 0.9000E+01
       23  1    3    3    0    0 0.66748474E+02 -.67635116E+02 -.11024906E+04 0.11103290E+04 0.91188000E+02 0.0000E+00 0.9000E+01
#aMCatNLO 1  0  0  2  2 0.31413031D+03 0.00000000D+00  -5  7  0 0.00000000D+00 0.00000000D+00 0.00000000D+00 0.00000000D+00 0.00000000D+00
  <mgrwgt>
 0.3747675076D-03    4    2    0
 0.479406266261034D+03 0.000000000000000D+00 0.000000000000000D+00 0.479406266261034D+03
 0.479406266261034D+03 0.000000000000000D+00 0.000000000000000D+00 -.479406266261034D+03
 0.436290702378934D+03 -.256451128907048D+03 0.115988183535144D+03 0.320646043794121D+03
 0.208796457307484D+03 0.199523891644457D+03 -.434238305645380D+02 -.435952771101332D+02
 0.126972030131956D+02 -.982123637749104D+01 -.492923743142217D+01 -.636120261589093D+01
 0.301028169822454D+03 0.667484736400827D+02 -.676351155391838D+02 -.270689564068097D+03
 0.000000000000000D+00 0.000000000000000D+00 -.000000000000000D+00 0.000000000000000D+00
 0.733987207980194D+03 0.000000000000000D+00 0.000000000000000D+00 0.733987207980194D+03
 0.611968488505339D+03 0.000000000000000D+00 0.000000000000000D+00 -.611968488505339D+03
 0.550492778745233D+03 -.389999245061605D+03 0.199533835619940D+03 0.320646043794121D+03
 0.156753410381925D+03 0.150051543227302D+03 -.124746885796819D+02 -.435952771101332D+02
 0.152326569711244D+02 -.136011741822030D+02 -.256456634636431D+01 -.636120261589093D+01
 0.286480679320297D+03 -.127630925018247D+02 -.178938999167846D+02 -.270689564068097D+03
 0.336996171066954D+03 0.266311968518331D+03 -.166600680777109D+03 0.122018719474855D+03
0.464082358760D-04 0.000000000000D+00 0.000000000000D+00 0.248143234085D-06 0.000000000000D+00  7 -1 1 23 -11 11 23 21 0 0.19055748D-01 0.28546620D+00 0.10328142D+06 0.10328142D+06 0.10328142D+06 0.11205732D+01  1  2  2  2  7  2        1 0.468830094896D-03 0.100000000000D+01
-.207681946114D-05 0.000000000000D+00 -.178219845333D-06 0.248143234085D-06 0.000000000000D+00  7 -1 1 23 -11 11 23 21 2 0.19055748D-01 0.28546620D+00 0.10328142D+06 0.10328142D+06 0.10328142D+06 0.11205732D+01  1  2  3  2  7  2        1 -.263450853051D-04 0.100000000000D+01
0.286616032080D-05 0.000000000000D+00 0.000000000000D+00 0.248143234085D-06 0.000000000000D+00  7 -1 1 23 -11 11 23 21 2 0.19055748D-01 0.28546620D+00 0.10328142D+06 0.10328142D+06 0.10328142D+06 0.11205732D+01  1  2 15  2  7  2        1 0.363581137227D-04 0.100000000000D+01
-.820442453390D-05 0.000000000000D+00 0.000000000000D+00 0.248143234085D-06 0.000000000000D+00  7 -1 1 23 -11 11 23 21 2 0.19055748D-01 0.28546620D+00 0.10328142D+06 0.10328142D+06 0.10328142D+06 0.11205732D+01  1  2  4  2  7  2        1 -.104075615753D-03 0.100000000000D+01
  </mgrwgt>
  </event>
  <event>
  8     66 0.27784906E-05 0.47535269E+03 0.75467711E-02 0.93338019E-01
       -1 -1    0    0    0  501 0.00000000E+00 0.00000000E+00 0.14865693E+03 0.14865728E+03 0.32000000E+00 0.0000E+00 0.9000E+01
        1 -1    0    0  501    0 0.00000000E+00 0.00000000E+00 -.22868710E+04 0.22868710E+04 0.32000000E+00 0.0000E+00 0.9000E+01
       25  2    1    2    0    0 0.34968608E+03 0.26290492E+03 -.47142348E+03 0.70986742E+03 0.30045350E+03 0.0000E+00 0.0000E+00
       23  2    3    3    0    0 0.32163950E+03 0.24218159E+03 -.44839520E+03 0.60955979E+03 0.91656954E+02 0.0000E+00 0.0000E+00
       23  1    1    2    0    0 -.34968608E+03 -.26290492E+03 -.16667905E+04 0.17256608E+04 0.91188000E+02 0.0000E+00 0.9000E+01
      -11  1    4    4    0    0 0.46531859E+02 0.13528665E+02 -.22683073E+02 0.53504770E+02 0.51099893E-03 0.0000E+00 0.9000E+01
       11  1    4    4    0    0 0.27510764E+03 0.22865293E+03 -.42571213E+03 0.55605502E+03 0.51099893E-03 0.0000E+00 0.9000E+01
       23  1    3    3    0    0 0.28046588E+02 0.20723330E+02 -.23028281E+02 0.10030763E+03 0.91188000E+02 0.0000E+00 0.9000E+01
#aMCatNLO 1  0  0  2  2 0.15672727D+03 0.00000000D+00  -5  7  0 0.00000000D+00 0.00000000D+00 0.00000000D+00 0.00000000D+00 0.00000000D+00
  <mgrwgt>
 0.3446087620D-03    4    2    0
 0.583060606503653D+03 0.000000000000000D+00 0.000000000000000D+00 0.583060606503653D+03
 0.583060606503653D+03 0.000000000000000D+00 0.000000000000000D+00 -.583060606503653D+03
 0.547919725676726D+03 -.349686083686710D+03 -.262904921441327D+03 -.317019588668333D+03
 0.701566141605866D+02 0.465318588146649D+02 0.135286652441522D+02 0.507317636441035D+02
 0.380770088819198D+03 0.275107636503133D+03 0.228652925896016D+03 0.130458761132517D+03
 0.167274784350795D+03 0.280465883689125D+02 0.207233303011592D+02 0.135829063891712D+03
 0.000000000000000D+00 -.000000000000000D+00 0.000000000000000D+00 0.000000000000000D+00
 0.705555626115194D+03 0.000000000000000D+00 0.000000000000000D+00 0.705555626115194D+03
 0.640676030358182D+03 0.000000000000000D+00 0.000000000000000D+00 -.640676030358182D+03
 0.562781759912874D+03 -.315711062682697D+03 -.328988089825385D+03 -.317019588668333D+03
 0.720298585483726D+02 0.508811718024017D+02 0.506902713268106D+01 0.507317636441035D+02
 0.373769255663519D+03 0.298188086479795D+03 0.183760260134091D+03 0.130458761132517D+03
 0.168025313650516D+03 0.383030146184867D+02 0.774052189183340D+00 0.135829063891712D+03
 0.169625468698093D+03 -.716612102179862D+02 0.139384750369430D+03 0.648795957570116D+02
0.142291274521D-03 0.000000000000D+00 0.000000000000D+00 0.194471566804D-05 0.000000000000D+00  7 -1 1 23 -11 11 23 21 0 0.22870326D-01 0.35182633D+00 0.22596018D+06 0.22596018D+06 0.22596018D+06 0.10937778D+01  1  2  2  2  7  2        1 0.535313285304D-03 0.100000000000D+01
-.750416366944D-05 0.000000000000D+00 -.546435960314D-06 0.194471566804D-05 0.000000000000D+00  7 -1 1 23 -11 11 23 21 2 0.22870326D-01 0.35182633D+00 0.22596018D+06 0.22596018D+06 0.22596018D+06 0.10937778D+01  1  2  3  2  7  2        1 -.337746005007D-04 0.100000000000D+01
0.896317918586D-05 0.000000000000D+00 0.000000000000D+00 0.194471566804D-05 0.000000000000D+00  7 -1 1 23 -11 11 23 21 2 0.22870326D-01 0.35182633D+00 0.22596018D+06 0.22596018D+06 0.22596018D+06 0.10937778D+01  1  2 15  2  7  2        1 0.403413104450D-04 0.100000000000D+01
-.438304406078D-04 0.000000000000D+00 0.000000000000D+00 0.194471566804D-05 0.000000000000D+00  7 -1 1 23 -11 11 23 21 2 0.22870326D-01 0.35182633D+00 0.22596018D+06 0.22596018D+06 0.22596018D+06 0.10937778D+01  1  2  4  2  7  2        1 -.197271233212D-03 0.100000000000D+01
  </mgrwgt>
  </event>
  <event>
  8     66 0.27784906E-05 0.21343321E+03 0.75467711E-02 0.97614813E-01
       -1 -1    0    0    0  501 0.00000000E+00 0.00000000E+00 0.14150843E+03 0.14150879E+03 0.32000000E+00 0.0000E+00 0.9000E+01
        1 -1    0    0  501    0 0.00000000E+00 0.00000000E+00 -.67577104E+03 0.67577112E+03 0.32000000E+00 0.0000E+00 0.9000E+01
       25  2    1    2    0    0 -.16362539E+02 0.16261056E+03 -.52859859E+03 0.63004408E+03 0.30137874E+03 0.0000E+00 0.0000E+00
       23  2    3    3    0    0 0.17799497E+01 0.14278618E+03 -.50445050E+03 0.53195974E+03 0.90109907E+02 0.0000E+00 0.0000E+00
       23  1    1    2    0    0 0.16362539E+02 -.16261056E+03 -.56640215E+01 0.18723583E+03 0.91188000E+02 0.0000E+00 0.9000E+01
      -13  1    4    4    0    0 0.87499020E+01 0.12806057E+03 -.49826499E+03 0.51453287E+03 0.10565837E+00 0.0000E+00 0.9000E+01
       13  1    4    4    0    0 -.69699523E+01 0.14725613E+02 -.61855138E+01 0.17426866E+02 0.10565837E+00 0.0000E+00 0.9000E+01
       23  1    3    3    0    0 -.18142488E+02 0.19824377E+02 -.24148088E+02 0.98084338E+02 0.91188000E+02 0.0000E+00 0.9000E+01
#aMCatNLO 1  0  0  2  2 0.29450541D+03 0.00000000D+00  -5  7  0 0.00000000D+00 0.00000000D+00 0.00000000D+00 0.00000000D+00 0.00000000D+00
  <mgrwgt>
 0.4161915700D-03    5    2    0
 0.309236930849198D+03 0.000000000000000D+00 0.000000000000000D+00 0.309236930849198D+03
 0.309236930849198D+03 0.000000000000000D+00 0.000000000000000D+00 -.309236930849198D+03
 0.242529269705143D+03 0.163625389337716D+02 -.162610558087332D+03 0.154257152307039D+03
 0.249506461379931D+03 0.874992306990318D+01 0.128060721063771D+03 -.213956455469875D+03
 0.176850508654350D+02 -.696997400387857D+01 0.147254573673570D+02 0.688050810772233D+01
 0.108753079747887D+03 -.181424879997962D+02 0.198243796562036D+02 0.528187950551138D+02
 0.000000000000000D+00 0.000000000000000D+00 0.000000000000000D+00 -.000000000000000D+00
 0.421322457220835D+03 0.000000000000000D+00 0.000000000000000D+00 0.421322457220835D+03
 0.617621221979797D+03 0.000000000000000D+00 0.000000000000000D+00 -.617621221979797D+03
 0.323353650934187D+03 -.650711093836284D+02 -.261175829498395D+03 0.154257152307039D+03
 0.226685318820568D+03 -.597766794235472D+02 0.451178183054555D+02 -.213956455469875D+03
 0.162959771019132D+02 -.118600298441050D+02 0.880665486905124D+01 0.688050810772233D+01
 0.118678451658030D+03 -.508711296839677D+02 -.197895577906654D+02 0.528187950551138D+02
 0.353930280685934D+03 0.187578948335248D+03 0.227040914114554D+03 -.196298764758962D+03
0.702615320879D-05 0.000000000000D+00 0.000000000000D+00 0.674121962615D-07 0.000000000000D+00  7 -1 1 23 -13 13 23 21 0 0.21770562D-01 0.10396481D+00 0.45553737D+05 0.45553737D+05 0.45553737D+05 0.11508701D+01  1  2  2  2  7  2        1 0.411497766574D-03 0.100000000000D+01
-.325093715696D-06 0.000000000000D+00 -.269822783504D-07 0.674121962615D-07 0.000000000000D+00  7 -1 1 23 -13 13 23 21 2 0.21770562D-01 0.10396481D+00 0.45553737D+05 0.45553737D+05 0.45553737D+05 0.11508701D+01  1  2  3  2  7  2        1 -.252180232621D-04 0.100000000000D+01
0.452004991861D-06 0.000000000000D+00 0.000000000000D+00 0.674121962615D-07 0.000000000000D+00  7 -1 1 23 -13 13 23 21 2 0.21770562D-01 0.10396481D+00 0.45553737D+05 0.45553737D+05 0.45553737D+05 0.11508701D+01  1  2 15  2  7  2        1 0.350627276044D-04 0.100000000000D+01
-.395965903757D-06 0.000000000000D+00 -.214404508693D-05 0.674121962615D-07 0.000000000000D+00  7 -1 1 23 -13 13 23 21 2 0.21770562D-01 0.24814047D+00 0.45553737D+05 0.45553737D+05 0.45553737D+05 0.11508701D+01  1  2  5  2  7  2        1 -.634055564530D-05 0.100000000000D+01
0.972602548233D-07 0.000000000000D+00 -.203915022213D-06 0.674121962615D-07 0.000000000000D+00  7 -1 21 23 -13 13 23 -1 2 0.21770562D-01 0.24814047D+00 0.45553737D+05 0.45553737D+05 0.45553737D+05 0.11508701D+01  1  2  5  4  7  2        1 0.118965470260D-05 0.100000000000D+01
  </mgrwgt>
  </event>
  <event>
  8     66 0.27784906E-05 0.32085315E+03 0.75467711E-02 0.92123175E-01
       -1 -1    0    0    0  501 0.00000000E+00 0.00000000E+00 0.11831631E+04 0.11831632E+04 0.32000000E+00 0.0000E+00 0.9000E+01
        1 -1    0    0  501    0 0.00000000E+00 0.00000000E+00 -.32277883E+03 0.32277899E+03 0.32000000E+00 0.0000E+00 0.9000E+01
       25  2    1    2    0    0 0.23134429E+03 -.10215267E+03 0.10862956E+04 0.11547919E+04 0.29925041E+03 0.0000E+00 0.0000E+00
       23  2    3    3    0    0 0.41396797E+02 -.12588320E+03 0.29989585E+03 0.34030861E+03 0.91170998E+02 0.0000E+00 0.0000E+00
       23  1    1    2    0    0 -.23134429E+03 0.10215267E+03 -.22591131E+03 0.35115028E+03 0.91188000E+02 0.0000E+00 0.9000E+01
      -13  1    4    4    0    0 -.70692594E+01 -.10942910E+03 0.20610919E+03 0.23346459E+03 0.10565837E+00 0.0000E+00 0.9000E+01
       13  1    4    4    0    0 0.48466056E+02 -.16454097E+02 0.93786659E+02 0.10684402E+03 0.10565837E+00 0.0000E+00 0.9000E+01
       23  1    3    3    0    0 0.18994749E+03 0.23730531E+02 0.78639976E+03 0.81448329E+03 0.91188000E+02 0.0000E+00 0.9000E+01
#aMCatNLO 1  0  0  1  1 0.46051715D+03 0.00000000D+00  -5  7  0 0.00000000D+00 0.00000000D+00 0.00000000D+00 0.00000000D+00 0.00000000D+00
  <mgrwgt>
 0.3670691428D-03    6    2    0
 0.617980719480998D+03 0.000000000000000D+00 0.000000000000000D+00 0.617980719480998D+03
 0.617980719480998D+03 0.000000000000000D+00 0.000000000000000D+00 -.617980719480998D+03
 0.585117414483420D+03 -.231344288005018D+03 0.102152665899396D+03 -.519703560354228D+03
 0.140984316052801D+03 -.706933401711932D+01 -.109429224882048D+03 0.886106462629894D+02
 0.648954058430902D+02 0.484661307258065D+02 -.164539721464822D+02 0.398962989838808D+02
 0.444964302582684D+03 0.189947491296331D+03 0.237305311291347D+02 0.391196615107357D+03
 0.000000000000000D+00 -.000000000000000D+00 -.000000000000000D+00 0.000000000000000D+00
 0.905148084623798D+03 0.000000000000000D+00 0.000000000000000D+00 0.905148084623798D+03
 0.875303193272525D+03 0.000000000000000D+00 0.000000000000000D+00 -.875303193272525D+03
 0.602669039752354D+03 -.102002525654034D+03 0.272760727098611D+03 -.519703560354228D+03
 0.116370050595731D+03 0.209547836282188D+02 -.724640537618679D+02 0.886106462629894D+02
 0.752779854384498D+02 0.637300473990552D+02 0.367987466830510D+01 0.398962989838808D+02
 0.524650978080474D+03 0.295531915799729D+03 0.163001510818416D+03 0.391196615107357D+03
 0.461483224029313D+03 -.278214221172969D+03 -.366978058823464D+03 0.298448913512727D+02
0.142840674676D-03 0.000000000000D+00 0.000000000000D+00 0.180814655639D-05 0.000000000000D+00  7 -1 1 23 -13 13 23 21 0 0.18202511D+00 0.49658298D-01 0.10294674D+06 0.10294674D+06 0.10294674D+06 0.11206885D+01  1  2  2  1  7  1       -1 0.290713692776D-03 0.100000000000D+01
-.379014510733D-05 0.000000000000D+00 -.548545801569D-06 0.180814655639D-05 0.000000000000D+00  7 -1 1 23 -13 13 23 21 2 0.18202511D+00 0.49658298D-01 0.10294674D+06 0.10294674D+06 0.10294674D+06 0.11206885D+01  1  2  3  1  7  1       -1 -.968811453288D-05 0.100000000000D+01
0.829032943899D-05 0.000000000000D+00 0.000000000000D+00 0.180814655639D-05 0.000000000000D+00  7 -1 1 23 -13 13 23 21 2 0.18202511D+00 0.49658298D-01 0.10294674D+06 0.10294674D+06 0.10294674D+06 0.11206885D+01  1  2 15  1  7  1       -1 0.211911836739D-04 0.100000000000D+01
0.146254515952D-05 0.000000000000D+00 -.403919117441D-04 0.180814655639D-05 0.000000000000D+00  7 -1 1 23 -13 13 23 21 2 0.32482129D+00 0.49658298D-01 0.10294674D+06 0.10294674D+06 0.10294674D+06 0.11206885D+01  1  2  5  1  7  1       -1 0.236959674338D-06 0.100000000000D+01
0.237712594256D-04 0.000000000000D+00 0.344512790754D-04 0.180814655639D-05 0.000000000000D+00  7 -1 1 23 -13 13 23 21 2 0.18202511D+00 0.49658298D-01 0.10294674D+06 0.10294674D+06 0.10294674D+06 0.11206885D+01  1  2  6  1  7  1       -1 0.607624978422D-04 0.100000000000D+01
0.221178040611D-05 0.000000000000D+00 -.257069514595D-05 0.180814655639D-05 0.000000000000D+00  7 21 1 23 -13 13 23 1 2 0.32482129D+00 0.49658298D-01 0.10294674D+06 0.10294674D+06 0.10294674D+06 0.11206885D+01  1  2  5  3  7  1       -1 0.385292333473D-05 0.100000000000D+01
  </mgrwgt>
  </event>
  <event>
  8     66 0.27784906E-05 0.20167341E+03 0.75467711E-02 0.94996811E-01
       -1 -1    0    0    0  501 0.00000000E+00 0.00000000E+00 0.10099411E+04 0.10099412E+04 0.32000000E+00 0.0000E+00 0.9000E+01
        1 -1    0    0  501    0 0.00000000E+00 0.00000000E+00 -.11241693E+04 0.11241693E+04 0.32000000E+00 0.0000E+00 0.9000E+01
       25  2    1    2    0    0 -.26376771E+03 -.26129189E+03 -.10336276E+04 0.11383909E+04 0.29950112E+03 0.0000E+00 0.0000E+00
       23  2    3    3    0    0 -.42264023E+02 -.11759299E+02 -.97428476E+02 0.14033554E+03 0.90979274E+02 0.0000E+00 0.0000E+00
       23  1    1    2    0    0 0.26376771E+03 0.26129189E+03 0.91939949E+03 0.99571960E+03 0.91188000E+02 0.0000E+00 0.9000E+01
      -11  1    4    4    0    0 -.54025258E+01 -.43706808E+02 -.18973685E+02 0.47952821E+02 0.51099893E-03 0.0000E+00 0.9000E+01
       11  1    4    4    0    0 -.36861498E+02 0.31947509E+02 -.78454791E+02 0.92382723E+02 0.51099893E-03 0.0000E+00 0.9000E+01
       23  1    3    3    0    0 -.22150369E+03 -.24953259E+03 -.93619913E+03 0.99805534E+03 0.91188000E+02 0.0000E+00 0.9000E+01
#aMCatNLO 1  0  0  2  1 0.13737898D+03 0.00000000D+00  -5  7  0 0.00000000D+00 0.00000000D+00 0.00000000D+00 0.00000000D+00 0.00000000D+00
  <mgrwgt>
 0.3153050874D-03    9    2    0
 0.106552563128193D+04 0.000000000000000D+00 0.000000000000000D+00 0.106552563128193D+04
 0.106552563128193D+04 0.000000000000000D+00 0.000000000000000D+00 -.106552563128193D+04
 0.104643043889829D+04 0.263767710668225D+03 0.261291886128518D+03 0.974091657474347D+03
 0.470046364017514D+02 -.540252580515701D+01 -.437068078694808D+02 -.164305661511023D+02
 0.883100272692204D+02 -.368614975657534D+02 0.319475089098882D+02 -.736155390386636D+02
 0.949306159994589D+03 -.221503687297314D+03 -.249532587168925D+03 -.884045552284581D+03
 0.000000000000000D+00 -.000000000000000D+00 -.000000000000000D+00 -.000000000000000D+00
 0.110130524918870D+04 0.000000000000000D+00 0.000000000000000D+00 0.110130524918870D+04
 0.120829578517493D+04 0.000000000000000D+00 0.000000000000000D+00 -.120829578517493D+04
 0.106686972998904D+04 0.331606667547964D+03 0.266605008016554D+03 0.974091657474347D+03
 0.465349954488033D+02 -.239981414825238D+01 -.434716366085777D+02 -.164305661511023D+02
 0.862851081956302D+02 -.312568267099098D+02 0.323864646481407D+02 -.736155390386636D+02
 0.935784930200753D+03 -.160990460134949D+03 -.244793213709483D+03 -.884045552284581D+03
 0.174126270529410D+03 -.136959566554853D+03 -.107266223466347D+02 -.106990535986230D+03
0.550885542916D-03 0.000000000000D+00 0.000000000000D+00 0.657507223538D-05 0.000000000000D+00  7 -1 1 23 -11 11 23 21 0 0.15537557D+00 0.17294912D+00 0.16852196D+06 0.16852196D+06 0.16852196D+06 0.11035836D+01  1  2  2  2  7  2        1 0.277968925901D-03 0.100000000000D+01
0.324821164636D-05 0.000000000000D+00 -.211554553629D-05 0.657507223538D-05 0.000000000000D+00  7 -1 1 23 -11 11 23 21 2 0.15537557D+00 0.17294912D+00 0.16852196D+06 0.16852196D+06 0.16852196D+06 0.11035836D+01  1  2  3  2  7  2        1 0.199613373706D-05 0.100000000000D+01
0.325110307075D-04 0.000000000000D+00 0.000000000000D+00 0.657507223538D-05 0.000000000000D+00  7 -1 1 23 -11 11 23 21 2 0.15537557D+00 0.17294912D+00 0.16852196D+06 0.16852196D+06 0.16852196D+06 0.11035836D+01  1  2 15  2  7  2        1 0.199791061320D-04 0.100000000000D+01
0.114519294442D-02 0.000000000000D+00 0.000000000000D+00 0.657507223538D-05 0.000000000000D+00  7 -1 1 23 -11 11 23 21 2 0.15537557D+00 0.19875838D+00 0.23422093D+06 0.23422093D+06 0.23422093D+06 0.10925956D+01  1  2 12  2  7  2        1 0.512581524531D-03 0.100000000000D+01
-.129421166812D-02 0.000000000000D+00 0.000000000000D+00 0.657507223538D-05 0.000000000000D+00  7 -1 1 23 -11 11 23 21 2 0.15537557D+00 0.17294912D+00 0.16852196D+06 0.16852196D+06 0.16852196D+06 0.11035836D+01  1  2  4  2  7  2        1 -.795335974034D-03 0.100000000000D+01
-.179948602153D-02 0.000000000000D+00 -.487874696690D-03 0.657507223538D-05 0.000000000000D+00  7 -1 1 23 -11 11 23 21 2 0.15537557D+00 0.19949496D+00 0.16852196D+06 0.16852196D+06 0.16852196D+06 0.11035836D+01  1  2  5  2  7  2        1 -.836121034204D-03 0.100000000000D+01
0.185513748434D-02 0.000000000000D+00 0.482942862607D-03 0.657507223538D-05 0.000000000000D+00  7 -1 1 23 -11 11 23 21 2 0.15537557D+00 0.17294912D+00 0.16852196D+06 0.16852196D+06 0.16852196D+06 0.11035836D+01  1  2  6  2  7  2        1 0.114004348317D-02 0.100000000000D+01
0.245640971607D-04 0.000000000000D+00 0.000000000000D+00 0.657507223538D-05 0.000000000000D+00  7 -1 21 23 -11 11 23 -1 2 0.15537557D+00 0.19875838D+00 0.23422093D+06 0.23422093D+06 0.23422093D+06 0.10925956D+01  1  2 12  4  7  2        1 0.105675332894D-04 0.100000000000D+01
-.363381452005D-04 0.000000000000D+00 -.106920475351D-04 0.657507223538D-05 0.000000000000D+00  7 -1 21 23 -11 11 23 -1 2 0.15537557D+00 0.19949496D+00 0.16852196D+06 0.16852196D+06 0.16852196D+06 0.11035836D+01  1  2  5  4  7  2        1 -.163746110860D-04 0.100000000000D+01
  </mgrwgt>
  </event>
  <event>
  8     66 0.27784906E-05 0.20958397E+03 0.75467711E-02 0.95859102E-01
       -3 -1    0    0    0  501 0.00000000E+00 0.00000000E+00 0.51313909E+03 0.51313934E+03 0.50000000E+00 0.0000E+00 0.9000E+01
        3 -1    0    0  501    0 0.00000000E+00 0.00000000E+00 -.56080086E+03 0.56080108E+03 0.50000000E+00 0.0000E+00 0.9000E+01
       25  2    1    2    0    0 -.27140621E+03 -.20879189E+03 -.37590981E+03 0.59091100E+03 0.30101868E+03 0.0000E+00 0.0000E+00
       23  2    3    3    0    0 -.84454347E+02 -.18699396E+03 -.10369736E+03 0.24763121E+03 0.92026061E+02 0.0000E+00 0.0000E+00
       23  1    1    2    0    0 0.27140621E+03 0.20879189E+03 0.32824804E+03 0.48302941E+03 0.91188000E+02 0.0000E+00 0.9000E+01
      -11  1    4    4    0    0 -.83269903E+02 -.75679666E+02 -.63964071E+02 0.12943219E+03 0.51099893E-03 0.0000E+00 0.9000E+01
       11  1    4    4    0    0 -.11844437E+01 -.11131429E+03 -.39733291E+02 0.11819902E+03 0.51099893E-03 0.0000E+00 0.9000E+01
       23  1    3    3    0    0 -.18695186E+03 -.21797936E+02 -.27221245E+03 0.34327979E+03 0.91188000E+02 0.0000E+00 0.9000E+01
#aMCatNLO 1  0  0  2  1 0.10805204D+03 0.00000000D+00  -5  7  0 0.00000000D+00 0.00000000D+00 0.00000000D+00 0.00000000D+00 0.00000000D+00
  <mgrwgt>
 0.3601698046D-04    9    2    0
 0.536441136232534D+03 0.000000000000000D+00 0.000000000000000D+00 0.536441136232534D+03
 0.536441136232534D+03 0.000000000000000D+00 0.000000000000000D+00 -.536441136232534D+03
 0.498087910746484D+03 0.271406206558686D+03 0.208791893538245D+03 0.350029901182649D+03
 0.126718298593423D+03 -.832699034047485D+02 -.756796664318148D+02 -.582772552042829D+02
 0.116550483800446D+03 -.118444366245850D+01 -.111314291306647D+03 -.345216007483362D+02
 0.331525579324714D+03 -.186951859491479D+03 -.217979357997832D+02 -.257231045230030D+03
 0.000000000000000D+00 0.000000000000000D+00 0.000000000000000D+00 -.000000000000000D+00
 0.572081178904890D+03 0.000000000000000D+00 0.000000000000000D+00 0.572081178904890D+03
 0.627801400985292D+03 0.000000000000000D+00 0.000000000000000D+00 -.627801400985292D+03
 0.466612771733140D+03 0.228576828275601D+03 0.186128797487157D+03 0.350029901182649D+03
 0.138336597523632D+03 -.950374253084360D+02 -.819064315607374D+02 -.582772552042829D+02
 0.122488807917574D+03 -.117969625871853D+02 -.116929888482618D+03 -.345216007483362D+02
 0.350871432580081D+03 -.217247929861197D+03 -.378290522969984D+02 -.257231045230030D+03
 0.121572970135755D+03 0.955054894812177D+02 0.505365748531968D+02 -.557202220804020D+02
0.335407556119D-04 0.000000000000D+00 0.000000000000D+00 0.411580308834D-06 0.000000000000D+00  7 -3 3 23 -11 11 23 21 0 0.78944511D-01 0.86277091D-01 0.15497879D+06 0.15497879D+06 0.15497879D+06 0.11064346D+01  1  2  2  2  7  2        3 0.255825591168D-04 0.100000000000D+01
-.164644465880D-05 0.000000000000D+00 -.128805333034D-06 0.411580308834D-06 0.000000000000D+00  7 -3 3 23 -11 11 23 21 2 0.78944511D-01 0.86277091D-01 0.15497879D+06 0.15497879D+06 0.15497879D+06 0.11064346D+01  1  2  3  2  7  2        3 -.153733934220D-05 0.100000000000D+01
0.206160503614D-05 0.000000000000D+00 0.000000000000D+00 0.411580308834D-06 0.000000000000D+00  7 -3 3 23 -11 11 23 21 2 0.78944511D-01 0.86277091D-01 0.15497879D+06 0.15497879D+06 0.15497879D+06 0.11064346D+01  1  2 15  2  7  2        3 0.192498819393D-05 0.100000000000D+01
0.437838546256D-04 0.000000000000D+00 0.000000000000D+00 0.411580308834D-06 0.000000000000D+00  7 -3 3 23 -11 11 23 21 2 0.78944511D-01 0.10347123D+00 0.20170005D+06 0.20170005D+06 0.20170005D+06 0.10975432D+01  1  2 12  2  7  2        3 0.260344958119D-04 0.100000000000D+01
-.450950256902D-04 0.000000000000D+00 0.000000000000D+00 0.411580308834D-06 0.000000000000D+00  7 -3 3 23 -11 11 23 21 2 0.78944511D-01 0.86277091D-01 0.15497879D+06 0.15497879D+06 0.15497879D+06 0.11064346D+01  1  2  4  2  7  2        3 -.421067035328D-04 0.100000000000D+01
-.851283977411D-04 0.000000000000D+00 -.238727308002D-04 0.411580308834D-06 0.000000000000D+00  7 -3 3 23 -11 11 23 21 2 0.78944511D-01 0.10584435D+00 0.15497879D+06 0.15497879D+06 0.15497879D+06 0.11064346D+01  1  2  5  2  7  2        3 -.489939701139D-04 0.100000000000D+01
0.886400793662D-04 0.000000000000D+00 0.233825475254D-04 0.411580308834D-06 0.000000000000D+00  7 -3 3 23 -11 11 23 21 2 0.78944511D-01 0.86277091D-01 0.15497879D+06 0.15497879D+06 0.15497879D+06 0.11064346D+01  1  2  6  2  7  2        3 0.827661473935D-04 0.100000000000D+01
0.116341458909D-05 0.000000000000D+00 0.000000000000D+00 0.411580308834D-06 0.000000000000D+00  7 -3 21 23 -11 11 23 -3 2 0.78944511D-01 0.10347123D+00 0.20170005D+06 0.20170005D+06 0.20170005D+06 0.10975432D+01  1  2 12  4  7  2        3 0.916056686258D-05 0.100000000000D+01
-.219166139058D-05 0.000000000000D+00 -.694650086132D-06 0.411580308834D-06 0.000000000000D+00  7 -3 21 23 -11 11 23 -3 2 0.78944511D-01 0.10584435D+00 0.15497879D+06 0.15497879D+06 0.15497879D+06 0.11064346D+01  1  2  5  4  7  2        3 -.168137639291D-04 0.100000000000D+01
  </mgrwgt>
  </event>
  <event>
  8     66 0.27784906E-05 0.17175507E+03 0.75467711E-02 0.10022182E+00
       -1 -1    0    0    0  501 0.00000000E+00 0.00000000E+00 0.75647569E+03 0.75647576E+03 0.32000000E+00 0.0000E+00 0.9000E+01
        1 -1    0    0  501    0 0.00000000E+00 0.00000000E+00 -.20106618E+03 0.20106644E+03 0.32000000E+00 0.0000E+00 0.9000E+01
       25  2    1    2    0    0 -.98753447E+02 0.22105804E+03 0.55117484E+02 0.39431377E+03 0.30631114E+03 0.0000E+00 0.0000E+00
       23  2    3    3    0    0 0.16990807E+02 0.20535574E+03 0.89317083E+02 0.24223432E+03 0.90775879E+02 0.0000E+00 0.0000E+00
       23  1    1    2    0    0 0.98753447E+02 -.22105804E+03 0.50029203E+03 0.56322843E+03 0.91188000E+02 0.0000E+00 0.9000E+01
      -13  1    4    4    0    0 0.30388214E+02 0.50928878E+02 -.70347084E+01 0.59721792E+02 0.10565837E+00 0.0000E+00 0.9000E+01
       13  1    4    4    0    0 -.13397408E+02 0.15442686E+03 0.96351792E+02 0.18251253E+03 0.10565837E+00 0.0000E+00 0.9000E+01
       23  1    3    3    0    0 -.11574425E+03 0.15702300E+02 -.34199599E+02 0.15207945E+03 0.91188000E+02 0.0000E+00 0.9000E+01
#aMCatNLO 1  0  0  1  2 0.70116573D+01 0.00000000D+00  -5  7  0 0.00000000D+00 0.00000000D+00 0.00000000D+00 0.00000000D+00 0.00000000D+00
  <mgrwgt>
 0.4074781210D-03   11    2    0
 0.390002352577296D+03 0.000000000000000D+00 0.000000000000000D+00 0.390002352577296D+03
 0.390002352577296D+03 0.000000000000000D+00 0.000000000000000D+00 -.390002352577296D+03
 0.335187789034570D+03 0.987534532253559D+02 -.221058049987886D+03 0.213111934404210D+03
 0.783241413928634D+02 0.303882667052755D+02 0.509287346339643D+02 -.511613952132029D+02
 0.155446272158150D+03 -.133974787100714D+02 0.154426987782864D+03 -.116771801557515D+02
 0.211046502569009D+03 -.115744241220560D+03 0.157023275710578D+02 -.150273359035256D+03
 0.000000000000000D+00 -.000000000000000D+00 -.000000000000000D+00 0.000000000000000D+00
 0.396088568424013D+03 0.000000000000000D+00 0.000000000000000D+00 0.396088568424013D+03
 0.392042805786207D+03 0.000000000000000D+00 0.000000000000000D+00 -.392042805786207D+03
 0.333481747495095D+03 0.994669448043497D+02 -.218138613899893D+03 0.213111934404210D+03
 0.788368801662129D+02 0.305559624941557D+02 0.516149055044764D+02 -.511613952132029D+02
 0.156772456124099D+03 -.130643314358742D+02 0.155790146373018D+03 -.116771801557515D+02
 0.210945135502643D+03 -.115293962774001D+03 0.175447587716948D+02 -.150273359035256D+03
 0.809515492216967D+01 -.166461308863017D+01 -.681119674929598D+01 0.404576263780624D+01
0.104371377267D-04 0.000000000000D+00 0.000000000000D+00 0.784348610752D-08 0.000000000000D+00  7 -1 1 23 -13 13 23 21 0 0.11638090D+00 0.30933284D-01 0.96476527D+05 0.96476527D+05 0.96476527D+05 0.11230027D+01  1  2  2  1  7  1       -1 0.138260380806D-03 0.100000000000D+01
-.543312526819D-06 0.000000000000D+00 -.400813570320D-07 0.784348610752D-08 0.000000000000D+00  7 -1 1 23 -13 13 23 21 2 0.11638090D+00 0.30933284D-01 0.96476527D+05 0.96476527D+05 0.96476527D+05 0.11230027D+01  1  2  3  1  7  1       -1 -.907669270142D-05 0.100000000000D+01
0.667459401185D-06 0.000000000000D+00 0.000000000000D+00 0.784348610752D-08 0.000000000000D+00  7 -1 1 23 -13 13 23 21 2 0.11638090D+00 0.30933284D-01 0.96476527D+05 0.96476527D+05 0.96476527D+05 0.11230027D+01  1  2 15  1  7  1       -1 0.111507163487D-04 0.100000000000D+01
0.858515051238D-05 0.000000000000D+00 0.000000000000D+00 0.784348610752D-08 0.000000000000D+00  7 -1 1 23 -13 13 23 21 2 0.11849834D+00 0.30933284D-01 0.98555796D+05 0.98555796D+05 0.98555796D+05 0.11222409D+01  1  2 12  1  7  1       -1 0.137101846576D-03 0.100000000000D+01
-.144065061494D-04 0.000000000000D+00 0.000000000000D+00 0.784348610752D-08 0.000000000000D+00  7 -1 1 23 -13 13 23 21 2 0.11638090D+00 0.30933284D-01 0.96476527D+05 0.96476527D+05 0.96476527D+05 0.11230027D+01  1  2  4  1  7  1       -1 -.240678104709D-03 0.100000000000D+01
-.557550610746D-03 0.000000000000D+00 -.636145420288D-04 0.784348610752D-08 0.000000000000D+00  7 -1 1 23 -13 13 23 21 2 0.11861024D+00 0.30933284D-01 0.96476527D+05 0.96476527D+05 0.96476527D+05 0.11230027D+01  1  2  5  1  7  1       -1 -.890095877816D-02 0.100000000000D+01
0.558668536026D-03 0.000000000000D+00 0.636030922682D-04 0.784348610752D-08 0.000000000000D+00  7 -1 1 23 -13 13 23 21 2 0.11638090D+00 0.30933284D-01 0.96476527D+05 0.96476527D+05 0.96476527D+05 0.11230027D+01  1  2  6  1  7  1       -1 0.933323340279D-02 0.100000000000D+01
0.599361658875D-05 0.000000000000D+00 0.000000000000D+00 0.784348610752D-08 0.107180002412D-08  7 -1 1 23 -13 13 23 21 2 0.11819709D+00 0.31095124D-01 0.98555796D+05 0.98555796D+05 0.98555796D+05 0.11222409D+01  1  2 11  1  7  1       -1 0.956541104439D-04 0.100000000000D+01
0.453679611791D-06 0.000000000000D+00 0.000000000000D+00 0.784348610752D-08 0.000000000000D+00  7 21 1 23 -13 13 23 1 2 0.11849834D+00 0.30933284D-01 0.98555796D+05 0.98555796D+05 0.98555796D+05 0.11222409D+01  1  2 12  3  7  1       -1 0.493212580609D-04 0.100000000000D+01
-.191993812554D-05 0.000000000000D+00 -.220014961836D-06 0.784348610752D-08 0.000000000000D+00  7 21 1 23 -13 13 23 1 2 0.11861024D+00 0.30933284D-01 0.96476527D+05 0.96476527D+05 0.96476527D+05 0.11230027D+01  1  2  5  3  7  1       -1 -.208737716975D-03 0.100000000000D+01
0.203056034959D-07 0.000000000000D+00 0.000000000000D+00 0.784348610752D-08 0.303703922129D-11  7 21 1 23 -13 13 23 1 2 0.11819709D+00 0.31095124D-01 0.98555796D+05 0.98555796D+05 0.98555796D+05 0.11222409D+01  1  2 11  3  7  1       -1 0.220769849171D-05 0.100000000000D+01
  </mgrwgt>
  </event>
  <event>
  7     66 0.27784906E-05 0.24214684E+03 0.75467711E-02 0.92567189E-01
       -1 -1    0    0    0  501 0.00000000E+00 0.00000000E+00 0.16063562E+04 0.16063562E+04 0.32000000E+00 0.0000E+00 0.9000E+01
        1 -1    0    0  501    0 0.00000000E+00 0.00000000E+00 -.23761516E+03 0.23761537E+03 0.32000000E+00 0.0000E+00 0.9000E+01
       23  2    1    2    0    0 0.21227856E+03 0.31433047E+03 0.18840683E+03 0.43320621E+03 0.91129913E+02 0.0000E+00 0.0000E+00
       23  1    1    2    0    0 -.33868019E+03 -.30034523E+03 0.11654224E+04 0.12535694E+04 0.91188000E+02 0.0000E+00 0.9000E+01
      -13  1    3    3    0    0 0.21987091E+03 0.29909488E+03 0.17049829E+03 0.40849803E+03 0.10565837E+00 0.0000E+00 0.9000E+01
       13  1    3    3    0    0 -.75923592E+01 0.15235594E+02 0.17908545E+02 0.24708184E+02 0.10565837E+00 0.0000E+00 0.9000E+01
       23  1    1    2    0    0 0.12640164E+03 -.13985236E+02 0.14911751E+02 0.15719597E+03 0.91188000E+02 0.0000E+00 0.9000E+01
#aMCatNLO 1  0  0  2  1 0.18801388D+03 0.00000000D+00  -5  7  0 0.00000000D+00 0.00000000D+00 0.00000000D+00 0.00000000D+00 0.00000000D+00
  <mgrwgt>
 0.3732096768D-03    9    2    0
 0.617814539555119D+03 0.000000000000000D+00 0.000000000000000D+00 0.617814539555119D+03
 0.617814539555119D+03 0.000000000000000D+00 0.000000000000000D+00 -.617814539555119D+03
 0.579773407201446D+03 -.338680203261154D+03 -.300345243956050D+03 0.350585805054823D+03
 0.420750389525941D+03 0.219871227031254D+03 0.299095224823619D+03 -.198064586177617D+03
 0.170345235205750D+02 -.759266557285483D+01 0.152352056690354D+02 -.644150055500631D+00
 0.218070758862275D+03 0.126401641802754D+03 -.139851865366047D+02 -.151877068821706D+03
 0.000000000000000D+00 0.000000000000000D+00 -.000000000000000D+00 -.000000000000000D+00
 0.660543443913429D+03 0.000000000000000D+00 0.000000000000000D+00 0.660543443913429D+03
 0.873040807285977D+03 0.000000000000000D+00 0.000000000000000D+00 -.873040807285977D+03
 0.543302007354148D+03 -.342804968176422D+03 -.215490526331601D+03 0.350585805054823D+03
 0.469425730892314D+03 0.216601840859744D+03 0.366353079777205D+03 -.198064586177617D+03
 0.196021481895298D+02 -.772722257243250D+01 0.180033140189904D+02 -.644150055500631D+00
 0.217521481113985D+03 0.124801824403556D+03 0.189262778615477D+02 -.151877068821706D+03
 0.283732883649428D+03 0.912852548555365D+01 -.187792145326142D+03 -.212497363372548D+03
0.408076212346D-03 0.000000000000D+00 0.000000000000D+00 0.398421865173D-08 0.000000000000D+00  7 -1 1 23 -13 13 23 21 0 0.24713174D+00 0.36556197D-01 0.25325568D+06 0.25325568D+06 0.25325568D+06 0.10900366D+01  1  2  2  2  7  2        1 0.351256016796D-03 0.100000000000D+01
-.215112486109D-04 0.000000000000D+00 -.156712010434D-05 0.398421865173D-08 0.000000000000D+00  7 -1 1 23 -13 13 23 21 2 0.24713174D+00 0.36556197D-01 0.25325568D+06 0.25325568D+06 0.25325568D+06 0.10900366D+01  1  2  3  2  7  2        1 -.220003858124D-04 0.100000000000D+01
0.261911193568D-04 0.000000000000D+00 0.000000000000D+00 0.398421865173D-08 0.000000000000D+00  7 -1 1 23 -13 13 23 21 2 0.24713174D+00 0.36556197D-01 0.25325568D+06 0.25325568D+06 0.25325568D+06 0.10900366D+01  1  2 15  2  7  2        1 0.267866705989D-04 0.100000000000D+01
0.496979993828D-03 0.000000000000D+00 0.000000000000D+00 0.398421865173D-08 0.000000000000D+00  7 -1 1 23 -13 13 23 21 2 0.24713174D+00 0.52518172D-01 0.36238666D+06 0.36238666D+06 0.36238666D+06 0.10785331D+01  1  2 12  2  7  2        1 0.300786116341D-03 0.100000000000D+01
-.579290983770D-03 0.000000000000D+00 0.000000000000D+00 0.398421865173D-08 0.000000000000D+00  7 -1 1 23 -13 13 23 21 2 0.24713174D+00 0.36556197D-01 0.25325568D+06 0.25325568D+06 0.25325568D+06 0.10900366D+01  1  2  4  2  7  2        1 -.592463290772D-03 0.100000000000D+01
-.686231179840D-03 0.000000000000D+00 -.181780922364D-03 0.398421865173D-08 0.000000000000D+00  7 -1 1 23 -13 13 23 21 2 0.24713174D+00 0.54546708D-01 0.25325568D+06 0.25325568D+06 0.25325568D+06 0.10900366D+01  1  2  5  2  7  2        1 -.412761768312D-03 0.100000000000D+01
0.714629175961D-03 0.000000000000D+00 0.168135503472D-03 0.398421865173D-08 0.000000000000D+00  7 -1 1 23 -13 13 23 21 2 0.24713174D+00 0.36556197D-01 0.25325568D+06 0.25325568D+06 0.25325568D+06 0.10900366D+01  1  2  6  2  7  2        1 0.730878893568D-03 0.100000000000D+01
0.220116848707D-04 0.000000000000D+00 0.000000000000D+00 0.398421865173D-08 0.000000000000D+00  7 -1 21 23 -13 13 23 -1 2 0.24713174D+00 0.52518172D-01 0.36238666D+06 0.36238666D+06 0.36238666D+06 0.10785331D+01  1  2 12  4  7  2        1 0.547790544632D-04 0.100000000000D+01
-.264679203319D-04 0.000000000000D+00 -.865601211701D-05 0.398421865173D-08 0.000000000000D+00  7 -1 21 23 -13 13 23 -1 2 0.24713174D+00 0.54546708D-01 0.25325568D+06 0.25325568D+06 0.25325568D+06 0.10900366D+01  1  2  5  4  7  2        1 -.640516300781D-04 0.100000000000D+01
  </mgrwgt>
  </event>
  <event>
  8     66 0.27784906E-05 0.31287434E+03 0.75467711E-02 0.98502439E-01
       -1 -1    0    0    0  501 0.00000000E+00 0.00000000E+00 0.74270656E+02 0.74271345E+02 0.32000000E+00 0.0000E+00 0.9000E+01
        1 -1    0    0  501    0 0.00000000E+00 0.00000000E+00 -.16500488E+04 0.16500489E+04 0.32000000E+00 0.0000E+00 0.9000E+01
       25  2    1    2    0    0 -.85640400E+02 0.21443734E+03 -.54306738E+03 0.66218816E+03 0.30042192E+03 0.0000E+00 0.0000E+00
       23  2    3    3    0    0 -.14904974E+03 0.53525345E+02 -.24159974E+03 0.30286741E+03 0.90980471E+02 0.0000E+00 0.0000E+00
       23  1    1    2    0    0 0.85640400E+02 -.21443734E+03 -.10327108E+04 0.10621320E+04 0.91188000E+02 0.0000E+00 0.9000E+01
      -11  1    4    4    0    0 0.55790155E+01 -.12610080E+02 -.12114821E+02 0.18355065E+02 0.51099893E-03 0.0000E+00 0.9000E+01
       11  1    4    4    0    0 -.15462875E+03 0.66135425E+02 -.22948492E+03 0.28451234E+03 0.51099893E-03 0.0000E+00 0.9000E+01
       23  1    3    3    0    0 0.63409337E+02 0.16091199E+03 -.30146764E+03 0.35932075E+03 0.91188000E+02 0.0000E+00 0.9000E+01
#aMCatNLO 1  0  0  1  1 0.86520019D+02 0.00000000D+00  -5  7  0 0.00000000D+00 0.00000000D+00 0.00000000D+00 0.00000000D+00 0.00000000D+00
  <mgrwgt>
 0.1663622649D-03    4    2    0
 0.350072606414606D+03 0.000000000000000D+00 0.000000000000000D+00 0.350072606414606D+03
 0.350072606414606D+03 0.000000000000000D+00 0.000000000000000D+00 -.350072606414606D+03
 0.291557545921097D+03 0.856404004968331D+02 -.214437335797171D+03 -.152881987357850D+03
 0.179387630902885D+02 0.557901549190878D+01 -.126100799312568D+02 0.114743057078786D+02
 0.184209010520326D+03 -.154628752586848D+03 0.661354254107196D+02 0.751599224058670D+02
 0.206439893297500D+03 0.634093365981063D+02 0.160911990317709D+03 0.662477592441041D+02
 0.000000000000000D+00 0.000000000000000D+00 0.000000000000000D+00 -.000000000000000D+00
 0.389482591110997D+03 0.000000000000000D+00 0.000000000000000D+00 0.389482591110997D+03
 0.403662500783015D+03 0.000000000000000D+00 0.000000000000000D+00 -.403662500783015D+03
 0.311575152498924D+03 0.672835091325355D+02 -.246706002462555D+03 -.152881987357850D+03
 0.190887707894482D+02 0.445204887461417D+01 -.145911185175188D+02 0.114743057078786D+02
 0.187954867423970D+03 -.165955898163660D+03 0.462239993617913D+02 0.751599224058670D+02
 0.186851997320006D+03 0.514391407698293D+02 0.139870178202762D+03 0.662477592441041D+02
 0.876743038616642D+02 0.427811993866814D+02 0.752029434155197D+02 -.141799096720180D+02
0.115928638145D-04 0.000000000000D+00 0.000000000000D+00 0.611549254696D-06 0.000000000000D+00  7 -1 1 23 -11 11 23 21 0 0.11426310D-01 0.25385372D+00 0.97890354D+05 0.97890354D+05 0.97890354D+05 0.11224827D+01  1  2  2  1  7  1       -1 0.356783546250D-03 0.100000000000D+01
-.634165638218D-06 0.000000000000D+00 -.445196495190D-07 0.611549254696D-06 0.000000000000D+00  7 -1 1 23 -11 11 23 21 2 0.11426310D-01 0.25385372D+00 0.97890354D+05 0.97890354D+05 0.97890354D+05 0.11224827D+01  1  2  3  1  7  1       -1 -.245909965990D-04 0.100000000000D+01
0.739449856308D-06 0.000000000000D+00 0.000000000000D+00 0.611549254696D-06 0.000000000000D+00  7 -1 1 23 -11 11 23 21 2 0.11426310D-01 0.25385372D+00 0.97890354D+05 0.97890354D+05 0.97890354D+05 0.11224827D+01  1  2 15  1  7  1       -1 0.286735953603D-04 0.100000000000D+01
-.501596902672D-05 0.000000000000D+00 0.000000000000D+00 0.611549254696D-06 0.000000000000D+00  7 -1 1 23 -11 11 23 21 2 0.11426310D-01 0.25385372D+00 0.97890354D+05 0.97890354D+05 0.97890354D+05 0.11224827D+01  1  2  4  1  7  1       -1 -.194503880128D-03 0.100000000000D+01
  </mgrwgt>
  </event>
  <event>
  8     66 0.27784906E-05 0.28834562E+03 0.75467711E-02 0.93930023E-01
       -1 -1    0    0    0  501 0.00000000E+00 0.00000000E+00 0.43571471E+02 0.43572646E+02 0.32000000E+00 0.0000E+00 0.9000E+01
        1 -1    0    0  501    0 0.00000000E+00 0.00000000E+00 -.36633216E+04 0.36633217E+04 0.32000000E+00 0.0000E+00 0.9000E+01
       25  2    1    2    0    0 -.29010026E+02 0.26343120E+03 -.10716236E+04 0.11434003E+04 0.29790833E+03 0.0000E+00 0.0000E+00
       23  2    3    3    0    0 -.40273450E+02 0.89785528E+02 -.78982498E+03 0.79988110E+03 0.79390705E+02 0.0000E+00 0.0000E+00
       23  1    1    2    0    0 0.29010026E+02 -.26343120E+03 -.25481265E+04 0.25634940E+04 0.91188000E+02 0.0000E+00 0.9000E+01
      -13  1    4    4    0    0 -.36421943E+02 0.61963257E+02 -.27330567E+03 0.28259866E+03 0.10565837E+00 0.0000E+00 0.9000E+01
       13  1    4    4    0    0 -.38515069E+01 0.27822271E+02 -.51651931E+03 0.51728244E+03 0.10565837E+00 0.0000E+00 0.9000E+01
       23  1    3    3    0    0 0.11263424E+02 0.17364567E+03 -.28179866E+03 0.34351917E+03 0.91188000E+02 0.0000E+00 0.9000E+01
#aMCatNLO 1  0  0  1  2 0.37847431D+03 0.00000000D+00  -5  7  0 0.00000000D+00 0.00000000D+00 0.00000000D+00 0.00000000D+00 0.00000000D+00
  <mgrwgt>
 0.3192948735D-02    3    2    0
 0.399522859867356D+03 0.000000000000000D+00 0.000000000000000D+00 0.399522859867356D+03
 0.399522859867356D+03 0.000000000000000D+00 0.000000000000000D+00 -.399522859867356D+03
 0.349191495352383D+03 0.290100255438868D+02 -.263431199212164D+03 -.208283150499549D+03
 0.729184062618293D+02 -.364220002259183D+02 0.619633168517426D+02 0.122914293733047D+02
 0.598719753780978D+02 -.385144945385321D+01 0.278222103659444D+02 -.528747991309007D+02
 0.317063842742401D+03 0.112634241358847D+02 0.173645671994477D+03 0.248866520257145D+03
 0.000000000000000D+00 -.000000000000000D+00 -.000000000000000D+00 -.000000000000000D+00
 0.627178694825861D+03 0.000000000000000D+00 0.000000000000000D+00 0.627178694825861D+03
 0.635535394686535D+03 0.000000000000000D+00 0.000000000000000D+00 -.635535394686535D+03
 0.269025129575771D+03 0.638291681169324D+02 -.128853542887818D+03 -.208283150499549D+03
 0.104777137416909D+03 -.264138473868323D+02 0.100645307667412D+03 0.122914293733047D+02
 0.785497616509613D+02 0.394472748878975D+01 0.579548082330441D+02 -.528747991309007D+02
 0.431795506492024D+03 0.534406147786983D+02 0.336662537075153D+03 0.248866520257145D+03
 0.378566554376731D+03 -.948006629975881D+02 -.366409110087791D+03 -.835669986067486D+01
0.122271353858D-02 0.000000000000D+00 0.000000000000D+00 0.694982778457D-09 0.000000000000D+00  7 -1 1 23 -13 13 23 21 0 0.67033947D-02 0.56358804D+00 0.83143195D+05 0.83143195D+05 0.83143195D+05 0.11283612D+01  1  2  2  1  7  1       -1 0.313499177625D-02 0.100000000000D+01
-.591450815184D-04 0.000000000000D+00 -.469554193600D-05 0.694982778457D-09 0.000000000000D+00  7 -1 1 23 -13 13 23 21 2 0.67033947D-02 0.56358804D+00 0.83143195D+05 0.83143195D+05 0.83143195D+05 0.11283612D+01  1  2  3  1  7  1       -1 -.193075240495D-03 0.100000000000D+01
0.768991396339D-04 0.000000000000D+00 0.000000000000D+00 0.694982778457D-09 0.000000000000D+00  7 -1 1 23 -13 13 23 21 2 0.67033947D-02 0.56358804D+00 0.83143195D+05 0.83143195D+05 0.83143195D+05 0.11283612D+01  1  2 15  1  7  1       -1 0.251032199086D-03 0.100000000000D+01
  </mgrwgt>
  </event>
  <event>
  8     66 0.27784906E-05 0.13067918E+03 0.75467711E-02 0.99548828E-01
       -1 -1    0    0    0  501 0.00000000E+00 0.00000000E+00 0.25298010E+03 0.25298030E+03 0.32000000E+00 0.0000E+00 0.9000E+01
        1 -1    0    0  501    0 0.00000000E+00 0.00000000E+00 -.29227253E+03 0.29227271E+03 0.32000000E+00 0.0000E+00 0.9000E+01
       25  2    1    2    0    0 -.34257554E+02 0.10405502E+03 0.11135003E+03 0.33786586E+03 0.29958886E+03 0.0000E+00 0.0000E+00
       23  2    3    3    0    0 -.33972902E-01 -.72735445E+02 0.37372692E+02 0.12289140E+03 0.91734026E+02 0.0000E+00 0.0000E+00
       23  1    1    2    0    0 0.34257554E+02 -.10405502E+03 -.15064246E+03 0.20738715E+03 0.91188000E+02 0.0000E+00 0.9000E+01
      -13  1    4    4    0    0 -.11358758E+02 -.42229366E+02 -.26552610E+02 0.51160463E+02 0.10565837E+00 0.0000E+00 0.9000E+01
       13  1    4    4    0    0 0.11324785E+02 -.30506079E+02 0.63925302E+02 0.71730935E+02 0.10565837E+00 0.0000E+00 0.9000E+01
       23  1    3    3    0    0 -.34223581E+02 0.17679046E+03 0.73977340E+02 0.21497446E+03 0.91188000E+02 0.0000E+00 0.9000E+01
#aMCatNLO 1  0  0  2  1 0.19128823D+03 0.00000000D+00  -5  7  0 0.00000000D+00 0.00000000D+00 0.00000000D+00 0.00000000D+00 0.00000000D+00
  <mgrwgt>
 0.3363060957D-03    8    2    0
 0.271917702803374D+03 0.000000000000000D+00 0.000000000000000D+00 0.271917702803374D+03
 0.271917702803374D+03 0.000000000000000D+00 0.000000000000000D+00 -.271917702803374D+03
 0.197043733729653D+03 0.342575540583085D+02 -.104055016366612D+03 -.136051296270960D+03
 0.493753434190603D+02 -.113587877858396D+02 -.422293814067454D+02 -.229255713950607D+02
 0.765365907802805D+02 0.113248149379571D+02 -.305060640350776D+02 0.692746588008695D+02
 0.220879737677754D+03 -.342235812104260D+02 0.176790461808435D+03 0.897022088651507D+02
 0.000000000000000D+00 -.000000000000000D+00 0.000000000000000D+00 -.000000000000000D+00
 0.350128085887281D+03 0.000000000000000D+00 0.000000000000000D+00 0.350128085887281D+03
 0.436079751287201D+03 0.000000000000000D+00 0.000000000000000D+00 -.436079751287201D+03
 0.225412647577364D+03 0.105821799421954D+03 -.113081394994615D+03 -.136051296270960D+03
 0.502355144107163D+02 0.551532321364069D+01 -.443577083962680D+02 -.229255713950607D+02
 0.864279599303325D+02 0.389310616622906D+02 -.339880323583053D+02 0.692746588008695D+02
 0.214420308146959D+03 0.395163850076879D+02 0.167489660106151D+03 0.897022088651507D+02
 0.209711407109110D+03 -.189784569305574D+03 0.239374756430370D+02 -.859516653999202D+02
0.325387370150D-05 0.000000000000D+00 0.000000000000D+00 0.221457128328D-06 0.000000000000D+00  7 -1 1 23 -13 13 23 21 0 0.38920044D-01 0.44965034D-01 0.44236763D+05 0.44236763D+05 0.44236763D+05 0.11520033D+01  1  2  2  2  7  2        1 0.227602054188D-03 0.100000000000D+01
-.166271441749D-06 0.000000000000D+00 -.124957317784D-07 0.221457128328D-06 0.000000000000D+00  7 -1 1 23 -13 13 23 21 2 0.38920044D-01 0.44965034D-01 0.44236763D+05 0.44236763D+05 0.44236763D+05 0.11520033D+01  1  2  3  2  7  2        1 -.154347841022D-04 0.100000000000D+01
0.199839872845D-06 0.000000000000D+00 0.000000000000D+00 0.221457128328D-06 0.000000000000D+00  7 -1 1 23 -13 13 23 21 2 0.38920044D-01 0.44965034D-01 0.44236763D+05 0.44236763D+05 0.44236763D+05 0.11520033D+01  1  2 15  2  7  2        1 0.185509024275D-04 0.100000000000D+01
0.190429274532D-07 0.000000000000D+00 0.000000000000D+00 0.221457128328D-06 0.000000000000D+00  7 -1 1 23 -13 13 23 21 2 0.38920044D-01 0.75426002D-01 0.10960971D+06 0.10960971D+06 0.10960971D+06 0.11184666D+01  1  2 12  2  7  2        1 0.831480672126D-06 0.100000000000D+01
-.863041366315D-06 0.000000000000D+00 -.110081318417D-05 0.221457128328D-06 0.000000000000D+00  7 -1 1 23 -13 13 23 21 2 0.38920044D-01 0.88943389D-01 0.44236763D+05 0.44236763D+05 0.44236763D+05 0.11520033D+01  1  2  5  2  7  2        1 -.322318354321D-04 0.100000000000D+01
0.147227298785D-05 0.000000000000D+00 0.886464538617D-06 0.221457128328D-06 0.000000000000D+00  7 -1 1 23 -13 13 23 21 2 0.38920044D-01 0.44965034D-01 0.44236763D+05 0.44236763D+05 0.44236763D+05 0.11520033D+01  1  2  6  2  7  2        1 0.136669385120D-03 0.100000000000D+01
0.110321968092D-08 0.000000000000D+00 0.000000000000D+00 0.221457128328D-06 0.000000000000D+00  7 -1 21 23 -13 13 23 -1 2 0.38920044D-01 0.75426002D-01 0.10960971D+06 0.10960971D+06 0.10960971D+06 0.11184666D+01  1  2 12  4  7  2        1 0.147621391488D-06 0.100000000000D+01
0.170974006089D-08 0.000000000000D+00 -.812924376713D-07 0.221457128328D-06 0.000000000000D+00  7 -1 21 23 -13 13 23 -1 2 0.38920044D-01 0.88943389D-01 0.44236763D+05 0.44236763D+05 0.44236763D+05 0.11520033D+01  1  2  5  4  7  2        1 0.171271439159D-06 0.100000000000D+01
  </mgrwgt>
  </event>
  <event>
  9     66 -.27784906E-05 0.25040706E+03 0.75467711E-02 0.10301367E+00
       -1 -1    0    0    0  501 0.00000000E+00 0.00000000E+00 0.11477169E+03 0.11477214E+03 0.32000000E+00 0.0000E+00 0.9000E+01
        1 -1    0    0  502    0 0.00000000E+00 0.00000000E+00 -.20860313E+04 0.20860313E+04 0.32000000E+00 0.0000E+00 0.9000E+01
       25  2    1    2    0    0 -.14576494E+03 0.67253492E+01 -.19628107E+04 0.19908025E+04 0.29895871E+03 0.0000E+00 0.0000E+00
       23  2    3    3    0    0 -.96679966E+02 -.11183754E+03 -.90833602E+03 0.92464187E+03 0.89630443E+02 0.0000E+00 0.0000E+00
       23  1    1    2    0    0 0.14494045E+03 -.13482465E+02 0.27015786E+02 0.17388103E+03 0.91188000E+02 0.0000E+00 0.9000E+01
      -11  1    4    4    0    0 -.41801890E+02 -.10872710E+03 -.66990443E+03 0.67995656E+03 0.51099893E-03 0.0000E+00 0.9000E+01
       11  1    4    4    0    0 -.54878076E+02 -.31104356E+01 -.23843159E+03 0.24468531E+03 0.51099893E-03 0.0000E+00 0.9000E+01
       23  1    3    3    0    0 -.49084978E+02 0.11856289E+03 -.10544747E+04 0.10661607E+04 0.91188000E+02 0.0000E+00 0.9000E+01
       21  1    1    2  502  501 0.82449760E+00 0.67571162E+01 -.35464689E+02 0.36119871E+02 0.75000000E+00 0.0000E+00 0.9000E+01
#aMCatNLO 2  0  0  2  1 0.68072326D+01 0.00000000D+00  -5  7  0 0.00000000D+00 0.00000000D+00 0.00000000D+00 0.00000000D+00 0.00000000D+00
  <mgrwgt>
 -.3028590890D-03    3    2    0
 0.484382783954275D+03 0.000000000000000D+00 0.000000000000000D+00 0.484382783954275D+03
 0.484382783954275D+03 0.000000000000000D+00 0.000000000000000D+00 -.484382783954275D+03
 0.442545491105082D+03 0.145317066060117D+03 -.103958997909839D+02 0.407806493244839D+03
 0.179944537574563D+03 -.416484086786162D+02 -.107469255912500D+03 -.138187574300572D+03
 0.702392333069783D+02 -.548182690212146D+02 -.262029220287651D+01 -.438365298106661D+02
 0.276036305921928D+03 -.488503883602864D+02 0.120485447906360D+03 -.225782389133602D+03
 0.000000000000000D+00 0.000000000000000D+00 0.000000000000000D+00 -.000000000000000D+00
 0.485767018224391D+03 0.000000000000000D+00 0.000000000000000D+00 0.485767018224391D+03
 0.492836630653167D+03 0.000000000000000D+00 0.000000000000000D+00 -.492836630653167D+03
 0.442505250837402D+03 0.144940445941980D+03 -.134824653590751D+02 0.407806493244839D+03
 0.180734021458319D+03 -.418018900498812D+02 -.108727102461519D+03 -.138187574300572D+03
 0.703058985439650D+02 -.548780759019422D+02 -.311043558582184D+01 -.438365298106661D+02
 0.275244312990961D+03 -.490849775900133D+02 0.118562887203278D+03 -.225782389133602D+03
 0.981416504690992D+01 0.824497599856468D+00 0.675711620313864D+01 -.706961242877574D+01
-.281193747201D-04 0.000000000000D+00 0.000000000000D+00 0.224899548540D-06 0.000000000000D+00  7 -1 1 23 -11 11 23 21 2 0.17606386D-01 0.32136451D+00 0.64376640D+05 0.64376640D+05 0.64376640D+05 0.11377644D+01  1  2 13  2  7  2        1 -.298994691564D-03 0.100000000000D+01
-.459684836406D-03 0.000000000000D+00 0.000000000000D+00 0.224899548540D-06 0.000000000000D+00  7 -1 1 23 -11 11 23 21 2 0.17606386D-01 0.31541363D+00 0.62703694D+05 0.62703694D+05 0.62703694D+05 0.11387461D+01  1  2  8  2  7  2        1 -.519540715169D-02 0.100000000000D+01
0.488314096434D-03 0.000000000000D+00 0.000000000000D+00 0.224899548540D-06 0.335125234855D-07  7 -1 1 23 -11 11 23 21 2 0.17656700D-01 0.32091849D+00 0.64376640D+05 0.64376640D+05 0.64376640D+05 0.11377644D+01  1  2  1  2  7  2        1 0.519154275422D-02 0.100000000000D+01
  </mgrwgt>
  </event>
  <event>
  8     66 0.27784906E-05 0.76935009E+02 0.75467711E-02 0.10326320E+00
       -1 -1    0    0    0  501 0.00000000E+00 0.00000000E+00 0.12912055E+04 0.12912056E+04 0.32000000E+00 0.0000E+00 0.9000E+01
        1 -1    0    0  501    0 0.00000000E+00 0.00000000E+00 -.81265598E+02 0.81266228E+02 0.32000000E+00 0.0000E+00 0.9000E+01
       25  2    1    2    0    0 0.10177908E+03 0.11674281E+03 0.31885616E+03 0.46344298E+03 0.29853354E+03 0.0000E+00 0.0000E+00
       23  2    3    3    0    0 0.96879870E+02 0.15760492E+03 0.11648102E+03 0.23768943E+03 0.93292109E+02 0.0000E+00 0.0000E+00
       23  1    1    2    0    0 -.10177908E+03 -.11674281E+03 0.89108378E+03 0.90902883E+03 0.91188000E+02 0.0000E+00 0.9000E+01
      -13  1    4    4    0    0 0.58322494E+02 0.11967084E+03 0.12537892E+03 0.18287293E+03 0.10565837E+00 0.0000E+00 0.9000E+01
       13  1    4    4    0    0 0.38557376E+02 0.37934081E+02 -.88978934E+01 0.54816507E+02 0.10565837E+00 0.0000E+00 0.9000E+01
       23  1    3    3    0    0 0.48992056E+01 -.40862113E+02 0.20237514E+03 0.22575355E+03 0.91188000E+02 0.0000E+00 0.9000E+01
#aMCatNLO 1  0  0  1  2 0.31059667D+02 0.00000000D+00  -5  7  0 0.00000000D+00 0.00000000D+00 0.00000000D+00 0.00000000D+00 0.00000000D+00
  <mgrwgt>
 0.1093171717D-02    9    2    0
 0.323930624371556D+03 0.000000000000000D+00 0.000000000000000D+00 0.323930624371556D+03
 0.323930624371556D+03 0.000000000000000D+00 0.000000000000000D+00 -.323930624371556D+03
 0.261566170982711D+03 -.101779075834535D+03 -.116742805558918D+03 0.190036174269683D+03
 0.153253479858274D+03 0.583225193371130D+02 0.119670941095677D+03 -.759208712023089D+02
 0.132744487702242D+03 0.385573508777508D+02 0.379339782573661D+02 -.121224762330929D+03
 0.100297110199885D+03 0.489920561967094D+01 -.408621137941245D+02 0.710945926355478D+01
 0.000000000000000D+00 0.000000000000000D+00 -.000000000000000D+00 0.000000000000000D+00
 0.365621061163976D+03 0.000000000000000D+00 0.000000000000000D+00 0.365621061163976D+03
 0.330139682551448D+03 0.000000000000000D+00 0.000000000000000D+00 -.330139682551448D+03
 0.266319377234901D+03 -.114391178251995D+03 -.115808765444798D+03 0.190036174269683D+03
 0.151064780797865D+03 0.510518276429420D+02 0.120209401494662D+03 -.759208712023089D+02
 0.131187807091675D+03 0.322515500380505D+02 0.384009797723377D+02 -.121224762330929D+03
 0.100033385236726D+03 0.112962210814405D+00 -.405076492336699D+02 0.710945926355478D+01
 0.471553933542562D+02 0.309748383601884D+02 -.229396658853147D+01 0.354813786125275D+02
0.622200092131D-04 0.000000000000D+00 0.000000000000D+00 0.214184277849D-07 0.000000000000D+00  7 -1 1 23 -13 13 23 21 0 0.19864706D+00 0.12502451D-01 0.54520212D+05 0.54520212D+05 0.54520212D+05 0.11440038D+01  1  2  2  1  7  1       -1 0.577507606168D-03 0.100000000000D+01
-.300625909277D-05 0.000000000000D+00 -.238941218283D-06 0.214184277849D-07 0.000000000000D+00  7 -1 1 23 -13 13 23 21 2 0.19864706D+00 0.12502451D-01 0.54520212D+05 0.54520212D+05 0.54520212D+05 0.11440038D+01  1  2  3  1  7  1       -1 -.365181684510D-04 0.100000000000D+01
0.378911881928D-05 0.000000000000D+00 0.000000000000D+00 0.214184277849D-07 0.000000000000D+00  7 -1 1 23 -13 13 23 21 2 0.19864706D+00 0.12502451D-01 0.54520212D+05 0.54520212D+05 0.54520212D+05 0.11440038D+01  1  2 15  1  7  1       -1 0.460278622212D-04 0.100000000000D+01
0.210463058164D-03 0.000000000000D+00 0.000000000000D+00 0.214184277849D-07 0.000000000000D+00  7 -1 1 23 -13 13 23 21 2 0.22595824D+00 0.12502451D-01 0.62043133D+05 0.62043133D+05 0.62043133D+05 0.11391416D+01  1  2 12  1  7  1       -1 0.152904894092D-02 0.100000000000D+01
-.214304869926D-03 0.000000000000D+00 0.000000000000D+00 0.214184277849D-07 0.000000000000D+00  7 -1 1 23 -13 13 23 21 2 0.19864706D+00 0.12502451D-01 0.54520212D+05 0.54520212D+05 0.54520212D+05 0.11440038D+01  1  2  4  1  7  1       -1 -.260324246790D-02 0.100000000000D+01
-.345106053467D-03 0.000000000000D+00 -.536896477779D-04 0.214184277849D-07 0.000000000000D+00  7 -1 1 23 -13 13 23 21 2 0.22609188D+00 0.12502451D-01 0.54520212D+05 0.54520212D+05 0.54520212D+05 0.11440038D+01  1  2  5  1  7  1       -1 -.253475208072D-02 0.100000000000D+01
0.349569314281D-03 0.000000000000D+00 0.532431823941D-04 0.214184277849D-07 0.000000000000D+00  7 -1 1 23 -13 13 23 21 2 0.19864706D+00 0.12502451D-01 0.54520212D+05 0.54520212D+05 0.54520212D+05 0.11440038D+01  1  2  6  1  7  1       -1 0.424635093327D-02 0.100000000000D+01
0.423723386021D-05 0.000000000000D+00 0.000000000000D+00 0.214184277849D-07 0.000000000000D+00  7 21 1 23 -13 13 23 1 2 0.22595824D+00 0.12502451D-01 0.62043133D+05 0.62043133D+05 0.62043133D+05 0.11391416D+01  1  2 12  3  7  1       -1 0.217633131197D-03 0.100000000000D+01
-.668929613785D-05 0.000000000000D+00 -.108504946944D-05 0.214184277849D-07 0.000000000000D+00  7 21 1 23 -13 13 23 1 2 0.22609188D+00 0.12502451D-01 0.54520212D+05 0.54520212D+05 0.54520212D+05 0.11440038D+01  1  2  5  3  7  1       -1 -.348884039577D-03 0.100000000000D+01
  </mgrwgt>
  </event>
  <event>
  8     66 0.27784906E-05 0.13542099E+03 0.75467711E-02 0.10327575E+00
       -3 -1    0    0    0  501 0.00000000E+00 0.00000000E+00 0.15775134E+03 0.15775213E+03 0.50000000E+00 0.0000E+00 0.9000E+01
        3 -1    0    0  501    0 0.00000000E+00 0.00000000E+00 -.41173338E+03 0.41173369E+03 0.50000000E+00 0.0000E+00 0.9000E+01
       25  2    1    2    0    0 -.12607718E+03 0.66545690E+02 -.21560836E+03 0.39595895E+03 0.29995456E+03 0.0000E+00 0.0000E+00
       23  2    3    3    0    0 -.36237010E+01 0.13636018E+03 -.11356327E+03 0.19949682E+03 0.91077622E+02 0.0000E+00 0.0000E+00
       23  1    1    2    0    0 0.12607718E+03 -.66545690E+02 -.38373684E+02 0.17352687E+03 0.91188000E+02 0.0000E+00 0.9000E+01
      -11  1    4    4    0    0 -.36788911E+01 0.51079845E+02 0.71388199E+01 0.51707326E+02 0.51099893E-03 0.0000E+00 0.9000E+01
       11  1    4    4    0    0 0.55190129E-01 0.85280334E+02 -.12070209E+03 0.14778949E+03 0.51099893E-03 0.0000E+00 0.9000E+01
       23  1    3    3    0    0 -.12245348E+03 -.69814490E+02 -.10204509E+03 0.19646213E+03 0.91188000E+02 0.0000E+00 0.9000E+01
#aMCatNLO 1  0  0  1  2 0.24359805D+02 0.00000000D+00  -5  7  0 0.00000000D+00 0.00000000D+00 0.00000000D+00 0.00000000D+00 0.00000000D+00
  <mgrwgt>
 0.5962225105D-04    6    2    0
 0.254856437650489D+03 0.000000000000000D+00 0.000000000000000D+00 0.254856437650489D+03
 0.254856437650489D+03 0.000000000000000D+00 0.000000000000000D+00 -.254856437650489D+03
 0.174754981905605D+03 0.126077177759499D+03 -.665456899250036D+02 0.435920721855882D+02
 0.613280977480586D+02 -.367889113251255D+01 0.510798454382155D+02 0.337409354262528D+02
 0.104976461368238D+03 0.551901274831499D-01 0.852803340262734D+02 -.612153495768357D+02
 0.168653334279076D+03 -.122453476754469D+03 -.698144895394854D+02 -.161176580350053D+02
 0.000000000000000D+00 -.000000000000000D+00 0.000000000000000D+00 -.000000000000000D+00
 0.265573743923787D+03 0.000000000000000D+00 0.000000000000000D+00 0.265573743923787D+03
 0.269375589356971D+03 0.000000000000000D+00 0.000000000000000D+00 -.269375589356971D+03
 0.181436951998644D+03 0.132012991400338D+03 -.726389533973283D+02 0.435920721855882D+02
 0.595267986586992D+02 -.166488667488704D+01 0.490124187066353D+02 0.337409354262528D+02
 0.102178723871036D+03 0.350735862786348D+01 0.817365953753570D+02 -.612153495768357D+02
 0.167152161272092D+03 -.116857395958049D+03 -.755590086177807D+02 -.161176580350053D+02
 0.246546974802856D+02 -.169980673952649D+02 0.174489479331166D+02 -.380184543318347D+01
0.198448596467D-05 0.000000000000D+00 0.000000000000D+00 0.261618486044D-06 0.000000000000D+00  7 -3 3 23 -11 11 23 21 0 0.24269521D-01 0.63343682D-01 0.56075337D+05 0.56075337D+05 0.56075337D+05 0.11429404D+01  1  2  2  1  7  1       -3 0.329233668157D-04 0.100000000000D+01
-.109525563220D-06 0.000000000000D+00 -.762094863147D-08 0.261618486044D-06 0.000000000000D+00  7 -3 3 23 -11 11 23 21 2 0.24269521D-01 0.63343682D-01 0.56075337D+05 0.56075337D+05 0.56075337D+05 0.11429404D+01  1  2  3  1  7  1       -3 -.237366211423D-05 0.100000000000D+01
0.128710576978D-06 0.000000000000D+00 0.000000000000D+00 0.261618486044D-06 0.000000000000D+00  7 -3 3 23 -11 11 23 21 2 0.24269521D-01 0.63343682D-01 0.56075337D+05 0.56075337D+05 0.56075337D+05 0.11429404D+01  1  2 15  1  7  1       -3 0.278944395529D-05 0.100000000000D+01
0.325193581921D-05 0.000000000000D+00 0.000000000000D+00 0.261618486044D-06 0.000000000000D+00  7 -3 3 23 -11 11 23 21 2 0.25948537D-01 0.63343682D-01 0.61928307D+05 0.61928307D+05 0.61928307D+05 0.11392109D+01  1  2 12  1  7  1       -3 0.621238720959D-04 0.100000000000D+01
-.220217380458D-05 0.000000000000D+00 0.000000000000D+00 0.261618486044D-06 0.000000000000D+00  7 -3 3 23 -11 11 23 21 2 0.24269521D-01 0.63343682D-01 0.56075337D+05 0.56075337D+05 0.56075337D+05 0.11429404D+01  1  2  4  1  7  1       -3 -.477259954227D-04 0.100000000000D+01
0.372681426681D-07 0.000000000000D+00 0.000000000000D+00 0.261618486044D-06 0.000000000000D+00  7 21 3 23 -11 11 23 3 2 0.25948537D-01 0.63343682D-01 0.61928307D+05 0.61928307D+05 0.61928307D+05 0.11392109D+01  1  2 12  3  7  1       -3 0.118852257173D-04 0.100000000000D+01
  </mgrwgt>
  </event>
  <event>
  8     66 0.27784906E-05 0.19016777E+03 0.75467711E-02 0.98727670E-01
       -1 -1    0    0    0  501 0.00000000E+00 0.00000000E+00 0.17094218E+03 0.17094248E+03 0.32000000E+00 0.0000E+00 0.9000E+01
        1 -1    0    0  501    0 0.00000000E+00 0.00000000E+00 -.30305642E+03 0.30305659E+03 0.32000000E+00 0.0000E+00 0.9000E+01
       25  2    1    2    0    0 -.14881774E+02 -.98583714E+01 0.15950738E+02 0.29919305E+03 0.29823381E+03 0.0000E+00 0.0000E+00
       23  2    3    3    0    0 0.86770080E+02 -.74253465E+02 0.17753141E+02 0.14820190E+03 0.92768563E+02 0.0000E+00 0.0000E+00
       23  1    1    2    0    0 0.14881774E+02 0.98583714E+01 -.14806498E+03 0.17480602E+03 0.91188000E+02 0.0000E+00 0.9000E+01
      -13  1    4    4    0    0 -.12856293E+02 -.17703316E+02 -.17852969E+02 0.28238827E+02 0.10565837E+00 0.0000E+00 0.9000E+01
       13  1    4    4    0    0 0.99626373E+02 -.56550148E+02 0.35606110E+02 0.11996308E+03 0.10565837E+00 0.0000E+00 0.9000E+01
       23  1    3    3    0    0 -.10165185E+03 0.64395093E+02 -.18024034E+01 0.15099115E+03 0.91188000E+02 0.0000E+00 0.9000E+01
#aMCatNLO 1  0  0  2  2 0.26195410D+03 0.00000000D+00  -5  7  0 0.00000000D+00 0.00000000D+00 0.00000000D+00 0.00000000D+00 0.00000000D+00
  <mgrwgt>
 0.4271055461D-03    3    2    0
 0.227607637501523D+03 0.000000000000000D+00 0.000000000000000D+00 0.227607637501523D+03
 0.227607637501523D+03 0.000000000000000D+00 0.000000000000000D+00 -.227607637501523D+03
 0.139047184321880D+03 0.148817757852771D+02 0.985837265126245D+01 -.103441835646844D+03
 0.242225583616947D+02 -.128564357728329D+02 -.177032644103803D+02 -.103941725029409D+02
 0.135247052447206D+03 0.996265120788536D+02 -.565501983293575D+02 0.718915736061577D+02
 0.156698479872265D+03 -.101651852091298D+03 0.643950900884753D+02 0.419444345436267D+02
 0.000000000000000D+00 0.000000000000000D+00 -.000000000000000D+00 0.000000000000000D+00
 0.482226525707632D+03 0.000000000000000D+00 0.000000000000000D+00 0.482226525707632D+03
 0.340713594605430D+03 0.000000000000000D+00 0.000000000000000D+00 -.340713594605430D+03
 0.153781986139581D+03 -.602596737968805D+02 0.316576415568078D+02 -.103441835646844D+03
 0.322136927646448D+02 -.273382639046854D+02 -.135019445337259D+02 -.103941725029409D+02
 0.919147413039582D+02 0.413356442488264D+02 -.396394478763067D+02 0.718915736061577D+02
 0.247295155027955D+03 -.205318666775536D+03 0.944698461977805D+02 0.419444345436267D+02
 0.297734545076923D+03 0.251580960228275D+03 -.729860953445557D+02 0.141512931102202D+03
0.329720908893D-05 0.000000000000D+00 0.000000000000D+00 0.112317381726D-07 0.000000000000D+00  7 -1 1 23 -13 13 23 21 0 0.26298833D-01 0.46624101D-01 0.36163780D+05 0.36163780D+05 0.36163780D+05 0.11598805D+01  1  2  2  2  7  2        1 0.421994314956D-03 0.100000000000D+01
-.175984922163D-06 0.000000000000D+00 -.126621510766D-07 0.112317381726D-07 0.000000000000D+00  7 -1 1 23 -13 13 23 21 2 0.26298833D-01 0.46624101D-01 0.36163780D+05 0.36163780D+05 0.36163780D+05 0.11598805D+01  1  2  3  2  7  2        1 -.303013564620D-04 0.100000000000D+01
0.205670049061D-06 0.000000000000D+00 0.000000000000D+00 0.112317381726D-07 0.000000000000D+00  7 -1 1 23 -13 13 23 21 2 0.26298833D-01 0.46624101D-01 0.36163780D+05 0.36163780D+05 0.36163780D+05 0.11598805D+01  1  2 15  2  7  2        1 0.354125875874D-04 0.100000000000D+01
  </mgrwgt>
  </event>
  <event>
  8     66 0.27784906E-05 0.97684914E+02 0.75467711E-02 0.10114070E+00
       -1 -1    0    0    0  501 0.00000000E+00 0.00000000E+00 0.37380692E+02 0.37382062E+02 0.32000000E+00 0.0000E+00 0.9000E+01
        1 -1    0    0  501    0 0.00000000E+00 0.00000000E+00 -.17885133E+04 0.17885134E+04 0.32000000E+00 0.0000E+00 0.9000E+01
       25  2    1    2    0    0 0.80688163E+02 0.73642148E+02 -.75619395E+03 0.82083224E+03 0.30000423E+03 0.0000E+00 0.0000E+00
       23  2    3    3    0    0 0.15244426E+03 0.17629373E+02 -.32922437E+03 0.37484497E+03 0.92574413E+02 0.0000E+00 0.0000E+00
       23  1    1    2    0    0 -.80688163E+02 -.73642148E+02 -.99493869E+03 0.10050632E+04 0.91188000E+02 0.0000E+00 0.9000E+01
      -13  1    4    4    0    0 0.12272885E+03 -.26454214E+02 -.21798912E+03 0.25155807E+03 0.10565837E+00 0.0000E+00 0.9000E+01
       13  1    4    4    0    0 0.29715412E+02 0.44083588E+02 -.11123525E+03 0.12328690E+03 0.10565837E+00 0.0000E+00 0.9000E+01
       23  1    3    3    0    0 -.71756100E+02 0.56012774E+02 -.42696958E+03 0.44598727E+03 0.91188000E+02 0.0000E+00 0.9000E+01
#aMCatNLO 1  0  0  1  2 0.12278016D+03 0.00000000D+00  -5  7  0 0.00000000D+00 0.00000000D+00 0.00000000D+00 0.00000000D+00 0.00000000D+00
  <mgrwgt>
 0.4877970143D-03    9    2    0
 0.258567481026437D+03 0.000000000000000D+00 0.000000000000000D+00 0.258567481026437D+03
 0.258567481026437D+03 0.000000000000000D+00 0.000000000000000D+00 -.258567481026437D+03
 0.179586857700791D+03 -.806881639276559D+02 -.736421482412135D+02 -.109555658545084D+03
 0.150040005297023D+03 0.122728973002694D+03 -.264543035532447D+02 0.821569972598030D+02
 0.586331504259461D+02 0.297152916606644D+02 0.440836767852464D+02 0.247280652596841D+02
 0.128874948629114D+03 -.717561007357028D+02 0.560127750092118D+02 0.267059602559728D+01
 0.000000000000000D+00 0.000000000000000D+00 -.000000000000000D+00 0.000000000000000D+00
 0.342151469363077D+03 0.000000000000000D+00 0.000000000000000D+00 0.342151469363077D+03
 0.315086871035970D+03 0.000000000000000D+00 0.000000000000000D+00 -.315086871035970D+03
 0.198615512750386D+03 -.123490807020864D+03 -.622932486164238D+02 -.109555658545084D+03
 0.124435641903036D+03 0.916654893157303D+02 -.182179813805238D+02 0.821569972598030D+02
 0.561260476599000D+02 0.167275438803652D+02 0.475273109923613D+02 0.247280652596841D+02
 0.152333415403470D+03 -.103581552348162D+03 0.644511290397535D+02 0.267059602559728D+01
 0.125727722682254D+03 0.118679326172930D+03 -.314672100351671D+02 0.270645983271069D+02
0.572585623723D-05 0.000000000000D+00 0.000000000000D+00 0.186194492643D-06 0.000000000000D+00  7 -1 1 23 -13 13 23 21 0 0.57509832D-02 0.27515600D+00 0.50592960D+05 0.50592960D+05 0.50592960D+05 0.11468453D+01  1  2  2  1  7  1       -1 0.410001567308D-03 0.100000000000D+01
-.310590255454D-06 0.000000000000D+00 -.219887956035D-07 0.186194492643D-06 0.000000000000D+00  7 -1 1 23 -13 13 23 21 2 0.57509832D-02 0.27515600D+00 0.50592960D+05 0.50592960D+05 0.50592960D+05 0.11468453D+01  1  2  3  1  7  1       -1 -.292511255275D-04 0.100000000000D+01
0.366181126255D-06 0.000000000000D+00 0.000000000000D+00 0.186194492643D-06 0.000000000000D+00  7 -1 1 23 -13 13 23 21 2 0.57509832D-02 0.27515600D+00 0.50592960D+05 0.50592960D+05 0.50592960D+05 0.11468453D+01  1  2 15  1  7  1       -1 0.344866263567D-04 0.100000000000D+01
0.135150501299D-05 0.000000000000D+00 0.000000000000D+00 0.186194492643D-06 0.000000000000D+00  7 -1 1 23 -13 13 23 21 2 0.80702457D-02 0.27515600D+00 0.85439563D+05 0.85439563D+05 0.85439563D+05 0.11273737D+01  1  2 12  1  7  1       -1 0.733062734750D-04 0.100000000000D+01
-.240052014963D-05 0.000000000000D+00 0.000000000000D+00 0.186194492643D-06 0.000000000000D+00  7 -1 1 23 -13 13 23 21 2 0.57509832D-02 0.27515600D+00 0.50592960D+05 0.50592960D+05 0.50592960D+05 0.11468453D+01  1  2  4  1  7  1       -1 -.226078941612D-03 0.100000000000D+01
-.302805344420D-05 0.000000000000D+00 -.209191530069D-05 0.186194492643D-06 0.000000000000D+00  7 -1 1 23 -13 13 23 21 2 0.95801495D-02 0.27515600D+00 0.50592960D+05 0.50592960D+05 0.50592960D+05 0.11468453D+01  1  2  5  1  7  1       -1 -.132463113278D-03 0.100000000000D+01
0.383144391806D-05 0.000000000000D+00 0.184624462885D-05 0.186194492643D-06 0.000000000000D+00  7 -1 1 23 -13 13 23 21 2 0.57509832D-02 0.27515600D+00 0.50592960D+05 0.50592960D+05 0.50592960D+05 0.11468453D+01  1  2  6  1  7  1       -1 0.360842122477D-03 0.100000000000D+01
0.570317345023D-07 0.000000000000D+00 0.000000000000D+00 0.186194492643D-06 0.000000000000D+00  7 21 1 23 -13 13 23 1 2 0.80702457D-02 0.27515600D+00 0.85439563D+05 0.85439563D+05 0.85439563D+05 0.11273737D+01  1  2 12  3  7  1       -1 0.451417828749D-04 0.100000000000D+01
-.770021259844D-07 0.000000000000D+00 -.119882841239D-06 0.186194492643D-06 0.000000000000D+00  7 21 1 23 -13 13 23 1 2 0.95801495D-02 0.27515600D+00 0.50592960D+05 0.50592960D+05 0.50592960D+05 0.11468453D+01  1  2  5  3  7  1       -1 -.481881777880D-04 0.100000000000D+01
  </mgrwgt>
  </event>
  <event>
  8     66 0.27784906E-05 0.11861508E+03 0.75467711E-02 0.97018987E-01
       -3 -1    0    0    0  501 0.00000000E+00 0.00000000E+00 0.20708823E+03 0.20708884E+03 0.50000000E+00 0.0000E+00 0.9000E+01
        3 -1    0    0  501    0 0.00000000E+00 0.00000000E+00 -.49285716E+03 0.49285741E+03 0.50000000E+00 0.0000E+00 0.9000E+01
       25  2    1    2    0    0 -.13351440E+03 -.87539862E+02 0.23741610E+02 0.33994438E+03 0.29918088E+03 0.0000E+00 0.0000E+00
       23  2    3    3    0    0 -.15444485E+03 -.13197037E+03 0.39067347E+01 0.23448905E+03 0.11704898E+03 0.0000E+00 0.0000E+00
       23  1    1    2    0    0 0.13351440E+03 0.87539862E+02 -.30951053E+03 0.36000187E+03 0.91188000E+02 0.0000E+00 0.9000E+01
      -11  1    4    4    0    0 -.15560080E+03 -.88627123E+02 -.27201724E+02 0.18112512E+03 0.51099893E-03 0.0000E+00 0.9000E+01
       11  1    4    4    0    0 0.11559506E+01 -.43343243E+02 0.31108459E+02 0.53363931E+02 0.51099893E-03 0.0000E+00 0.9000E+01
       23  1    3    3    0    0 0.20930453E+02 0.44430503E+02 0.19834875E+02 0.10545533E+03 0.91188000E+02 0.0000E+00 0.9000E+01
#aMCatNLO 1  0  0  1  2 0.25319824D+03 0.00000000D+00  -5  7  0 0.00000000D+00 0.00000000D+00 0.00000000D+00 0.00000000D+00 0.00000000D+00
  <mgrwgt>
 0.4483714298D-04    7    2    0
 0.319476475452121D+03 0.000000000000000D+00 0.000000000000000D+00 0.319476475452121D+03
 0.319476475452121D+03 0.000000000000000D+00 0.000000000000000D+00 -.319476475452121D+03
 0.255939757409918D+03 0.133514395446580D+03 0.875398623478055D+02 -.178046586004082D+03
 0.186249145868173D+03 -.155600798291063D+03 -.886271235641691D+02 0.512090702566398D+02
 0.723710772009222D+02 0.115594942472291D+01 -.433432425879077D+02 0.579448006133002D+02
 0.124392970425230D+03 0.209304534197602D+02 0.444305038042713D+02 0.688927151341424D+02
 0.000000000000000D+00 0.000000000000000D+00 -.000000000000000D+00 0.000000000000000D+00
 0.719254163686291D+03 0.000000000000000D+00 0.000000000000000D+00 0.719254163686291D+03
 0.386316337299745D+03 0.000000000000000D+00 0.000000000000000D+00 -.386316337299745D+03
 0.285393263151108D+03 0.913580045917095D+02 0.181898849686714D+03 -.178046586004082D+03
 0.193425469452762D+03 -.185168016386411D+03 -.224465824568779D+02 0.512090702566398D+02
 0.619775824642488D+02 -.930647276744853D+01 -.199251191872567D+02 0.579448006133002D+02
 0.146495634439112D+03 -.165037656983259D+00 0.916487104641171D+02 0.688927151341424D+02
 0.418278551478805D+03 0.103281522219134D+03 -.231175858506697D+03 0.332937826386546D+03
0.753461593277D-05 0.000000000000D+00 0.000000000000D+00 0.628695445269D-09 0.000000000000D+00  7 -3 3 23 -11 11 23 21 0 0.31859794D-01 0.75824244D-01 0.64990046D+05 0.64990046D+05 0.64990046D+05 0.11374115D+01  1  2  2  1  7  1       -3 0.515999421644D-04 0.100000000000D+01
-.392666450204D-06 0.000000000000D+00 -.289349090918D-07 0.628695445269D-09 0.000000000000D+00  7 -3 3 23 -11 11 23 21 2 0.31859794D-01 0.75824244D-01 0.64990046D+05 0.64990046D+05 0.64990046D+05 0.11374115D+01  1  2  3  1  7  1       -3 -.347894167337D-05 0.100000000000D+01
0.488287508381D-06 0.000000000000D+00 0.000000000000D+00 0.628695445269D-09 0.000000000000D+00  7 -3 3 23 -11 11 23 21 2 0.31859794D-01 0.75824244D-01 0.64990046D+05 0.64990046D+05 0.64990046D+05 0.11374115D+01  1  2 15  1  7  1       -3 0.432612401851D-05 0.100000000000D+01
0.345058651041D-09 0.000000000000D+00 0.000000000000D+00 0.628695445269D-09 0.000000000000D+00  7 -3 3 23 -11 11 23 21 2 0.71170870D-01 0.75824244D-01 0.16566651D+06 0.16566651D+06 0.16566651D+06 0.11041633D+01  1  2 12  1  7  1       -3 0.545476675229D-09 0.100000000000D+01
-.322132797557D-05 0.000000000000D+00 -.229297795511D-05 0.628695445269D-09 0.000000000000D+00  7 -3 3 23 -11 11 23 21 2 0.82840646D-01 0.75824244D-01 0.64990046D+05 0.64990046D+05 0.64990046D+05 0.11374115D+01  1  2  5  1  7  1       -3 -.384168742081D-05 0.100000000000D+01
0.300966437433D-10 0.000000000000D+00 0.000000000000D+00 0.628695445269D-09 0.000000000000D+00  7 21 3 23 -11 11 23 3 2 0.71170870D-01 0.75824244D-01 0.16566651D+06 0.16566651D+06 0.16566651D+06 0.11041633D+01  1  2 12  3  7  1       -3 0.717058656009D-09 0.100000000000D+01
-.202947513726D-06 0.000000000000D+00 -.242772331481D-06 0.628695445269D-09 0.000000000000D+00  7 21 3 23 -11 11 23 3 2 0.82840646D-01 0.75824244D-01 0.64990046D+05 0.64990046D+05 0.64990046D+05 0.11374115D+01  1  2  5  3  7  1       -3 -.376955663937D-05 0.100000000000D+01
  </mgrwgt>
  </event>
  <event>
  8     66 0.27784906E-05 0.25704891E+03 0.75467711E-02 0.10152424E+00
       -1 -1    0    0    0  501 0.00000000E+00 0.00000000E+00 0.43691951E+02 0.43693123E+02 0.32000000E+00 0.0000E+00 0.9000E+01
        1 -1    0    0  501    0 0.00000000E+00 0.00000000E+00 -.19282579E+04 0.19282579E+04 0.32000000E+00 0.0000E+00 0.9000E+01
       25  2    1    2    0    0 0.18266664E+03 0.59344165E+02 -.97872279E+03 0.10414910E+04 0.29986057E+03 0.0000E+00 0.0000E+00
       23  2    3    3    0    0 0.16689651E+03 0.10415572E+03 -.84561153E+03 0.87329280E+03 0.94226339E+02 0.0000E+00 0.0000E+00
       23  1    1    2    0    0 -.18266664E+03 -.59344165E+02 -.90584316E+03 0.93046006E+03 0.91188000E+02 0.0000E+00 0.9000E+01
      -13  1    4    4    0    0 0.12477447E+02 0.17805941E+02 -.27558148E+03 0.27643788E+03 0.10565837E+00 0.0000E+00 0.9000E+01
       13  1    4    4    0    0 0.15441906E+03 0.86349784E+02 -.57003004E+03 0.59685492E+03 0.10565837E+00 0.0000E+00 0.9000E+01
       23  1    3    3    0    0 0.15770137E+02 -.44811559E+02 -.13311127E+03 0.16819820E+03 0.91188000E+02 0.0000E+00 0.9000E+01
#aMCatNLO 1  0  0  1  2 0.51945583D+02 0.00000000D+00  -5  7  0 0.00000000D+00 0.00000000D+00 0.00000000D+00 0.00000000D+00 0.00000000D+00
  <mgrwgt>
 0.3809511171D-03    4    2    0
 0.290259420975772D+03 0.000000000000000D+00 0.000000000000000D+00 0.290259420975772D+03
 0.290259420975772D+03 0.000000000000000D+00 0.000000000000000D+00 -.290259420975772D+03
 0.219976509368516D+03 -.182666644263751D+03 -.593441655203862D+02 -.564409463250399D+02
 0.443920077820422D+02 0.124772722953085D+02 0.178058558308251D+02 -.387029653789150D+02
 0.176927189214439D+03 0.154419235186894D+03 0.863498707132446D+02 0.127668140998079D+01
 0.139223135586547D+03 0.157701367815487D+02 -.448115610236836D+02 0.938672302939742D+02
 0.000000000000000D+00 0.000000000000000D+00 -.000000000000000D+00 -.000000000000000D+00
 0.302536070971164D+03 0.000000000000000D+00 0.000000000000000D+00 0.302536070971164D+03
 0.352100110058840D+03 0.000000000000000D+00 0.000000000000000D+00 -.352100110058840D+03
 0.235402445252470D+03 -.202380782085648D+03 -.543644967527294D+02 -.564409463250399D+02
 0.438770912150090D+02 0.865595124965123D+01 0.187710977924144D+02 -.387029653789150D+02
 0.166129520434322D+03 0.139567720451499D+03 0.901012710914084D+02 0.127668140998079D+01
 0.137429230620723D+03 0.379338023445818D+01 -.417863067085225D+02 0.938672302939742D+02
 0.717978935074797D+02 0.503637301500397D+02 -.127215654225709D+02 -.495640390876755D+02
0.101686070457D-04 0.000000000000D+00 0.000000000000D+00 0.694115634565D-07 0.000000000000D+00  7 -1 1 23 -13 13 23 21 0 0.67219308D-02 0.29665516D+00 0.66074145D+05 0.66074145D+05 0.66074145D+05 0.11367967D+01  1  2  2  1  7  1       -1 0.466209587970D-03 0.100000000000D+01
-.554781513266D-06 0.000000000000D+00 -.390501285112D-07 0.694115634565D-07 0.000000000000D+00  7 -1 1 23 -13 13 23 21 2 0.67219308D-02 0.29665516D+00 0.66074145D+05 0.66074145D+05 0.66074145D+05 0.11367967D+01  1  2  3  1  7  1       -1 -.328705769513D-04 0.100000000000D+01
0.646871084062D-06 0.000000000000D+00 0.000000000000D+00 0.694115634565D-07 0.000000000000D+00  7 -1 1 23 -13 13 23 21 2 0.67219308D-02 0.29665516D+00 0.66074145D+05 0.66074145D+05 0.66074145D+05 0.11367967D+01  1  2 15  1  7  1       -1 0.383268462229D-04 0.100000000000D+01
-.153106107206D-05 0.000000000000D+00 0.000000000000D+00 0.694115634565D-07 0.000000000000D+00  7 -1 1 23 -13 13 23 21 2 0.67219308D-02 0.29665516D+00 0.66074145D+05 0.66074145D+05 0.66074145D+05 0.11367967D+01  1  2  4  1  7  1       -1 -.907147400969D-04 0.100000000000D+01
  </mgrwgt>
  </event>
  <event>
  8     66 0.27784906E-05 0.21693402E+03 0.75467711E-02 0.95842640E-01
       -1 -1    0    0    0  501 0.00000000E+00 0.00000000E+00 0.38270692E+03 0.38270706E+03 0.32000000E+00 0.0000E+00 0.9000E+01
        1 -1    0    0  501    0 0.00000000E+00 0.00000000E+00 -.22544556E+04 0.22544556E+04 0.32000000E+00 0.0000E+00 0.9000E+01
       25  2    1    2    0    0 0.34554042E+03 0.41994441E+02 0.22300088E+03 0.51173268E+03 0.30162763E+03 0.0000E+00 0.0000E+00
       23  2    3    3    0    0 0.31645374E+03 0.69593165E+02 0.92091114E+02 0.34723240E+03 0.84281611E+02 0.0000E+00 0.0000E+00
       23  1    1    2    0    0 -.34554042E+03 -.41994441E+02 -.20947496E+04 0.21254300E+04 0.91188000E+02 0.0000E+00 0.9000E+01
      -13  1    4    4    0    0 0.29985049E+03 0.52011629E+02 0.65513657E+02 0.31129982E+03 0.10565837E+00 0.0000E+00 0.9000E+01
       13  1    4    4    0    0 0.16603250E+02 0.17581536E+02 0.26577456E+02 0.35932585E+02 0.10565837E+00 0.0000E+00 0.9000E+01
       23  1    3    3    0    0 0.29086687E+02 -.27598724E+02 0.13090977E+03 0.16450028E+03 0.91188000E+02 0.0000E+00 0.9000E+01
#aMCatNLO 1  0  0  2  1 0.97291363D+02 0.00000000D+00  -5  7  0 0.00000000D+00 0.00000000D+00 0.00000000D+00 0.00000000D+00 0.00000000D+00
  <mgrwgt>
 0.9755075487D-03    9    2    0
 0.928868120711043D+03 0.000000000000000D+00 0.000000000000000D+00 0.928868120711043D+03
 0.928868120711043D+03 0.000000000000000D+00 0.000000000000000D+00 -.928868120711043D+03
 0.906619543081294D+03 -.345540424744916D+03 -.419944409440672D+02 -.832155049464841D+03
 0.507916355263574D+03 0.299850932696860D+03 0.520116826005157D+02 0.406648775945679D+03
 0.777856053308037D+02 0.166028052272230D+02 0.175814822210555D+02 0.739313109458851D+02
 0.365414737746415D+03 0.290866868208327D+02 -.275987238775040D+02 0.351574962573277D+03
 0.000000000000000D+00 0.000000000000000D+00 0.000000000000000D+00 -.000000000000000D+00
 0.972303208380073D+03 0.000000000000000D+00 0.000000000000000D+00 0.972303208380073D+03
 0.986267282914613D+03 0.000000000000000D+00 0.000000000000000D+00 -.986267282914613D+03
 0.926061748411448D+03 -.393399352193570D+03 -.450558971802181D+02 -.832155049464841D+03
 0.492767085249949D+03 0.273718927966459D+03 0.503400615862161D+02 0.406648775945679D+03
 0.769656941519054D+02 0.125616054567515D+02 0.173229733722704D+02 0.739313109458851D+02
 0.364487588422606D+03 0.100259026927456D+02 -.288180106343471D+02 0.351574962573277D+03
 0.982883750587786D+02 0.970929160776139D+02 0.621087285607877D+01 -.139640745345399D+02
0.554156570430D-03 0.000000000000D+00 0.000000000000D+00 0.413144158400D-07 0.000000000000D+00  7 -1 1 23 -13 13 23 21 0 0.58878000D-01 0.34683934D+00 0.15521768D+06 0.15521768D+06 0.15521768D+06 0.11063819D+01  1  2  2  2  7  2        1 0.435215926311D-03 0.100000000000D+01
-.325136375663D-05 0.000000000000D+00 -.212810714323D-05 0.413144158400D-07 0.000000000000D+00  7 -1 1 23 -13 13 23 21 2 0.58878000D-01 0.34683934D+00 0.15521768D+06 0.15521768D+06 0.15521768D+06 0.11063819D+01  1  2  3  2  7  2        1 -.312570510823D-05 0.100000000000D+01
0.332767859109D-04 0.000000000000D+00 0.000000000000D+00 0.413144158400D-07 0.000000000000D+00  7 -1 1 23 -13 13 23 21 2 0.58878000D-01 0.34683934D+00 0.15521768D+06 0.15521768D+06 0.15521768D+06 0.11063819D+01  1  2 15  2  7  2        1 0.319907052833D-04 0.100000000000D+01
0.921151345761D-03 0.000000000000D+00 0.000000000000D+00 0.413144158400D-07 0.000000000000D+00  7 -1 1 23 -13 13 23 21 2 0.58878000D-01 0.37594451D+00 0.20227130D+06 0.20227130D+06 0.20227130D+06 0.10974489D+01  1  2 12  2  7  2        1 0.636581309718D-03 0.100000000000D+01
-.813328339018D-03 0.000000000000D+00 0.000000000000D+00 0.413144158400D-07 0.000000000000D+00  7 -1 1 23 -13 13 23 21 2 0.58878000D-01 0.34683934D+00 0.15521768D+06 0.15521768D+06 0.15521768D+06 0.11063819D+01  1  2  4  2  7  2        1 -.781894839895D-03 0.100000000000D+01
-.253289664002D-02 0.000000000000D+00 -.666927571231D-03 0.413144158400D-07 0.000000000000D+00  7 -1 1 23 -13 13 23 21 2 0.58878000D-01 0.37568995D+00 0.15521768D+06 0.15521768D+06 0.15521768D+06 0.11063819D+01  1  2  5  2  7  2        1 -.181817306153D-02 0.100000000000D+01
0.258006866535D-02 0.000000000000D+00 0.664804249102D-03 0.413144158400D-07 0.000000000000D+00  7 -1 1 23 -13 13 23 21 2 0.58878000D-01 0.34683934D+00 0.15521768D+06 0.15521768D+06 0.15521768D+06 0.11063819D+01  1  2  6  2  7  2        1 0.248035421765D-02 0.100000000000D+01
0.123828996878D-04 0.000000000000D+00 0.000000000000D+00 0.413144158400D-07 0.000000000000D+00  7 -1 21 23 -13 13 23 -1 2 0.58878000D-01 0.37594451D+00 0.20227130D+06 0.20227130D+06 0.20227130D+06 0.10974489D+01  1  2 12  4  7  2        1 0.309847602748D-05 0.100000000000D+01
-.323531487036D-04 0.000000000000D+00 -.889843986160D-05 0.413144158400D-07 0.000000000000D+00  7 -1 21 23 -13 13 23 -1 2 0.58878000D-01 0.37568995D+00 0.15521768D+06 0.15521768D+06 0.15521768D+06 0.11063819D+01  1  2  5  4  7  2        1 -.853947978605D-05 0.100000000000D+01
  </mgrwgt>
  </event>
  <event>
  9     66 0.27784906E-05 0.32397032E+03 0.75467711E-02 0.96861749E-01
       21 -1    0    0  502  501 0.00000000E+00 0.00000000E+00 0.37265946E+03 0.37266021E+03 0.75000000E+00 0.0000E+00 0.9000E+01
        1 -1    0    0  501    0 0.00000000E+00 0.00000000E+00 -.67260163E+03 0.67260170E+03 0.32000000E+00 0.0000E+00 0.9000E+01
       25  2    1    2    0    0 0.16593417E+03 0.17422527E+03 0.11114626E+03 0.40009614E+03 0.29972460E+03 0.0000E+00 0.0000E+00
       23  2    3    3    0    0 -.49105815E+02 0.35642517E+02 0.13947117E+02 0.11163418E+03 0.92660125E+02 0.0000E+00 0.0000E+00
       23  1    1    2    0    0 -.29921349E+03 -.99661823E+02 -.35222118E+03 0.48149372E+03 0.91188000E+02 0.0000E+00 0.9000E+01
      -13  1    4    4    0    0 -.25780603E+02 0.40896512E+02 0.49239541E+02 0.69005128E+02 0.10565837E+00 0.0000E+00 0.9000E+01
       13  1    4    4    0    0 -.23325212E+02 -.52539950E+01 -.35292424E+02 0.42629055E+02 0.10565837E+00 0.0000E+00 0.9000E+01
       23  1    3    3    0    0 0.21503998E+03 0.13858275E+03 0.97199148E+02 0.28846195E+03 0.91188000E+02 0.0000E+00 0.9000E+01
        1  1    1    2  502    0 0.13327933E+03 -.74563448E+02 -.58867254E+02 0.16367206E+03 0.32000000E+00 0.0000E+00 0.9000E+01
#aMCatNLO 2  0  0  1  2 0.15271898D+03 0.00000000D+00  -5  7  0 0.00000000D+00 0.00000000D+00 0.00000000D+00 0.00000000D+00 0.00000000D+00
  <mgrwgt>
 0.4241557847D-04    1    2    0
 0.417061289014750D+03 0.000000000000000D+00 0.000000000000000D+00 0.417061289014750D+03
 0.417061289014750D+03 0.000000000000000D+00 0.000000000000000D+00 -.417061289014750D+03
 0.368195819643165D+03 -.238311866700961D+03 -.133733386910943D+03 -.229294015782213D+03
 0.793879531676549D+02 -.126971255334078D+02 0.335769859044556D+02 0.708083055079745D+02
 0.315974662129868D+02 -.181051269117976D+02 -.817444277826196D+01 -.245719908809496D+02
 0.354941339005694D+03 0.269114119146167D+03 0.108330843784749D+03 0.183057701155188D+03
 0.000000000000000D+00 0.000000000000000D+00 -.000000000000000D+00 -.000000000000000D+00
 0.493370185368710D+03 0.000000000000000D+00 0.000000000000000D+00 0.493370185368710D+03
 0.508039665672997D+03 0.000000000000000D+00 0.000000000000000D+00 -.508039665672997D+03
 0.400439994214584D+03 -.299213490693763D+03 -.996618228605928D+02 -.229294015782213D+03
 0.857378874906252D+02 -.257806062637593D+02 0.408965715325561D+02 0.708083055079745D+02
 0.342848830411317D+02 -.233252090231150D+02 -.525405494057704D+01 -.245719908809496D+02
 0.327525184205253D+03 0.215039980477473D+03 0.138582754297606D+03 0.183057701155188D+03
 0.153421902090114D+03 0.133279325503164D+03 -.745634480289921D+02 -.146694803042874D+02
0.363963700901D-06 0.000000000000D+00 0.000000000000D+00 0.408781863314D-06 0.330610941502D-11  7 21 1 23 -13 13 23 1 2 0.57332269D-01 0.10347720D+00 0.17009804D+06 0.17009804D+06 0.17009804D+06 0.11032682D+01  1  2  1  3  7  1       -1 0.424155784656D-04 0.100000000000D+01
  </mgrwgt>
  </event>
  <event>
  8     66 0.27784906E-05 0.28532286E+03 0.75467711E-02 0.94556462E-01
       -1 -1    0    0    0  501 0.00000000E+00 0.00000000E+00 0.28188758E+03 0.28188776E+03 0.32000000E+00 0.0000E+00 0.9000E+01
        1 -1    0    0  501    0 0.00000000E+00 0.00000000E+00 -.48169241E+03 0.48169252E+03 0.32000000E+00 0.0000E+00 0.9000E+01
       25  2    1    2    0    0 -.14202410E+03 0.15708411E+03 -.33437993E+03 0.49661218E+03 0.29994575E+03 0.0000E+00 0.0000E+00
       23  2    3    3    0    0 -.17710504E+03 0.43935553E+02 -.25554340E+03 0.32760414E+03 0.93410454E+02 0.0000E+00 0.0000E+00
       23  1    1    2    0    0 0.14202410E+03 -.15708411E+03 0.13457510E+03 0.26696811E+03 0.91188000E+02 0.0000E+00 0.9000E+01
      -13  1    4    4    0    0 -.44452927E+02 0.36853024E+02 -.14038630E+03 0.15179767E+03 0.10565837E+00 0.0000E+00 0.9000E+01
       13  1    4    4    0    0 -.13265211E+03 0.70825291E+01 -.11515710E+03 0.17580647E+03 0.10565837E+00 0.0000E+00 0.9000E+01
       23  1    3    3    0    0 0.35080938E+02 0.11314855E+03 -.78836527E+02 0.16900804E+03 0.91188000E+02 0.0000E+00 0.9000E+01
#aMCatNLO 1  0  0  1  2 0.36039782D+03 0.00000000D+00  -5  7  0 0.00000000D+00 0.00000000D+00 0.00000000D+00 0.00000000D+00 0.00000000D+00
  <mgrwgt>
 0.3843839772D-03    3    2    0
 0.368487746251451D+03 0.000000000000000D+00 0.000000000000000D+00 0.368487746251451D+03
 0.368487746251451D+03 0.000000000000000D+00 0.000000000000000D+00 -.368487746251451D+03
 0.313090922837843D+03 0.142024101178512D+03 -.157084107055696D+03 0.211812210730172D+03
 0.119216739132170D+03 -.444528152414073D+02 0.368530613783220D+02 -.104299712240576D+03
 0.150932343223359D+03 -.132652224538766D+03 0.708249115881503D+01 -.716505259910624D+02
 0.153735487309530D+03 0.350809386016619D+02 0.113148554518559D+03 -.358619724985336D+02
 0.000000000000000D+00 -.000000000000000D+00 0.000000000000000D+00 -.000000000000000D+00
 0.494329975610996D+03 0.000000000000000D+00 0.000000000000000D+00 0.494329975610996D+03
 0.796107542430608D+03 0.000000000000000D+00 0.000000000000000D+00 -.796107542430608D+03
 0.443025354498799D+03 0.302194719061139D+03 -.227530552985623D+03 0.211812210730172D+03
 0.105553763449349D+03 0.316106553243806D+01 0.159114634636119D+02 -.104299712240576D+03
 0.107238301356072D+03 -.779630809495018D+02 -.169709578928600D+02 -.716505259910624D+02
 0.164560218156660D+03 0.102506573179302D+03 0.834933257171979D+02 -.358619724985336D+02
 0.470059880580724D+03 -.329899276823378D+03 0.145096721697673D+03 -.301777566819612D+03
0.126998547730D-04 0.000000000000D+00 0.000000000000D+00 0.242892438730D-06 0.000000000000D+00  7 -1 1 23 -13 13 23 21 0 0.43367342D-01 0.74106547D-01 0.81409134D+05 0.81409134D+05 0.81409134D+05 0.11291269D+01  1  2  2  1  7  1       -1 0.377995333369D-03 0.100000000000D+01
-.649421814856D-06 0.000000000000D+00 -.487707862769D-07 0.242892438730D-06 0.000000000000D+00  7 -1 1 23 -13 13 23 21 2 0.43367342D-01 0.74106547D-01 0.81409134D+05 0.81409134D+05 0.81409134D+05 0.11291269D+01  1  2  3  1  7  1       -1 -.246433677858D-04 0.100000000000D+01
0.817780485840D-06 0.000000000000D+00 0.000000000000D+00 0.242892438730D-06 0.000000000000D+00  7 -1 1 23 -13 13 23 21 2 0.43367342D-01 0.74106547D-01 0.81409134D+05 0.81409134D+05 0.81409134D+05 0.11291269D+01  1  2 15  1  7  1       -1 0.310320115826D-04 0.100000000000D+01
  </mgrwgt>
  </event>
  <event>
  8     66 0.27784906E-05 0.18755614E+03 0.75467711E-02 0.10035615E+00
       -1 -1    0    0    0  501 0.00000000E+00 0.00000000E+00 0.23697256E+03 0.23697277E+03 0.32000000E+00 0.0000E+00 0.9000E+01
        1 -1    0    0  501    0 0.00000000E+00 0.00000000E+00 -.69557023E+03 0.69557030E+03 0.32000000E+00 0.0000E+00 0.9000E+01
       25  2    1    2    0    0 0.41290344E+02 0.22064854E+03 -.55752356E+03 0.67083283E+03 0.29798236E+03 0.0000E+00 0.0000E+00
       23  2    3    3    0    0 0.99983292E+02 0.22795696E+03 -.40173931E+03 0.48087951E+03 0.88823438E+02 0.0000E+00 0.0000E+00
       23  1    1    2    0    0 -.41290344E+02 -.22064854E+03 0.98925892E+02 0.26171025E+03 0.91188000E+02 0.0000E+00 0.9000E+01
      -11  1    4    4    0    0 0.44559826E+02 0.93939716E+02 -.91844583E+02 0.13872878E+03 0.51099893E-03 0.0000E+00 0.9000E+01
       11  1    4    4    0    0 0.55423466E+02 0.13401724E+03 -.30989472E+03 0.34215073E+03 0.51099893E-03 0.0000E+00 0.9000E+01
       23  1    3    3    0    0 -.58692948E+02 -.73084169E+01 -.15578426E+03 0.18995331E+03 0.91188000E+02 0.0000E+00 0.9000E+01
#aMCatNLO 1  0  0  1  2 0.20583039D+02 0.00000000D+00  -5  7  0 0.00000000D+00 0.00000000D+00 0.00000000D+00 0.00000000D+00 0.00000000D+00
  <mgrwgt>
 0.3515615648D-03    9    2    0
 0.405994078639440D+03 0.000000000000000D+00 0.000000000000000D+00 0.405994078639440D+03
 0.405994078639440D+03 0.000000000000000D+00 0.000000000000000D+00 -.405994078639440D+03
 0.356437791936458D+03 -.412903436368957D+02 -.220648542399997D+03 0.261422983755526D+03
 0.107453360197031D+03 0.445598261208245D+02 0.939397157073063D+02 -.271288836214330D+02
 0.217925956713503D+03 0.554234658658811D+02 0.134017243596918D+03 -.162663273235213D+03
 0.130171048431887D+03 -.586929483498099D+02 -.730841690422750D+01 -.716308268988796D+02
 0.000000000000000D+00 0.000000000000000D+00 0.000000000000000D+00 0.000000000000000D+00
 0.417020420355302D+03 0.000000000000000D+00 0.000000000000000D+00 0.417020420355302D+03
 0.415845139377463D+03 0.000000000000000D+00 0.000000000000000D+00 -.415845139377463D+03
 0.360065683506690D+03 -.493420777412911D+02 -.224845342454920D+03 0.261422983755526D+03
 0.105385582213464D+03 0.421680406932798D+02 0.926930469669408D+02 -.271288836214330D+02
 0.215179895501523D+03 0.505564229545594D+02 0.131480398031389D+03 -.162663273235213D+03
 0.131617833261219D+03 -.616348105167397D+02 -.884180178053739D+01 -.716308268988796D+02
 0.206165652498693D+02 0.182524246101916D+02 0.951369923712750D+01 0.117528097783932D+01
0.829560078071D-05 0.000000000000D+00 0.000000000000D+00 0.163189479865D-07 0.000000000000D+00  7 -1 1 23 -11 11 23 21 0 0.36457339D-01 0.10701083D+00 0.89994269D+05 0.89994269D+05 0.89994269D+05 0.11254987D+01  1  2  2  1  7  1       -1 0.197084231825D-03 0.100000000000D+01
-.409561665955D-06 0.000000000000D+00 -.318572912798D-07 0.163189479865D-07 0.000000000000D+00  7 -1 1 23 -11 11 23 21 2 0.36457339D-01 0.10701083D+00 0.89994269D+05 0.89994269D+05 0.89994269D+05 0.11254987D+01  1  2  3  1  7  1       -1 -.123257497577D-04 0.100000000000D+01
0.509541612712D-06 0.000000000000D+00 0.000000000000D+00 0.163189479865D-07 0.000000000000D+00  7 -1 1 23 -11 11 23 21 2 0.36457339D-01 0.10701083D+00 0.89994269D+05 0.89994269D+05 0.89994269D+05 0.11254987D+01  1  2 15  1  7  1       -1 0.153346441611D-04 0.100000000000D+01
0.143900043871D-04 0.000000000000D+00 0.000000000000D+00 0.163189479865D-07 0.000000000000D+00  7 -1 1 23 -11 11 23 21 2 0.37878509D-01 0.10701083D+00 0.96503441D+05 0.96503441D+05 0.96503441D+05 0.11229927D+01  1  2 12  1  7  1       -1 0.403249247354D-03 0.100000000000D+01
-.114489559111D-04 0.000000000000D+00 0.000000000000D+00 0.163189479865D-07 0.000000000000D+00  7 -1 1 23 -11 11 23 21 2 0.36457339D-01 0.10701083D+00 0.89994269D+05 0.89994269D+05 0.89994269D+05 0.11254987D+01  1  2  4  1  7  1       -1 -.344556088321D-03 0.100000000000D+01
-.124306646042D-03 0.000000000000D+00 -.215249997088D-04 0.163189479865D-07 0.000000000000D+00  7 -1 1 23 -11 11 23 21 2 0.38303320D-01 0.10701083D+00 0.89994269D+05 0.89994269D+05 0.89994269D+05 0.11254987D+01  1  2  5  1  7  1       -1 -.343763848859D-02 0.100000000000D+01
0.125243266501D-03 0.000000000000D+00 0.214987686028D-04 0.163189479865D-07 0.000000000000D+00  7 -1 1 23 -11 11 23 21 2 0.36457339D-01 0.10701083D+00 0.89994269D+05 0.89994269D+05 0.89994269D+05 0.11254987D+01  1  2  6  1  7  1       -1 0.376919348185D-02 0.100000000000D+01
0.198970000126D-06 0.000000000000D+00 0.000000000000D+00 0.163189479865D-07 0.000000000000D+00  7 21 1 23 -11 11 23 1 2 0.37878509D-01 0.10701083D+00 0.96503441D+05 0.96503441D+05 0.96503441D+05 0.11229927D+01  1  2 12  3  7  1       -1 0.567117210566D-04 0.100000000000D+01
-.105207646443D-05 0.000000000000D+00 -.185381421202D-06 0.163189479865D-07 0.000000000000D+00  7 21 1 23 -11 11 23 1 2 0.38303320D-01 0.10701083D+00 0.89994269D+05 0.89994269D+05 0.89994269D+05 0.11254987D+01  1  2  5  3  7  1       -1 -.295491434775D-03 0.100000000000D+01
  </mgrwgt>
  </event>
  <event>
  8     66 0.27784906E-05 0.20958651E+03 0.75467711E-02 0.94290888E-01
       -1 -1    0    0    0  501 0.00000000E+00 0.00000000E+00 0.84787658E+03 0.84787664E+03 0.32000000E+00 0.0000E+00 0.9000E+01
        1 -1    0    0  501    0 0.00000000E+00 0.00000000E+00 -.84373231E+02 0.84373838E+02 0.32000000E+00 0.0000E+00 0.9000E+01
       25  2    1    2    0    0 -.11561378E+03 -.99827947E+01 0.70194645E+03 0.77234205E+03 0.30052823E+03 0.0000E+00 0.0000E+00
       23  2    3    3    0    0 0.52549128E+02 -.43215909E+02 0.16137615E+03 0.19796003E+03 0.92286971E+02 0.0000E+00 0.0000E+00
       23  1    1    2    0    0 0.11561378E+03 0.99827947E+01 0.61556895E+02 0.15990843E+03 0.91188000E+02 0.0000E+00 0.9000E+01
      -11  1    4    4    0    0 0.57428178E+02 -.44176692E+02 0.53738453E+02 0.90207523E+02 0.51099893E-03 0.0000E+00 0.9000E+01
       11  1    4    4    0    0 -.48790501E+01 0.96078365E+00 0.10763770E+03 0.10775251E+03 0.51099893E-03 0.0000E+00 0.9000E+01
       23  1    3    3    0    0 -.16816291E+03 0.33233114E+02 0.54057029E+03 0.57438202E+03 0.91188000E+02 0.0000E+00 0.9000E+01
#aMCatNLO 1  0  0  2  2 0.42857465D+03 0.00000000D+00  -5  7  0 0.00000000D+00 0.00000000D+00 0.00000000D+00 0.00000000D+00 0.00000000D+00
  <mgrwgt>
 0.5152289330D-03    3    2    0
 0.267466628515655D+03 0.000000000000000D+00 0.000000000000000D+00 0.267466628515655D+03
 0.267466628515655D+03 0.000000000000000D+00 0.000000000000000D+00 -.267466628515655D+03
 0.190819716991377D+03 0.115613781628998D+03 0.998279468394204D+01 -.120957473338401D+03
 0.805082066281641D+02 0.574281784598227D+02 -.441766922583055D+02 -.350997936516001D+02
 0.341548810336310D+02 -.487905005157735D+01 0.960783649179181D+00 0.337909405580129D+02
 0.229450452378137D+03 -.168162910037243D+03 0.332331139251842D+02 0.122266326431988D+03
 0.000000000000000D+00 0.000000000000000D+00 0.000000000000000D+00 0.000000000000000D+00
 0.643781395441389D+03 0.000000000000000D+00 0.000000000000000D+00 0.643781395441389D+03
 0.495244897790956D+03 0.000000000000000D+00 0.000000000000000D+00 -.495244897790956D+03
 0.218595230158948D+03 0.875663276764755D+02 -.131034542030296D+03 -.120957473338401D+03
 0.128897869133146D+03 0.430825681977302D+02 -.116303729390629D+03 -.350997936516001D+02
 0.437722164757129D+02 -.102175377991791D+02 -.258801312346722D+02 0.337909405580129D+02
 0.294176014382403D+03 -.204034558879110D+03 -.147122806857908D+03 0.122266326431988D+03
 0.453584963082135D+03 0.836032008040840D+02 0.420341209513505D+03 0.148536497650433D+03
0.160872585867D-04 0.000000000000D+00 0.000000000000D+00 0.160001518399D-06 0.000000000000D+00  7 -1 1 23 -11 11 23 21 0 0.13044260D+00 0.12980548D-01 0.43926505D+05 0.43926505D+05 0.43926505D+05 0.11522756D+01  1  2  2  2  7  2        1 0.506267773225D-03 0.100000000000D+01
-.829116756005D-06 0.000000000000D+00 -.617793088452D-07 0.160001518399D-06 0.000000000000D+00  7 -1 1 23 -11 11 23 21 2 0.13044260D+00 0.12980548D-01 0.43926505D+05 0.43926505D+05 0.43926505D+05 0.11522756D+01  1  2  3  2  7  2        1 -.346438928363D-04 0.100000000000D+01
0.104358017636D-05 0.000000000000D+00 0.000000000000D+00 0.160001518399D-06 0.000000000000D+00  7 -1 1 23 -11 11 23 21 2 0.13044260D+00 0.12980548D-01 0.43926505D+05 0.43926505D+05 0.43926505D+05 0.11522756D+01  1  2 15  2  7  2        1 0.436050526466D-04 0.100000000000D+01
  </mgrwgt>
  </event>
  <event>
  9     66 0.27784906E-05 0.59621441E+03 0.75467711E-02 0.89837518E-01
       -1 -1    0    0    0  502 0.00000000E+00 0.00000000E+00 0.80251524E+03 0.80251531E+03 0.32000000E+00 0.0000E+00 0.9000E+01
        1 -1    0    0  501    0 0.00000000E+00 0.00000000E+00 -.85977249E+03 0.85977255E+03 0.32000000E+00 0.0000E+00 0.9000E+01
       25  2    1    2    0    0 0.13741427E+02 -.73600552E+03 0.18232376E+03 0.81414847E+03 0.29614662E+03 0.0000E+00 0.0000E+00
       23  2    3    3    0    0 0.24163477E+02 -.40709110E+03 0.21739496E+03 0.47087226E+03 0.90294393E+02 0.0000E+00 0.0000E+00
       23  1    1    2    0    0 -.15857859E+03 0.44971571E+03 -.88466774E+02 0.49349064E+03 0.91188000E+02 0.0000E+00 0.9000E+01
      -11  1    4    4    0    0 0.40373616E+02 -.15165691E+03 0.11779353E+03 0.19622732E+03 0.51099893E-03 0.0000E+00 0.9000E+01
       11  1    4    4    0    0 -.16210139E+02 -.25543419E+03 0.99601426E+02 0.27464493E+03 0.51099893E-03 0.0000E+00 0.9000E+01
       23  1    3    3    0    0 -.10422049E+02 -.32891443E+03 -.35071197E+02 0.34327621E+03 0.91188000E+02 0.0000E+00 0.9000E+01
       21  1    1    2  501  502 0.14483716E+03 0.28628981E+03 -.15111424E+03 0.35464875E+03 0.75000000E+00 0.0000E+00 0.9000E+01
#aMCatNLO 2  0  0  1  2 0.32084211D+03 0.00000000D+00  -5  7  0 0.00000000D+00 0.00000000D+00 0.00000000D+00 0.00000000D+00 0.00000000D+00
  <mgrwgt>
 0.3673371607D-04    1    2    0
 0.632093987700414D+03 0.000000000000000D+00 0.000000000000000D+00 0.632093987700414D+03
 0.632093987700414D+03 0.000000000000000D+00 0.000000000000000D+00 -.632093987700414D+03
 0.600695347473452D+03 -.964456267331861D+02 0.572529732526848D+03 -.124207872492164D+03
 0.164507615263751D+03 0.602663544316832D+02 -.112336278007868D+03 0.103977317943001D+03
 0.216986817120929D+03 0.111492313498783D+02 -.201354775064875D+03 0.800951184726756D+02
 0.281998195542698D+03 0.250300409516246D+02 -.258838679454106D+03 -.598645639235128D+02
 0.000000000000000D+00 0.000000000000000D+00 0.000000000000000D+00 -.000000000000000D+00
 0.746839937793832D+03 0.000000000000000D+00 0.000000000000000D+00 0.746839937793832D+03
 0.923865917816063D+03 0.000000000000000D+00 0.000000000000000D+00 -.923865917816063D+03
 0.501132952098473D+03 -.158578591294666D+03 0.449715709230732D+03 -.124207872492164D+03
 0.188258144760245D+03 0.403736157222219D+02 -.151656907443952D+03 0.103977317943001D+03
 0.268187661956164D+03 -.162101391857517D+02 -.255434189978437D+03 0.800951184726756D+02
 0.346687662734074D+03 -.104220491497009D+02 -.328914425080117D+03 -.598645639235128D+02
 0.366439434060940D+03 0.144837163907897D+03 0.286289813271775D+03 -.177025980022231D+03
0.233844279813D-04 0.000000000000D+00 0.000000000000D+00 0.279366948344D-07 0.186740341409D-11  7 -1 1 23 -11 11 23 21 2 0.12346383D+00 0.13227264D+00 0.60895032D+06 0.60895032D+06 0.60895032D+06 0.10625119D+01  1  2  1  1  7  1       -1 0.367337160741D-04 0.100000000000D+01
  </mgrwgt>
  </event>
  <event>
  8     66 0.27784906E-05 0.36230473E+03 0.75467711E-02 0.91381919E-01
       -1 -1    0    0    0  501 0.00000000E+00 0.00000000E+00 0.51839588E+03 0.51839598E+03 0.32000000E+00 0.0000E+00 0.9000E+01
        1 -1    0    0  501    0 0.00000000E+00 0.00000000E+00 -.20062908E+04 0.20062908E+04 0.32000000E+00 0.0000E+00 0.9000E+01
       25  2    1    2    0    0 0.61160253E+03 0.20784985E+02 -.17305381E+04 0.18600962E+04 0.30117460E+03 0.0000E+00 0.0000E+00
       23  2    3    3    0    0 0.46572707E+02 0.34730233E+02 -.26440320E+03 0.28614579E+03 0.92710031E+02 0.0000E+00 0.0000E+00
       23  1    1    2    0    0 -.61160253E+03 -.20784985E+02 0.24264319E+03 0.66459058E+03 0.91188000E+02 0.0000E+00 0.9000E+01
      -13  1    4    4    0    0 0.18025124E+02 0.39776831E+02 -.24997962E+03 0.25376549E+03 0.10565837E+00 0.0000E+00 0.9000E+01
       13  1    4    4    0    0 0.28547583E+02 -.50465981E+01 -.14423583E+02 0.32380296E+02 0.10565837E+00 0.0000E+00 0.9000E+01
       23  1    3    3    0    0 0.56502982E+03 -.13945248E+02 -.14661349E+04 0.15739504E+04 0.91188000E+02 0.0000E+00 0.9000E+01
#aMCatNLO 1  0  0  1  2 0.81164911D+02 0.00000000D+00  -5  7  0 0.00000000D+00 0.00000000D+00 0.00000000D+00 0.00000000D+00 0.00000000D+00
  <mgrwgt>
 0.2469923014D-03    9    2    0
 0.101982991034719D+04 0.000000000000000D+00 0.000000000000000D+00 0.101982991034719D+04
 0.101982991034719D+04 0.000000000000000D+00 0.000000000000000D+00 -.101982991034719D+04
 0.999632696613816D+03 -.611602530285120D+03 -.207849850837957D+02 0.785150053263270D+03
 0.131754934473000D+03 0.180251103237312D+02 0.397768892525455D+02 -.124307108554550D+03
 0.295583890578367D+02 0.285475964101257D+02 -.504665627254289D+01 0.576752662463031D+01
 0.878713800549718D+03 0.565029823551263D+03 -.139452478962069D+02 -.666610471333350D+03
 0.000000000000000D+00 -.000000000000000D+00 -.000000000000000D+00 0.000000000000000D+00
 0.121678676619383D+04 0.000000000000000D+00 0.000000000000000D+00 0.121678676619383D+04
 0.102903336648909D+04 0.000000000000000D+00 0.000000000000000D+00 -.102903336648909D+04
 0.976086814946626D+03 -.572400680110668D+03 -.180851938938625D+02 0.785150053263270D+03
 0.132683547658170D+03 0.232720483107321D+02 0.401382404869488D+02 -.124307108554550D+03
 0.307013052434231D+02 0.297432577849989D+02 -.496431230072367D+01 0.576752662463031D+01
 0.901802426187326D+03 0.600358487334411D+03 -.115121990781178D+02 -.666610471333350D+03
 0.204546038647374D+03 -.809731133194739D+02 -.557653521424478D+01 0.187753399704743D+03
0.351874423723D-03 0.000000000000D+00 0.000000000000D+00 0.737824746488D-06 0.000000000000D+00  7 -1 1 23 -13 13 23 21 0 0.79753222D-01 0.30866013D+00 0.39935044D+06 0.39935044D+06 0.39935044D+06 0.10754785D+01  1  2  2  1  7  1       -1 0.209875710750D-03 0.100000000000D+01
-.141044188552D-04 0.000000000000D+00 -.135129043776D-05 0.737824746488D-06 0.000000000000D+00  7 -1 1 23 -13 13 23 21 2 0.79753222D-01 0.30866013D+00 0.39935044D+06 0.39935044D+06 0.39935044D+06 0.10754785D+01  1  2  3  1  7  1       -1 -.973045498714D-05 0.100000000000D+01
0.205121212763D-04 0.000000000000D+00 0.000000000000D+00 0.737824746488D-06 0.000000000000D+00  7 -1 1 23 -13 13 23 21 2 0.79753222D-01 0.30866013D+00 0.39935044D+06 0.39935044D+06 0.39935044D+06 0.10754785D+01  1  2 15  1  7  1       -1 0.141510454858D-04 0.100000000000D+01
0.272583117945D-02 0.000000000000D+00 0.000000000000D+00 0.737824746488D-06 0.000000000000D+00  7 -1 1 23 -13 13 23 21 2 0.95470596D-01 0.30866013D+00 0.45223644D+06 0.45223644D+06 0.45223644D+06 0.10716058D+01  1  2 12  1  7  1       -1 0.126239463319D-02 0.100000000000D+01
-.273363866221D-02 0.000000000000D+00 0.000000000000D+00 0.737824746488D-06 0.000000000000D+00  7 -1 1 23 -13 13 23 21 2 0.79753222D-01 0.30866013D+00 0.39935044D+06 0.39935044D+06 0.39935044D+06 0.10754785D+01  1  2  4  1  7  1       -1 -.188590173242D-02 0.100000000000D+01
-.312571839083D-02 0.000000000000D+00 -.257726943407D-03 0.737824746488D-06 0.000000000000D+00  7 -1 1 23 -13 13 23 21 2 0.95574105D-01 0.30866013D+00 0.39935044D+06 0.39935044D+06 0.39935044D+06 0.10754785D+01  1  2  5  1  7  1       -1 -.146803125639D-02 0.100000000000D+01
0.312520875550D-02 0.000000000000D+00 0.253563716734D-03 0.737824746488D-06 0.000000000000D+00  7 -1 1 23 -13 13 23 21 2 0.79753222D-01 0.30866013D+00 0.39935044D+06 0.39935044D+06 0.39935044D+06 0.10754785D+01  1  2  6  1  7  1       -1 0.215604084316D-02 0.100000000000D+01
0.718536001785D-04 0.000000000000D+00 0.000000000000D+00 0.737824746488D-06 0.000000000000D+00  7 21 1 23 -13 13 23 1 2 0.95470596D-01 0.30866013D+00 0.45223644D+06 0.45223644D+06 0.45223644D+06 0.10716058D+01  1  2 12  3  7  1       -1 0.232609453426D-03 0.100000000000D+01
-.802873871773D-04 0.000000000000D+00 -.682573521870D-05 0.737824746488D-06 0.000000000000D+00  7 21 1 23 -13 13 23 1 2 0.95574105D-01 0.30866013D+00 0.39935044D+06 0.39935044D+06 0.39935044D+06 0.10754785D+01  1  2  5  3  7  1       -1 -.264415940798D-03 0.100000000000D+01
  </mgrwgt>
  </event>
  <event>
  8     66 0.27784906E-05 0.21064887E+03 0.75467711E-02 0.98288442E-01
       -1 -1    0    0    0  501 0.00000000E+00 0.00000000E+00 0.50664011E+02 0.50665021E+02 0.32000000E+00 0.0000E+00 0.9000E+01
        1 -1    0    0  501    0 0.00000000E+00 0.00000000E+00 -.24447458E+04 0.24447458E+04 0.32000000E+00 0.0000E+00 0.9000E+01
       25  2    1    2    0    0 0.76084648E+02 0.57827527E+02 -.46355575E+03 0.56037107E+03 0.29999817E+03 0.0000E+00 0.0000E+00
       23  2    3    3    0    0 0.15169915E+03 0.84932128E+01 -.32689480E+03 0.37290668E+03 0.95469466E+02 0.0000E+00 0.0000E+00
       23  1    1    2    0    0 -.76084648E+02 -.57827527E+02 -.19305260E+04 0.19350397E+04 0.91188000E+02 0.0000E+00 0.9000E+01
      -13  1    4    4    0    0 0.12049058E+03 0.28496806E+02 -.16200345E+03 0.20389992E+03 0.10565837E+00 0.0000E+00 0.9000E+01
       13  1    4    4    0    0 0.31208568E+02 -.20003593E+02 -.16489135E+03 0.16900676E+03 0.10565837E+00 0.0000E+00 0.9000E+01
       23  1    3    3    0    0 -.75614503E+02 0.49334315E+02 -.13666096E+03 0.18746439E+03 0.91188000E+02 0.0000E+00 0.9000E+01
#aMCatNLO 1  0  0  2  2 0.27033057D+03 0.00000000D+00  -5  7  0 0.00000000D+00 0.00000000D+00 0.00000000D+00 0.00000000D+00 0.00000000D+00
  <mgrwgt>
 0.5773430040D-03    6    2    0
 0.351940211152098D+03 0.000000000000000D+00 0.000000000000000D+00 0.351940211152098D+03
 0.351940211152098D+03 0.000000000000000D+00 0.000000000000000D+00 -.351940211152098D+03
 0.293916399167983D+03 -.760846477754455D+02 -.578275274388056D+02 -.262561805674537D+03
 0.171854009599980D+03 0.120490693818127D+03 0.284968623479486D+02 0.119179369670838D+03
 0.383272800933751D+02 0.312084602310668D+02 -.200036508425701D+02 -.973993646439714D+01
 0.199782733442859D+03 -.756145062737487D+02 0.493343159334271D+02 0.153122372468097D+03
 0.000000000000000D+00 -.000000000000000D+00 -.000000000000000D+00 -.000000000000000D+00
 0.481418758436692D+03 0.000000000000000D+00 0.000000000000000D+00 0.481418758436692D+03
 0.551974355547472D+03 0.000000000000000D+00 0.000000000000000D+00 -.551974355547472D+03
 0.281771535087978D+03 0.285014229333343D+02 -.364542690715019D+02 -.262561805674537D+03
 0.231622104225662D+03 0.193790790726377D+03 0.434765044642568D+02 0.119179369670838D+03
 0.512616506683855D+02 0.474842125785314D+02 -.166775304740820D+02 -.973993646439714D+01
 0.189351517089288D+03 -.491991668857231D+01 0.637814953535411D+02 0.153122372468097D+03
 0.279386306912850D+03 -.264856509549671D+03 -.541262002722140D+02 -.705555971107805D+02
0.244237782887D-04 0.000000000000D+00 0.000000000000D+00 0.861939828078D-07 0.000000000000D+00  7 -1 1 23 -13 13 23 21 0 0.77945425D-02 0.37611481D+00 0.44372946D+05 0.44372946D+05 0.44372946D+05 0.11518844D+01  1  2  2  2  7  2        1 0.414126921571D-03 0.100000000000D+01
-.922254887955D-06 0.000000000000D+00 -.937937395571D-07 0.861939828078D-07 0.000000000000D+00  7 -1 1 23 -13 13 23 21 2 0.77945425D-02 0.37611481D+00 0.44372946D+05 0.44372946D+05 0.44372946D+05 0.11518844D+01  1  2  3  2  7  2        1 -.207486261411D-04 0.100000000000D+01
0.149530629398D-05 0.000000000000D+00 0.000000000000D+00 0.861939828078D-07 0.000000000000D+00  7 -1 1 23 -13 13 23 21 2 0.77945425D-02 0.37611481D+00 0.44372946D+05 0.44372946D+05 0.44372946D+05 0.11518844D+01  1  2 15  2  7  2        1 0.336409724312D-04 0.100000000000D+01
-.394793662136D-05 0.000000000000D+00 -.600898025885D-05 0.861939828078D-07 0.000000000000D+00  7 -1 1 23 -13 13 23 21 2 0.77945425D-02 0.63526063D+00 0.44372946D+05 0.44372946D+05 0.44372946D+05 0.11518844D+01  1  2  5  2  7  2        1 -.428816363489D-05 0.100000000000D+01
0.687213051354D-05 0.000000000000D+00 0.526856046959D-05 0.861939828078D-07 0.000000000000D+00  7 -1 1 23 -13 13 23 21 2 0.77945425D-02 0.37611481D+00 0.44372946D+05 0.44372946D+05 0.44372946D+05 0.11518844D+01  1  2  6  2  7  2        1 0.154607222667D-03 0.100000000000D+01
0.542538069813D-07 0.000000000000D+00 -.351857488817D-06 0.861939828078D-07 0.000000000000D+00  7 -1 21 23 -13 13 23 -1 2 0.77945425D-02 0.63526063D+00 0.44372946D+05 0.44372946D+05 0.44372946D+05 0.11518844D+01  1  2  5  4  7  2        1 0.467709137964D-08 0.100000000000D+01
  </mgrwgt>
  </event>
  <event>
  8     66 0.27784906E-05 0.49082106E+03 0.75467711E-02 0.85593917E-01
       -3 -1    0    0    0  501 0.00000000E+00 0.00000000E+00 0.44524565E+03 0.44524593E+03 0.50000000E+00 0.0000E+00 0.9000E+01
        3 -1    0    0  501    0 0.00000000E+00 0.00000000E+00 -.10336938E+04 0.10336939E+04 0.50000000E+00 0.0000E+00 0.9000E+01
       25  2    1    2    0    0 -.47201972E+03 -.26111125E+02 -.78079585E+03 0.96048322E+03 0.29900075E+03 0.0000E+00 0.0000E+00
       23  2    3    3    0    0 -.26283027E+03 -.20103829E+02 -.62328989E+03 0.68313922E+03 0.93300559E+02 0.0000E+00 0.0000E+00
       23  1    1    2    0    0 0.47201972E+03 0.26111125E+02 0.19234768E+03 0.51845664E+03 0.91188000E+02 0.0000E+00 0.9000E+01
      -11  1    4    4    0    0 -.17550850E+03 -.44845886E+02 -.48501328E+03 0.51773764E+03 0.51099893E-03 0.0000E+00 0.9000E+01
       11  1    4    4    0    0 -.87321765E+02 0.24742057E+02 -.13827661E+03 0.16540157E+03 0.51099893E-03 0.0000E+00 0.9000E+01
       23  1    3    3    0    0 -.20918945E+03 -.60072958E+01 -.15750596E+03 0.27734400E+03 0.91188000E+02 0.0000E+00 0.9000E+01
#aMCatNLO 1  0  0  1  2 0.10289160D+04 0.00000000D+00  -5  7  0 0.00000000D+00 0.00000000D+00 0.00000000D+00 0.00000000D+00 0.00000000D+00
  <mgrwgt>
 0.2668467109D-04    5    2    0
 0.678415776414344D+03 0.000000000000000D+00 0.000000000000000D+00 0.678415776414344D+03
 0.678415776414344D+03 0.000000000000000D+00 0.000000000000000D+00 -.678415776414344D+03
 0.648535060938277D+03 0.472019721660152D+03 0.261111245328589D+02 0.434508993533755D+03
 0.353984739292633D+03 -.175508501538393D+03 -.448458855207988D+02 -.304123014735282D+03
 0.120317338975285D+03 -.873217654568433D+02 0.247420568027648D+02 -.789873531697475D+02
 0.233994413622492D+03 -.209189454664916D+03 -.600729581482491D+01 -.513986256287252D+02
 0.000000000000000D+00 -.000000000000000D+00 -.000000000000000D+00 0.000000000000000D+00
 0.194543208298475D+04 0.000000000000000D+00 0.000000000000000D+00 0.194543208298475D+04
 0.109334255876378D+04 0.000000000000000D+00 0.000000000000000D+00 -.109334255876378D+04
 0.103133407563216D+04 0.789292572611501D+03 0.493511796793796D+03 0.434508993533755D+03
 0.341368513825157D+03 -.441788019610913D+02 0.148626671889007D+03 -.304123014735282D+03
 0.129333205917809D+03 -.401708663805637D+02 0.942039154518054D+02 -.789873531697475D+02
 0.200802988162201D+03 -.127070313210778D+03 0.114969150187612D+03 -.513986256287252D+02
 0.133593585821120D+04 -.577872591059067D+03 -.851311534322220D+03 0.852089524220968D+03
0.120613041681D-03 0.000000000000D+00 0.000000000000D+00 0.282489121273D-06 0.000000000000D+00  7 -3 3 23 -11 11 23 21 0 0.68499361D-01 0.15902985D+00 0.24090531D+06 0.24090531D+06 0.24090531D+06 0.10916719D+01  1  2  2  1  7  1       -3 0.258173399945D-04 0.100000000000D+01
-.584715892167D-05 0.000000000000D+00 -.463185838199D-06 0.282489121273D-06 0.000000000000D+00  7 -3 3 23 -11 11 23 21 2 0.68499361D-01 0.15902985D+00 0.24090531D+06 0.24090531D+06 0.24090531D+06 0.10916719D+01  1  2  3  1  7  1       -3 -.149157941299D-05 0.100000000000D+01
0.733977968667D-05 0.000000000000D+00 0.000000000000D+00 0.282489121273D-06 0.000000000000D+00  7 -3 3 23 -11 11 23 21 2 0.68499361D-01 0.15902985D+00 0.24090531D+06 0.24090531D+06 0.24090531D+06 0.10916719D+01  1  2 15  1  7  1       -3 0.187233910060D-05 0.100000000000D+01
0.328575914150D-04 0.000000000000D+00 -.402872168568D-04 0.282489121273D-06 0.000000000000D+00  7 -3 3 23 -11 11 23 21 2 0.26198254D+00 0.15902985D+00 0.24090531D+06 0.24090531D+06 0.24090531D+06 0.10916719D+01  1  2  5  1  7  1       -3 0.562489147247D-07 0.100000000000D+01
0.598880480391D-05 0.000000000000D+00 -.641025399094D-05 0.282489121273D-06 0.000000000000D+00  7 21 3 23 -11 11 23 3 2 0.26198254D+00 0.15902985D+00 0.24090531D+06 0.24090531D+06 0.24090531D+06 0.10916719D+01  1  2  5  3  7  1       -3 0.430322491907D-06 0.100000000000D+01
  </mgrwgt>
  </event>
  <event>
  8     66 0.27784906E-05 0.10785826E+03 0.75467711E-02 0.99616226E-01
       -1 -1    0    0    0  501 0.00000000E+00 0.00000000E+00 0.93706162E+02 0.93706708E+02 0.32000000E+00 0.0000E+00 0.9000E+01
        1 -1    0    0  501    0 0.00000000E+00 0.00000000E+00 -.11216078E+04 0.11216079E+04 0.32000000E+00 0.0000E+00 0.9000E+01
       25  2    1    2    0    0 0.20831866E+03 0.12440683E+03 -.55464994E+03 0.67572569E+03 0.30015818E+03 0.0000E+00 0.0000E+00
       23  2    3    3    0    0 -.17384600E+01 -.40719560E+02 -.13662780E+03 0.17129683E+03 0.94943895E+02 0.0000E+00 0.0000E+00
       23  1    1    2    0    0 -.20831866E+03 -.12440683E+03 -.47325171E+03 0.53958888E+03 0.91188000E+02 0.0000E+00 0.9000E+01
      -13  1    4    4    0    0 0.29456996E+02 0.11045837E+02 -.88847132E+02 0.94252581E+02 0.10565837E+00 0.0000E+00 0.9000E+01
       13  1    4    4    0    0 -.31195456E+02 -.51765397E+02 -.47780672E+02 0.77044251E+02 0.10565837E+00 0.0000E+00 0.9000E+01
       23  1    3    3    0    0 0.21005712E+03 0.16512639E+03 -.41802214E+03 0.50442886E+03 0.91188000E+02 0.0000E+00 0.9000E+01
#aMCatNLO 1  0  0  2  1 0.24593954D+02 0.00000000D+00  -5  7  0 0.00000000D+00 0.00000000D+00 0.00000000D+00 0.00000000D+00 0.00000000D+00
  <mgrwgt>
 0.6639732796D-03    9    2    0
 0.324194267633982D+03 0.000000000000000D+00 0.000000000000000D+00 0.324194267633982D+03
 0.324194267633982D+03 0.000000000000000D+00 0.000000000000000D+00 -.324194267633982D+03
 0.261130474577734D+03 -.208318657300311D+03 -.124406827334771D+03 -.316251757668523D+02
 0.358124631884997D+02 0.294570651984610D+02 0.110459101206195D+02 -.171114493579142D+02
 0.686612920041197D+02 -.311955316251155D+02 -.517654751542172D+02 0.325813966606640D+02
 0.282784305497610D+03 0.210057123726966D+03 0.165126392368369D+03 0.161552284641025D+02
 0.000000000000000D+00 0.000000000000000D+00 0.000000000000000D+00 -.000000000000000D+00
 0.334965982064755D+03 0.000000000000000D+00 0.000000000000000D+00 0.334965982064755D+03
 0.338776169001646D+03 0.000000000000000D+00 0.000000000000000D+00 -.338776169001646D+03
 0.270329630916209D+03 -.217838739272803D+03 -.127706655805581D+03 -.316251757668523D+02
 0.346452870498833D+02 0.281949505995800D+02 0.106084389203876D+02 -.171114493579142D+02
 0.704717382461238D+02 -.336878313092704D+02 -.526293502216093D+02 0.325813966606640D+02
 0.273408146683924D+03 0.200094009501622D+03 0.161673001097819D+03 0.161552284641025D+02
 0.248873481702613D+02 0.232376104808710D+02 0.805456600898334D+01 -.381018693689076D+01
0.499076335774D-05 0.000000000000D+00 0.000000000000D+00 0.669638461656D-07 0.000000000000D+00  7 -1 1 23 -13 13 23 21 0 0.14416378D-01 0.17255509D+00 0.10030821D+06 0.10030821D+06 0.10030821D+06 0.11216124D+01  1  2  2  2  7  2        1 0.243611375134D-03 0.100000000000D+01
-.277080962486D-06 0.000000000000D+00 -.191658453919D-07 0.669638461656D-07 0.000000000000D+00  7 -1 1 23 -13 13 23 21 2 0.14416378D-01 0.17255509D+00 0.10030821D+06 0.10030821D+06 0.10030821D+06 0.11216124D+01  1  2  3  2  7  2        1 -.170146440458D-04 0.100000000000D+01
0.317910906260D-06 0.000000000000D+00 0.000000000000D+00 0.669638461656D-07 0.000000000000D+00  7 -1 1 23 -13 13 23 21 2 0.14416378D-01 0.17255509D+00 0.10030821D+06 0.10030821D+06 0.10030821D+06 0.11216124D+01  1  2 15  2  7  2        1 0.195218785865D-04 0.100000000000D+01
0.119089427844D-04 0.000000000000D+00 0.000000000000D+00 0.669638461656D-07 0.000000000000D+00  7 -1 1 23 -13 13 23 21 2 0.14416378D-01 0.18307145D+00 0.10844184D+06 0.10844184D+06 0.10844184D+06 0.11188451D+01  1  2 12  2  7  2        1 0.650059929175D-03 0.100000000000D+01
-.101448457982D-04 0.000000000000D+00 0.000000000000D+00 0.669638461656D-07 0.000000000000D+00  7 -1 1 23 -13 13 23 21 2 0.14416378D-01 0.17255509D+00 0.10030821D+06 0.10030821D+06 0.10030821D+06 0.11216124D+01  1  2  4  2  7  2        1 -.622962106841D-03 0.100000000000D+01
-.539621935120D-04 0.000000000000D+00 -.918242340237D-05 0.669638461656D-07 0.000000000000D+00  7 -1 1 23 -13 13 23 21 2 0.14416378D-01 0.18426906D+00 0.10030821D+06 0.10030821D+06 0.10030821D+06 0.11216124D+01  1  2  5  2  7  2        1 -.292690558701D-02 0.100000000000D+01
0.544675429119D-04 0.000000000000D+00 0.916265284266D-05 0.669638461656D-07 0.000000000000D+00  7 -1 1 23 -13 13 23 21 2 0.14416378D-01 0.17255509D+00 0.10030821D+06 0.10030821D+06 0.10030821D+06 0.11216124D+01  1  2  6  2  7  2        1 0.334467531216D-02 0.100000000000D+01
0.136378652881D-06 0.000000000000D+00 0.000000000000D+00 0.669638461656D-07 0.000000000000D+00  7 -1 21 23 -13 13 23 -1 2 0.14416378D-01 0.18307145D+00 0.10844184D+06 0.10844184D+06 0.10844184D+06 0.11188451D+01  1  2 12  4  7  2        1 0.824181368903D-05 0.100000000000D+01
-.590115604843D-06 0.000000000000D+00 -.102741577382D-06 0.669638461656D-07 0.000000000000D+00  7 -1 21 23 -13 13 23 -1 2 0.14416378D-01 0.18426906D+00 0.10030821D+06 0.10030821D+06 0.10030821D+06 0.11216124D+01  1  2  5  4  7  2        1 -.352546912390D-04 0.100000000000D+01
  </mgrwgt>
  </event>
  <event>
  8     66 0.27784906E-05 0.76060903E+02 0.75467711E-02 0.11006295E+00
       -1 -1    0    0    0  501 0.00000000E+00 0.00000000E+00 0.16872787E+02 0.16875821E+02 0.32000000E+00 0.0000E+00 0.9000E+01
        1 -1    0    0  501    0 0.00000000E+00 0.00000000E+00 -.30424308E+04 0.30424308E+04 0.32000000E+00 0.0000E+00 0.9000E+01
       25  2    1    2    0    0 0.56618529E+02 -.24398960E+02 -.15602356E+04 0.15898557E+04 0.29917407E+03 0.0000E+00 0.0000E+00
       23  2    3    3    0    0 0.58291700E+02 -.15930835E+02 -.21703316E+03 0.24353386E+03 0.92485865E+02 0.0000E+00 0.0000E+00
       23  1    1    2    0    0 -.56618529E+02 0.24398960E+02 -.14653224E+04 0.14694509E+04 0.91188000E+02 0.0000E+00 0.9000E+01
      -13  1    4    4    0    0 -.57244957E+01 -.36816595E+02 -.42825557E+02 0.56765051E+02 0.10565837E+00 0.0000E+00 0.9000E+01
       13  1    4    4    0    0 0.64016196E+02 0.20885760E+02 -.17420761E+03 0.18676881E+03 0.10565837E+00 0.0000E+00 0.9000E+01
       23  1    3    3    0    0 -.16731711E+01 -.84681246E+01 -.13432024E+04 0.13463218E+04 0.91188000E+02 0.0000E+00 0.9000E+01
#aMCatNLO 1  0  0  2  1 0.46382993D+01 0.00000000D+00  -5  7  0 0.00000000D+00 0.00000000D+00 0.00000000D+00 0.00000000D+00 0.00000000D+00
  <mgrwgt>
 0.6879927339D-03   11    2    0
 0.226581008567370D+03 0.000000000000000D+00 0.000000000000000D+00 0.226581008567370D+03
 0.226581008567370D+03 0.000000000000000D+00 0.000000000000000D+00 -.226581008567370D+03
 0.136999509536074D+03 -.566185339638301D+02 0.243989619472883D+02 -.815637574956313D+02
 0.972952001865571D+02 -.572458131082874D+01 -.368166670916581D+02 0.898783520789069D+02
 0.977748547355910D+02 0.640162837319290D+02 0.208858307894933D+02 0.708916053419003D+02
 0.121092452676519D+03 -.167316845727017D+01 -.846812564512353D+01 -.792061999251758D+02
 0.000000000000000D+00 -.000000000000000D+00 0.000000000000000D+00 -.000000000000000D+00
 0.227259262668585D+03 0.000000000000000D+00 0.000000000000000D+00 0.227259262668585D+03
 0.234663961405167D+03 0.000000000000000D+00 0.000000000000000D+00 -.234663961405167D+03
 0.136406691996049D+03 -.555683248983734D+02 0.234744330812829D+02 -.815637574956313D+02
 0.975053160298136D+02 -.497631273850071D+01 -.374753891665253D+02 0.898783520789069D+02
 0.981305328909520D+02 0.647687963410222D+02 0.202233725685322D+02 0.708916053419003D+02
 0.121143213045288D+03 -.742691786688569D+00 -.928725068354934D+01 -.792061999251758D+02
 0.873747011164994D+01 -.348146691745950D+01 0.306483420025962D+01 -.740469873658139D+01
0.506985693367D-05 0.000000000000D+00 0.000000000000D+00 0.286672330462D-07 0.000000000000D+00  7 -1 1 23 -13 13 23 21 0 0.25960481D-02 0.46806651D+00 0.23449658D+05 0.23449658D+05 0.23449658D+05 0.11773942D+01  1  2  2  2  7  2        1 0.166789943607D-03 0.100000000000D+01
-.229090075140D-06 0.000000000000D+00 -.194695855493D-07 0.286672330462D-07 0.000000000000D+00  7 -1 1 23 -13 13 23 21 2 0.25960481D-02 0.46806651D+00 0.23449658D+05 0.23449658D+05 0.23449658D+05 0.11773942D+01  1  2  3  2  7  2        1 -.104477848769D-04 0.100000000000D+01
0.313152440365D-06 0.000000000000D+00 0.000000000000D+00 0.286672330462D-07 0.000000000000D+00  7 -1 1 23 -13 13 23 21 2 0.25960481D-02 0.46806651D+00 0.23449658D+05 0.23449658D+05 0.23449658D+05 0.11773942D+01  1  2 15  2  7  2        1 0.142814974791D-04 0.100000000000D+01
0.490528666765D-05 0.000000000000D+00 0.000000000000D+00 0.286672330462D-07 0.000000000000D+00  7 -1 1 23 -13 13 23 21 2 0.25960481D-02 0.48545054D+00 0.24225834D+05 0.24225834D+05 0.24225834D+05 0.11760493D+01  1  2 12  2  7  2        1 0.184186908988D-03 0.100000000000D+01
-.587460772112D-04 0.000000000000D+00 0.000000000000D+00 0.286672330462D-07 0.000000000000D+00  7 -1 1 23 -13 13 23 21 2 0.25960481D-02 0.46806651D+00 0.23449658D+05 0.23449658D+05 0.23449658D+05 0.11773942D+01  1  2  4  2  7  2        1 -.267914870029D-02 0.100000000000D+01
-.124831089480D-03 0.000000000000D+00 -.108126865941D-04 0.286672330462D-07 0.000000000000D+00  7 -1 1 23 -13 13 23 21 2 0.25960481D-02 0.48514447D+00 0.23449658D+05 0.23449658D+05 0.23449658D+05 0.11773942D+01  1  2  5  2  7  2        1 -.471882018695D-02 0.100000000000D+01
0.125145148831D-03 0.000000000000D+00 0.108057472533D-04 0.286672330462D-07 0.000000000000D+00  7 -1 1 23 -13 13 23 21 2 0.25960481D-02 0.46806651D+00 0.23449658D+05 0.23449658D+05 0.23449658D+05 0.11773942D+01  1  2  6  2  7  2        1 0.570731662018D-02 0.100000000000D+01
0.537896735565D-04 0.000000000000D+00 0.000000000000D+00 0.286672330462D-07 0.983615925131D-08  7 -1 1 23 -13 13 23 21 2 0.26038191D-02 0.48476411D+00 0.24225834D+05 0.24225834D+05 0.24225834D+05 0.11760493D+01  1  2 11  2  7  2        1 0.202658270990D-02 0.100000000000D+01
0.121372868272D-06 0.000000000000D+00 0.000000000000D+00 0.286672330462D-07 0.000000000000D+00  7 -1 21 23 -13 13 23 -1 2 0.25960481D-02 0.48545054D+00 0.24225834D+05 0.24225834D+05 0.24225834D+05 0.11760493D+01  1  2 12  4  7  2        1 0.100611377749D-05 0.100000000000D+01
-.790494040873D-06 0.000000000000D+00 -.689025460997D-07 0.286672330462D-07 0.000000000000D+00  7 -1 21 23 -13 13 23 -1 2 0.25960481D-02 0.48514447D+00 0.23449658D+05 0.23449658D+05 0.23449658D+05 0.11773942D+01  1  2  5  4  7  2        1 -.662534701015D-05 0.100000000000D+01
0.343610379366D-06 0.000000000000D+00 0.000000000000D+00 0.286672330462D-07 0.613076084210D-10  7 -1 21 23 -13 13 23 -1 2 0.26038191D-02 0.48476411D+00 0.24225834D+05 0.24225834D+05 0.24225834D+05 0.11760493D+01  1  2 11  4  7  2        1 0.287095908806D-05 0.100000000000D+01
  </mgrwgt>
  </event>
  <event>
  8     66 0.27784906E-05 0.19684743E+03 0.75467711E-02 0.10235732E+00
       -1 -1    0    0    0  501 0.00000000E+00 0.00000000E+00 0.39767040E+03 0.39767053E+03 0.32000000E+00 0.0000E+00 0.9000E+01
        1 -1    0    0  501    0 0.00000000E+00 0.00000000E+00 -.15282045E+03 0.15282079E+03 0.32000000E+00 0.0000E+00 0.9000E+01
       25  2    1    2    0    0 0.54612476E+02 -.14084244E+02 0.26899578E+02 0.30759525E+03 0.30118161E+03 0.0000E+00 0.0000E+00
       23  2    3    3    0    0 0.20393289E+02 -.11483385E+03 0.67651449E+02 0.16165895E+03 0.89186319E+02 0.0000E+00 0.0000E+00
       23  1    1    2    0    0 -.54612476E+02 0.14084244E+02 0.21795037E+03 0.24289607E+03 0.91188000E+02 0.0000E+00 0.9000E+01
      -13  1    4    4    0    0 0.44410596E+02 -.11396297E+03 0.61239267E+02 0.13678494E+03 0.10565837E+00 0.0000E+00 0.9000E+01
       13  1    4    4    0    0 -.24017307E+02 -.87087666E+00 0.64121821E+01 0.24874016E+02 0.10565837E+00 0.0000E+00 0.9000E+01
       23  1    3    3    0    0 0.34219187E+02 0.10074960E+03 -.40751871E+02 0.14593629E+03 0.91188000E+02 0.0000E+00 0.9000E+01
#aMCatNLO 1  0  0  1  1 0.12497580D+03 0.00000000D+00  -5  7  0 0.00000000D+00 0.00000000D+00 0.00000000D+00 0.00000000D+00 0.00000000D+00
  <mgrwgt>
 0.2586045030D-03    4    2    0
 0.246520382378668D+03 0.000000000000000D+00 0.000000000000000D+00 0.246520382378668D+03
 0.246520382378668D+03 0.000000000000000D+00 0.000000000000000D+00 -.246520382378668D+03
 0.162962290858384D+03 -.546124843205653D+02 0.140842459525638D+02 0.122721503698807D+03
 0.122311490908631D+03 0.444106936025977D+02 -.113963117632113D+03 0.446006275398350D+00
 0.245879046597837D+02 -.240174004566434D+02 -.870715480867673D+00 -.519339825309163D+01
 0.183179078330536D+03 0.342191911746111D+02 0.100749587160416D+03 -.117974111721114D+03
 0.000000000000000D+00 0.000000000000000D+00 0.000000000000000D+00 -.000000000000000D+00
 0.294815965233671D+03 0.000000000000000D+00 0.000000000000000D+00 0.294815965233671D+03
 0.350732069384143D+03 0.000000000000000D+00 0.000000000000000D+00 -.350732069384143D+03
 0.174893704037252D+03 -.832321096621019D+02 -.168643060624978D+02 0.122721503698807D+03
 0.139745534771301D+03 0.222119639473970D+02 -.137968272528574D+03 0.446006275398350D+00
 0.296609096066561D+02 -.286127924668036D+02 -.584005826431879D+01 -.519339825309163D+01
 0.164333458065243D+03 0.478156466096429D+01 0.689164689946339D+02 -.117974111721114D+03
 0.136914428137361D+03 0.848513735205442D+02 0.917561678607563D+02 -.559161041504721D+02
0.467660645799D-05 0.000000000000D+00 0.000000000000D+00 0.201706877702D-07 0.000000000000D+00  7 -1 1 23 -13 13 23 21 0 0.61180097D-01 0.23510875D-01 0.38748912D+05 0.38748912D+05 0.38748912D+05 0.11571626D+01  1  2  2  1  7  1       -1 0.337759054467D-03 0.100000000000D+01
-.243817161527D-06 0.000000000000D+00 -.179594001774D-07 0.201706877702D-07 0.000000000000D+00  7 -1 1 23 -13 13 23 21 2 0.61180097D-01 0.23510875D-01 0.38748912D+05 0.38748912D+05 0.38748912D+05 0.11571626D+01  1  2  3  1  7  1       -1 -.235792105030D-04 0.100000000000D+01
0.287502513611D-06 0.000000000000D+00 0.000000000000D+00 0.201706877702D-07 0.000000000000D+00  7 -1 1 23 -13 13 23 21 2 0.61180097D-01 0.23510875D-01 0.38748912D+05 0.38748912D+05 0.38748912D+05 0.11571626D+01  1  2 15  1  7  1       -1 0.278039586965D-04 0.100000000000D+01
-.862170689352D-06 0.000000000000D+00 0.000000000000D+00 0.201706877702D-07 0.000000000000D+00  7 -1 1 23 -13 13 23 21 2 0.61180097D-01 0.23510875D-01 0.38748912D+05 0.38748912D+05 0.38748912D+05 0.11571626D+01  1  2  4  1  7  1       -1 -.833792996624D-04 0.100000000000D+01
  </mgrwgt>
  </event>
  <event>
  9     66 0.27784906E-05 0.35716074E+03 0.75467711E-02 0.94141448E-01
       -1 -1    0    0    0  501 0.00000000E+00 0.00000000E+00 0.74508567E+03 0.74508573E+03 0.32000000E+00 0.0000E+00 0.9000E+01
        1 -1    0    0  502    0 0.00000000E+00 0.00000000E+00 -.47311377E+03 0.47311388E+03 0.32000000E+00 0.0000E+00 0.9000E+01
       25  2    1    2    0    0 0.20377969E+03 -.61491575E+02 0.20519312E+03 0.42115043E+03 0.29992681E+03 0.0000E+00 0.0000E+00
       23  2    3    3    0    0 0.17321706E+03 -.11041802E+03 0.49175647E+02 0.23145442E+03 0.94639412E+02 0.0000E+00 0.0000E+00
       23  1    1    2    0    0 -.38640939E+03 -.15533037E+03 0.21464677E+03 0.47731356E+03 0.91188000E+02 0.0000E+00 0.9000E+01
      -11  1    4    4    0    0 0.70224639E+01 -.48151136E+02 0.12219038E+02 0.50171224E+02 0.51099893E-03 0.0000E+00 0.9000E+01
       11  1    4    4    0    0 0.16619459E+03 -.62266883E+02 0.36956609E+02 0.18128320E+03 0.51099893E-03 0.0000E+00 0.9000E+01
       23  1    3    3    0    0 0.30562636E+02 0.48926444E+02 0.15601747E+03 0.18969600E+03 0.91188000E+02 0.0000E+00 0.9000E+01
       21  1    1    2  502  501 0.18262970E+03 0.21682195E+03 -.14786799E+03 0.31973563E+03 0.75000000E+00 0.0000E+00 0.9000E+01
#aMCatNLO 2  0  0  2  1 0.28348786D+03 0.00000000D+00  -5  7  0 0.00000000D+00 0.00000000D+00 0.00000000D+00 0.00000000D+00 0.00000000D+00
  <mgrwgt>
 0.5954716646D-04    2    2    0
 0.371014364468021D+03 0.000000000000000D+00 0.000000000000000D+00 0.371014364468021D+03
 0.371014364468021D+03 0.000000000000000D+00 0.000000000000000D+00 -.371014364468021D+03
 0.316002452218291D+03 -.298155187666086D+03 -.505530626769731D+02 -.949580885194235D+01
 0.414933879380710D+02 0.179328310770663D+02 -.351981106422235D+02 -.126967641294328D+02
 0.221301146609336D+03 0.214553176443746D+03 -.485452183866839D+01 -.540144942235291D+02
 0.163231742170343D+03 0.656691801452740D+02 0.906056951578650D+02 0.762070672049043D+02
 0.000000000000000D+00 0.000000000000000D+00 0.000000000000000D+00 -.000000000000000D+00
 0.448947431121565D+03 0.000000000000000D+00 0.000000000000000D+00 0.448947431121565D+03
 0.785192003910122D+03 0.000000000000000D+00 0.000000000000000D+00 -.785192003910122D+03
 0.426433073332851D+03 -.386409393596898D+03 -.155330373212792D+03 -.949580885194235D+01
 0.502897074716628D+02 0.702246388087798D+01 -.481511355968758D+02 -.126967641294328D+02
 0.185513807821651D+03 0.166194592393725D+03 -.622668833759051D+02 -.540144942235291D+02
 0.132100870854931D+03 0.305626364104917D+02 0.489264437732647D+02 0.762070672049043D+02
 0.439801975550591D+03 0.182629700911803D+03 0.216821948412308D+03 -.336244572788556D+03
-.905029958331D-06 0.000000000000D+00 0.000000000000D+00 0.871416714671D-07 0.000000000000D+00  7 -1 1 23 -11 11 23 21 2 0.94730069D-01 0.72741106D-01 0.27240844D+06 0.27240844D+06 0.27240844D+06 0.10876655D+01  1  2 13  2  7  2        1 -.704952723555D-05 0.100000000000D+01
0.132327282367D-04 0.000000000000D+00 0.000000000000D+00 0.871416714671D-07 0.962270856743D-11  7 -1 1 23 -11 11 23 21 2 0.11462850D+00 0.72786700D-01 0.27240844D+06 0.27240844D+06 0.27240844D+06 0.10876655D+01  1  2  1  2  7  2        1 0.665966936944D-04 0.100000000000D+01
  </mgrwgt>
  </event>
  <event>
  9     66 0.27784906E-05 0.65582259E+03 0.75467711E-02 0.87810861E-01
       -1 -1    0    0    0  501 0.00000000E+00 0.00000000E+00 0.67756107E+03 0.67756115E+03 0.32000000E+00 0.0000E+00 0.9000E+01
        1 -1    0    0  502    0 0.00000000E+00 0.00000000E+00 -.15511002E+04 0.15511003E+04 0.32000000E+00 0.0000E+00 0.9000E+01
       25  2    1    2    0    0 0.89187153E+03 -.18670062E+03 -.77697848E+03 0.12345011E+04 0.30000906E+03 0.0000E+00 0.0000E+00
       23  2    3    3    0    0 0.19940110E+03 0.11140104E+02 -.99191116E+02 0.24134088E+03 0.92312732E+02 0.0000E+00 0.0000E+00
       23  1    1    2    0    0 -.38540098E+03 0.24655803E+03 0.33878925E+02 0.46774759E+03 0.91188000E+02 0.0000E+00 0.9000E+01
      -13  1    4    4    0    0 0.14559306E+03 0.37273474E+02 -.36434023E+02 0.15464185E+03 0.10565837E+00 0.0000E+00 0.9000E+01
       13  1    4    4    0    0 0.53808041E+02 -.26133369E+02 -.62757094E+02 0.86699033E+02 0.10565837E+00 0.0000E+00 0.9000E+01
       23  1    3    3    0    0 0.69247042E+03 -.19784073E+03 -.67778736E+03 0.99316021E+03 0.91188000E+02 0.0000E+00 0.9000E+01
       21  1    1    2  502  501 -.50647054E+03 -.59857409E+02 -.13043962E+03 0.52641274E+03 0.75000000E+00 0.0000E+00 0.9000E+01
#aMCatNLO 2  0  0  2  1 0.50999541D+03 0.00000000D+00  -5  7  0 0.00000000D+00 0.00000000D+00 0.00000000D+00 0.00000000D+00 0.00000000D+00
  <mgrwgt>
 0.3210595073D-04    1    2    0
 0.722038486561441D+03 0.000000000000000D+00 0.000000000000000D+00 0.722038486561441D+03
 0.722038486561441D+03 0.000000000000000D+00 0.000000000000000D+00 -.722038486561441D+03
 0.693753918954970D+03 -.594775178678617D+03 0.221813064812620D+03 0.264614247212110D+03
 0.110932585891927D+03 0.100463921502615D+03 0.319399383158334D+02 0.345380866488981D+02
 0.521166970464121D+02 0.337177142056479D+02 -.285078206643184D+02 -.276870009344603D+02
 0.587273771229574D+03 0.460593542970353D+03 -.225245182464135D+03 -.271465332926548D+03
 0.000000000000000D+00 -.000000000000000D+00 -.000000000000000D+00 0.000000000000000D+00
 0.108187144011948D+04 0.000000000000000D+00 0.000000000000000D+00 0.108187144011948D+04
 0.971432159623793D+03 0.000000000000000D+00 0.000000000000000D+00 -.971432159623793D+03
 0.536340125893639D+03 -.385400981171568D+03 0.246558032081627D+03 0.264614247212110D+03
 0.154206264337000D+03 0.145593181519036D+03 0.372735566665056D+02 0.345380866488981D+02
 0.659152461379672D+02 0.538079207129630D+02 -.261334521491418D+02 -.276870009344603D+02
 0.775025753789473D+03 0.692470423449196D+03 -.197840727253290D+03 -.271465332926548D+03
 0.521816209585197D+03 -.506470544509627D+03 -.598574093457014D+02 0.110439280495690D+03
0.456653027763D-04 0.000000000000D+00 0.000000000000D+00 0.312194739059D-05 0.853135302641D-10  7 -1 1 23 -13 13 23 21 2 0.10424015D+00 0.23863075D+00 0.91446155D+06 0.91446155D+06 0.91446155D+06 0.10504589D+01  1  2  1  2  7  2        1 0.321059507252D-04 0.100000000000D+01
  </mgrwgt>
  </event>
  <event>
  8     66 0.27784906E-05 0.25982855E+03 0.75467711E-02 0.92502326E-01
       -1 -1    0    0    0  501 0.00000000E+00 0.00000000E+00 0.58198180E+03 0.58198189E+03 0.32000000E+00 0.0000E+00 0.9000E+01
        1 -1    0    0  501    0 0.00000000E+00 0.00000000E+00 -.11260653E+04 0.11260654E+04 0.32000000E+00 0.0000E+00 0.9000E+01
       25  2    1    2    0    0 -.69484987E+02 -.53939129E+03 0.30772618E+03 0.69332260E+03 0.30038259E+03 0.0000E+00 0.0000E+00
       23  2    3    3    0    0 -.70936283E+02 -.47063795E+03 0.16813291E+03 0.51296002E+03 0.91253890E+02 0.0000E+00 0.0000E+00
       23  1    1    2    0    0 0.69484987E+02 0.53939129E+03 -.85180972E+03 0.10147247E+04 0.91188000E+02 0.0000E+00 0.9000E+01
      -13  1    4    4    0    0 -.86182511E+02 -.43166727E+03 0.13771568E+03 0.46122627E+03 0.10565837E+00 0.0000E+00 0.9000E+01
       13  1    4    4    0    0 0.15246228E+02 -.38970682E+02 0.30417236E+02 0.51733751E+02 0.10565837E+00 0.0000E+00 0.9000E+01
       23  1    3    3    0    0 0.14512956E+01 -.68753340E+02 0.13959327E+03 0.18036258E+03 0.91188000E+02 0.0000E+00 0.9000E+01
#aMCatNLO 1  0  0  2  1 0.63185064D+02 0.00000000D+00  -5  7  0 0.00000000D+00 0.00000000D+00 0.00000000D+00 0.00000000D+00 0.00000000D+00
  <mgrwgt>
 0.5939615065D-03    9    2    0
 0.809536692433318D+03 0.000000000000000D+00 0.000000000000000D+00 0.809536692433318D+03
 0.809536692433318D+03 0.000000000000000D+00 0.000000000000000D+00 -.809536692433318D+03
 0.784239985567283D+03 0.694849872934781D+02 0.539391289698760D+03 -.557625301395575D+03
 0.532851775471969D+03 -.861826470616654D+02 -.431667793471639D+03 0.300277341883135D+03
 0.647976767434714D+02 0.152463641585185D+02 -.389701557179610D+02 0.494733691455830D+02
 0.237183947083912D+03 0.145129560966885D+01 -.687533405091606D+02 0.207874590366858D+03
 0.000000000000000D+00 0.000000000000000D+00 0.000000000000000D+00 -.000000000000000D+00
 0.820616776078995D+03 0.000000000000000D+00 0.000000000000000D+00 0.820616776078995D+03
 0.905537209856367D+03 0.000000000000000D+00 0.000000000000000D+00 -.905537209856367D+03
 0.775141527247440D+03 0.408744068688007D+02 0.529067521235344D+03 -.557625301395575D+03
 0.542138864706124D+03 -.105905919342273D+03 -.438784688457463D+03 0.300277341883135D+03
 0.648035204125538D+02 0.128685204788958D+02 -.398281707329045D+02 0.494733691455830D+02
 0.238221916154725D+03 -.727116106483728D+01 -.719007294052665D+02 0.207874590366858D+03
 0.105848157414520D+03 0.594341530594140D+02 0.214460673602892D+02 -.849204337773719D+02
0.200211605639D-03 0.000000000000D+00 0.000000000000D+00 0.595295049551D-05 0.000000000000D+00  7 -1 1 23 -13 13 23 21 0 0.89535673D-01 0.17324083D+00 0.32929558D+06 0.32929558D+06 0.32929558D+06 0.10815707D+01  1  2  2  2  7  2        1 0.376421179477D-03 0.100000000000D+01
-.952152465888D-05 0.000000000000D+00 -.768865282579D-06 0.595295049551D-05 0.000000000000D+00  7 -1 1 23 -13 13 23 21 2 0.89535673D-01 0.17324083D+00 0.32929558D+06 0.32929558D+06 0.32929558D+06 0.10815707D+01  1  2  3  2  7  2        1 -.209411808036D-04 0.100000000000D+01
0.123781055674D-04 0.000000000000D+00 0.000000000000D+00 0.595295049551D-05 0.000000000000D+00  7 -1 1 23 -13 13 23 21 2 0.89535673D-01 0.17324083D+00 0.32929558D+06 0.32929558D+06 0.32929558D+06 0.10815707D+01  1  2 15  2  7  2        1 0.272238066884D-04 0.100000000000D+01
0.102509430914D-02 0.000000000000D+00 0.000000000000D+00 0.595295049551D-05 0.000000000000D+00  7 -1 1 23 -13 13 23 21 2 0.89535673D-01 0.19488195D+00 0.36675107D+06 0.36675107D+06 0.36675107D+06 0.10781551D+01  1  2 12  2  7  2        1 0.176740657125D-02 0.100000000000D+01
-.104324162817D-02 0.000000000000D+00 0.000000000000D+00 0.595295049551D-05 0.000000000000D+00  7 -1 1 23 -13 13 23 21 2 0.89535673D-01 0.17324083D+00 0.32929558D+06 0.32929558D+06 0.32929558D+06 0.10815707D+01  1  2  4  2  7  2        1 -.229445517814D-02 0.100000000000D+01
-.158427101682D-02 0.000000000000D+00 -.210904514669D-03 0.595295049551D-05 0.000000000000D+00  7 -1 1 23 -13 13 23 21 2 0.89535673D-01 0.19497564D+00 0.32929558D+06 0.32929558D+06 0.32929558D+06 0.10815707D+01  1  2  5  2  7  2        1 -.276275562804D-02 0.100000000000D+01
0.159947796857D-02 0.000000000000D+00 0.209439943261D-03 0.595295049551D-05 0.000000000000D+00  7 -1 1 23 -13 13 23 21 2 0.89535673D-01 0.17324083D+00 0.32929558D+06 0.32929558D+06 0.32929558D+06 0.10815707D+01  1  2  6  2  7  2        1 0.351781448153D-02 0.100000000000D+01
0.191370395910D-04 0.000000000000D+00 0.000000000000D+00 0.595295049551D-05 0.000000000000D+00  7 -1 21 23 -13 13 23 -1 2 0.89535673D-01 0.19488195D+00 0.36675107D+06 0.36675107D+06 0.36675107D+06 0.10781551D+01  1  2 12  4  7  2        1 0.319702825341D-04 0.100000000000D+01
-.287293021958D-04 0.000000000000D+00 -.395083426937D-05 0.595295049551D-05 0.000000000000D+00  7 -1 21 23 -13 13 23 -1 2 0.89535673D-01 0.19497564D+00 0.32929558D+06 0.32929558D+06 0.32929558D+06 0.10815707D+01  1  2  5  4  7  2        1 -.487228279984D-04 0.100000000000D+01
  </mgrwgt>
  </event>
  <event>
  8     66 0.27784906E-05 0.14417181E+03 0.75467711E-02 0.10172440E+00
       -3 -1    0    0    0  501 0.00000000E+00 0.00000000E+00 0.41360290E+03 0.41360321E+03 0.50000000E+00 0.0000E+00 0.9000E+01
        3 -1    0    0  501    0 0.00000000E+00 0.00000000E+00 -.24795872E+03 0.24795922E+03 0.50000000E+00 0.0000E+00 0.9000E+01
       25  2    1    2    0    0 -.11340846E+03 0.16965766E+03 0.22943881E+03 0.42911845E+03 0.29975869E+03 0.0000E+00 0.0000E+00
       23  2    3    3    0    0 -.11226063E+03 0.30022618E+02 0.25775038E+01 0.14755040E+03 0.90888230E+02 0.0000E+00 0.0000E+00
       23  1    1    2    0    0 0.11340846E+03 -.16965766E+03 -.63794626E+02 0.23244398E+03 0.91188000E+02 0.0000E+00 0.9000E+01
      -13  1    4    4    0    0 -.91394128E+02 0.61131512E+02 0.44516417E+01 0.11004443E+03 0.10565837E+00 0.0000E+00 0.9000E+01
       13  1    4    4    0    0 -.20866501E+02 -.31108894E+02 -.18741379E+01 0.37505968E+02 0.10565837E+00 0.0000E+00 0.9000E+01
       23  1    3    3    0    0 -.11478296E+01 0.13963504E+03 0.22686131E+03 0.28156805E+03 0.91188000E+02 0.0000E+00 0.9000E+01
#aMCatNLO 1  0  0  2  1 0.20701807D+02 0.00000000D+00  -5  7  0 0.00000000D+00 0.00000000D+00 0.00000000D+00 0.00000000D+00 0.00000000D+00
  <mgrwgt>
 0.2250585109D-04    9    2    0
 0.320244771354655D+03 0.000000000000000D+00 0.000000000000000D+00 0.320244771354655D+03
 0.320244771354655D+03 0.000000000000000D+00 0.000000000000000D+00 -.320244771354655D+03
 0.256590318602959D+03 0.113408458392203D+03 -.169657659932945D+03 -.126008492761199D+03
 0.112513836387585D+03 -.913942232555351D+02 0.611316362589076D+02 -.238617346913048D+02
 0.392245531719978D+02 -.208664053966492D+02 -.311090179833853D+02 -.116356219204210D+02
 0.232160834546769D+03 -.114782974001923D+01 0.139635041657423D+03 0.161505849372925D+03
 0.000000000000000D+00 0.000000000000000D+00 -.000000000000000D+00 -.000000000000000D+00
 0.323955587413581D+03 0.000000000000000D+00 0.000000000000000D+00 0.323955587413581D+03
 0.350647312514504D+03 0.000000000000000D+00 0.000000000000000D+00 -.350647312514504D+03
 0.250368856377506D+03 0.107200502032899D+03 -.164314409032578D+03 -.126008492761199D+03
 0.116100476258671D+03 -.941937143113484D+02 0.635411865583591D+02 -.238617346913048D+02
 0.391002711749661D+02 -.218255301455303D+02 -.302834895999033D+02 -.116356219204210D+02
 0.235254411928094D+03 -.687155187583270D+01 0.144561507258264D+03 0.161505849372925D+03
 0.337788841888479D+02 0.156902942998123D+02 -.135047951841416D+02 -.266917251009233D+02
0.419029109261D-05 0.000000000000D+00 0.000000000000D+00 0.448055989139D-06 0.000000000000D+00  7 -3 3 23 -13 13 23 21 0 0.63631278D-01 0.38147557D-01 0.72282648D+05 0.72282648D+05 0.72282648D+05 0.11334768D+01  1  2  2  2  7  2        3 0.286067774501D-04 0.100000000000D+01
-.224134069448D-06 0.000000000000D+00 -.160918211246D-07 0.448055989139D-06 0.000000000000D+00  7 -3 3 23 -13 13 23 21 2 0.63631278D-01 0.38147557D-01 0.72282648D+05 0.72282648D+05 0.72282648D+05 0.11334768D+01  1  2  3  2  7  2        3 -.196588408713D-05 0.100000000000D+01
0.268764174711D-06 0.000000000000D+00 0.000000000000D+00 0.448055989139D-06 0.000000000000D+00  7 -3 3 23 -13 13 23 21 2 0.63631278D-01 0.38147557D-01 0.72282648D+05 0.72282648D+05 0.72282648D+05 0.11334768D+01  1  2 15  2  7  2        3 0.235733556954D-05 0.100000000000D+01
0.282637188468D-04 0.000000000000D+00 0.000000000000D+00 0.448055989139D-06 0.000000000000D+00  7 -3 3 23 -13 13 23 21 2 0.63631278D-01 0.41977134D-01 0.78136322D+05 0.78136322D+05 0.78136322D+05 0.11306222D+01  1  2 12  2  7  2        3 0.205116188056D-03 0.100000000000D+01
-.287940522839D-04 0.000000000000D+00 0.000000000000D+00 0.448055989139D-06 0.000000000000D+00  7 -3 3 23 -13 13 23 21 2 0.63631278D-01 0.38147557D-01 0.72282648D+05 0.72282648D+05 0.72282648D+05 0.11334768D+01  1  2  4  2  7  2        3 -.252553167524D-03 0.100000000000D+01
-.484648424426D-04 0.000000000000D+00 -.604789584647D-05 0.448055989139D-06 0.000000000000D+00  7 -3 3 23 -13 13 23 21 2 0.63631278D-01 0.42126876D-01 0.72282648D+05 0.72282648D+05 0.72282648D+05 0.11334768D+01  1  2  5  2  7  2        3 -.350903997330D-03 0.100000000000D+01
0.488538990273D-04 0.000000000000D+00 0.601824539220D-05 0.448055989139D-06 0.000000000000D+00  7 -3 3 23 -13 13 23 21 2 0.63631278D-01 0.38147557D-01 0.72282648D+05 0.72282648D+05 0.72282648D+05 0.11334768D+01  1  2  6  2  7  2        3 0.428498455985D-03 0.100000000000D+01
0.442142814169D-06 0.000000000000D+00 0.000000000000D+00 0.448055989139D-06 0.000000000000D+00  7 -3 21 23 -13 13 23 -3 2 0.63631278D-01 0.41977134D-01 0.78136322D+05 0.78136322D+05 0.78136322D+05 0.11306222D+01  1  2 12  4  7  2        3 0.505803771273D-04 0.100000000000D+01
-.762240388297D-06 0.000000000000D+00 -.975726967658D-07 0.448055989139D-06 0.000000000000D+00  7 -3 21 23 -13 13 23 -3 2 0.63631278D-01 0.42126876D-01 0.72282648D+05 0.72282648D+05 0.72282648D+05 0.11334768D+01  1  2  5  4  7  2        3 -.872302341607D-04 0.100000000000D+01
  </mgrwgt>
  </event>
  <event>
  8     66 0.27784906E-05 0.17123580E+03 0.75467711E-02 0.99347307E-01
       -1 -1    0    0    0  501 0.00000000E+00 0.00000000E+00 0.87664106E+03 0.87664111E+03 0.32000000E+00 0.0000E+00 0.9000E+01
        1 -1    0    0  501    0 0.00000000E+00 0.00000000E+00 -.45204491E+03 0.45204502E+03 0.32000000E+00 0.0000E+00 0.9000E+01
       25  2    1    2    0    0 -.10084249E+03 -.22931242E+03 -.34077917E+03 0.51821219E+03 0.29943287E+03 0.0000E+00 0.0000E+00
       23  2    3    3    0    0 -.15814459E+03 -.20980606E+03 -.26744785E+03 0.38646713E+03 0.93809366E+02 0.0000E+00 0.0000E+00
       23  1    1    2    0    0 0.10084249E+03 0.22931242E+03 0.76537531E+03 0.81047394E+03 0.91188000E+02 0.0000E+00 0.9000E+01
      -11  1    4    4    0    0 -.16751907E+03 -.17325265E+03 -.23661514E+03 0.33773635E+03 0.51099893E-03 0.0000E+00 0.9000E+01
       11  1    4    4    0    0 0.93744816E+01 -.36553412E+02 -.30832714E+02 0.48730782E+02 0.51099893E-03 0.0000E+00 0.9000E+01
       23  1    3    3    0    0 0.57302099E+02 -.19506360E+02 -.73331314E+02 0.13174506E+03 0.91188000E+02 0.0000E+00 0.9000E+01
#aMCatNLO 1  0  0  1  2 0.17084746D+02 0.00000000D+00  -5  7  0 0.00000000D+00 0.00000000D+00 0.00000000D+00 0.00000000D+00 0.00000000D+00
  <mgrwgt>
 0.6943555475D-03    9    2    0
 0.629508730164120D+03 0.000000000000000D+00 0.000000000000000D+00 0.629508730164120D+03
 0.629508730164120D+03 0.000000000000000D+00 0.000000000000000D+00 -.629508730164120D+03
 0.597203858955604D+03 0.100842489352114D+03 0.229312418457166D+03 0.534400416251765D+03
 0.436222291567797D+03 -.167519070011889D+03 -.173252646324011D+03 -.363607988615129D+03
 0.618254851730088D+02 0.937448164237541D+01 -.365534118627205D+02 -.489730312724158D+02
 0.163765824631829D+03 0.573020990173999D+02 -.195063602704346D+02 -.121819396364221D+03
 0.000000000000000D+00 -.000000000000000D+00 -.000000000000000D+00 0.000000000000000D+00
 0.650891082155619D+03 0.000000000000000D+00 0.000000000000000D+00 0.650891082155619D+03
 0.632988689696994D+03 0.000000000000000D+00 0.000000000000000D+00 -.632988689696994D+03
 0.599715123797976D+03 0.108343403809775D+03 0.232423923744682D+03 0.534400416251765D+03
 0.433261906929352D+03 -.162070140978938D+03 -.170992339051741D+03 -.363607988615129D+03
 0.617586227225372D+02 0.101489649908793D+02 -.362321431630753D+02 -.489730312724158D+02
 0.164397720722147D+03 0.593586514802577D+02 -.186532677710661D+02 -.121819396364221D+03
 0.247463976806020D+02 -.157808793019736D+02 -.654617375879929D+01 0.179023924586255D+02
0.737634419554D-04 0.000000000000D+00 0.000000000000D+00 0.516484360755D-06 0.000000000000D+00  7 -1 1 23 -11 11 23 21 0 0.13486787D+00 0.69545384D-01 0.10718074D+06 0.10718074D+06 0.10718074D+06 0.11192590D+01  1  2  2  1  7  1       -1 0.231708504638D-03 0.100000000000D+01
-.196813834587D-05 0.000000000000D+00 -.283271039469D-06 0.516484360755D-06 0.000000000000D+00  7 -1 1 23 -11 11 23 21 2 0.13486787D+00 0.69545384D-01 0.10718074D+06 0.10718074D+06 0.10718074D+06 0.11192590D+01  1  2  3  1  7  1       -1 -.774493161349D-05 0.100000000000D+01
0.439036439356D-05 0.000000000000D+00 0.000000000000D+00 0.516484360755D-06 0.000000000000D+00  7 -1 1 23 -11 11 23 21 2 0.13486787D+00 0.69545384D-01 0.10718074D+06 0.10718074D+06 0.10718074D+06 0.11192590D+01  1  2 15  1  7  1       -1 0.172767692158D-04 0.100000000000D+01
0.241997781088D-03 0.000000000000D+00 0.000000000000D+00 0.516484360755D-06 0.000000000000D+00  7 -1 1 23 -11 11 23 21 2 0.13981405D+00 0.69545384D-01 0.11318716D+06 0.11318716D+06 0.11318716D+06 0.11173339D+01  1  2 12  1  7  1       -1 0.860267309697D-03 0.100000000000D+01
-.246066088639D-03 0.000000000000D+00 0.000000000000D+00 0.516484360755D-06 0.000000000000D+00  7 -1 1 23 -11 11 23 21 2 0.13486787D+00 0.69545384D-01 0.10718074D+06 0.10718074D+06 0.10718074D+06 0.11192590D+01  1  2  4  1  7  1       -1 -.968308469222D-03 0.100000000000D+01
-.188819816634D-02 0.000000000000D+00 -.231545962282D-03 0.516484360755D-06 0.000000000000D+00  7 -1 1 23 -11 11 23 21 2 0.13986796D+00 0.69545384D-01 0.10718074D+06 0.10718074D+06 0.10718074D+06 0.11192590D+01  1  2  5  1  7  1       -1 -.674602279761D-02 0.100000000000D+01
0.189552442512D-02 0.000000000000D+00 0.231392624697D-03 0.516484360755D-06 0.000000000000D+00  7 -1 1 23 -11 11 23 21 2 0.13486787D+00 0.69545384D-01 0.10718074D+06 0.10718074D+06 0.10718074D+06 0.11192590D+01  1  2  6  1  7  1       -1 0.745918450046D-02 0.100000000000D+01
0.561600197270D-05 0.000000000000D+00 0.000000000000D+00 0.516484360755D-06 0.000000000000D+00  7 21 1 23 -11 11 23 1 2 0.13981405D+00 0.69545384D-01 0.11318716D+06 0.11318716D+06 0.11318716D+06 0.11173339D+01  1  2 12  3  7  1       -1 0.130005423423D-03 0.100000000000D+01
-.121026846893D-04 0.000000000000D+00 -.149760484571D-05 0.516484360755D-06 0.000000000000D+00  7 21 1 23 -11 11 23 1 2 0.13986796D+00 0.69545384D-01 0.10718074D+06 0.10718074D+06 0.10718074D+06 0.11192590D+01  1  2  5  3  7  1       -1 -.282010761463D-03 0.100000000000D+01
  </mgrwgt>
  </event>
  <event>
  8     66 0.27784906E-05 0.20324835E+03 0.75467711E-02 0.10335485E+00
       -1 -1    0    0    0  501 0.00000000E+00 0.00000000E+00 0.26159022E+03 0.26159042E+03 0.32000000E+00 0.0000E+00 0.9000E+01
        1 -1    0    0  501    0 0.00000000E+00 0.00000000E+00 -.25482162E+03 0.25482182E+03 0.32000000E+00 0.0000E+00 0.9000E+01
       25  2    1    2    0    0 0.28698212E+02 -.92792579E+02 -.11591522E+03 0.33530283E+03 0.29926175E+03 0.0000E+00 0.0000E+00
       23  2    3    3    0    0 -.67205989E+02 0.33056985E+02 -.95178780E+02 0.15150680E+03 0.91026922E+02 0.0000E+00 0.0000E+00
       23  1    1    2    0    0 -.28698212E+02 0.92792579E+02 0.12268381E+03 0.18110941E+03 0.91188000E+02 0.0000E+00 0.9000E+01
      -11  1    4    4    0    0 -.49573196E+02 -.38728439E+01 -.98612363E+02 0.11043957E+03 0.51099893E-03 0.0000E+00 0.9000E+01
       11  1    4    4    0    0 -.17632794E+02 0.36929829E+02 0.34335830E+01 0.41067228E+02 0.51099893E-03 0.0000E+00 0.9000E+01
       23  1    3    3    0    0 0.95904201E+02 -.12584956E+03 -.20736436E+02 0.18379603E+03 0.91188000E+02 0.0000E+00 0.9000E+01
#aMCatNLO 1  0  0  2  2 0.75174313D+02 0.00000000D+00  -5  7  0 0.00000000D+00 0.00000000D+00 0.00000000D+00 0.00000000D+00 0.00000000D+00
  <mgrwgt>
 0.2941737889D-03    4    2    0
 0.258183939474985D+03 0.000000000000000D+00 0.000000000000000D+00 0.258183939474985D+03
 0.258183939474985D+03 0.000000000000000D+00 0.000000000000000D+00 -.258183939474985D+03
 0.179516821061517D+03 -.286982115623682D+02 0.927925790027765D+02 0.120320354201473D+03
 0.111741678044832D+03 -.495731956299608D+02 -.387284391128351D+01 -.100068486384813D+03
 0.410257479067944D+02 -.176327935294919D+02 0.369298292276550D+02 0.289556503542781D+01
 0.184083631936825D+03 0.959042007218209D+02 -.125849564319148D+03 -.231474328520879D+02
 0.000000000000000D+00 0.000000000000000D+00 0.000000000000000D+00 0.000000000000000D+00
 0.389583278110197D+03 0.000000000000000D+00 0.000000000000000D+00 0.389583278110197D+03
 0.271884945673509D+03 0.000000000000000D+00 0.000000000000000D+00 -.271884945673509D+03
 0.178946041759761D+03 -.517805218733517D+02 0.809211000718710D+02 0.120320354201473D+03
 0.119595419969082D+03 -.644695635291982D+02 -.115342051563346D+02 -.100068486384813D+03
 0.412820758464345D+02 -.229327978700838D+02 0.342039803409816D+02 0.289556503542781D+01
 0.181987696288477D+03 0.723319625057154D+02 -.137973018408734D+03 -.231474328520879D+02
 0.139656989919951D+03 0.668509207669183D+02 0.343821431522158D+02 0.117698332436687D+03
0.410363606748D-05 0.000000000000D+00 0.000000000000D+00 0.131035972631D-06 0.000000000000D+00  7 -1 1 23 -11 11 23 21 0 0.40244680D-01 0.39203357D-01 0.41309891D+05 0.41309891D+05 0.41309891D+05 0.11546608D+01  1  2  2  2  7  2        1 0.323578750218D-03 0.100000000000D+01
-.212114100886D-06 0.000000000000D+00 -.157590430113D-07 0.131035972631D-06 0.000000000000D+00  7 -1 1 23 -11 11 23 21 2 0.40244680D-01 0.39203357D-01 0.41309891D+05 0.41309891D+05 0.41309891D+05 0.11546608D+01  1  2  3  2  7  2        1 -.222992148962D-04 0.100000000000D+01
0.258159044932D-06 0.000000000000D+00 0.000000000000D+00 0.131035972631D-06 0.000000000000D+00  7 -1 1 23 -11 11 23 21 2 0.40244680D-01 0.39203357D-01 0.41309891D+05 0.41309891D+05 0.41309891D+05 0.11546608D+01  1  2 15  2  7  2        1 0.271398459428D-04 0.100000000000D+01
-.325750169476D-06 0.000000000000D+00 0.000000000000D+00 0.131035972631D-06 0.000000000000D+00  7 -1 1 23 -11 11 23 21 2 0.40244680D-01 0.39203357D-01 0.41309891D+05 0.41309891D+05 0.41309891D+05 0.11546608D+01  1  2  4  2  7  2        1 -.342455923547D-04 0.100000000000D+01
  </mgrwgt>
  </event>
  <event>
  8     66 0.27784906E-05 0.31063348E+03 0.75467711E-02 0.94792380E-01
       -1 -1    0    0    0  501 0.00000000E+00 0.00000000E+00 0.15275774E+03 0.15275808E+03 0.32000000E+00 0.0000E+00 0.9000E+01
        1 -1    0    0  501    0 0.00000000E+00 0.00000000E+00 -.77579336E+03 0.77579343E+03 0.32000000E+00 0.0000E+00 0.9000E+01
       25  2    1    2    0    0 -.23522325E+03 0.10735541E+03 -.26200488E+03 0.47521542E+03 0.30054613E+03 0.0000E+00 0.0000E+00
       23  2    3    3    0    0 -.14408346E+03 -.14734978E+02 -.17039541E+02 0.17266659E+03 0.92445895E+02 0.0000E+00 0.0000E+00
       23  1    1    2    0    0 0.23522325E+03 -.10735541E+03 -.36103074E+03 0.45333609E+03 0.91188000E+02 0.0000E+00 0.9000E+01
      -11  1    4    4    0    0 -.73486466E+02 -.51694525E+02 -.23039394E+02 0.92754505E+02 0.51099893E-03 0.0000E+00 0.9000E+01
       11  1    4    4    0    0 -.70596990E+02 0.36959547E+02 0.59998525E+01 0.79912085E+02 0.51099893E-03 0.0000E+00 0.9000E+01
       23  1    3    3    0    0 -.91139795E+02 0.12209039E+03 -.24496533E+03 0.30254882E+03 0.91188000E+02 0.0000E+00 0.9000E+01
#aMCatNLO 1  0  0  2  1 0.29757600D+03 0.00000000D+00  -5  7  0 0.00000000D+00 0.00000000D+00 0.00000000D+00 0.00000000D+00 0.00000000D+00
  <mgrwgt>
 0.2760471366D-03    3    2    0
 0.344250822711387D+03 0.000000000000000D+00 0.000000000000000D+00 0.344250822711387D+03
 0.344250822711387D+03 0.000000000000000D+00 0.000000000000000D+00 -.344250822711387D+03
 0.284691979806115D+03 0.235223251713732D+03 -.107355408843880D+03 -.766753550178086D+02
 0.104245172359910D+03 -.734864662340972D+02 -.516945248942632D+02 0.528627594505676D+02
 0.113203227814029D+03 -.705969901946752D+02 0.369595467483772D+02 0.804053957587578D+02
 0.186361265442721D+03 -.911397952849597D+02 0.122090386989766D+03 -.565928001915169D+02
 0.000000000000000D+00 0.000000000000000D+00 0.000000000000000D+00 0.000000000000000D+00
 0.587058416902791D+03 0.000000000000000D+00 0.000000000000000D+00 0.587058416902791D+03
 0.479437915044932D+03 0.000000000000000D+00 0.000000000000000D+00 -.479437915044932D+03
 0.331285970155714D+03 0.205202875760370D+03 -.231187829244059D+03 -.766753550178086D+02
 0.142762161179003D+03 -.855246455496640D+02 -.101351360777128D+03 0.528627594505676D+02
 0.114988518189743D+03 -.817181707578949D+02 -.891471908328284D+01 0.804053957587578D+02
 0.161020674379256D+03 -.108069843565925D+03 0.522548573021687D+02 -.565928001915169D+02
 0.316439008044006D+03 0.701097841131144D+02 0.289199051802301D+03 0.107620501857858D+03
0.653924200680D-05 0.000000000000D+00 0.000000000000D+00 0.148878973981D-06 0.000000000000D+00  7 -1 1 23 -11 11 23 21 0 0.23501222D-01 0.11935286D+00 0.96493157D+05 0.96493157D+05 0.96493157D+05 0.11229965D+01  1  2  2  2  7  2        1 0.272715245729D-03 0.100000000000D+01
-.358627229477D-06 0.000000000000D+00 -.251124111281D-07 0.148878973981D-06 0.000000000000D+00  7 -1 1 23 -11 11 23 21 2 0.23501222D-01 0.11935286D+00 0.96493157D+05 0.96493157D+05 0.96493157D+05 0.11229965D+01  1  2  3  2  7  2        1 -.188617541555D-04 0.100000000000D+01
0.421978007694D-06 0.000000000000D+00 0.000000000000D+00 0.148878973981D-06 0.000000000000D+00  7 -1 1 23 -11 11 23 21 2 0.23501222D-01 0.11935286D+00 0.96493157D+05 0.96493157D+05 0.96493157D+05 0.11229965D+01  1  2 15  2  7  2        1 0.221936450608D-04 0.100000000000D+01
  </mgrwgt>
  </event>
  <event>
  8     66 0.27784906E-05 0.19122289E+03 0.75467711E-02 0.95525639E-01
       -1 -1    0    0    0  501 0.00000000E+00 0.00000000E+00 0.96359206E+02 0.96359738E+02 0.32000000E+00 0.0000E+00 0.9000E+01
        1 -1    0    0  501    0 0.00000000E+00 0.00000000E+00 -.18741626E+04 0.18741627E+04 0.32000000E+00 0.0000E+00 0.9000E+01
       25  2    1    2    0    0 0.28588982E+03 -.22559207E+03 -.90037763E+03 0.10161556E+04 0.29877666E+03 0.0000E+00 0.0000E+00
       23  2    3    3    0    0 0.65427713E+02 0.26400242E+02 -.14580319E+03 0.18561267E+03 0.90640694E+02 0.0000E+00 0.0000E+00
       23  1    1    2    0    0 -.28588982E+03 0.22559207E+03 -.87742582E+03 0.95436685E+03 0.91188000E+02 0.0000E+00 0.9000E+01
      -13  1    4    4    0    0 0.36758824E+02 0.50822190E+02 -.42782668E+02 0.75924133E+02 0.10565837E+00 0.0000E+00 0.9000E+01
       13  1    4    4    0    0 0.28668889E+02 -.24421947E+02 -.10302052E+03 0.10968854E+03 0.10565837E+00 0.0000E+00 0.9000E+01
       23  1    3    3    0    0 0.22046210E+03 -.25199231E+03 -.75457444E+03 0.83054290E+03 0.91188000E+02 0.0000E+00 0.9000E+01
#aMCatNLO 1  0  0  2  1 0.94333881D+02 0.00000000D+00  -5  7  0 0.00000000D+00 0.00000000D+00 0.00000000D+00 0.00000000D+00 0.00000000D+00
  <mgrwgt>
 0.9016091383D-03    9    2    0
 0.424962793415673D+03 0.000000000000000D+00 0.000000000000000D+00 0.424962793415673D+03
 0.424962793415673D+03 0.000000000000000D+00 0.000000000000000D+00 -.424962793415673D+03
 0.377339658878762D+03 -.285889817932635D+03 0.225592067335447D+03 -.380157595807926D+02
 0.865382653901416D+02 0.367588348036738D+02 0.508222917413446D+02 0.596217586353208D+02
 0.388192015862737D+02 0.286688781905373D+02 -.244220494878222D+02 -.941219070707016D+01
 0.347228460976168D+03 0.220462104938424D+03 -.251992309588969D+03 -.121938083474581D+02
 0.000000000000000D+00 0.000000000000000D+00 -.000000000000000D+00 -.000000000000000D+00
 0.457578847450280D+03 0.000000000000000D+00 0.000000000000000D+00 0.457578847450280D+03
 0.501713560226595D+03 0.000000000000000D+00 0.000000000000000D+00 -.501713560226595D+03
 0.406887002620700D+03 -.288973086293506D+03 0.268870115444537D+03 -.380157595807926D+02
 0.924062776866437D+02 0.360552957949843D+02 0.606974603938982D+02 0.596217586353208D+02
 0.361276853574893D+02 0.283742167404692D+02 -.202860577675497D+02 -.941219070707016D+01
 0.319723691259155D+03 0.217839913459661D+03 -.215186130013651D+03 -.121938083474581D+02
 0.104147750752887D+03 0.670366029839099D+01 -.940953880572339D+02 -.441347127763150D+02
0.339894886837D-04 0.000000000000D+00 0.000000000000D+00 0.198803402168D-06 0.000000000000D+00  7 -1 1 23 -13 13 23 21 0 0.14824536D-01 0.28833276D+00 0.16925716D+06 0.16925716D+06 0.16925716D+06 0.11034360D+01  1  2  2  2  7  2        1 0.488854321131D-03 0.100000000000D+01
-.188589263839D-05 0.000000000000D+00 -.130528586183D-06 0.198803402168D-06 0.000000000000D+00  7 -1 1 23 -13 13 23 21 2 0.14824536D-01 0.28833276D+00 0.16925716D+06 0.16925716D+06 0.16925716D+06 0.11034360D+01  1  2  3  2  7  2        1 -.330252502431D-04 0.100000000000D+01
0.222929477911D-05 0.000000000000D+00 0.000000000000D+00 0.198803402168D-06 0.000000000000D+00  7 -1 1 23 -13 13 23 21 2 0.14824536D-01 0.28833276D+00 0.16925716D+06 0.16925716D+06 0.16925716D+06 0.11034360D+01  1  2 15  2  7  2        1 0.390388171876D-04 0.100000000000D+01
0.349329675909D-04 0.000000000000D+00 0.000000000000D+00 0.198803402168D-06 0.000000000000D+00  7 -1 1 23 -13 13 23 21 2 0.14824536D-01 0.34994880D+00 0.21363386D+06 0.21363386D+06 0.21363386D+06 0.10956325D+01  1  2 12  2  7  2        1 0.323758263571D-03 0.100000000000D+01
-.346462017866D-04 0.000000000000D+00 0.000000000000D+00 0.198803402168D-06 0.000000000000D+00  7 -1 1 23 -13 13 23 21 2 0.14824536D-01 0.28833276D+00 0.16925716D+06 0.16925716D+06 0.16925716D+06 0.11034360D+01  1  2  4  2  7  2        1 -.606715069926D-03 0.100000000000D+01
-.798670171414D-04 0.000000000000D+00 -.194831836807D-04 0.198803402168D-06 0.000000000000D+00  7 -1 1 23 -13 13 23 21 2 0.14824536D-01 0.35098909D+00 0.16925716D+06 0.16925716D+06 0.16925716D+06 0.11034360D+01  1  2  5  2  7  2        1 -.750259093313D-03 0.100000000000D+01
0.824693189398D-04 0.000000000000D+00 0.191124779730D-04 0.198803402168D-06 0.000000000000D+00  7 -1 1 23 -13 13 23 21 2 0.14824536D-01 0.28833276D+00 0.16925716D+06 0.16925716D+06 0.16925716D+06 0.11034360D+01  1  2  6  2  7  2        1 0.144418077674D-02 0.100000000000D+01
0.975246300689D-06 0.000000000000D+00 0.000000000000D+00 0.198803402168D-06 0.000000000000D+00  7 -1 21 23 -13 13 23 -1 2 0.14824536D-01 0.34994880D+00 0.21363386D+06 0.21363386D+06 0.21363386D+06 0.10956325D+01  1  2 12  4  7  2        1 0.372815585102D-05 0.100000000000D+01
-.203805867941D-05 0.000000000000D+00 -.550336874278D-06 0.198803402168D-06 0.000000000000D+00  7 -1 21 23 -13 13 23 -1 2 0.14824536D-01 0.35098909D+00 0.16925716D+06 0.16925716D+06 0.16925716D+06 0.11034360D+01  1  2  5  4  7  2        1 -.795178265910D-05 0.100000000000D+01
  </mgrwgt>
  </event>
  <event>
  8     66 0.27784906E-05 0.18575102E+03 0.75467711E-02 0.94624250E-01
       -1 -1    0    0    0  501 0.00000000E+00 0.00000000E+00 0.20044258E+03 0.20044284E+03 0.32000000E+00 0.0000E+00 0.9000E+01
        1 -1    0    0  501    0 0.00000000E+00 0.00000000E+00 -.43782656E+03 0.43782668E+03 0.32000000E+00 0.0000E+00 0.9000E+01
       25  2    1    2    0    0 -.56669848E+02 0.98083702E+02 0.41587730E+02 0.32367080E+03 0.30033542E+03 0.0000E+00 0.0000E+00
       23  2    3    3    0    0 -.71335993E+02 0.96940900E+02 -.78009442E+02 0.17255781E+03 0.95939373E+02 0.0000E+00 0.0000E+00
       23  1    1    2    0    0 0.56669848E+02 -.98083702E+02 -.27897171E+03 0.31459871E+03 0.91188000E+02 0.0000E+00 0.9000E+01
      -11  1    4    4    0    0 -.52918748E+02 0.10174232E+03 -.26582985E+02 0.11772234E+03 0.51099893E-03 0.0000E+00 0.9000E+01
       11  1    4    4    0    0 -.18417245E+02 -.48014223E+01 -.51426456E+02 0.54835472E+02 0.51099893E-03 0.0000E+00 0.9000E+01
       23  1    3    3    0    0 0.14666145E+02 0.11428024E+01 0.11959717E+03 0.15111299E+03 0.91188000E+02 0.0000E+00 0.9000E+01
#aMCatNLO 1  0  0  2  1 0.44906557D+03 0.00000000D+00  -5  7  0 0.00000000D+00 0.00000000D+00 0.00000000D+00 0.00000000D+00 0.00000000D+00
  <mgrwgt>
 0.3920319425D-03    3    2    0
 0.296241802582476D+03 0.000000000000000D+00 0.000000000000000D+00 0.296241802582476D+03
 0.296241802582476D+03 0.000000000000000D+00 0.000000000000000D+00 -.296241802582476D+03
 0.227137684283905D+03 0.566698477874038D+02 -.980837023518652D+02 -.174483213985066D+03
 0.116168962607060D+03 -.529187483026150D+02 0.101742322236995D+03 0.185292692006049D+02
 0.384685635892640D+02 -.184172446803103D+02 -.480142229797476D+01 -.334302531686995D+02
 0.210708394684723D+03 0.146661451955215D+02 0.114280241284481D+01 0.189384197953161D+03
 0.000000000000000D+00 0.000000000000000D+00 -.000000000000000D+00 0.000000000000000D+00
 0.781276138264336D+03 0.000000000000000D+00 0.000000000000000D+00 0.781276138264336D+03
 0.494813845479263D+03 0.000000000000000D+00 0.000000000000000D+00 -.494813845479263D+03
 0.205091390368166D+03 0.349994062151411D+02 0.455837324182293D+02 -.174483213985066D+03
 0.228000381992676D+03 -.701741855475903D+02 0.216139825239196D+03 0.185292692006049D+02
 0.467530657656928D+02 -.226899566470289D+02 0.235251609755129D+02 -.334302531686995D+02
 0.263590910129268D+03 -.911354935883036D+01 0.158793845417567D+03 0.189384197953161D+03
 0.532654235487796D+03 0.669782853383085D+02 -.444042564050505D+03 0.286462292785074D+03
0.625935060402D-05 0.000000000000D+00 0.000000000000D+00 0.274819750691D-07 0.000000000000D+00  7 -1 1 23 -11 11 23 21 0 0.30837349D-01 0.67357961D-01 0.34503440D+05 0.34503440D+05 0.34503440D+05 0.11617419D+01  1  2  2  2  7  2        1 0.381369340795D-03 0.100000000000D+01
-.255624222341D-06 0.000000000000D+00 -.240375544443D-07 0.274819750691D-07 0.000000000000D+00  7 -1 1 23 -11 11 23 21 2 0.30837349D-01 0.67357961D-01 0.34503440D+05 0.34503440D+05 0.34503440D+05 0.11617419D+01  1  2  3  2  7  2        1 -.210202452455D-04 0.100000000000D+01
0.385290609828D-06 0.000000000000D+00 0.000000000000D+00 0.274819750691D-07 0.000000000000D+00  7 -1 1 23 -11 11 23 21 2 0.30837349D-01 0.67357961D-01 0.34503440D+05 0.34503440D+05 0.34503440D+05 0.11617419D+01  1  2 15  2  7  2        1 0.316828469352D-04 0.100000000000D+01
  </mgrwgt>
  </event>
  <event>
  8     66 0.27784906E-05 0.36737117E+03 0.75467711E-02 0.89049517E-01
       -1 -1    0    0    0  501 0.00000000E+00 0.00000000E+00 0.32052945E+03 0.32052961E+03 0.32000000E+00 0.0000E+00 0.9000E+01
        1 -1    0    0  501    0 0.00000000E+00 0.00000000E+00 -.56145185E+03 0.56145195E+03 0.32000000E+00 0.0000E+00 0.9000E+01
       25  2    1    2    0    0 -.29908240E+03 0.52010291E+02 -.34438167E+03 0.54855327E+03 0.30026091E+03 0.0000E+00 0.0000E+00
       23  2    3    3    0    0 -.13831069E+03 -.89359818E+02 -.20334182E+03 0.27644936E+03 0.89226286E+02 0.0000E+00 0.0000E+00
       23  1    1    2    0    0 0.29908240E+03 -.52010291E+02 0.10345927E+03 0.33342828E+03 0.91188000E+02 0.0000E+00 0.9000E+01
      -11  1    4    4    0    0 -.11257175E+03 -.10583741E+03 -.18404736E+03 0.24030686E+03 0.51099893E-03 0.0000E+00 0.9000E+01
       11  1    4    4    0    0 -.25738942E+02 0.16477594E+02 -.19294460E+02 0.36142502E+02 0.51099893E-03 0.0000E+00 0.9000E+01
       23  1    3    3    0    0 -.16077171E+03 0.14137011E+03 -.14103984E+03 0.27210391E+03 0.91188000E+02 0.0000E+00 0.9000E+01
#aMCatNLO 1  0  0  1  1 0.71557619D+03 0.00000000D+00  -5  7  0 0.00000000D+00 0.00000000D+00 0.00000000D+00 0.00000000D+00 0.00000000D+00
  <mgrwgt>
 0.6128702606D-03    3    2    0
 0.424219243950358D+03 0.000000000000000D+00 0.000000000000000D+00 0.424219243950358D+03
 0.424219243950358D+03 0.000000000000000D+00 0.000000000000000D+00 -.424219243950358D+03
 0.375988662985577D+03 0.299082395958386D+03 -.520102912239825D+02 0.202229753953936D+03
 0.197545361763207D+03 -.112571745896333D+03 -.105837412740885D+03 -.123086205743468D+03
 0.320925478602415D+02 -.257389423406680D+02 0.164775944642034D+02 -.979425117193302D+01
 0.242811915291691D+03 -.160771707721385D+03 0.141370109500664D+03 -.693492970385351D+02
 0.000000000000000D+00 0.000000000000000D+00 0.000000000000000D+00 -.000000000000000D+00
 0.795960222846085D+03 0.000000000000000D+00 0.000000000000000D+00 0.795960222846085D+03
 0.108611274420165D+04 0.000000000000000D+00 0.000000000000000D+00 -.108611274420165D+04
 0.240697808140121D+03 0.738069483408347D+02 -.572349935948498D+02 0.202229753953936D+03
 0.355412108841948D+03 -.314567002054068D+03 -.110522189110935D+03 -.123086205743468D+03
 0.633630257500003D+02 -.606088447618844D+02 0.156688740120690D+02 -.979425117193302D+01
 0.450435681572655D+03 -.414014919638021D+03 0.135496764563611D+03 -.693492970385351D+02
 0.772164342743010D+03 0.715383818113139D+03 0.165915441301055D+02 -.290152521355564D+03
0.319401506817D-04 0.000000000000D+00 0.000000000000D+00 0.439230392762D-06 0.000000000000D+00  7 -1 1 23 -11 11 23 21 0 0.49312243D-01 0.86377228D-01 0.13496157D+06 0.13496157D+06 0.13496157D+06 0.11111909D+01  1  2  2  1  7  1       -1 0.605541454778D-03 0.100000000000D+01
-.172979134172D-05 0.000000000000D+00 -.122658588653D-06 0.439230392762D-06 0.000000000000D+00  7 -1 1 23 -11 11 23 21 2 0.49312243D-01 0.86377228D-01 0.13496157D+06 0.13496157D+06 0.13496157D+06 0.11111909D+01  1  2  3  1  7  1       -1 -.404928147711D-04 0.100000000000D+01
0.204286675811D-05 0.000000000000D+00 0.000000000000D+00 0.439230392762D-06 0.000000000000D+00  7 -1 1 23 -11 11 23 21 2 0.49312243D-01 0.86377228D-01 0.13496157D+06 0.13496157D+06 0.13496157D+06 0.11111909D+01  1  2 15  1  7  1       -1 0.478216205867D-04 0.100000000000D+01
  </mgrwgt>
  </event>
  <event>
  8     66 0.27784906E-05 0.25895495E+03 0.75467711E-02 0.10074741E+00
       -1 -1    0    0    0  501 0.00000000E+00 0.00000000E+00 0.82680821E+03 0.82680828E+03 0.32000000E+00 0.0000E+00 0.9000E+01
        1 -1    0    0  501    0 0.00000000E+00 0.00000000E+00 -.14309568E+03 0.14309604E+03 0.32000000E+00 0.0000E+00 0.9000E+01
       25  2    1    2    0    0 0.23276858E+02 0.20389131E+03 0.64744160E+03 0.74243056E+03 0.29984833E+03 0.0000E+00 0.0000E+00
       23  2    3    3    0    0 0.59303781E+02 0.15251789E+03 0.58644939E+03 0.61604832E+03 0.93882925E+02 0.0000E+00 0.0000E+00
       23  1    1    2    0    0 -.23276858E+02 -.20389131E+03 0.36270932E+02 0.22747376E+03 0.91188000E+02 0.0000E+00 0.9000E+01
      -13  1    4    4    0    0 0.65988103E+02 0.15972888E+03 0.49966579E+03 0.52870942E+03 0.10565837E+00 0.0000E+00 0.9000E+01
       13  1    4    4    0    0 -.66843225E+01 -.72109874E+01 0.86783599E+02 0.87338896E+02 0.10565837E+00 0.0000E+00 0.9000E+01
       23  1    3    3    0    0 -.36026923E+02 0.51373419E+02 0.60992217E+02 0.12638223E+03 0.91188000E+02 0.0000E+00 0.9000E+01
#aMCatNLO 1  0  0  1  1 0.80102423D+02 0.00000000D+00  -5  7  0 0.00000000D+00 0.00000000D+00 0.00000000D+00 0.00000000D+00 0.00000000D+00
  <mgrwgt>
 0.1148232273D-03    4    2    0
 0.343966401493601D+03 0.000000000000000D+00 0.000000000000000D+00 0.343966401493601D+03
 0.343966401493601D+03 0.000000000000000D+00 0.000000000000000D+00 -.343966401493601D+03
 0.284662812676164D+03 -.232768578039481D+02 -.203891309629462D+03 -.174940525107999D+03
 0.248817865155988D+03 0.659881951910147D+02 0.159729087967611D+03 0.179004208255703D+03
 0.368860910501740D+02 -.668441365251595D+01 -.721119745836561D+01 0.355513847592501D+02
 0.117566034104877D+03 -.360269237345507D+02 0.513734191202161D+02 -.396150679069537D+02
 0.000000000000000D+00 -.000000000000000D+00 0.000000000000000D+00 -.000000000000000D+00
 0.381471231632319D+03 0.000000000000000D+00 0.000000000000000D+00 0.381471231632319D+03
 0.391886052962084D+03 0.000000000000000D+00 0.000000000000000D+00 -.391886052962084D+03
 0.309815243034338D+03 -.190454973239258D+02 -.238124579115739D+03 -.174940525107999D+03
 0.232983210164051D+03 0.694175463836418D+02 0.131984369904812D+03 0.179004208255703D+03
 0.378731496372299D+02 -.615229426892814D+01 -.115162398538878D+02 0.355513847592501D+02
 0.111909034792657D+03 -.343935720433383D+02 0.381590005247940D+02 -.396150679069537D+02
 0.807766469661274D+02 -.982618274744952D+01 0.794974485400203D+02 -.104148213297647D+02
0.196195514692D-04 0.000000000000D+00 0.000000000000D+00 0.195794832040D-06 0.000000000000D+00  7 -1 1 23 -13 13 23 21 0 0.12720130D+00 0.22014752D-01 0.67057667D+05 0.67057667D+05 0.67057667D+05 0.11362484D+01  1  2  2  1  7  1       -1 0.328030520645D-03 0.100000000000D+01
-.983168537626D-06 0.000000000000D+00 -.753442435882D-07 0.195794832040D-06 0.000000000000D+00  7 -1 1 23 -13 13 23 21 2 0.12720130D+00 0.22014752D-01 0.67057667D+05 0.67057667D+05 0.67057667D+05 0.11362484D+01  1  2  3  1  7  1       -1 -.212226568128D-04 0.100000000000D+01
0.120027670376D-05 0.000000000000D+00 0.000000000000D+00 0.195794832040D-06 0.000000000000D+00  7 -1 1 23 -13 13 23 21 2 0.12720130D+00 0.22014752D-01 0.67057667D+05 0.67057667D+05 0.67057667D+05 0.11362484D+01  1  2 15  1  7  1       -1 0.259091494381D-04 0.100000000000D+01
-.100942269765D-04 0.000000000000D+00 0.000000000000D+00 0.195794832040D-06 0.000000000000D+00  7 -1 1 23 -13 13 23 21 2 0.12720130D+00 0.22014752D-01 0.67057667D+05 0.67057667D+05 0.67057667D+05 0.11362484D+01  1  2  4  1  7  1       -1 -.217893785973D-03 0.100000000000D+01
  </mgrwgt>
  </event>
  <event>
  8     66 0.27784906E-05 0.13774856E+03 0.75467711E-02 0.10117448E+00
       -1 -1    0    0    0  501 0.00000000E+00 0.00000000E+00 0.99176210E+03 0.99176215E+03 0.32000000E+00 0.0000E+00 0.9000E+01
        1 -1    0    0  501    0 0.00000000E+00 0.00000000E+00 -.97351933E+02 0.97352459E+02 0.32000000E+00 0.0000E+00 0.9000E+01
       25  2    1    2    0    0 0.13077928E+03 -.16292904E+03 0.69979245E+03 0.78938073E+03 0.29960535E+03 0.0000E+00 0.0000E+00
       23  2    3    3    0    0 0.11199090E+03 -.18742593E+03 0.37658888E+03 0.45214357E+03 0.12224640E+03 0.0000E+00 0.0000E+00
       23  1    1    2    0    0 -.13077928E+03 0.16292904E+03 0.19461771E+03 0.29973388E+03 0.91188000E+02 0.0000E+00 0.9000E+01
      -13  1    4    4    0    0 0.17155822E+02 -.70783971E+01 0.13424399E+03 0.13552079E+03 0.10565837E+00 0.0000E+00 0.9000E+01
       13  1    4    4    0    0 0.94835077E+02 -.18034753E+03 0.24234489E+03 0.31662278E+03 0.10565837E+00 0.0000E+00 0.9000E+01
       23  1    3    3    0    0 0.18788380E+02 0.24496887E+02 0.32320357E+03 0.33723716E+03 0.91188000E+02 0.0000E+00 0.9000E+01
#aMCatNLO 1  0  0  1  2 0.36038485D+02 0.00000000D+00  -5  7  0 0.00000000D+00 0.00000000D+00 0.00000000D+00 0.00000000D+00 0.00000000D+00
  <mgrwgt>
 0.9038229251D-03    9    2    0
 0.310725396286353D+03 0.000000000000000D+00 0.000000000000000D+00 0.310725396286353D+03
 0.310725396286353D+03 0.000000000000000D+00 0.000000000000000D+00 -.310725396286353D+03
 0.245194775198561D+03 -.130779280125782D+03 0.162929045103830D+03 -.903113093250745D+02
 0.442966749305442D+02 0.171557470155845D+02 -.707847439347947D+01 0.402215235228655D+02
 0.206103017021478D+03 0.948351895743602D+02 -.180347743952653D+03 -.309746944285016D+02
 0.125856325422123D+03 0.187883435358373D+02 0.244971732423024D+02 0.810644802307106D+02
 0.000000000000000D+00 0.000000000000000D+00 0.000000000000000D+00 0.000000000000000D+00
 0.333549296921286D+03 0.000000000000000D+00 0.000000000000000D+00 0.333549296921286D+03
 0.325806446223749D+03 0.000000000000000D+00 0.000000000000000D+00 -.325806446223749D+03
 0.238050809493728D+03 -.133848537671837D+03 0.149269464150311D+03 -.903113093250745D+02
 0.445534901451508D+02 0.165914293099186D+02 -.958994280835967D+01 0.402215235228655D+02
 0.215447712900782D+03 0.921577770953977D+02 -.192263437553982D+03 -.309746944285016D+02
 0.124442854916202D+03 0.171986080631090D+02 0.174221330872890D+02 0.810644802307106D+02
 0.368608756891723D+02 0.790072320341134D+01 0.351617831247413D+02 0.774285069753711D+01
0.229856651688D-04 0.000000000000D+00 0.000000000000D+00 0.330754956652D-08 0.000000000000D+00  7 -1 1 23 -13 13 23 21 0 0.15257883D+00 0.14977265D-01 0.74679249D+05 0.74679249D+05 0.74679249D+05 0.11322784D+01  1  2  2  1  7  1       -1 0.389682964509D-03 0.100000000000D+01
-.125137170848D-05 0.000000000000D+00 -.882710065130D-07 0.330754956652D-08 0.000000000000D+00  7 -1 1 23 -13 13 23 21 2 0.15257883D+00 0.14977265D-01 0.74679249D+05 0.74679249D+05 0.74679249D+05 0.11322784D+01  1  2  3  1  7  1       -1 -.271986355288D-04 0.100000000000D+01
0.144997513480D-05 0.000000000000D+00 0.000000000000D+00 0.330754956652D-08 0.000000000000D+00  7 -1 1 23 -13 13 23 21 2 0.15257883D+00 0.14977265D-01 0.74679249D+05 0.74679249D+05 0.74679249D+05 0.11322784D+01  1  2 15  1  7  1       -1 0.315152923388D-04 0.100000000000D+01
0.392417158971D-04 0.000000000000D+00 0.000000000000D+00 0.330754956652D-08 0.000000000000D+00  7 -1 1 23 -13 13 23 21 2 0.16726263D+00 0.14977265D-01 0.84996473D+05 0.84996473D+05 0.84996473D+05 0.11275620D+01  1  2 12  1  7  1       -1 0.641402622135D-03 0.100000000000D+01
-.347480007190D-04 0.000000000000D+00 0.000000000000D+00 0.330754956652D-08 0.000000000000D+00  7 -1 1 23 -13 13 23 21 2 0.15257883D+00 0.14977265D-01 0.74679249D+05 0.74679249D+05 0.74679249D+05 0.11322784D+01  1  2  4  1  7  1       -1 -.755249779508D-03 0.100000000000D+01
-.125521643998D-03 0.000000000000D+00 -.259417072223D-04 0.330754956652D-08 0.000000000000D+00  7 -1 1 23 -13 13 23 21 2 0.16912720D+00 0.14977265D-01 0.74679249D+05 0.74679249D+05 0.74679249D+05 0.11322784D+01  1  2  5  1  7  1       -1 -.200596649767D-02 0.100000000000D+01
0.127652443488D-03 0.000000000000D+00 0.258047853446D-04 0.330754956652D-08 0.000000000000D+00  7 -1 1 23 -13 13 23 21 2 0.15257883D+00 0.14977265D-01 0.74679249D+05 0.74679249D+05 0.74679249D+05 0.11322784D+01  1  2  6  1  7  1       -1 0.277453314732D-02 0.100000000000D+01
0.592184782267D-06 0.000000000000D+00 0.000000000000D+00 0.330754956652D-08 0.000000000000D+00  7 21 1 23 -13 13 23 1 2 0.16726263D+00 0.14977265D-01 0.84996473D+05 0.84996473D+05 0.84996473D+05 0.11275620D+01  1  2 12  3  7  1       -1 0.625437605057D-04 0.100000000000D+01
-.200048765211D-05 0.000000000000D+00 -.432118535285D-06 0.330754956652D-08 0.000000000000D+00  7 21 1 23 -13 13 23 1 2 0.16912720D+00 0.14977265D-01 0.74679249D+05 0.74679249D+05 0.74679249D+05 0.11322784D+01  1  2  5  3  7  1       -1 -.207439948960D-03 0.100000000000D+01
  </mgrwgt>
  </event>
  <event>
  9     66 0.27784906E-05 0.68790333E+03 0.75467711E-02 0.88765513E-01
       -1 -1    0    0    0  501 0.00000000E+00 0.00000000E+00 0.22231051E+03 0.22231074E+03 0.32000000E+00 0.0000E+00 0.9000E+01
        1 -1    0    0  502    0 0.00000000E+00 0.00000000E+00 -.50174253E+04 0.50174253E+04 0.32000000E+00 0.0000E+00 0.9000E+01
       25  2    1    2    0    0 0.14294974E+01 0.53538232E+03 -.51179165E+03 0.79897418E+03 0.29965443E+03 0.0000E+00 0.0000E+00
       23  2    3    3    0    0 0.25272301E+02 0.28129882E+03 -.11070133E+03 0.31491262E+03 0.84542629E+02 0.0000E+00 0.0000E+00
       23  1    1    2    0    0 -.20182079E+03 -.80454376E+03 -.31671905E+04 0.32752761E+04 0.91188000E+02 0.0000E+00 0.9000E+01
      -11  1    4    4    0    0 0.47270822E+01 -.55155260E+01 -.26387658E+01 0.77284810E+01 0.51099893E-03 0.0000E+00 0.9000E+01
       11  1    4    4    0    0 0.20545218E+02 0.28681435E+03 -.10806257E+03 0.30718414E+03 0.51099893E-03 0.0000E+00 0.9000E+01
       23  1    3    3    0    0 -.23842803E+02 0.25408350E+03 -.40109031E+03 0.48406156E+03 0.91188000E+02 0.0000E+00 0.9000E+01
       21  1    1    2  502  501 0.20039129E+03 0.26916144E+03 -.11161326E+04 0.11654858E+04 0.75000000E+00 0.0000E+00 0.9000E+01
#aMCatNLO 2  0  0  2  1 0.33556602D+03 0.00000000D+00  -5  7  0 0.00000000D+00 0.00000000D+00 0.00000000D+00 0.00000000D+00 0.00000000D+00
  <mgrwgt>
 0.4857732753D-05    2    2    0
 0.859069375149799D+03 0.000000000000000D+00 0.000000000000000D+00 0.859069375149799D+03
 0.859069375149799D+03 0.000000000000000D+00 0.000000000000000D+00 -.859069375149799D+03
 0.835358389225813D+03 -.977163804866276D+02 -.664712870224726D+03 -.487972024042510D+03
 0.123636653612977D+02 0.616008181570990D+01 -.359075062493857D+01 0.101005011330833D+02
 0.544368866678269D+03 0.801756273026181D+02 0.366908681372796D+03 0.394065161272208D+03
 0.326047829034218D+03 0.113806713682997D+02 0.301394939476869D+03 0.838063616372187D+02
 0.000000000000000D+00 0.000000000000000D+00 0.000000000000000D+00 -.000000000000000D+00
 0.984590397666971D+03 0.000000000000000D+00 0.000000000000000D+00 0.984590397666971D+03
 0.113288344900023D+04 0.000000000000000D+00 0.000000000000000D+00 -.113288344900023D+04
 0.966671733964498D+03 -.201820789326796D+03 -.804543760555816D+03 -.487972024042510D+03
 0.124413205527687D+02 0.472708224392645D+01 -.551552603261789D+01 0.101005011330833D+02
 0.487823664649717D+03 0.205452182987455D+02 0.286814348436136D+03 0.394065161272208D+03
 0.283664696570862D+03 -.238428031029201D+02 0.254083496563563D+03 0.838063616372187D+02
 0.366872430929353D+03 0.200391291887044D+03 0.269161441588735D+03 -.148293051333257D+03
-.818924382426D-03 0.000000000000D+00 0.000000000000D+00 0.182197539488D-06 0.000000000000D+00  7 -1 1 23 -11 11 23 21 2 0.29841411D-01 0.80387153D+00 0.75329369D+06 0.75329369D+06 0.75329369D+06 0.10561536D+01  1  2 13  2  7  2        1 -.305920321095D-05 0.100000000000D+01
0.127102955835D-02 0.000000000000D+00 0.000000000000D+00 0.182197539488D-06 0.997371655944D-11  7 -1 1 23 -11 11 23 21 2 0.34201623D-01 0.77191131D+00 0.75329369D+06 0.75329369D+06 0.75329369D+06 0.10561536D+01  1  2  1  2  7  2        1 0.791693596370D-05 0.100000000000D+01
  </mgrwgt>
  </event>
  <event>
  8     66 0.27784906E-05 0.27041028E+03 0.75467711E-02 0.92545683E-01
       -1 -1    0    0    0  501 0.00000000E+00 0.00000000E+00 0.36541039E+03 0.36541053E+03 0.32000000E+00 0.0000E+00 0.9000E+01
        1 -1    0    0  501    0 0.00000000E+00 0.00000000E+00 -.40828907E+03 0.40828919E+03 0.32000000E+00 0.0000E+00 0.9000E+01
       25  2    1    2    0    0 -.86146110E+02 -.19963579E+03 -.26038564E+03 0.45291922E+03 0.30009921E+03 0.0000E+00 0.0000E+00
       23  2    3    3    0    0 -.12874752E+02 -.15572660E+03 -.21167633E+02 0.18303551E+03 0.92937601E+02 0.0000E+00 0.0000E+00
       23  1    1    2    0    0 0.86146110E+02 0.19963579E+03 0.21750696E+03 0.32078050E+03 0.91188000E+02 0.0000E+00 0.9000E+01
      -11  1    4    4    0    0 0.14298414E+02 0.64302517E+01 -.92112786E+01 0.18183521E+02 0.51099893E-03 0.0000E+00 0.9000E+01
       11  1    4    4    0    0 -.27173166E+02 -.16215685E+03 -.11956354E+02 0.16485199E+03 0.51099893E-03 0.0000E+00 0.9000E+01
       23  1    3    3    0    0 -.73271358E+02 -.43909194E+02 -.23921801E+03 0.26988371E+03 0.91188000E+02 0.0000E+00 0.9000E+01
#aMCatNLO 1  0  0  1  2 0.50403526D+03 0.00000000D+00  -5  7  0 0.00000000D+00 0.00000000D+00 0.00000000D+00 0.00000000D+00 0.00000000D+00
  <mgrwgt>
 0.3384341770D-03    5    2    0
 0.386255316937213D+03 0.000000000000000D+00 0.000000000000000D+00 0.386255316937213D+03
 0.386255316937213D+03 0.000000000000000D+00 0.000000000000000D+00 -.386255316937213D+03
 0.333347122795429D+03 0.861461099867991D+02 0.199635789848287D+03 0.235646880051028D+03
 0.177002321130151D+02 0.142984138792560D+02 0.643025169761451D+01 -.821616945403607D+01
 0.164442093980775D+03 -.271731661748018D+02 -.162156847683993D+03 -.282454633679679D+01
 0.257021184985207D+03 -.732713576912533D+02 -.439091938619081D+02 -.224606164260195D+03
 0.000000000000000D+00 -.000000000000000D+00 0.000000000000000D+00 0.000000000000000D+00
 0.754596820144878D+03 0.000000000000000D+00 0.000000000000000D+00 0.754596820144878D+03
 0.677675509107097D+03 0.000000000000000D+00 0.000000000000000D+00 -.677675509107097D+03
 0.280246555859884D+03 0.119514490662955D+03 0.202414221614521D+02 0.235646880051028D+03
 0.187158824134952D+02 0.162787908201171D+02 -.421660805069868D+01 -.821616945403607D+01
 0.297124089037889D+03 -.207232723532650D+01 -.297103436002374D+03 -.282454633679679D+01
 0.326314807453793D+03 -.415484470177514D+02 -.214457221250163D+03 -.224606164260195D+03
 0.509870994486912D+03 -.921725072299944D+02 0.495535843141784D+03 0.769213110377812D+02
0.132510341918D-04 0.000000000000D+00 0.000000000000D+00 0.509404972301D-06 0.000000000000D+00  7 -1 1 23 -11 11 23 21 0 0.56217003D-01 0.62813723D-01 0.73121722D+05 0.73121722D+05 0.73121722D+05 0.11330523D+01  1  2  2  1  7  1       -1 0.310588313659D-03 0.100000000000D+01
-.622374487076D-06 0.000000000000D+00 -.508874603739D-07 0.509404972301D-06 0.000000000000D+00  7 -1 1 23 -11 11 23 21 2 0.56217003D-01 0.62813723D-01 0.73121722D+05 0.73121722D+05 0.73121722D+05 0.11330523D+01  1  2  3  1  7  1       -1 -.187278126374D-04 0.100000000000D+01
0.844435706012D-06 0.000000000000D+00 0.000000000000D+00 0.509404972301D-06 0.000000000000D+00  7 -1 1 23 -11 11 23 21 2 0.56217003D-01 0.62813723D-01 0.73121722D+05 0.73121722D+05 0.73121722D+05 0.11330523D+01  1  2 15  1  7  1       -1 0.254098360632D-04 0.100000000000D+01
0.414130828337D-05 0.000000000000D+00 -.406909434053D-05 0.509404972301D-06 0.000000000000D+00  7 -1 1 23 -11 11 23 21 2 0.17087793D+00 0.62813723D-01 0.73121722D+05 0.73121722D+05 0.73121722D+05 0.11330523D+01  1  2  5  1  7  1       -1 0.991448374451D-05 0.100000000000D+01
0.723423971129D-06 0.000000000000D+00 -.515990807645D-06 0.509404972301D-06 0.000000000000D+00  7 21 1 23 -11 11 23 1 2 0.17087793D+00 0.62813723D-01 0.73121722D+05 0.73121722D+05 0.73121722D+05 0.11330523D+01  1  2  5  3  7  1       -1 0.112493561424D-04 0.100000000000D+01
  </mgrwgt>
  </event>
  <event>
  8     66 0.27784906E-05 0.23990543E+03 0.75467711E-02 0.92619425E-01
       -1 -1    0    0    0  501 0.00000000E+00 0.00000000E+00 0.75686573E+03 0.75686580E+03 0.32000000E+00 0.0000E+00 0.9000E+01
        1 -1    0    0  501    0 0.00000000E+00 0.00000000E+00 -.10646350E+04 0.10646350E+04 0.32000000E+00 0.0000E+00 0.9000E+01
       25  2    1    2    0    0 0.12021366E+03 -.44584792E+03 0.59049600E+03 0.80738673E+03 0.29992685E+03 0.0000E+00 0.0000E+00
       23  2    3    3    0    0 0.18521123E+02 -.20265533E+03 0.42953765E+03 0.48535125E+03 0.98239651E+02 0.0000E+00 0.0000E+00
       23  1    1    2    0    0 -.12021366E+03 0.44584792E+03 -.89826526E+03 0.10141141E+04 0.91188000E+02 0.0000E+00 0.9000E+01
      -11  1    4    4    0    0 0.25668760E+02 -.17073382E+02 0.23199659E+02 0.38582506E+02 0.51099893E-03 0.0000E+00 0.9000E+01
       11  1    4    4    0    0 -.71476366E+01 -.18558195E+03 0.40633799E+03 0.44676875E+03 0.51099893E-03 0.0000E+00 0.9000E+01
       23  1    3    3    0    0 0.10169253E+03 -.24319259E+03 0.16095835E+03 0.32203548E+03 0.91188000E+02 0.0000E+00 0.9000E+01
#aMCatNLO 1  0  0  1  2 0.22200167D+03 0.00000000D+00  -5  7  0 0.00000000D+00 0.00000000D+00 0.00000000D+00 0.00000000D+00 0.00000000D+00
  <mgrwgt>
 0.6172177027D-03    9    2    0
 0.897655748935498D+03 0.000000000000000D+00 0.000000000000000D+00 0.897655748935498D+03
 0.897655748935498D+03 0.000000000000000D+00 0.000000000000000D+00 -.897655748935498D+03
 0.874918507761640D+03 -.120213656998747D+03 0.445847919090905D+03 -.737519798780447D+03
 0.431224379039100D+02 0.256687597361903D+02 -.170733819116166D+02 0.301522645000735D+02
 0.522944340943130D+03 -.714763655278602D+01 -.185581948860901D+03 0.488854820241290D+03
 0.354326211262316D+03 0.101692533815342D+03 -.243192588318387D+03 0.218512714039084D+03
 0.000000000000000D+00 -.000000000000000D+00 0.000000000000000D+00 0.000000000000000D+00
 0.113665995346543D+04 0.000000000000000D+00 0.000000000000000D+00 0.113665995346543D+04
 0.957562986920902D+03 0.000000000000000D+00 0.000000000000000D+00 -.957562986920902D+03
 0.824707014779765D+03 -.102043289789006D+03 0.342750816627527D+03 -.737519798780447D+03
 0.460809938296289D+02 0.266224163443493D+02 -.224843475740798D+02 0.301522645000735D+02
 0.549373971018574D+03 0.431631079070801D+01 -.250627401176989D+03 0.488854820241290D+03
 0.388823403180651D+03 0.109637402380280D+03 -.288271089982262D+03 0.218512714039084D+03
 0.285237557577716D+03 -.385328397263317D+02 0.218632022105804D+03 0.179096966544531D+03
0.520373999158D-03 0.000000000000D+00 0.000000000000D+00 0.385584310172D-06 0.000000000000D+00  7 -1 1 23 -11 11 23 21 0 0.11644089D+00 0.16379001D+00 0.23336666D+06 0.23336666D+06 0.23336666D+06 0.10927157D+01  1  2  2  1  7  1       -1 0.610169398306D-03 0.100000000000D+01
-.154153034790D-04 0.000000000000D+00 -.199837317439D-05 0.385584310172D-06 0.000000000000D+00  7 -1 1 23 -11 11 23 21 2 0.11644089D+00 0.16379001D+00 0.23336666D+06 0.23336666D+06 0.23336666D+06 0.10927157D+01  1  2  3  1  7  1       -1 -.215824773278D-04 0.100000000000D+01
0.309615048300D-04 0.000000000000D+00 0.000000000000D+00 0.385584310172D-06 0.000000000000D+00  7 -1 1 23 -11 11 23 21 2 0.11644089D+00 0.16379001D+00 0.23336666D+06 0.23336666D+06 0.23336666D+06 0.10927157D+01  1  2 15  1  7  1       -1 0.433482206132D-04 0.100000000000D+01
0.451473416321D-03 0.000000000000D+00 0.000000000000D+00 0.385584310172D-06 0.000000000000D+00  7 -1 1 23 -11 11 23 21 2 0.15056510D+00 0.16379001D+00 0.35891404D+06 0.35891404D+06 0.35891404D+06 0.10788373D+01  1  2 12  1  7  1       -1 0.304807499476D-03 0.100000000000D+01
-.648318695968D-03 0.000000000000D+00 0.000000000000D+00 0.385584310172D-06 0.000000000000D+00  7 -1 1 23 -11 11 23 21 2 0.11644089D+00 0.16379001D+00 0.23336666D+06 0.23336666D+06 0.23336666D+06 0.10927157D+01  1  2  4  1  7  1       -1 -.907690437361D-03 0.100000000000D+01
-.761868131517D-03 0.000000000000D+00 -.257846414925D-03 0.385584310172D-06 0.000000000000D+00  7 -1 1 23 -11 11 23 21 2 0.15318953D+00 0.16379001D+00 0.23336666D+06 0.23336666D+06 0.23336666D+06 0.10927157D+01  1  2  5  1  7  1       -1 -.516862227522D-03 0.100000000000D+01
0.811287126368D-03 0.000000000000D+00 0.248441768001D-03 0.385584310172D-06 0.000000000000D+00  7 -1 1 23 -11 11 23 21 2 0.11644089D+00 0.16379001D+00 0.23336666D+06 0.23336666D+06 0.23336666D+06 0.10927157D+01  1  2  6  1  7  1       -1 0.113585736635D-02 0.100000000000D+01
0.155936578166D-04 0.000000000000D+00 0.000000000000D+00 0.385584310172D-06 0.000000000000D+00  7 21 1 23 -11 11 23 1 2 0.15056510D+00 0.16379001D+00 0.35891404D+06 0.35891404D+06 0.35891404D+06 0.10788373D+01  1  2 12  3  7  1       -1 0.655938953849D-04 0.100000000000D+01
-.225766979933D-04 0.000000000000D+00 -.934007389245D-05 0.385584310172D-06 0.000000000000D+00  7 21 1 23 -11 11 23 1 2 0.15318953D+00 0.16379001D+00 0.23336666D+06 0.23336666D+06 0.23336666D+06 0.10927157D+01  1  2  5  3  7  1       -1 -.964235351796D-04 0.100000000000D+01
  </mgrwgt>
  </event>
  <event>
  9     66 -.27784906E-05 0.27799109E+03 0.75467711E-02 0.10168381E+00
       -1 -1    0    0    0  501 0.00000000E+00 0.00000000E+00 0.65737223E+02 0.65738002E+02 0.32000000E+00 0.0000E+00 0.9000E+01
        1 -1    0    0  502    0 0.00000000E+00 0.00000000E+00 -.12827842E+04 0.12827843E+04 0.32000000E+00 0.0000E+00 0.9000E+01
       25  2    1    2    0    0 0.18563355E+03 -.40413537E+02 -.70119070E+03 0.78602851E+03 0.30013224E+03 0.0000E+00 0.0000E+00
       23  2    3    3    0    0 -.18150184E+02 -.85256271E+02 -.28768144E+03 0.31396513E+03 0.90639008E+02 0.0000E+00 0.0000E+00
       23  1    1    2    0    0 -.18895717E+03 0.37026864E+02 -.46584784E+03 0.51225508E+03 0.91188000E+02 0.0000E+00 0.9000E+01
      -11  1    4    4    0    0 -.20289352E+02 0.81358061E+01 -.17227413E+02 0.27832228E+02 0.51099893E-03 0.0000E+00 0.9000E+01
       11  1    4    4    0    0 0.21391678E+01 -.93392077E+02 -.27045402E+03 0.28613290E+03 0.51099893E-03 0.0000E+00 0.9000E+01
       23  1    3    3    0    0 0.20378374E+03 0.44842733E+02 -.41350926E+03 0.47206339E+03 0.91188000E+02 0.0000E+00 0.9000E+01
       21  1    1    2  502  501 0.33236122E+01 0.33866732E+01 -.50008470E+02 0.50238686E+02 0.75000000E+00 0.0000E+00 0.9000E+01
#aMCatNLO 2  0  0  2  1 0.47450978D+01 0.00000000D+00  -5  7  0 0.00000000D+00 0.00000000D+00 0.00000000D+00 0.00000000D+00 0.00000000D+00
  <mgrwgt>
 -.1037043266D-03    5    2    0
 0.284402359275839D+03 0.000000000000000D+00 0.000000000000000D+00 0.284402359275839D+03
 0.284402359275839D+03 0.000000000000000D+00 0.000000000000000D+00 -.284402359275839D+03
 0.212528739902983D+03 -.187712789729112D+03 0.382948504802977D+02 -.122730167259557D+02
 0.281101549163997D+02 -.201249007271060D+02 0.830337731297217D+01 0.177826630555308D+02
 0.976472162078883D+02 0.271130336821700D+01 -.928090856284158D+02 -.302341080902506D+02
 0.230518607524407D+03 0.205126387088001D+03 0.462108578351460D+02 0.247244617606754D+02
 0.000000000000000D+00 0.000000000000000D+00 0.000000000000000D+00 -.000000000000000D+00
 0.284899490147366D+03 0.000000000000000D+00 0.000000000000000D+00 0.284899490147366D+03
 0.295965181196244D+03 0.000000000000000D+00 0.000000000000000D+00 -.295965181196244D+03
 0.213404961091969D+03 -.188957165681492D+03 0.370268642032569D+02 -.122730167259557D+02
 0.281792874243491D+02 -.202893517396887D+02 0.813580606828404D+01 0.177826630555308D+02
 0.981873582733159D+02 0.213916776457775D+01 -.933920767193584D+02 -.302341080902506D+02
 0.229052903758432D+03 0.203783737432189D+03 0.448427332461212D+02 0.247244617606754D+02
 0.120401607955445D+02 0.332361222441395D+01 0.338667320169617D+01 -.110656910488774D+02
-.749684403971D-05 0.000000000000D+00 0.000000000000D+00 0.299337418225D-06 0.000000000000D+00  7 -1 1 23 -11 11 23 21 2 0.10095422D-01 0.19750545D+00 0.78620732D+05 0.78620732D+05 0.78620732D+05 0.11303966D+01  1  2 13  2  7  2        1 -.627430833755D-03 0.100000000000D+01
-.160564290967D-04 0.000000000000D+00 0.000000000000D+00 0.299337418225D-06 0.000000000000D+00  7 -1 1 23 -11 11 23 21 2 0.10095422D-01 0.18963357D+00 0.77279045D+05 0.77279045D+05 0.77279045D+05 0.11310253D+01  1  2  8  2  7  2        1 -.145882652445D-02 0.100000000000D+01
-.548125139288D-06 0.000000000000D+00 0.000000000000D+00 0.299337418225D-06 0.000000000000D+00  7 -1 1 23 -11 11 23 21 2 0.10095422D-01 0.19748686D+00 0.77279045D+05 0.77279045D+05 0.77279045D+05 0.11310253D+01  1  2  9  2  7  2        1 -.459430930966D-04 0.100000000000D+01
0.547674174647D-06 0.000000000000D+00 0.000000000000D+00 0.299337418225D-06 0.000000000000D+00  7 -1 1 23 -11 11 23 21 2 0.10095422D-01 0.18963357D+00 0.77279045D+05 0.77279045D+05 0.77279045D+05 0.11310253D+01  1  2 10  2  7  2        1 0.497596076885D-04 0.100000000000D+01
0.236670060520D-04 0.000000000000D+00 0.000000000000D+00 0.299337418225D-06 0.906724751682D-07  7 -1 1 23 -11 11 23 21 2 0.10113068D-01 0.19734341D+00 0.78620732D+05 0.78620732D+05 0.78620732D+05 0.11303966D+01  1  2  1  2  7  2        1 0.197873651702D-02 0.100000000000D+01
  </mgrwgt>
  </event>
  <event>
  8     66 0.27784906E-05 0.33853605E+03 0.75467711E-02 0.95073773E-01
       -1 -1    0    0    0  501 0.00000000E+00 0.00000000E+00 0.12663950E+03 0.12663990E+03 0.32000000E+00 0.0000E+00 0.9000E+01
        1 -1    0    0  501    0 0.00000000E+00 0.00000000E+00 -.10449211E+04 0.10449212E+04 0.32000000E+00 0.0000E+00 0.9000E+01
       25  2    1    2    0    0 -.24899212E+03 -.14105922E+03 -.63630799E+03 0.75959122E+03 0.30032681E+03 0.0000E+00 0.0000E+00
       23  2    3    3    0    0 -.26131887E+02 -.11067063E+03 -.11933487E+03 0.18848124E+03 0.91397512E+02 0.0000E+00 0.0000E+00
       23  1    1    2    0    0 0.24899212E+03 0.14105922E+03 -.28197365E+03 0.41196986E+03 0.91188000E+02 0.0000E+00 0.9000E+01
      -13  1    4    4    0    0 -.49957145E+02 -.60368621E+02 -.10498205E+03 0.13100125E+03 0.10565837E+00 0.0000E+00 0.9000E+01
       13  1    4    4    0    0 0.23825258E+02 -.50302008E+02 -.14352822E+02 0.57479993E+02 0.10565837E+00 0.0000E+00 0.9000E+01
       23  1    3    3    0    0 -.22286023E+03 -.30388587E+02 -.51697312E+03 0.57110998E+03 0.91188000E+02 0.0000E+00 0.9000E+01
#aMCatNLO 1  0  0  2  1 0.24739712D+03 0.00000000D+00  -5  7  0 0.00000000D+00 0.00000000D+00 0.00000000D+00 0.00000000D+00 0.00000000D+00
  <mgrwgt>
 0.4597336223D-03    3    2    0
 0.363769915937074D+03 0.000000000000000D+00 0.000000000000000D+00 0.363769915937074D+03
 0.363769915937074D+03 0.000000000000000D+00 0.000000000000000D+00 -.363769915937074D+03
 0.307497436543556D+03 0.248992116876925D+03 0.141059216324106D+03 0.659139238707184D+02
 0.784464079527880D+02 -.499572432161976D+02 -.603686339483033D+02 -.370685933758852D+01
 0.744445649536776D+02 0.238253560245179D+02 -.503019950021518D+02 0.494373842375463D+02
 0.267151422424127D+03 -.222860229685245D+03 -.303885873736504D+02 -.111644448770676D+03
 0.000000000000000D+00 0.000000000000000D+00 -.000000000000000D+00 0.000000000000000D+00
 0.597466104799778D+03 0.000000000000000D+00 0.000000000000000D+00 0.597466104799778D+03
 0.455982824473255D+03 0.000000000000000D+00 0.000000000000000D+00 -.455982824473255D+03
 0.342387246531825D+03 0.213800404127310D+03 0.242607743237121D+03 0.659139238707184D+02
 0.690239629274412D+02 -.579428675373270D+02 -.373254705745540D+02 -.370685933758852D+01
 0.598160460553912D+02 0.165550494928114D+02 -.293229388319190D+02 0.494373842375463D+02
 0.297225438274347D+03 -.253421633702712D+03 0.577988100527859D+02 -.111644448770676D+03
 0.284996235484028D+03 0.810090476199175D+02 -.233758143883434D+03 0.141483280326522D+03
0.132230733516D-04 0.000000000000D+00 0.000000000000D+00 0.596841932982D-06 0.000000000000D+00  7 -1 1 23 -13 13 23 21 0 0.19483034D-01 0.16075713D+00 0.11460665D+06 0.11460665D+06 0.11460665D+06 0.11168953D+01  1  2  2  2  7  2        1 0.454497522358D-03 0.100000000000D+01
-.729998925041D-06 0.000000000000D+00 -.507800833854D-07 0.596841932982D-06 0.000000000000D+00  7 -1 1 23 -13 13 23 21 2 0.19483034D-01 0.16075713D+00 0.11460665D+06 0.11460665D+06 0.11460665D+06 0.11168953D+01  1  2  3  2  7  2        1 -.313001406328D-04 0.100000000000D+01
0.852118099479D-06 0.000000000000D+00 0.000000000000D+00 0.596841932982D-06 0.000000000000D+00  7 -1 1 23 -13 13 23 21 2 0.19483034D-01 0.16075713D+00 0.11460665D+06 0.11460665D+06 0.11460665D+06 0.11168953D+01  1  2 15  2  7  2        1 0.365362405813D-04 0.100000000000D+01
  </mgrwgt>
  </event>
  <event>
  8     66 -.27784906E-05 0.14881982E+03 0.75467711E-02 0.10816680E+00
       -1 -1    0    0    0  501 0.00000000E+00 0.00000000E+00 0.28816756E+03 0.28816773E+03 0.32000000E+00 0.0000E+00 0.9000E+01
        1 -1    0    0  501    0 0.00000000E+00 0.00000000E+00 -.33183378E+03 0.33183393E+03 0.32000000E+00 0.0000E+00 0.9000E+01
       25  2    1    2    0    0 0.71511094E+02 0.63426903E+02 -.23073345E+03 0.39099030E+03 0.30082999E+03 0.0000E+00 0.0000E+00
       23  2    3    3    0    0 -.32918308E+02 0.36674345E+02 0.18192130E+02 0.10480785E+03 0.90692388E+02 0.0000E+00 0.0000E+00
       23  1    1    2    0    0 -.71511094E+02 -.63426903E+02 0.18706723E+03 0.22901137E+03 0.91188000E+02 0.0000E+00 0.9000E+01
      -11  1    4    4    0    0 0.34696651E+01 -.15479897E+02 -.23798859E+02 0.28601599E+02 0.51099893E-03 0.0000E+00 0.9000E+01
       11  1    4    4    0    0 -.36387973E+02 0.52154242E+02 0.41990988E+02 0.76206251E+02 0.51099893E-03 0.0000E+00 0.9000E+01
       23  1    3    3    0    0 0.10442940E+03 0.26752557E+02 -.24892558E+03 0.28618245E+03 0.91188000E+02 0.0000E+00 0.9000E+01
#aMCatNLO 1  0  0  2  1 0.24739712D+03 0.00000000D+00  -5  7  0 0.00000000D+00 0.00000000D+00 0.00000000D+00 0.00000000D+00 0.00000000D+00
  <mgrwgt>
 -.5261678560D-05    1    2    0
 0.309231033619341D+03 0.000000000000000D+00 0.000000000000000D+00 0.309231033619341D+03
 0.309231033619341D+03 0.000000000000000D+00 0.000000000000000D+00 -.309231033619341D+03
 0.242789262759331D+03 -.715110941394850D+02 -.634269025106758D+02 0.203702150749800D+03
 0.269924927282080D+02 0.346966508302021D+01 -.154798972908768D+02 -.218387011463122D+02
 0.793607128673509D+02 -.363879733501593D+02 0.521542423197645D+02 0.474760271119382D+02
 0.269319598883792D+03 0.104429402406624D+03 0.267525574817880D+02 -.229339476715426D+03
 0.000000000000000D+00 0.000000000000000D+00 -.000000000000000D+00 0.000000000000000D+00
 0.400987643799144D+03 0.000000000000000D+00 0.000000000000000D+00 0.400987643799144D+03
 0.396601705283839D+03 0.000000000000000D+00 0.000000000000000D+00 -.396601705283839D+03
 0.268533629011450D+03 -.136140468541549D+03 -.613699044422627D+02 0.203702150749800D+03
 0.268519310130015D+02 -.333607641113138D+01 -.152632868527113D+02 -.218387011463122D+02
 0.917148330388342D+02 -.580113070309926D+02 0.528424611989605D+02 0.474760271119382D+02
 0.251464341469748D+03 0.386041854930437D+02 0.288476163508676D+02 -.229339476715426D+03
 0.159024614549949D+03 0.158883666490629D+03 -.505688625485416D+01 0.438593851530457D+01
-.814653982569D-07 0.000000000000D+00 0.000000000000D+00 0.264756818585D-06 0.000000000000D+00  7 -1 1 23 -11 11 23 21 2 0.44333496D-01 0.51051376D-01 0.31109966D+05 0.31109966D+05 0.31109966D+05 0.11658748D+01  1  2 14  2  7  2        1 -.526167856038D-05 0.100000000000D+01
  </mgrwgt>
  </event>
  <event>
  8     66 0.27784906E-05 0.21113382E+03 0.75467711E-02 0.10020658E+00
       -1 -1    0    0    0  501 0.00000000E+00 0.00000000E+00 0.20645867E+02 0.20648346E+02 0.32000000E+00 0.0000E+00 0.9000E+01
        1 -1    0    0  501    0 0.00000000E+00 0.00000000E+00 -.31762018E+04 0.31762019E+04 0.32000000E+00 0.0000E+00 0.9000E+01
       25  2    1    2    0    0 0.38936411E+02 -.97444507E+02 -.13987775E+04 0.14345797E+04 0.30071404E+03 0.0000E+00 0.0000E+00
       23  2    3    3    0    0 -.99441194E+02 -.37006991E+02 -.69710216E+03 0.71107117E+03 0.91720872E+02 0.0000E+00 0.0000E+00
       23  1    1    2    0    0 -.38936411E+02 0.97444507E+02 -.17567785E+04 0.17622705E+04 0.91188000E+02 0.0000E+00 0.9000E+01
      -13  1    4    4    0    0 -.79940322E+02 -.24217113E+02 -.25453345E+03 0.26788844E+03 0.10565837E+00 0.0000E+00 0.9000E+01
       13  1    4    4    0    0 -.19500873E+02 -.12789878E+02 -.44256871E+03 0.44318274E+03 0.10565837E+00 0.0000E+00 0.9000E+01
       23  1    3    3    0    0 0.13837761E+03 -.60437516E+02 -.70167532E+03 0.72350850E+03 0.91188000E+02 0.0000E+00 0.9000E+01
#aMCatNLO 1  0  0  1  1 0.17602132D+03 0.00000000D+00  -5  7  0 0.00000000D+00 0.00000000D+00 0.00000000D+00 0.00000000D+00 0.00000000D+00
  <mgrwgt>
 0.5112177282D-03    3    2    0
 0.256084807613749D+03 0.000000000000000D+00 0.000000000000000D+00 0.256084807613749D+03
 0.256084807613749D+03 0.000000000000000D+00 0.000000000000000D+00 -.256084807613749D+03
 0.175922223054532D+03 -.389364123544418D+02 0.974445107881281D+02 -.107804917933626D+03
 0.103880978952336D+03 -.799403985771667D+02 -.242171292470221D+02 0.617601903693012D+02
 0.395151207602442D+02 -.195007909189831D+02 -.127898633417915D+02 -.318995817829809D+02
 0.192851292460387D+03 0.138377601850592D+03 -.604375181993145D+02 0.779443093473053D+02
 0.000000000000000D+00 -.000000000000000D+00 0.000000000000000D+00 -.000000000000000D+00
 0.329660811339621D+03 0.000000000000000D+00 0.000000000000000D+00 0.329660811339621D+03
 0.402352675054443D+03 0.000000000000000D+00 0.000000000000000D+00 -.402352675054443D+03
 0.152286683146209D+03 -.379059444419269D+02 0.426288818169535D+02 -.107804917933626D+03
 0.117649750029031D+03 -.792448650205249D+02 -.612159614424203D+02 0.617601903693012D+02
 0.460525044318961D+02 -.192321367464584D+02 -.270808929447728D+02 -.318995817829809D+02
 0.225583975127366D+03 0.139691350833534D+03 -.130322253022798D+03 0.779443093473053D+02
 0.190440573659562D+03 -.330840462462362D+01 0.175990225593038D+03 -.726918637148221D+02
0.261056635120D-04 0.000000000000D+00 0.000000000000D+00 0.105369886290D-06 0.000000000000D+00  7 -1 1 23 -13 13 23 21 0 0.31764791D-02 0.48864663D+00 0.44577491D+05 0.44577491D+05 0.44577491D+05 0.11517065D+01  1  2  2  1  7  1       -1 0.502903400639D-03 0.100000000000D+01
-.138461959189D-05 0.000000000000D+00 -.100252621665D-06 0.105369886290D-06 0.000000000000D+00  7 -1 1 23 -13 13 23 21 2 0.31764791D-02 0.48864663D+00 0.44577491D+05 0.44577491D+05 0.44577491D+05 0.11517065D+01  1  2  3  1  7  1       -1 -.353805009226D-04 0.100000000000D+01
0.171000166618D-05 0.000000000000D+00 0.000000000000D+00 0.105369886290D-06 0.000000000000D+00  7 -1 1 23 -13 13 23 21 2 0.31764791D-02 0.48864663D+00 0.44577491D+05 0.44577491D+05 0.44577491D+05 0.11517065D+01  1  2 15  1  7  1       -1 0.436948284442D-04 0.100000000000D+01
  </mgrwgt>
  </event>
  <event>
  9     66 0.27784906E-05 0.66454690E+03 0.75467711E-02 0.90295148E-01
       -1 -1    0    0    0  502 0.00000000E+00 0.00000000E+00 0.47302253E+03 0.47302264E+03 0.32000000E+00 0.0000E+00 0.9000E+01
        1 -1    0    0  501    0 0.00000000E+00 0.00000000E+00 -.12224282E+04 0.12224283E+04 0.32000000E+00 0.0000E+00 0.9000E+01
       25  2    1    2    0    0 0.45354214E+03 0.33083621E+03 -.37575076E+03 0.73896642E+03 0.29954909E+03 0.0000E+00 0.0000E+00
       23  2    3    3    0    0 0.29753377E+02 0.78504223E+02 -.13408773E+03 0.18220379E+03 0.90390965E+02 0.0000E+00 0.0000E+00
       23  1    1    2    0    0 -.60093579E+03 -.37846894E+03 -.25042416E+03 0.75854471E+03 0.91188000E+02 0.0000E+00 0.9000E+01
      -11  1    4    4    0    0 0.22087724E+02 0.97313311E+02 -.93171303E+02 0.13652340E+03 0.51099893E-03 0.0000E+00 0.9000E+01
       11  1    4    4    0    0 0.76656525E+01 -.18809088E+02 -.40916424E+02 0.45680388E+02 0.51099893E-03 0.0000E+00 0.9000E+01
       23  1    3    3    0    0 0.42378876E+03 0.25233199E+03 -.24166303E+03 0.55676262E+03 0.91188000E+02 0.0000E+00 0.9000E+01
       21  1    1    2  501  502 0.14739366E+03 0.47632725E+02 -.12323076E+03 0.19793976E+03 0.75000000E+00 0.0000E+00 0.9000E+01
#aMCatNLO 2  0  0  1  1 0.15489922D+03 0.00000000D+00  -5  7  0 0.00000000D+00 0.00000000D+00 0.00000000D+00 0.00000000D+00 0.00000000D+00
  <mgrwgt>
 0.1097498126D-03    1    2    0
 0.675731229015765D+03 0.000000000000000D+00 0.000000000000000D+00 0.675731229015765D+03
 0.675731229015765D+03 0.000000000000000D+00 0.000000000000000D+00 -.675731229015765D+03
 0.645610374346211D+03 -.526722574638199D+03 -.354485695890544D+03 0.734896244034458D+02
 0.113946688525885D+03 0.341188921327010D+02 0.101201384517100D+03 -.397244105994568D+02
 0.318321756746927D+02 0.111054153547260D+02 -.176974715799889D+02 -.240157585276627D+02
 0.560073219484741D+03 0.481498267150772D+03 0.270981782953433D+03 -.974945527632632D+01
 0.000000000000000D+00 0.000000000000000D+00 0.000000000000000D+00 -.000000000000000D+00
 0.738471380982143D+03 0.000000000000000D+00 0.000000000000000D+00 0.738471380982143D+03
 0.783015954857748D+03 0.000000000000000D+00 0.000000000000000D+00 -.783015954857748D+03
 0.719776731407366D+03 -.600935794612717D+03 -.378468938738299D+03 0.734896244034458D+02
 0.107404734166816D+03 0.220877240084791D+02 0.973133113818219D+02 -.397244105994568D+02
 0.314531507883150D+02 0.766565249614369D+01 -.188090884590893D+02 -.240157585276627D+02
 0.501675841707471D+03 0.423788760224890D+03 0.252331990912300D+03 -.974945527632632D+01
 0.161176877769923D+03 0.147393657883205D+03 0.476327249032663D+02 -.445445738756053D+02
0.404014515703D-04 0.000000000000D+00 0.000000000000D+00 0.108553065275D-05 0.281346776160D-09  7 -1 1 23 -11 11 23 21 2 0.72772624D-01 0.18806567D+00 0.55696014D+06 0.55696014D+06 0.55696014D+06 0.10652147D+01  1  2  1  1  7  1       -1 0.109749812556D-03 0.100000000000D+01
  </mgrwgt>
  </event>
  <event>
  8     66 0.27784906E-05 0.33842795E+03 0.75467711E-02 0.95410622E-01
       -1 -1    0    0    0  501 0.00000000E+00 0.00000000E+00 0.22862519E+03 0.22862542E+03 0.32000000E+00 0.0000E+00 0.9000E+01
        1 -1    0    0  501    0 0.00000000E+00 0.00000000E+00 -.12057591E+04 0.12057591E+04 0.32000000E+00 0.0000E+00 0.9000E+01
       25  2    1    2    0    0 -.21975799E+03 0.17678738E+03 -.10514410E+04 0.11287963E+04 0.29850543E+03 0.0000E+00 0.0000E+00
       23  2    3    3    0    0 -.54480202E+02 0.17465030E+03 -.38128317E+03 0.43255775E+03 0.90876449E+02 0.0000E+00 0.0000E+00
       23  1    1    2    0    0 0.21975799E+03 -.17678738E+03 0.74307169E+02 0.30558821E+03 0.91188000E+02 0.0000E+00 0.9000E+01
      -13  1    4    4    0    0 -.21141040E+02 0.94933646E+01 -.10813570E+02 0.25573658E+02 0.10565837E+00 0.0000E+00 0.9000E+01
       13  1    4    4    0    0 -.33339163E+02 0.16515693E+03 -.37046960E+03 0.40698409E+03 0.10565837E+00 0.0000E+00 0.9000E+01
       23  1    3    3    0    0 -.16527778E+03 0.21370852E+01 -.67015787E+03 0.69623856E+03 0.91188000E+02 0.0000E+00 0.9000E+01
#aMCatNLO 1  0  0  2  1 0.22159221D+03 0.00000000D+00  -5  7  0 0.00000000D+00 0.00000000D+00 0.00000000D+00 0.00000000D+00 0.00000000D+00
  <mgrwgt>
 0.6116561249D-03    4    2    0
 0.525040082191933D+03 0.000000000000000D+00 0.000000000000000D+00 0.525040082191933D+03
 0.525040082191933D+03 0.000000000000000D+00 0.000000000000000D+00 -.525040082191933D+03
 0.486571476434280D+03 0.219757985924903D+03 -.176787380743467D+03 0.385861633189320D+03
 0.248703764305462D+02 -.211410230139777D+02 0.949315413825933D+01 0.902622812844810D+01
 0.211196776534014D+03 -.333391794504265D+02 0.165157141392849D+03 -.127340866099115D+03
 0.327441534985026D+03 -.165277783460499D+03 0.213708521235894D+01 -.267546995218653D+03
 0.000000000000000D+00 0.000000000000000D+00 0.000000000000000D+00 0.000000000000000D+00
 0.844156355425865D+03 0.000000000000000D+00 0.000000000000000D+00 0.844156355425865D+03
 0.576517388884835D+03 0.000000000000000D+00 0.000000000000000D+00 -.576517388884835D+03
 0.473637888349220D+03 0.131091015637892D+03 -.223480521718124D+03 0.385861633189320D+03
 0.284320360492686D+02 -.260630364799048D+02 0.690115998418183D+01 0.902622812844810D+01
 0.205833520570587D+03 -.718482945646018D+02 0.144877757367264D+03 -.127340866099115D+03
 0.365302713449303D+03 -.229246680187801D+03 -.315497398050371D+02 -.267546995218653D+03
 0.347467585892321D+03 0.196066995594416D+03 0.103251344171716D+03 0.267638966541030D+03
0.676940299596D-04 0.000000000000D+00 0.000000000000D+00 0.321938071895D-06 0.000000000000D+00  7 -1 1 23 -13 13 23 21 0 0.35173127D-01 0.18550141D+00 0.11453348D+06 0.11453348D+06 0.11453348D+06 0.11169178D+01  1  2  2  2  7  2        1 0.673506772153D-03 0.100000000000D+01
-.287889510120D-05 0.000000000000D+00 -.259962899292D-06 0.321938071895D-06 0.000000000000D+00  7 -1 1 23 -13 13 23 21 2 0.35173127D-01 0.18550141D+00 0.11453348D+06 0.11453348D+06 0.11453348D+06 0.11169178D+01  1  2  3  2  7  2        1 -.357322088244D-04 0.100000000000D+01
0.413080806555D-05 0.000000000000D+00 0.000000000000D+00 0.321938071895D-06 0.000000000000D+00  7 -1 1 23 -13 13 23 21 2 0.35173127D-01 0.18550141D+00 0.11453348D+06 0.11453348D+06 0.11453348D+06 0.11169178D+01  1  2 15  2  7  2        1 0.512706754582D-04 0.100000000000D+01
-.623513485873D-05 0.000000000000D+00 0.000000000000D+00 0.321938071895D-06 0.000000000000D+00  7 -1 1 23 -13 13 23 21 2 0.35173127D-01 0.18550141D+00 0.11453348D+06 0.11453348D+06 0.11453348D+06 0.11169178D+01  1  2  4  2  7  2        1 -.773891138748D-04 0.100000000000D+01
  </mgrwgt>
  </event>
  <event>
  8     66 0.27784906E-05 0.29387260E+03 0.75467711E-02 0.91885668E-01
       -1 -1    0    0    0  501 0.00000000E+00 0.00000000E+00 0.15881410E+03 0.15881442E+03 0.32000000E+00 0.0000E+00 0.9000E+01
        1 -1    0    0  501    0 0.00000000E+00 0.00000000E+00 -.88679839E+03 0.88679845E+03 0.32000000E+00 0.0000E+00 0.9000E+01
       25  2    1    2    0    0 -.22532454E+03 0.45444288E+02 -.14185370E+03 0.40945200E+03 0.30772088E+03 0.0000E+00 0.0000E+00
       23  2    3    3    0    0 -.10799331E+03 0.11543495E+03 0.43352677E+01 0.18956163E+03 0.10453246E+03 0.0000E+00 0.0000E+00
       23  1    1    2    0    0 0.22532454E+03 -.45444288E+02 -.58613059E+03 0.63616087E+03 0.91188000E+02 0.0000E+00 0.9000E+01
      -13  1    4    4    0    0 -.64725611E+02 0.14426797E+02 -.32257911E+02 0.73743618E+02 0.10565837E+00 0.0000E+00 0.9000E+01
       13  1    4    4    0    0 -.43267701E+02 0.10100815E+03 0.36593179E+02 0.11581801E+03 0.10565837E+00 0.0000E+00 0.9000E+01
       23  1    3    3    0    0 -.11733123E+03 -.69990659E+02 -.14618897E+03 0.21989037E+03 0.91188000E+02 0.0000E+00 0.9000E+01
#aMCatNLO 1  0  0  1  1 0.53858846D+03 0.00000000D+00  -5  7  0 0.00000000D+00 0.00000000D+00 0.00000000D+00 0.00000000D+00 0.00000000D+00
  <mgrwgt>
 0.5332028847D-03    3    2    0
 0.375281610916538D+03 0.000000000000000D+00 0.000000000000000D+00 0.375281610916538D+03
 0.375281610916538D+03 0.000000000000000D+00 0.000000000000000D+00 -.375281610916538D+03
 0.317740264915333D+03 0.225324567164568D+03 -.454442931003879D+02 -.199517618924175D+03
 0.714449058778666D+02 -.647256105907738D+02 0.144267179208064D+02 0.265864574470202D+02
 0.196839032342752D+03 -.432677077709200D+02 0.101008214245191D+03 0.163312126839616D+03
 0.164539018697124D+03 -.117331248802874D+03 -.699906390656095D+02 0.961903463753841D+01
 0.000000000000000D+00 -.000000000000000D+00 0.000000000000000D+00 -.000000000000000D+00
 0.508722194463460D+03 0.000000000000000D+00 0.000000000000000D+00 0.508722194463460D+03
 0.201087474285313D+04 0.000000000000000D+00 0.000000000000000D+00 -.201087474285313D+04
 0.520937010426767D+03 0.400631269780738D+03 -.250494357024422D+03 -.199517618924175D+03
 0.498855226768410D+02 -.393642016408813D+02 -.152376271884910D+02 0.265864574470202D+02
 0.167005969972982D+03 0.327859418207255D+02 0.120509440570255D+02 0.163312126839616D+03
 0.185980287314290D+03 -.440630376007708D+02 -.155689880260539D+03 0.961903463753841D+01
 0.159578814692571D+04 -.349989972359811D+03 0.409370920416426D+03 -.150215254838967D+04
0.165641926578D-04 0.000000000000D+00 0.000000000000D+00 0.630248042382D-10 0.000000000000D+00  7 -1 1 23 -13 13 23 21 0 0.24432968D-01 0.13643055D+00 0.86361103D+05 0.86361103D+05 0.86361103D+05 0.11269856D+01  1  2  2  1  7  1       -1 0.524956127800D-03 0.100000000000D+01
-.853330032159D-06 0.000000000000D+00 -.636108612581D-07 0.630248042382D-10 0.000000000000D+00  7 -1 1 23 -13 13 23 21 2 0.24432968D-01 0.13643055D+00 0.86361103D+05 0.86361103D+05 0.86361103D+05 0.11269856D+01  1  2  3  1  7  1       -1 -.343484012937D-04 0.100000000000D+01
0.105820726149D-05 0.000000000000D+00 0.000000000000D+00 0.630248042382D-10 0.000000000000D+00  7 -1 1 23 -13 13 23 21 2 0.24432968D-01 0.13643055D+00 0.86361103D+05 0.86361103D+05 0.86361103D+05 0.11269856D+01  1  2 15  1  7  1       -1 0.425951581451D-04 0.100000000000D+01
  </mgrwgt>
  </event>
  <event>
  8     66 0.27784906E-05 0.10377626E+03 0.75467711E-02 0.10729240E+00
       -1 -1    0    0    0  501 0.00000000E+00 0.00000000E+00 0.91286316E+03 0.91286321E+03 0.32000000E+00 0.0000E+00 0.9000E+01
        1 -1    0    0  501    0 0.00000000E+00 0.00000000E+00 -.70980099E+02 0.70980820E+02 0.32000000E+00 0.0000E+00 0.9000E+01
       25  2    1    2    0    0 -.45144418E+02 -.10696500E+03 0.37233615E+03 0.49163566E+03 0.29931904E+03 0.0000E+00 0.0000E+00
       23  2    3    3    0    0 -.16703787E+01 -.58553058E+01 0.32876078E+03 0.34221269E+03 0.94809261E+02 0.0000E+00 0.0000E+00
       23  1    1    2    0    0 0.45144418E+02 0.10696500E+03 0.46954691E+03 0.49220837E+03 0.91188000E+02 0.0000E+00 0.9000E+01
      -11  1    4    4    0    0 -.27672659E+02 0.21219707E+02 0.50139266E+02 0.61073710E+02 0.51099893E-03 0.0000E+00 0.9000E+01
       11  1    4    4    0    0 0.26002280E+02 -.27075013E+02 0.27862152E+03 0.28113898E+03 0.51099893E-03 0.0000E+00 0.9000E+01
       23  1    3    3    0    0 -.43474039E+02 -.10110969E+03 0.43575368E+02 0.14942298E+03 0.91188000E+02 0.0000E+00 0.9000E+01
#aMCatNLO 1  0  0  1  2 0.12688359D+02 0.00000000D+00  -5  7  0 0.00000000D+00 0.00000000D+00 0.00000000D+00 0.00000000D+00 0.00000000D+00
  <mgrwgt>
 0.5342558812D-03    9    2    0
 0.254549600669972D+03 0.000000000000000D+00 0.000000000000000D+00 0.254549600669972D+03
 0.254549600669972D+03 0.000000000000000D+00 0.000000000000000D+00 -.254549600669972D+03
 0.174725633872592D+03 0.451444180075148D+02 0.106964997475071D+03 0.934572984100220D+02
 0.351122259934702D+02 -.276726591029510D+02 0.212197067816630D+02 -.410077998539671D+01
 0.825579182350461D+02 0.260022803806543D+02 -.270750125529299D+02 0.735298237014688D+02
 0.216703423238836D+03 -.434740392852181D+02 -.101109691703804D+03 -.162886342126094D+03
 0.000000000000000D+00 -.000000000000000D+00 -.000000000000000D+00 0.000000000000000D+00
 0.271357442174834D+03 0.000000000000000D+00 0.000000000000000D+00 0.271357442174834D+03
 0.257034595158472D+03 0.000000000000000D+00 0.000000000000000D+00 -.257034595158472D+03
 0.177550989867429D+03 0.456146279479549D+02 0.111328979829933D+03 0.934572984100220D+02
 0.355750631385140D+02 -.275783074946616D+02 0.220953768139518D+02 -.410077998539671D+01
 0.819820688799111D+02 0.262219041999130D+02 -.250367007489402D+02 0.735298237014688D+02
 0.214149171895126D+03 -.428989481226381D+02 -.957723147789623D+02 -.162886342126094D+03
 0.191347435523255D+02 -.135927653056825D+01 -.126153411159826D+02 0.143228470163619D+02
0.774484801023D-05 0.000000000000D+00 0.000000000000D+00 0.143776667780D-07 0.000000000000D+00  7 -1 1 23 -11 11 23 21 0 0.14044055D+00 0.10920075D-01 0.32936709D+05 0.32936709D+05 0.32936709D+05 0.11635914D+01  1  2  2  1  7  1       -1 0.253521672274D-03 0.100000000000D+01
-.370388486678D-06 0.000000000000D+00 -.297422556246D-07 0.143776667780D-07 0.000000000000D+00  7 -1 1 23 -11 11 23 21 2 0.14044055D+00 0.10920075D-01 0.32936709D+05 0.32936709D+05 0.32936709D+05 0.11635914D+01  1  2  3  1  7  1       -1 -.164157478423D-04 0.100000000000D+01
0.484605691969D-06 0.000000000000D+00 0.000000000000D+00 0.143776667780D-07 0.000000000000D+00  7 -1 1 23 -11 11 23 21 2 0.14044055D+00 0.10920075D-01 0.32936709D+05 0.32936709D+05 0.32936709D+05 0.11635914D+01  1  2 15  1  7  1       -1 0.214778945038D-04 0.100000000000D+01
0.449262077911D-04 0.000000000000D+00 0.000000000000D+00 0.143776667780D-07 0.000000000000D+00  7 -1 1 23 -11 11 23 21 2 0.15037154D+00 0.10920075D-01 0.35019505D+05 0.35019505D+05 0.35019505D+05 0.11611529D+01  1  2 12  1  7  1       -1 0.164480959988D-02 0.100000000000D+01
-.457609991346D-04 0.000000000000D+00 0.000000000000D+00 0.143776667780D-07 0.000000000000D+00  7 -1 1 23 -11 11 23 21 2 0.14044055D+00 0.10920075D-01 0.32936709D+05 0.32936709D+05 0.32936709D+05 0.11635914D+01  1  2  4  1  7  1       -1 -.202814355689D-02 0.100000000000D+01
-.100778348312D-03 0.000000000000D+00 -.129738000216D-04 0.143776667780D-07 0.000000000000D+00  7 -1 1 23 -11 11 23 21 2 0.15047279D+00 0.10920075D-01 0.32936709D+05 0.32936709D+05 0.32936709D+05 0.11635914D+01  1  2  5  1  7  1       -1 -.370183178084D-02 0.100000000000D+01
0.101462722189D-03 0.000000000000D+00 0.129429787876D-04 0.143776667780D-07 0.000000000000D+00  7 -1 1 23 -11 11 23 21 2 0.14044055D+00 0.10920075D-01 0.32936709D+05 0.32936709D+05 0.32936709D+05 0.11635914D+01  1  2  6  1  7  1       -1 0.449686348996D-02 0.100000000000D+01
0.607802478072D-06 0.000000000000D+00 0.000000000000D+00 0.143776667780D-07 0.000000000000D+00  7 21 1 23 -11 11 23 1 2 0.15037154D+00 0.10920075D-01 0.35019505D+05 0.35019505D+05 0.35019505D+05 0.11611529D+01  1  2 12  3  7  1       -1 0.148723363139D-03 0.100000000000D+01
-.115780463776D-05 0.000000000000D+00 -.151782148643D-06 0.143776667780D-07 0.000000000000D+00  7 21 1 23 -11 11 23 1 2 0.15047279D+00 0.10920075D-01 0.32936709D+05 0.32936709D+05 0.32936709D+05 0.11635914D+01  1  2  5  3  7  1       -1 -.284749053002D-03 0.100000000000D+01
  </mgrwgt>
  </event>
  <event>
  9     66 0.27784906E-05 0.28389478E+03 0.75467711E-02 0.97910528E-01
       -1 -1    0    0    0  502 0.00000000E+00 0.00000000E+00 0.40879641E+03 0.40879654E+03 0.32000000E+00 0.0000E+00 0.9000E+01
        1 -1    0    0  501    0 0.00000000E+00 0.00000000E+00 -.38366922E+03 0.38366935E+03 0.32000000E+00 0.0000E+00 0.9000E+01
       25  2    1    2    0    0 -.84762800E+02 -.12026472E+03 -.19362076E+02 0.33556348E+03 0.30096449E+03 0.0000E+00 0.0000E+00
       23  2    3    3    0    0 0.67136440E+02 -.58132974E+01 0.31493407E+02 0.11859796E+03 0.92371775E+02 0.0000E+00 0.0000E+00
       23  1    1    2    0    0 0.20902014E+02 0.27275089E+03 0.43270359E+02 0.29157764E+03 0.91188000E+02 0.0000E+00 0.9000E+01
      -13  1    4    4    0    0 -.51967047E+01 0.15187924E+02 -.21260949E+02 0.26640531E+02 0.10565837E+00 0.0000E+00 0.9000E+01
       13  1    4    4    0    0 0.72333144E+02 -.21001222E+02 0.52754356E+02 0.91957426E+02 0.10565837E+00 0.0000E+00 0.9000E+01
       23  1    3    3    0    0 -.15189924E+03 -.11445142E+03 -.50855483E+02 0.21696552E+03 0.91188000E+02 0.0000E+00 0.9000E+01
       21  1    1    2  501  502 0.63860786E+02 -.15248617E+03 0.12189056E+01 0.16532477E+03 0.75000000E+00 0.0000E+00 0.9000E+01
#aMCatNLO 2  0  0  1  1 0.16531858D+03 0.00000000D+00  -5  7  0 0.00000000D+00 0.00000000D+00 0.00000000D+00 0.00000000D+00 0.00000000D+00
  <mgrwgt>
 0.5745475271D-04    1    2    0
 0.302243337489610D+03 0.000000000000000D+00 0.000000000000000D+00 0.302243337489610D+03
 0.302243337489610D+03 0.000000000000000D+00 0.000000000000000D+00 -.302243337489610D+03
 0.234198520179031D+03 0.480993573393997D+02 0.207809338607610D+03 0.321780378682796D+02
 0.240994651607349D+02 -.252185313779734D+01 0.880074405736121D+01 -.222928549499987D+02
 0.106256648584304D+03 0.825136728146401D+02 -.453099993457709D+02 0.492846134842619D+02
 0.239932041055149D+03 -.128091177016243D+03 -.171300083319201D+03 -.591697964025428D+02
 0.000000000000000D+00 0.000000000000000D+00 -.000000000000000D+00 -.000000000000000D+00
 0.393497332546291D+03 0.000000000000000D+00 0.000000000000000D+00 0.393497332546291D+03
 0.398584733266169D+03 0.000000000000000D+00 0.000000000000000D+00 -.398584733266169D+03
 0.290138968789547D+03 0.209020144806678D+02 0.272750892823212D+03 0.321780378682796D+02
 0.274709414939577D+02 -.519680593186688D+01 0.151879706626422D+02 -.222928549499987D+02
 0.900118029589283D+02 0.723332442142094D+02 -.210012696537943D+02 0.492846134842619D+02
 0.219063513208673D+03 -.151899239042292D+03 -.114451421342772D+03 -.591697964025428D+02
 0.165396839361354D+03 0.638607862792816D+02 -.152486172489288D+03 -.508740071987765D+01
0.228920600948D-05 0.000000000000D+00 0.000000000000D+00 0.683121717388D-07 0.181183904830D-10  7 -1 1 23 -13 13 23 21 2 0.62891640D-01 0.59025927D-01 0.14286951D+06 0.14286951D+06 0.14286951D+06 0.11092249D+01  1  2  1  1  7  1       -1 0.574547527124D-04 0.100000000000D+01
  </mgrwgt>
  </event>
  <event>
  8     66 0.27784906E-05 0.10605223E+03 0.75467711E-02 0.10435462E+00
       -1 -1    0    0    0  501 0.00000000E+00 0.00000000E+00 0.53936480E+02 0.53937429E+02 0.32000000E+00 0.0000E+00 0.9000E+01
        1 -1    0    0  501    0 0.00000000E+00 0.00000000E+00 -.10934777E+04 0.10934777E+04 0.32000000E+00 0.0000E+00 0.9000E+01
       25  2    1    2    0    0 -.53733698E+02 0.77360503E+02 -.48794600E+03 0.58045442E+03 0.29994012E+03 0.0000E+00 0.0000E+00
       23  2    3    3    0    0 0.83742415E+02 0.61515939E+02 -.30100739E+03 0.33063042E+03 0.88960828E+02 0.0000E+00 0.0000E+00
       23  1    1    2    0    0 0.53733698E+02 -.77360503E+02 -.55159519E+03 0.56696073E+03 0.91188000E+02 0.0000E+00 0.9000E+01
      -11  1    4    4    0    0 0.88760872E+00 0.42471654E+02 -.16380469E+03 0.16922353E+03 0.51099893E-03 0.0000E+00 0.9000E+01
       11  1    4    4    0    0 0.82854807E+02 0.19044285E+02 -.13720270E+03 0.16140689E+03 0.51099893E-03 0.0000E+00 0.9000E+01
       23  1    3    3    0    0 -.13747611E+03 0.15844564E+02 -.18693861E+03 0.24982399E+03 0.91188000E+02 0.0000E+00 0.9000E+01
#aMCatNLO 1  0  0  2  1 0.34194967D+02 0.00000000D+00  -5  7  0 0.00000000D+00 0.00000000D+00 0.00000000D+00 0.00000000D+00 0.00000000D+00
  <mgrwgt>
 0.3781443604D-03    9    2    0
 0.242855734407062D+03 0.000000000000000D+00 0.000000000000000D+00 0.242855734407062D+03
 0.242855734407062D+03 0.000000000000000D+00 0.000000000000000D+00 -.242855734407062D+03
 0.158804983783586D+03 0.537336980245532D+02 -.773605030286641D+02 -.896203871798324D+02
 0.491813124862760D+02 0.887608721642493D+00 0.424716542161317D+02 -.247824985983120D+02
 0.876505019873282D+02 0.828548067611181D+02 0.190442845651323D+02 0.213308865406637D+02
 0.190074670556935D+03 -.137476113507314D+03 0.158445642474001D+02 0.930719992374807D+02
 0.000000000000000D+00 -.000000000000000D+00 0.000000000000000D+00 -.000000000000000D+00
 0.252335194050094D+03 0.000000000000000D+00 0.000000000000000D+00 0.252335194050094D+03
 0.276382294499294D+03 0.000000000000000D+00 0.000000000000000D+00 -.276382294499294D+03
 0.165739564783504D+03 0.586186176125327D+02 -.876720928320856D+02 -.896203871798324D+02
 0.466275954794784D+02 0.232968751572855D+01 0.394275662386305D+02 -.247824985983120D+02
 0.891530671707749D+02 0.855159860106798D+02 0.134267941805654D+02 0.213308865406637D+02
 0.185393447398693D+03 -.131824711959634D+03 0.391500562835956D+01 0.930719992374807D+02
 0.418038137169380D+02 -.146395791793073D+02 0.309027267845302D+02 -.240471004492002D+02
0.175943040552D-05 0.000000000000D+00 0.000000000000D+00 0.646649848529D-07 0.000000000000D+00  7 -1 1 23 -11 11 23 21 0 0.82979966D-02 0.16822741D+00 0.45012902D+05 0.45012902D+05 0.45012902D+05 0.11513310D+01  1  2  2  2  7  2        1 0.211440089311D-03 0.100000000000D+01
-.955764791884D-07 0.000000000000D+00 -.675667602586D-08 0.646649848529D-07 0.000000000000D+00  7 -1 1 23 -11 11 23 21 2 0.82979966D-02 0.16822741D+00 0.45012902D+05 0.45012902D+05 0.45012902D+05 0.11513310D+01  1  2  3  2  7  2        1 -.152253284112D-04 0.100000000000D+01
0.110360579667D-06 0.000000000000D+00 0.000000000000D+00 0.646649848529D-07 0.000000000000D+00  7 -1 1 23 -11 11 23 21 2 0.82979966D-02 0.16822741D+00 0.45012902D+05 0.45012902D+05 0.45012902D+05 0.11513310D+01  1  2 15  2  7  2        1 0.175804348868D-04 0.100000000000D+01
0.361536943613D-05 0.000000000000D+00 0.000000000000D+00 0.646649848529D-07 0.000000000000D+00  7 -1 1 23 -11 11 23 21 2 0.82979966D-02 0.19441641D+00 0.52902896D+05 0.52902896D+05 0.52902896D+05 0.11451458D+01  1  2 12  2  7  2        1 0.433428681387D-03 0.100000000000D+01
-.363079846718D-05 0.000000000000D+00 0.000000000000D+00 0.646649848529D-07 0.000000000000D+00  7 -1 1 23 -11 11 23 21 2 0.82979966D-02 0.16822741D+00 0.45012902D+05 0.45012902D+05 0.45012902D+05 0.11513310D+01  1  2  4  2  7  2        1 -.578386016383D-03 0.100000000000D+01
-.751947666665D-05 0.000000000000D+00 -.150002582260D-05 0.646649848529D-07 0.000000000000D+00  7 -1 1 23 -11 11 23 21 2 0.82979966D-02 0.19542149D+00 0.45012902D+05 0.45012902D+05 0.45012902D+05 0.11513310D+01  1  2  5  2  7  2        1 -.902961120066D-03 0.100000000000D+01
0.767460831621D-05 0.000000000000D+00 0.148334217354D-05 0.646649848529D-07 0.000000000000D+00  7 -1 1 23 -11 11 23 21 2 0.82979966D-02 0.16822741D+00 0.45012902D+05 0.45012902D+05 0.45012902D+05 0.11513310D+01  1  2  6  2  7  2        1 0.122256472548D-02 0.100000000000D+01
0.800890988560D-07 0.000000000000D+00 0.000000000000D+00 0.646649848529D-07 0.000000000000D+00  7 -1 21 23 -11 11 23 -1 2 0.82979966D-02 0.19441641D+00 0.52902896D+05 0.52902896D+05 0.52902896D+05 0.11451458D+01  1  2 12  4  7  2        1 0.101454086708D-04 0.100000000000D+01
-.160988988042D-06 0.000000000000D+00 -.341878592519D-07 0.646649848529D-07 0.000000000000D+00  7 -1 21 23 -11 11 23 -1 2 0.82979966D-02 0.19542149D+00 0.45012902D+05 0.45012902D+05 0.45012902D+05 0.11513310D+01  1  2  5  4  7  2        1 -.204425145099D-04 0.100000000000D+01
  </mgrwgt>
  </event>
  <event>
  8     66 0.27784906E-05 0.61252139E+02 0.75467711E-02 0.10310944E+00
       -1 -1    0    0    0  501 0.00000000E+00 0.00000000E+00 0.21455795E+03 0.21455819E+03 0.32000000E+00 0.0000E+00 0.9000E+01
        1 -1    0    0  501    0 0.00000000E+00 0.00000000E+00 -.27272983E+03 0.27273002E+03 0.32000000E+00 0.0000E+00 0.9000E+01
       25  2    1    2    0    0 -.61384976E+02 -.89381306E+02 0.17364811E+02 0.32673237E+03 0.30772613E+03 0.0000E+00 0.0000E+00
       23  2    3    3    0    0 0.18286797E+02 0.72098594E+02 0.87984932E+01 0.12471261E+03 0.99715631E+02 0.0000E+00 0.0000E+00
       23  1    1    2    0    0 0.61384976E+02 0.89381306E+02 -.75536693E+02 0.16055584E+03 0.91188000E+02 0.0000E+00 0.9000E+01
      -13  1    4    4    0    0 -.18496198E+02 0.76316001E+01 -.33693856E+02 0.39187215E+02 0.10565837E+00 0.0000E+00 0.9000E+01
       13  1    4    4    0    0 0.36782995E+02 0.64466994E+02 0.42492350E+02 0.85525394E+02 0.10565837E+00 0.0000E+00 0.9000E+01
       23  1    3    3    0    0 -.79671773E+02 -.16147990E+03 0.85663176E+01 0.20201976E+03 0.91188000E+02 0.0000E+00 0.9000E+01
#aMCatNLO 1  0  0  2  1 0.59453464D+02 0.00000000D+00  -5  7  0 0.00000000D+00 0.00000000D+00 0.00000000D+00 0.00000000D+00 0.00000000D+00
  <mgrwgt>
 0.2835995157D-03    9    2    0
 0.241901748790094D+03 0.000000000000000D+00 0.000000000000000D+00 0.241901748790094D+03
 0.241901748790094D+03 0.000000000000000D+00 0.000000000000000D+00 -.241901748790094D+03
 0.152630747595005D+03 0.613855400778969D+02 0.893821273789402D+02 -.567762674184371D+02
 0.354179520263767D+02 -.184963766075695D+02 0.763123508554738D+01 -.292246407882592D+02
 0.912500319521912D+02 0.367826735937806D+02 0.644663269981411D+02 0.530819737569926D+02
 0.204504766006616D+03 -.796718370641079D+02 -.161479689462629D+03 0.329189344497038D+02
 0.000000000000000D+00 -.000000000000000D+00 -.000000000000000D+00 -.000000000000000D+00
 0.261919069216769D+03 0.000000000000000D+00 0.000000000000000D+00 0.261919069216769D+03
 0.292281492187453D+03 0.000000000000000D+00 0.000000000000000D+00 -.292281492187453D+03
 0.166291460217176D+03 0.662310144540020D+02 0.108293612829125D+03 -.567762674184371D+02
 0.360286642332414D+02 -.174108681673756D+02 0.118678846846070D+02 -.292246407882592D+02
 0.100732572502426D+03 0.396995190430966D+02 0.758505333716596D+02 0.530819737569926D+02
 0.184390159865970D+03 -.737632475957236D+02 -.138418953796892D+03 0.329189344497038D+02
 0.667577045854099D+02 -.147564177339994D+02 -.575930770884996D+02 -.303624229706838D+02
0.197098160379D-05 0.000000000000D+00 0.000000000000D+00 0.316089220214D-10 0.000000000000D+00  7 -1 1 23 -13 13 23 21 0 0.33008948D-01 0.41958468D-01 0.47905453D+05 0.47905453D+05 0.47905453D+05 0.11489337D+01  1  2  2  2  7  2        1 0.199106817280D-03 0.100000000000D+01
-.108166582410D-06 0.000000000000D+00 -.756908832992D-08 0.316089220214D-10 0.000000000000D+00  7 -1 1 23 -13 13 23 21 2 0.33008948D-01 0.41958468D-01 0.47905453D+05 0.47905453D+05 0.47905453D+05 0.11489337D+01  1  2  3  2  7  2        1 -.144240299729D-04 0.100000000000D+01
0.123279669903D-06 0.000000000000D+00 0.000000000000D+00 0.316089220214D-10 0.000000000000D+00  7 -1 1 23 -13 13 23 21 2 0.33008948D-01 0.41958468D-01 0.47905453D+05 0.47905453D+05 0.47905453D+05 0.11489337D+01  1  2 15  2  7  2        1 0.164393624547D-04 0.100000000000D+01
0.216963531926D-05 0.000000000000D+00 0.000000000000D+00 0.316089220214D-10 0.000000000000D+00  7 -1 1 23 -13 13 23 21 2 0.33008948D-01 0.52158090D-01 0.63469409D+05 0.63469409D+05 0.63469409D+05 0.11382932D+01  1  2 12  2  7  2        1 0.213913266743D-03 0.100000000000D+01
-.222400974437D-05 0.000000000000D+00 0.000000000000D+00 0.316089220214D-10 0.000000000000D+00  7 -1 1 23 -13 13 23 21 2 0.33008948D-01 0.41958468D-01 0.47905453D+05 0.47905453D+05 0.47905453D+05 0.11489337D+01  1  2  4  2  7  2        1 -.296572032674D-03 0.100000000000D+01
-.422666051129D-05 0.000000000000D+00 -.121398905832D-05 0.316089220214D-10 0.000000000000D+00  7 -1 1 23 -13 13 23 21 2 0.33008948D-01 0.54257562D-01 0.47905453D+05 0.47905453D+05 0.47905453D+05 0.11489337D+01  1  2  5  2  7  2        1 -.403435098289D-03 0.100000000000D+01
0.443057036089D-05 0.000000000000D+00 0.117495379562D-05 0.316089220214D-10 0.000000000000D+00  7 -1 1 23 -13 13 23 21 2 0.33008948D-01 0.41958468D-01 0.47905453D+05 0.47905453D+05 0.47905453D+05 0.11489337D+01  1  2  6  2  7  2        1 0.590817221535D-03 0.100000000000D+01
0.662034147892D-07 0.000000000000D+00 0.000000000000D+00 0.316089220214D-10 0.000000000000D+00  7 -1 21 23 -13 13 23 -1 2 0.33008948D-01 0.52158090D-01 0.63469409D+05 0.63469409D+05 0.63469409D+05 0.11382932D+01  1  2 12  4  7  2        1 0.284955511136D-04 0.100000000000D+01
-.124716055346D-06 0.000000000000D+00 -.419365867901D-07 0.316089220214D-10 0.000000000000D+00  7 -1 21 23 -13 13 23 -1 2 0.33008948D-01 0.54257562D-01 0.47905453D+05 0.47905453D+05 0.47905453D+05 0.11489337D+01  1  2  5  4  7  2        1 -.507415424483D-04 0.100000000000D+01
  </mgrwgt>
  </event>
  <event>
  8     66 0.27784906E-05 0.49842479E+03 0.75467711E-02 0.89288336E-01
       -3 -1    0    0    0  501 0.00000000E+00 0.00000000E+00 0.68652936E+03 0.68652955E+03 0.50000000E+00 0.0000E+00 0.9000E+01
        3 -1    0    0  501    0 0.00000000E+00 0.00000000E+00 -.37324795E+03 0.37324828E+03 0.50000000E+00 0.0000E+00 0.9000E+01
       25  2    1    2    0    0 -.32869905E+03 0.31716419E+03 0.16413124E+03 0.57069990E+03 0.30020514E+03 0.0000E+00 0.0000E+00
       23  2    3    3    0    0 -.25733321E+03 0.84843887E+02 0.64943143E+02 0.29281623E+03 0.90027022E+02 0.0000E+00 0.0000E+00
       23  1    1    2    0    0 0.32869905E+03 -.31716419E+03 0.14915018E+03 0.48907792E+03 0.91188000E+02 0.0000E+00 0.9000E+01
      -13  1    4    4    0    0 -.59558944E+02 0.12191307E+02 0.54845833E+02 0.81877789E+02 0.10565837E+00 0.0000E+00 0.9000E+01
       13  1    4    4    0    0 -.19777427E+03 0.72652580E+02 0.10097310E+02 0.21093844E+03 0.10565837E+00 0.0000E+00 0.9000E+01
       23  1    3    3    0    0 -.71365836E+02 0.23232031E+03 0.99188095E+02 0.27788368E+03 0.91188000E+02 0.0000E+00 0.9000E+01
#aMCatNLO 1  0  0  1  1 0.52119824D+03 0.00000000D+00  -5  7  0 0.00000000D+00 0.00000000D+00 0.00000000D+00 0.00000000D+00 0.00000000D+00
  <mgrwgt>
 0.3354205980D-04    5    2    0
 0.506207418928705D+03 0.000000000000000D+00 0.000000000000000D+00 0.506207418928705D+03
 0.506207418928705D+03 0.000000000000000D+00 0.000000000000000D+00 -.506207418928705D+03
 0.465805069639559D+03 0.328699047982264D+03 -.317164194723322D+03 0.478758801217537D+01
 0.687365250449940D+02 -.595587537526808D+02 0.121912239081240D+02 0.320755169297487D+02
 0.217682298685803D+03 -.197774457913127D+03 0.726526628437893D+02 -.547031766903048D+02
 0.260190944487053D+03 -.713658363164559D+02 0.232320307971409D+03 0.178400717483808D+02
 0.000000000000000D+00 0.000000000000000D+00 0.000000000000000D+00 0.000000000000000D+00
 0.851054318811246D+03 0.000000000000000D+00 0.000000000000000D+00 0.851054318811246D+03
 0.810422555475995D+03 0.000000000000000D+00 0.000000000000000D+00 -.810422555475995D+03
 0.565422628797596D+03 0.189675551282900D+03 -.524774010464445D+03 0.478758801217537D+01
 0.891555932002923D+02 -.808447552953041D+02 -.195960851658644D+02 0.320755169297487D+02
 0.270408017638658D+03 -.263575660289055D+03 -.256111258332594D+02 -.547031766903048D+02
 0.213711001977679D+03 -.135254253772668D+03 0.136912963954167D+03 0.178400717483808D+02
 0.522779632673016D+03 0.289999118074127D+03 0.433068257509402D+03 0.406317633352509D+02
0.372598168079D-04 0.000000000000D+00 0.000000000000D+00 0.728037840838D-06 0.000000000000D+00  7 -3 3 23 -13 13 23 21 0 0.10561994D+00 0.57422801D-01 0.24842727D+06 0.24842727D+06 0.24842727D+06 0.10906654D+01  1  2  2  1  7  1       -3 0.329504403231D-04 0.100000000000D+01
-.206938564304D-05 0.000000000000D+00 -.143087507277D-06 0.728037840838D-06 0.000000000000D+00  7 -3 3 23 -13 13 23 21 2 0.10561994D+00 0.57422801D-01 0.24842727D+06 0.24842727D+06 0.24842727D+06 0.10906654D+01  1  2  3  1  7  1       -3 -.217693255028D-05 0.100000000000D+01
0.240866270628D-05 0.000000000000D+00 0.000000000000D+00 0.728037840838D-06 0.000000000000D+00  7 -3 3 23 -13 13 23 21 2 0.10561994D+00 0.57422801D-01 0.24842727D+06 0.24842727D+06 0.24842727D+06 0.10906654D+01  1  2 15  1  7  1       -3 0.253384199584D-05 0.100000000000D+01
-.359557497604D-05 0.000000000000D+00 -.104427756279D-04 0.728037840838D-06 0.000000000000D+00  7 -3 3 23 -13 13 23 21 2 0.24513858D+00 0.57422801D-01 0.24842727D+06 0.24842727D+06 0.24842727D+06 0.10906654D+01  1  2  5  1  7  1       -3 -.133071180830D-06 0.100000000000D+01
0.330426499878D-06 0.000000000000D+00 -.957881458627D-06 0.728037840838D-06 0.000000000000D+00  7 21 3 23 -13 13 23 3 2 0.24513858D+00 0.57422801D-01 0.24842727D+06 0.24842727D+06 0.24842727D+06 0.10906654D+01  1  2  5  3  7  1       -3 0.367781215727D-06 0.100000000000D+01
  </mgrwgt>
  </event>
  <event>
  8     66 0.27784906E-05 0.35801919E+03 0.75467711E-02 0.85121665E-01
       -1 -1    0    0    0  501 0.00000000E+00 0.00000000E+00 0.89181756E+02 0.89182330E+02 0.32000000E+00 0.0000E+00 0.9000E+01
        1 -1    0    0  501    0 0.00000000E+00 0.00000000E+00 -.18845768E+04 0.18845768E+04 0.32000000E+00 0.0000E+00 0.9000E+01
       25  2    1    2    0    0 -.15351400E+03 -.28994381E+03 -.12890400E+04 0.13635586E+04 0.30005692E+03 0.0000E+00 0.0000E+00
       23  2    3    3    0    0 -.73852929E+02 -.17069524E+03 -.32649939E+03 0.38613052E+03 0.88903359E+02 0.0000E+00 0.0000E+00
       23  1    1    2    0    0 0.15351400E+03 0.28994381E+03 -.50635510E+03 0.61020054E+03 0.91188000E+02 0.0000E+00 0.9000E+01
      -13  1    4    4    0    0 -.71953471E+02 -.18116914E+03 -.30240566E+03 0.35978988E+03 0.10565837E+00 0.0000E+00 0.9000E+01
       13  1    4    4    0    0 -.18994575E+01 0.10473903E+02 -.24093727E+02 0.26340642E+02 0.10565837E+00 0.0000E+00 0.9000E+01
       23  1    3    3    0    0 -.79661069E+02 -.11924857E+03 -.96254057E+03 0.97742811E+03 0.91188000E+02 0.0000E+00 0.9000E+01
#aMCatNLO 1  0  0  2  1 0.11772377D+04 0.00000000D+00  -5  7  0 0.00000000D+00 0.00000000D+00 0.00000000D+00 0.00000000D+00 0.00000000D+00
  <mgrwgt>
 0.6326340125D-03    3    2    0
 0.409963976698872D+03 0.000000000000000D+00 0.000000000000000D+00 0.409963976698872D+03
 0.409963976698872D+03 0.000000000000000D+00 0.000000000000000D+00 -.409963976698872D+03
 0.360130997950332D+03 0.153513997315328D+03 0.289943814655233D+03 0.117239589355059D+03
 0.203921774024493D+03 -.719535701363907D+02 -.181169413277326D+03 0.598700038305776D+02
 0.106498402525870D+02 -.189935854611774D+01 0.104741736877174D+02 -.321278817290086D+00
 0.245225341170333D+03 -.796610686328199D+02 -.119248575065625D+03 -.176788314368347D+03
 0.000000000000000D+00 -.000000000000000D+00 0.000000000000000D+00 0.000000000000000D+00
 0.163057226653629D+04 0.000000000000000D+00 0.000000000000000D+00 0.163057226653629D+04
 0.109669738883706D+04 0.000000000000000D+00 0.000000000000000D+00 -.109669738883706D+04
 0.840522425765535D+03 0.780266147095394D+03 0.274958751916619D+03 0.117239589355059D+03
 0.259740388596410D+03 0.170082350849827D+03 -.186956267717713D+03 0.598700038305776D+02
 0.155483421172429D+02 0.117763340361797D+02 0.101472005590067D+02 -.321278817290086D+00
 0.318821319526135D+03 0.214776485273192D+03 -.126288303959150D+03 -.176788314368347D+03
 0.129263717936802D+04 -.117690131725459D+04 0.281386192012370D+02 0.533874877699229D+03
0.387120753545D-04 0.000000000000D+00 0.000000000000D+00 0.298017093957D-06 0.000000000000D+00  7 -1 1 23 -13 13 23 21 0 0.13720316D-01 0.28993494D+00 0.12817774D+06 0.12817774D+06 0.12817774D+06 0.11129807D+01  1  2  2  2  7  2        1 0.624656934227D-03 0.100000000000D+01
-.210267284019D-05 0.000000000000D+00 -.148664562485D-06 0.298017093957D-06 0.000000000000D+00  7 -1 1 23 -13 13 23 21 2 0.13720316D-01 0.28993494D+00 0.12817774D+06 0.12817774D+06 0.12817774D+06 0.11129807D+01  1  2  3  2  7  2        1 -.420283248490D-04 0.100000000000D+01
0.250176525891D-05 0.000000000000D+00 0.000000000000D+00 0.298017093957D-06 0.000000000000D+00  7 -1 1 23 -13 13 23 21 2 0.13720316D-01 0.28993494D+00 0.12817774D+06 0.12817774D+06 0.12817774D+06 0.11129807D+01  1  2 15  2  7  2        1 0.500054031173D-04 0.100000000000D+01
  </mgrwgt>
  </event>
  <event>
  8     66 0.27784906E-05 0.22400701E+03 0.75467711E-02 0.96974740E-01
       -3 -1    0    0    0  501 0.00000000E+00 0.00000000E+00 0.74557652E+02 0.74559328E+02 0.50000000E+00 0.0000E+00 0.9000E+01
        3 -1    0    0  501    0 0.00000000E+00 0.00000000E+00 -.21804255E+04 0.21804255E+04 0.50000000E+00 0.0000E+00 0.9000E+01
       25  2    1    2    0    0 -.95099742E+02 0.31114044E+03 -.90460008E+03 0.10071019E+04 0.30016776E+03 0.0000E+00 0.0000E+00
       23  2    3    3    0    0 0.13090029E+02 0.54230476E+02 -.47510548E+03 0.48701674E+03 0.91366268E+02 0.0000E+00 0.0000E+00
       23  1    1    2    0    0 0.95099742E+02 -.31114044E+03 -.12012677E+04 0.12478829E+04 0.91188000E+02 0.0000E+00 0.9000E+01
      -13  1    4    4    0    0 0.31185112E+02 0.24590809E+02 -.42005528E+03 0.42192851E+03 0.10565837E+00 0.0000E+00 0.9000E+01
       13  1    4    4    0    0 -.18095083E+02 0.29639667E+02 -.55050199E+02 0.65088228E+02 0.10565837E+00 0.0000E+00 0.9000E+01
       23  1    3    3    0    0 -.10818977E+03 0.25690996E+03 -.42949461E+03 0.52008521E+03 0.91188000E+02 0.0000E+00 0.9000E+01
#aMCatNLO 1  0  0  2  1 0.99948489D+02 0.00000000D+00  -5  7  0 0.00000000D+00 0.00000000D+00 0.00000000D+00 0.00000000D+00 0.00000000D+00
  <mgrwgt>
 0.9614507965D-05    9    2    0
 0.403198906457423D+03 0.000000000000000D+00 0.000000000000000D+00 0.403198906457423D+03
 0.403198906457423D+03 0.000000000000000D+00 0.000000000000000D+00 -.403198906457423D+03
 0.352488555008532D+03 0.950997417984565D+02 -.311140439876327D+03 -.100402170551416D+03
 0.829138588810604D+02 0.311851783052071D+02 0.245908027079274D+02 -.727838242386358D+02
 0.382497050035789D+02 -.180951489884901D+02 0.296396735718979D+02 0.160341905469683D+02
 0.332745694021674D+03 -.108189771115173D+03 0.256909963596501D+03 0.157151804243083D+03
 0.000000000000000D+00 -.000000000000000D+00 -.000000000000000D+00 -.000000000000000D+00
 0.431314033505666D+03 0.000000000000000D+00 0.000000000000000D+00 0.431314033505666D+03
 0.506061718722035D+03 0.000000000000000D+00 0.000000000000000D+00 -.506061718722035D+03
 0.349207576673997D+03 0.134192767952617D+03 -.292476298937718D+03 -.100402170551416D+03
 0.883495521651681D+02 0.407266374995556D+02 0.291461711887671D+02 -.727838242386358D+02
 0.381012113468706D+02 -.138414724538549D+02 0.316705017312891D+02 0.160341905469683D+02
 0.336909892709241D+03 -.708817937951618D+02 0.274721870612582D+03 0.157151804243083D+03
 0.124807519332424D+03 -.901961392031563D+02 -.430622445949206D+02 -.747476852163689D+02
0.332087861709D-04 0.000000000000D+00 0.000000000000D+00 0.133266310673D-05 0.000000000000D+00  7 -3 3 23 -13 13 23 21 0 0.11470541D-01 0.33545021D+00 0.12447656D+06 0.12447656D+06 0.12447656D+06 0.11140015D+01  1  2  2  2  7  2        3 0.634461359794D-05 0.100000000000D+01
-.180495804455D-05 0.000000000000D+00 -.127530482970D-06 0.133266310673D-05 0.000000000000D+00  7 -3 3 23 -13 13 23 21 2 0.11470541D-01 0.33545021D+00 0.12447656D+06 0.12447656D+06 0.12447656D+06 0.11140015D+01  1  2  3  2  7  2        3 -.427947867335D-06 0.100000000000D+01
0.210946752572D-05 0.000000000000D+00 0.000000000000D+00 0.133266310673D-05 0.000000000000D+00  7 -3 3 23 -13 13 23 21 2 0.11470541D-01 0.33545021D+00 0.12447656D+06 0.12447656D+06 0.12447656D+06 0.11140015D+01  1  2 15  2  7  2        3 0.500145768800D-06 0.100000000000D+01
0.328004712260D-04 0.000000000000D+00 0.000000000000D+00 0.133266310673D-05 0.000000000000D+00  7 -3 3 23 -13 13 23 21 2 0.11470541D-01 0.43051540D+00 0.16690027D+06 0.16690027D+06 0.16690027D+06 0.11039115D+01  1  2 12  2  7  2        3 0.238160491249D-05 0.100000000000D+01
-.347116084897D-04 0.000000000000D+00 0.000000000000D+00 0.133266310673D-05 0.000000000000D+00  7 -3 3 23 -13 13 23 21 2 0.11470541D-01 0.33545021D+00 0.12447656D+06 0.12447656D+06 0.12447656D+06 0.11140015D+01  1  2  4  2  7  2        3 -.822997458020D-05 0.100000000000D+01
-.581539594509D-04 0.000000000000D+00 -.145836975627D-04 0.133266310673D-05 0.000000000000D+00  7 -3 3 23 -13 13 23 21 2 0.11470541D-01 0.43010228D+00 0.12447656D+06 0.12447656D+06 0.12447656D+06 0.11140015D+01  1  2  5  2  7  2        3 -.433283506167D-05 0.100000000000D+01
0.603443297683D-04 0.000000000000D+00 0.141445410705D-04 0.133266310673D-05 0.000000000000D+00  7 -3 3 23 -13 13 23 21 2 0.11470541D-01 0.33545021D+00 0.12447656D+06 0.12447656D+06 0.12447656D+06 0.11140015D+01  1  2  6  2  7  2        3 0.143073836581D-04 0.100000000000D+01
0.110846687255D-05 0.000000000000D+00 0.000000000000D+00 0.133266310673D-05 0.000000000000D+00  7 -3 21 23 -13 13 23 -3 2 0.11470541D-01 0.43051540D+00 0.16690027D+06 0.16690027D+06 0.16690027D+06 0.11039115D+01  1  2 12  4  7  2        3 0.146430165175D-05 0.100000000000D+01
-.171759896439D-05 0.000000000000D+00 -.491444438809D-06 0.133266310673D-05 0.000000000000D+00  7 -3 21 23 -13 13 23 -3 2 0.11470541D-01 0.43010228D+00 0.12447656D+06 0.12447656D+06 0.12447656D+06 0.11140015D+01  1  2  5  4  7  2        3 -.239278411440D-05 0.100000000000D+01
  </mgrwgt>
  </event>
  <event>
  8     66 0.27784906E-05 0.37439895E+03 0.75467711E-02 0.93580625E-01
       -1 -1    0    0    0  501 0.00000000E+00 0.00000000E+00 0.10348923E+04 0.10348924E+04 0.32000000E+00 0.0000E+00 0.9000E+01
        1 -1    0    0  501    0 0.00000000E+00 0.00000000E+00 -.39023002E+03 0.39023015E+03 0.32000000E+00 0.0000E+00 0.9000E+01
       25  2    1    2    0    0 -.29771453E+03 -.75581968E+02 0.91200845E+03 0.10078267E+04 0.29934721E+03 0.0000E+00 0.0000E+00
       23  2    3    3    0    0 -.22061985E+03 0.61440536E+02 0.50066076E+03 0.55811469E+03 0.91557358E+02 0.0000E+00 0.0000E+00
       23  1    1    2    0    0 0.29771453E+03 0.75581968E+02 -.26734614E+03 0.41729580E+03 0.91188000E+02 0.0000E+00 0.9000E+01
      -11  1    4    4    0    0 -.15860421E+03 0.85422594E+02 0.36455401E+03 0.40663490E+03 0.51099893E-03 0.0000E+00 0.9000E+01
       11  1    4    4    0    0 -.62015648E+02 -.23982058E+02 0.13610675E+03 0.15147979E+03 0.51099893E-03 0.0000E+00 0.9000E+01
       23  1    3    3    0    0 -.77094675E+02 -.13702250E+03 0.41134769E+03 0.44971205E+03 0.91188000E+02 0.0000E+00 0.9000E+01
#aMCatNLO 1  0  0  2  2 0.29211681D+03 0.00000000D+00  -5  7  0 0.00000000D+00 0.00000000D+00 0.00000000D+00 0.00000000D+00 0.00000000D+00
  <mgrwgt>
 0.4843943609D-03    4    2    0
 0.635488934848715D+03 0.000000000000000D+00 0.000000000000000D+00 0.635488934848715D+03
 0.635488934848715D+03 0.000000000000000D+00 0.000000000000000D+00 -.635488934848715D+03
 0.603508244807438D+03 0.297714528117142D+03 0.755819683387238D+02 -.511429737125821D+03
 0.271043528063825D+03 -.158604205298161D+03 0.854225940913291D+02 0.202514889787720D+03
 0.100815579120871D+03 -.620156479919460D+02 -.239820583114861D+02 0.757806128027488D+02
 0.295610517705296D+03 -.770946748270347D+02 -.137022504118567D+03 0.233134234535351D+03
 0.000000000000000D+00 -.000000000000000D+00 0.000000000000000D+00 0.000000000000000D+00
 0.990330115861802D+03 0.000000000000000D+00 0.000000000000000D+00 0.990330115861802D+03
 0.715122428765197D+03 0.000000000000000D+00 0.000000000000000D+00 -.715122428765197D+03
 0.655352387627721D+03 0.398706519950485D+03 -.253817957942765D+02 -.511429737125821D+03
 0.238449701033526D+03 -.117730152439261D+03 0.445599657077259D+02 0.202514889787720D+03
 0.972609639413941D+02 -.461249734375875D+02 -.398682913532908D+02 0.757806128027488D+02
 0.313052347797179D+03 -.282647459546253D+02 -.185838784813780D+03 0.233134234535351D+03
 0.401337144227179D+03 -.206586648119011D+03 0.206528906253621D+03 0.275207687096604D+03
0.227147958154D-03 0.000000000000D+00 0.000000000000D+00 0.206629274862D-05 0.000000000000D+00  7 -1 1 23 -11 11 23 21 0 0.15921422D+00 0.60035402D-01 0.14017457D+06 0.14017457D+06 0.14017457D+06 0.11098812D+01  1  2  2  2  7  2        1 0.540240831408D-03 0.100000000000D+01
-.832447498193D-05 0.000000000000D+00 -.872307968741D-06 0.206629274862D-05 0.000000000000D+00  7 -1 1 23 -11 11 23 21 2 0.15921422D+00 0.60035402D-01 0.14017457D+06 0.14017457D+06 0.14017457D+06 0.11098812D+01  1  2  3  2  7  2        1 -.243886874010D-04 0.100000000000D+01
0.137238793641D-04 0.000000000000D+00 0.000000000000D+00 0.206629274862D-05 0.000000000000D+00  7 -1 1 23 -11 11 23 21 2 0.15921422D+00 0.60035402D-01 0.14017457D+06 0.14017457D+06 0.14017457D+06 0.11098812D+01  1  2 15  2  7  2        1 0.402076292458D-04 0.100000000000D+01
-.244612152655D-04 0.000000000000D+00 0.000000000000D+00 0.206629274862D-05 0.000000000000D+00  7 -1 1 23 -11 11 23 21 2 0.15921422D+00 0.60035402D-01 0.14017457D+06 0.14017457D+06 0.14017457D+06 0.11098812D+01  1  2  4  2  7  2        1 -.716654123957D-04 0.100000000000D+01
  </mgrwgt>
  </event>
  <event>
  8     66 0.27784906E-05 0.19976195E+03 0.75467711E-02 0.90230863E-01
       -1 -1    0    0    0  501 0.00000000E+00 0.00000000E+00 0.24089568E+03 0.24089589E+03 0.32000000E+00 0.0000E+00 0.9000E+01
        1 -1    0    0  501    0 0.00000000E+00 0.00000000E+00 -.35463508E+03 0.35463522E+03 0.32000000E+00 0.0000E+00 0.9000E+01
       25  2    1    2    0    0 -.33015902E+02 -.31630290E+02 -.27359484E+03 0.40590111E+03 0.29632929E+03 0.0000E+00 0.0000E+00
       23  2    3    3    0    0 0.98474745E+02 -.36407681E+02 -.12167087E+03 0.18520050E+03 0.92046898E+02 0.0000E+00 0.0000E+00
       23  1    1    2    0    0 0.33015902E+02 0.31630290E+02 0.15985544E+03 0.18963001E+03 0.91188000E+02 0.0000E+00 0.9000E+01
      -13  1    4    4    0    0 0.10996231E+03 -.48997517E+02 -.11615794E+03 0.16728761E+03 0.10565837E+00 0.0000E+00 0.9000E+01
       13  1    4    4    0    0 -.11487565E+02 0.12589836E+02 -.55129240E+01 0.17912890E+02 0.10565837E+00 0.0000E+00 0.9000E+01
       23  1    3    3    0    0 -.13149065E+03 0.47773910E+01 -.15192397E+03 0.22070061E+03 0.91188000E+02 0.0000E+00 0.9000E+01
#aMCatNLO 1  0  0  1  1 0.71228776D+03 0.00000000D+00  -5  7  0 0.00000000D+00 0.00000000D+00 0.00000000D+00 0.00000000D+00 0.00000000D+00
  <mgrwgt>
 0.4831276627D-03    5    2    0
 0.292284390554825D+03 0.000000000000000D+00 0.000000000000000D+00 0.292284390554825D+03
 0.292284390554825D+03 0.000000000000000D+00 0.000000000000000D+00 -.292284390554825D+03
 0.224289143512142D+03 0.330159027119917D+02 0.316302903172465D+02 0.199749451703801D+03
 0.147824083057941D+03 0.109962468993583D+03 -.489975976494148D+02 -.857872389656093D+02
 0.171759869251031D+02 -.114877249833128D+02 0.125899168229772D+02 -.213089088167364D+01
 0.195279567614464D+03 -.131490646722262D+03 0.477739050919108D+01 -.111831321856518D+03
 0.000000000000000D+00 0.000000000000000D+00 0.000000000000000D+00 0.000000000000000D+00
 0.100122353996027D+04 0.000000000000000D+00 0.000000000000000D+00 0.100122353996027D+04
 0.695396110825910D+03 0.000000000000000D+00 0.000000000000000D+00 -.695396110825910D+03
 0.310617328576128D+03 -.219302185176553D+03 0.132129326264057D+02 0.199749451703801D+03
 0.103728546933423D+03 -.869617866675416D+01 -.576588029373893D+02 -.857872389656093D+02
 0.399180980797733D+02 -.384192936030307D+02 0.106241111346277D+02 -.213089088167364D+01
 0.467188421890727D+03 -.443980147450784D+03 -.180320361066752D+02 -.111831321856518D+03
 0.775167255306129D+03 0.710397804897122D+03 0.518537952830312D+02 0.305827429134361D+03
0.767111572376D-05 0.000000000000D+00 0.000000000000D+00 0.127365289823D-07 0.000000000000D+00  7 -1 1 23 -13 13 23 21 0 0.37060902D-01 0.54559270D-01 0.39904835D+05 0.39904835D+05 0.39904835D+05 0.11560115D+01  1  2  2  1  7  1       -1 0.453574216735D-03 0.100000000000D+01
-.351113347324D-06 0.000000000000D+00 -.294591042304D-07 0.127365289823D-07 0.000000000000D+00  7 -1 1 23 -13 13 23 21 2 0.37060902D-01 0.54559270D-01 0.39904835D+05 0.39904835D+05 0.39904835D+05 0.11560115D+01  1  2  3  1  7  1       -1 -.277435142615D-04 0.100000000000D+01
0.484871095589D-06 0.000000000000D+00 0.000000000000D+00 0.127365289823D-07 0.000000000000D+00  7 -1 1 23 -13 13 23 21 2 0.37060902D-01 0.54559270D-01 0.39904835D+05 0.39904835D+05 0.39904835D+05 0.11560115D+01  1  2 15  1  7  1       -1 0.383124944067D-04 0.100000000000D+01
0.904574118868D-05 0.000000000000D+00 -.377400172170D-05 0.127365289823D-07 0.000000000000D+00  7 -1 1 23 -13 13 23 21 2 0.24166239D+00 0.54559270D-01 0.39904835D+05 0.39904835D+05 0.39904835D+05 0.11560115D+01  1  2  5  1  7  1       -1 0.768609430599D-05 0.100000000000D+01
0.177434012878D-05 0.000000000000D+00 -.866677318162D-06 0.127365289823D-07 0.000000000000D+00  7 21 1 23 -13 13 23 1 2 0.24166239D+00 0.54559270D-01 0.39904835D+05 0.39904835D+05 0.39904835D+05 0.11560115D+01  1  2  5  3  7  1       -1 0.112983714833D-04 0.100000000000D+01
  </mgrwgt>
  </event>
  <event>
  7     66 0.27784906E-05 0.55798397E+03 0.75467711E-02 0.93165507E-01
       -1 -1    0    0    0  501 0.00000000E+00 0.00000000E+00 0.18710138E+03 0.18710166E+03 0.32000000E+00 0.0000E+00 0.9000E+01
        1 -1    0    0  501    0 0.00000000E+00 0.00000000E+00 -.21920715E+04 0.21920716E+04 0.32000000E+00 0.0000E+00 0.9000E+01
       23  2    1    2    0    0 -.14455074E+03 -.56134300E+02 -.53883772E+03 0.56780430E+03 0.89496727E+02 0.0000E+00 0.0000E+00
       23  1    1    2    0    0 -.10232187E+02 0.47434981E+03 -.32358376E+03 0.58149303E+03 0.91188000E+02 0.0000E+00 0.9000E+01
      -13  1    3    3    0    0 -.84375256E+02 0.13692484E+02 -.22421789E+03 0.23995904E+03 0.10565837E+00 0.0000E+00 0.9000E+01
       13  1    3    3    0    0 -.60175485E+02 -.69826784E+02 -.31461983E+03 0.32784527E+03 0.10565837E+00 0.0000E+00 0.9000E+01
       23  1    1    2    0    0 0.15478293E+03 -.41821551E+03 -.11425487E+04 0.12298759E+04 0.91188000E+02 0.0000E+00 0.9000E+01
#aMCatNLO 1  0  0  1  2 0.22997062D+02 0.00000000D+00  -5  7  0 0.00000000D+00 0.00000000D+00 0.00000000D+00 0.00000000D+00 0.00000000D+00
  <mgrwgt>
 0.9722204353D-03    4    2    0
 0.640421712460778D+03 0.000000000000000D+00 0.000000000000000D+00 0.640421712460778D+03
 0.640421712460778D+03 0.000000000000000D+00 0.000000000000000D+00 -.640421712460778D+03
 0.573604849743816D+03 -.102322029141415D+02 0.474350569146044D+03 0.309182974757624D+03
 0.947443812314092D+02 -.843744132805396D+02 0.136922572157346D+02 -.408653673766121D+02
 0.116484118452185D+03 -.601751694723871D+02 -.698275799557203D+02 -.712152224463259D+02
 0.496010075494145D+03 0.154781785667068D+03 -.418215246406058D+03 -.197102384934686D+03
 0.000000000000000D+00 -.000000000000000D+00 -.000000000000000D+00 -.000000000000000D+00
 0.643487905140731D+03 0.000000000000000D+00 0.000000000000000D+00 0.643487905140731D+03
 0.685147720255981D+03 0.000000000000000D+00 0.000000000000000D+00 -.685147720255981D+03
 0.582171315490709D+03 -.939298645255966D+01 0.484691498957544D+03 0.309182974757624D+03
 0.948821455730675D+02 -.842367242472876D+02 0.153888786404251D+02 -.408653673766121D+02
 0.115165878522105D+03 -.600069669288204D+02 -.677549672547489D+02 -.712152224463259D+02
 0.488830520501319D+03 0.155496884719163D+03 -.409403706780098D+03 -.197102384934686D+03
 0.475857653095110D+02 -.186020709049587D+01 -.229217035631213D+02 -.416598151152490D+02
0.405795103017D-03 0.000000000000D+00 0.000000000000D+00 0.106916329193D-09 0.000000000000D+00  7 -1 1 23 -13 13 23 21 0 0.28784851D-01 0.33724180D+00 0.31134612D+06 0.31134612D+06 0.31134612D+06 0.10833611D+01  1  2  2  1  7  1       -1 0.118829199238D-02 0.100000000000D+01
-.220237055454D-04 0.000000000000D+00 -.155836004389D-05 0.106916329193D-09 0.000000000000D+00  7 -1 1 23 -13 13 23 21 2 0.28784851D-01 0.33724180D+00 0.31134612D+06 0.31134612D+06 0.31134612D+06 0.10833611D+01  1  2  3  1  7  1       -1 -.756925654799D-04 0.100000000000D+01
0.249242946652D-04 0.000000000000D+00 0.000000000000D+00 0.106916329193D-09 0.000000000000D+00  7 -1 1 23 -13 13 23 21 2 0.28784851D-01 0.33724180D+00 0.31134612D+06 0.31134612D+06 0.31134612D+06 0.10833611D+01  1  2 15  1  7  1       -1 0.856615069657D-04 0.100000000000D+01
-.657693308606D-04 0.000000000000D+00 0.000000000000D+00 0.106916329193D-09 0.000000000000D+00  7 -1 1 23 -13 13 23 21 2 0.28784851D-01 0.33724180D+00 0.31134612D+06 0.31134612D+06 0.31134612D+06 0.10833611D+01  1  2  4  1  7  1       -1 -.226040498610D-03 0.100000000000D+01
  </mgrwgt>
  </event>
  <event>
  9     66 0.27784906E-05 0.21022724E+03 0.75467711E-02 0.10513720E+00
       -3 -1    0    0    0  502 0.00000000E+00 0.00000000E+00 0.33001048E+03 0.33001086E+03 0.50000000E+00 0.0000E+00 0.9000E+01
        3 -1    0    0  501    0 0.00000000E+00 0.00000000E+00 -.26667066E+03 0.26667113E+03 0.50000000E+00 0.0000E+00 0.9000E+01
       25  2    1    2    0    0 0.15244520E+03 0.45704730E+02 -.69746820E+02 0.34625939E+03 0.29950373E+03 0.0000E+00 0.0000E+00
       23  2    3    3    0    0 -.19006574E+02 -.15694419E+01 -.11284736E+03 0.14180043E+03 0.83720503E+02 0.0000E+00 0.0000E+00
       23  1    1    2    0    0 -.15497008E+03 -.27885676E+02 0.14153917E+03 0.23052532E+03 0.91188000E+02 0.0000E+00 0.9000E+01
      -13  1    4    4    0    0 -.20053994E+02 0.10736632E+02 0.50141190E+01 0.23293572E+02 0.10565837E+00 0.0000E+00 0.9000E+01
       13  1    4    4    0    0 0.10474199E+01 -.12306074E+02 -.11786147E+03 0.11850686E+03 0.10565837E+00 0.0000E+00 0.9000E+01
       23  1    3    3    0    0 0.17145178E+03 0.47274172E+02 0.43100535E+02 0.20445896E+03 0.91188000E+02 0.0000E+00 0.9000E+01
       21  1    1    2  501  502 0.25248729E+01 -.17819053E+02 -.84525334E+01 0.19897273E+02 0.75000000E+00 0.0000E+00 0.9000E+01
#aMCatNLO 2  0  0  1  2 0.17997045D+02 0.00000000D+00  -5  7  0 0.00000000D+00 0.00000000D+00 0.00000000D+00 0.00000000D+00 0.00000000D+00
  <mgrwgt>
 0.4357029489D-04    2    2    0
 0.286008114751690D+03 0.000000000000000D+00 0.000000000000000D+00 0.286008114751690D+03
 0.286008114751690D+03 0.000000000000000D+00 0.000000000000000D+00 -.286008114751690D+03
 0.214867448745627D+03 -.154022530289495D+03 -.345728942315389D+02 0.113730138196219D+03
 0.224352857482163D+02 -.199541141184003D+02 0.100315417421684D+02 0.213155967054902D+01
 0.134675416563780D+03 0.164075816506030D+01 -.164933119121875D+02 -.133651585854560D+03
 0.200038078445755D+03 0.172335886242835D+03 0.410346644015580D+02 0.177898879877919D+02
 0.000000000000000D+00 0.000000000000000D+00 -.000000000000000D+00 -.000000000000000D+00
 0.291192408576276D+03 0.000000000000000D+00 0.000000000000000D+00 0.291192408576276D+03
 0.302206962327504D+03 0.000000000000000D+00 0.000000000000000D+00 -.302206962327504D+03
 0.214576632487442D+03 -.154970076397805D+03 -.278856764805567D+02 0.113730138196219D+03
 0.228469600641477D+02 -.200540270469283D+02 0.107366678604078D+02 0.213155967054902D+01
 0.134221026301295D+03 0.104745210005753D+01 -.123061100284401D+02 -.133651585854560D+03
 0.200654656402042D+03 0.171451778490220D+03 0.472741719096602D+02 0.177898879877919D+02
 0.211000956488530D+02 0.252487285445600D+01 -.178190532610712D+02 -.110145537512277D+02
-.623437549811D-06 0.000000000000D+00 0.000000000000D+00 0.679992408508D-08 0.000000000000D+00  7 -3 3 23 -13 13 23 21 2 0.49865869D-01 0.38826354D-01 0.44195494D+05 0.44195494D+05 0.44195494D+05 0.11520394D+01  1  2  8  1  7  1       -3 -.910929300240D-05 0.100000000000D+01
0.417341558563D-05 0.000000000000D+00 0.000000000000D+00 0.679992408508D-08 0.148146855641D-09  7 -3 3 23 -13 13 23 21 2 0.50769757D-01 0.41025390D-01 0.47288220D+05 0.47288220D+05 0.47288220D+05 0.11494316D+01  1  2  1  1  7  1       -3 0.526795878941D-04 0.100000000000D+01
  </mgrwgt>
  </event>
  <event>
  8     66 0.27784906E-05 0.73630587E+03 0.75467711E-02 0.89225433E-01
       -1 -1    0    0    0  501 0.00000000E+00 0.00000000E+00 0.56063858E+03 0.56063867E+03 0.32000000E+00 0.0000E+00 0.9000E+01
        1 -1    0    0  501    0 0.00000000E+00 0.00000000E+00 -.10372166E+04 0.10372167E+04 0.32000000E+00 0.0000E+00 0.9000E+01
       25  2    1    2    0    0 0.58992502E+03 -.40240979E+03 -.86016443E+02 0.77883229E+03 0.29872351E+03 0.0000E+00 0.0000E+00
       23  2    3    3    0    0 0.47460453E+03 -.24682240E+03 0.13285567E+02 0.54286112E+03 0.91383436E+02 0.0000E+00 0.0000E+00
       23  1    1    2    0    0 -.58992502E+03 0.40240979E+03 -.39056162E+03 0.81902308E+03 0.91188000E+02 0.0000E+00 0.9000E+01
      -13  1    4    4    0    0 0.12068744E+02 -.20315225E+02 -.13374300E+02 0.27152275E+02 0.10565837E+00 0.0000E+00 0.9000E+01
       13  1    4    4    0    0 0.46253578E+03 -.22650717E+03 0.26659867E+02 0.51570884E+03 0.10565837E+00 0.0000E+00 0.9000E+01
       23  1    3    3    0    0 0.11532049E+03 -.15558740E+03 -.99302011E+02 0.23597117E+03 0.91188000E+02 0.0000E+00 0.9000E+01
#aMCatNLO 1  0  0  1  2 0.17370750D+03 0.00000000D+00  -5  7  0 0.00000000D+00 0.00000000D+00 0.00000000D+00 0.00000000D+00 0.00000000D+00
  <mgrwgt>
 0.6293591031D-03    4    2    0
 0.762563953897869D+03 0.000000000000000D+00 0.000000000000000D+00 0.762563953897869D+03
 0.762563953897869D+03 0.000000000000000D+00 0.000000000000000D+00 -.762563953897869D+03
 0.736034872642397D+03 -.589925021651528D+03 0.402409793829523D+03 -.153254393285266D+03
 0.242671065171289D+02 0.120681421926510D+02 -.203149497976231D+02 -.552767740119571D+01
 0.548632491028752D+03 0.462536386926588D+03 -.226507448775001D+03 0.189082195435615D+03
 0.216193437607460D+03 0.115320492532289D+03 -.155587395256899D+03 -.303001247491529D+02
 0.000000000000000D+00 -.000000000000000D+00 0.000000000000000D+00 -.000000000000000D+00
 0.789031027538103D+03 0.000000000000000D+00 0.000000000000000D+00 0.789031027538103D+03
 0.111775827234656D+04 0.000000000000000D+00 0.000000000000000D+00 -.111775827234656D+04
 0.665434390511321D+03 -.545898234998731D+03 0.336148605076993D+03 -.153254393285266D+03
 0.271118718051007D+02 0.136821992230144D+02 -.227441377006531D+02 -.552767740119571D+01
 0.602822154632156D+03 0.498709030421320D+03 -.280947996007855D+03 0.189082195435615D+03
 0.239619997389275D+03 0.129639751172983D+03 -.177138164043859D+03 -.303001247491529D+02
 0.371800885546805D+03 -.961327458185864D+02 0.144681692675374D+03 -.328727244808452D+03
0.288816569595D-03 0.000000000000D+00 0.000000000000D+00 0.843782673353D-06 0.000000000000D+00  7 -1 1 23 -13 13 23 21 0 0.86252100D-01 0.15957180D+00 0.54214634D+06 0.54214634D+06 0.54214634D+06 0.10660353D+01  1  2  2  1  7  1       -1 0.667465979045D-03 0.100000000000D+01
-.160214109738D-04 0.000000000000D+00 -.110913167439D-05 0.843782673353D-06 0.000000000000D+00  7 -1 1 23 -13 13 23 21 2 0.86252100D-01 0.15957180D+00 0.54214634D+06 0.54214634D+06 0.54214634D+06 0.10660353D+01  1  2  3  1  7  1       -1 -.420775969307D-04 0.100000000000D+01
0.179048419955D-04 0.000000000000D+00 0.000000000000D+00 0.843782673353D-06 0.000000000000D+00  7 -1 1 23 -13 13 23 21 2 0.86252100D-01 0.15957180D+00 0.54214634D+06 0.54214634D+06 0.54214634D+06 0.10660353D+01  1  2 15  1  7  1       -1 0.470241182768D-04 0.100000000000D+01
-.163929554345D-04 0.000000000000D+00 0.000000000000D+00 0.843782673353D-06 0.000000000000D+00  7 -1 1 23 -13 13 23 21 2 0.86252100D-01 0.15957180D+00 0.54214634D+06 0.54214634D+06 0.54214634D+06 0.10660353D+01  1  2  4  1  7  1       -1 -.430533972572D-04 0.100000000000D+01
  </mgrwgt>
  </event>
  <event>
  8     66 0.27784906E-05 0.17729222E+03 0.75467711E-02 0.10164256E+00
       -1 -1    0    0    0  501 0.00000000E+00 0.00000000E+00 0.43513201E+03 0.43513213E+03 0.32000000E+00 0.0000E+00 0.9000E+01
        1 -1    0    0  501    0 0.00000000E+00 0.00000000E+00 -.26835890E+03 0.26835909E+03 0.32000000E+00 0.0000E+00 0.9000E+01
       25  2    1    2    0    0 0.16602545E+03 0.22900633E+02 -.11514777E+03 0.36307453E+03 0.30079099E+03 0.0000E+00 0.0000E+00
       23  2    3    3    0    0 0.81938785E+02 -.93717454E+02 -.11648147E+03 0.19281774E+03 0.90076760E+02 0.0000E+00 0.0000E+00
       23  1    1    2    0    0 -.16602545E+03 -.22900633E+02 0.28192088E+03 0.34041669E+03 0.91188000E+02 0.0000E+00 0.9000E+01
      -11  1    4    4    0    0 0.28477063E+01 0.16760917E+02 -.19587501E+02 0.25936614E+02 0.51099893E-03 0.0000E+00 0.9000E+01
       11  1    4    4    0    0 0.79091079E+02 -.11047837E+03 -.96893970E+02 0.16688113E+03 0.51099893E-03 0.0000E+00 0.9000E+01
       23  1    3    3    0    0 0.84086661E+02 0.11661809E+03 0.13337048E+01 0.17025679E+03 0.91188000E+02 0.0000E+00 0.9000E+01
#aMCatNLO 1  0  0  1  2 0.50694253D+02 0.00000000D+00  -5  7  0 0.00000000D+00 0.00000000D+00 0.00000000D+00 0.00000000D+00 0.00000000D+00
  <mgrwgt>
 0.3942513423D-03    9    2    0
 0.341718680531351D+03 0.000000000000000D+00 0.000000000000000D+00 0.341718680531351D+03
 0.341718680531351D+03 0.000000000000000D+00 0.000000000000000D+00 -.341718680531351D+03
 0.281610780369464D+03 -.166025445614089D+03 -.229006330037441D+02 0.207124341140701D+03
 0.314774262295615D+02 0.284770629919412D+01 0.167609169527970D+02 -.264913305398664D+02
 0.195422030977935D+03 0.790910787241041D+02 -.110478371189912D+03 -.140459606140067D+03
 0.174927123485742D+03 0.840866605907910D+02 0.116618087240859D+03 -.401734044607675D+02
 0.000000000000000D+00 -.000000000000000D+00 -.000000000000000D+00 0.000000000000000D+00
 0.574627256684039D+03 0.000000000000000D+00 0.000000000000000D+00 0.574627256684039D+03
 0.345427115099175D+03 0.000000000000000D+00 0.000000000000000D+00 -.345427115099175D+03
 0.273050227926820D+03 -.152599571519157D+03 -.735212255666062D+01 0.207124341140701D+03
 0.326429418119490D+02 0.439977499587481D+01 0.185583683644738D+02 -.264913305398664D+02
 0.193590575865612D+03 0.885073423566701D+02 -.995733923089677D+02 -.140459606140067D+03
 0.186031170179948D+03 0.928238541771271D+02 0.126736634815100D+03 -.401734044607675D+02
 0.234739455998885D+03 -.331314000105145D+02 -.383694883139452D+02 0.229200141584864D+03
0.134410672893D-04 0.000000000000D+00 0.000000000000D+00 0.215818418067D-06 0.000000000000D+00  7 -1 1 23 -11 11 23 21 0 0.66943410D-01 0.41286008D-01 0.66028993D+05 0.66028993D+05 0.66028993D+05 0.11368221D+01  1  2  2  1  7  1       -1 0.395447380954D-03 0.100000000000D+01
-.672948258457D-06 0.000000000000D+00 -.516172375052D-07 0.215818418067D-06 0.000000000000D+00  7 -1 1 23 -11 11 23 21 2 0.66943410D-01 0.41286008D-01 0.66028993D+05 0.66028993D+05 0.66028993D+05 0.11368221D+01  1  2  3  1  7  1       -1 -.255871330468D-04 0.100000000000D+01
0.813893130655D-06 0.000000000000D+00 0.000000000000D+00 0.215818418067D-06 0.000000000000D+00  7 -1 1 23 -11 11 23 21 2 0.66943410D-01 0.41286008D-01 0.66028993D+05 0.66028993D+05 0.66028993D+05 0.11368221D+01  1  2 15  1  7  1       -1 0.309462006302D-04 0.100000000000D+01
0.115547536341D-03 0.000000000000D+00 0.000000000000D+00 0.215818418067D-06 0.000000000000D+00  7 -1 1 23 -11 11 23 21 2 0.11271664D+00 0.41286008D-01 0.79116471D+05 0.79116471D+05 0.79116471D+05 0.11301673D+01  1  2 12  1  7  1       -1 0.145762462552D-02 0.100000000000D+01
-.104111362411D-03 0.000000000000D+00 0.000000000000D+00 0.215818418067D-06 0.000000000000D+00  7 -1 1 23 -11 11 23 21 2 0.66943410D-01 0.41286008D-01 0.66028993D+05 0.66028993D+05 0.66028993D+05 0.11368221D+01  1  2  4  1  7  1       -1 -.395856776239D-02 0.100000000000D+01
-.116208158419D-03 0.000000000000D+00 -.454684473784D-05 0.215818418067D-06 0.000000000000D+00  7 -1 1 23 -11 11 23 21 2 0.11302335D+00 0.41286008D-01 0.66028993D+05 0.66028993D+05 0.66028993D+05 0.11368221D+01  1  2  5  1  7  1       -1 -.148222750006D-02 0.100000000000D+01
0.104487439602D-03 0.000000000000D+00 0.398734311355D-05 0.215818418067D-06 0.000000000000D+00  7 -1 1 23 -11 11 23 21 2 0.66943410D-01 0.41286008D-01 0.66028993D+05 0.66028993D+05 0.66028993D+05 0.11368221D+01  1  2  6  1  7  1       -1 0.397286713388D-02 0.100000000000D+01
0.673334749834D-05 0.000000000000D+00 0.000000000000D+00 0.215818418067D-06 0.000000000000D+00  7 21 1 23 -11 11 23 1 2 0.11271664D+00 0.41286008D-01 0.79116471D+05 0.79116471D+05 0.79116471D+05 0.11301673D+01  1  2 12  3  7  1       -1 0.590948747594D-03 0.100000000000D+01
-.658464576506D-05 0.000000000000D+00 -.266079240786D-06 0.215818418067D-06 0.000000000000D+00  7 21 1 23 -11 11 23 1 2 0.11302335D+00 0.41286008D-01 0.66028993D+05 0.66028993D+05 0.66028993D+05 0.11368221D+01  1  2  5  3  7  1       -1 -.587200350767D-03 0.100000000000D+01
  </mgrwgt>
  </event>
  <event>
  8     66 0.27784906E-05 0.16702536E+03 0.75467711E-02 0.10155757E+00
       -1 -1    0    0    0  501 0.00000000E+00 0.00000000E+00 0.28088862E+03 0.28088880E+03 0.32000000E+00 0.0000E+00 0.9000E+01
        1 -1    0    0  501    0 0.00000000E+00 0.00000000E+00 -.16474179E+03 0.16474210E+03 0.32000000E+00 0.0000E+00 0.9000E+01
       25  2    1    2    0    0 -.51109707E+02 0.37128952E+02 0.39013183E+02 0.31051757E+03 0.30151015E+03 0.0000E+00 0.0000E+00
       23  2    3    3    0    0 0.69001754E+02 -.41768470E+02 0.28891852E+02 0.14002048E+03 0.11074813E+03 0.0000E+00 0.0000E+00
       23  1    1    2    0    0 0.51109707E+02 -.37128952E+02 0.77133648E+02 0.13511333E+03 0.91188000E+02 0.0000E+00 0.9000E+01
      -13  1    4    4    0    0 0.39657932E+02 -.79532993E+02 0.23255784E+02 0.91864526E+02 0.10565837E+00 0.0000E+00 0.9000E+01
       13  1    4    4    0    0 0.29343822E+02 0.37764523E+02 0.56360687E+01 0.48155950E+02 0.10565837E+00 0.0000E+00 0.9000E+01
       23  1    3    3    0    0 -.12011146E+03 0.78897423E+02 0.10121330E+02 0.17049709E+03 0.91188000E+02 0.0000E+00 0.9000E+01
#aMCatNLO 1  0  0  2  1 0.12949358D+03 0.00000000D+00  -5  7  0 0.00000000D+00 0.00000000D+00 0.00000000D+00 0.00000000D+00 0.00000000D+00
  <mgrwgt>
 0.1879168303D-03    7    2    0
 0.215114396113165D+03 0.000000000000000D+00 0.000000000000000D+00 0.215114396113165D+03
 0.215114396113165D+03 0.000000000000000D+00 0.000000000000000D+00 -.215114396113165D+03
 0.119127177493386D+03 0.511099356016610D+02 -.371291187071734D+02 0.434193056181637D+02
 0.888746210284813D+02 0.396586652425426D+02 -.795322685778564D+02 -.711891140428812D+00
 0.483573231522131D+02 0.293440137390665D+02 0.377632016120230D+02 -.716241329013779D+01
 0.173869670552249D+03 -.120112614583270D+03 0.788981856730068D+02 -.355450011875971D+02
 0.000000000000000D+00 0.000000000000000D+00 -.000000000000000D+00 -.000000000000000D+00
 0.241275171970606D+03 0.000000000000000D+00 0.000000000000000D+00 0.241275171970606D+03
 0.476760826045999D+03 0.000000000000000D+00 0.000000000000000D+00 -.476760826045999D+03
 0.108750301566329D+03 0.175695013452387D+02 -.362967390943563D+02 0.434193056181637D+02
 0.802860968369582D+02 0.147605315623461D+02 -.789143666534465D+02 -.711891140428812D+00
 0.419527958343262D+02 0.160516049365103D+02 0.380930819590659D+02 -.716241329013779D+01
 0.218305142407881D+03 -.177835359215121D+03 0.803307024812290D+02 -.355450011875971D+02
 0.268741661371110D+03 0.129453721371026D+03 -.321267869249214D+01 -.235485654075393D+03
0.230042641421D-05 0.000000000000D+00 0.000000000000D+00 0.825289589530D-10 0.000000000000D+00  7 -1 1 23 -13 13 23 21 0 0.43213672D-01 0.25344928D-01 0.43644627D+05 0.43644627D+05 0.43644627D+05 0.11525249D+01  1  2  2  2  7  2        1 0.280899886265D-03 0.100000000000D+01
-.127668503067D-06 0.000000000000D+00 -.883424314676D-08 0.825289589530D-10 0.000000000000D+00  7 -1 1 23 -13 13 23 21 2 0.43213672D-01 0.25344928D-01 0.43644627D+05 0.43644627D+05 0.43644627D+05 0.11525249D+01  1  2  3  2  7  2        1 -.207074989633D-04 0.100000000000D+01
0.151773122813D-06 0.000000000000D+00 0.000000000000D+00 0.825289589530D-10 0.000000000000D+00  7 -1 1 23 -13 13 23 21 2 0.43213672D-01 0.25344928D-01 0.43644627D+05 0.43644627D+05 0.43644627D+05 0.11525249D+01  1  2 15  2  7  2        1 0.246172055583D-04 0.100000000000D+01
0.110132371793D-05 0.000000000000D+00 0.000000000000D+00 0.825289589530D-10 0.000000000000D+00  7 -1 1 23 -13 13 23 21 2 0.43213672D-01 0.55878475D-01 0.80148968D+05 0.80148968D+05 0.80148968D+05 0.11296947D+01  1  2 12  2  7  2        1 0.615084726708D-04 0.100000000000D+01
-.265939551847D-05 0.000000000000D+00 -.763487774166D-06 0.825289589530D-10 0.000000000000D+00  7 -1 1 23 -13 13 23 21 2 0.43213672D-01 0.61124924D-01 0.43644627D+05 0.43644627D+05 0.43644627D+05 0.11525249D+01  1  2  5  2  7  2        1 -.138189734161D-03 0.100000000000D+01
0.943904763635D-07 0.000000000000D+00 0.000000000000D+00 0.825289589530D-10 0.000000000000D+00  7 -1 21 23 -13 13 23 -1 2 0.43213672D-01 0.55878475D-01 0.80148968D+05 0.80148968D+05 0.80148968D+05 0.11296947D+01  1  2 12  4  7  2        1 0.215426294550D-04 0.100000000000D+01
-.208415505123D-06 0.000000000000D+00 -.735869540942D-07 0.825289589530D-10 0.000000000000D+00  7 -1 21 23 -13 13 23 -1 2 0.43213672D-01 0.61124924D-01 0.43644627D+05 0.43644627D+05 0.43644627D+05 0.11525249D+01  1  2  5  4  7  2        1 -.417541305593D-04 0.100000000000D+01
  </mgrwgt>
  </event>
  <event>
  8     66 0.27784906E-05 0.32269159E+03 0.75467711E-02 0.89376082E-01
       -1 -1    0    0    0  501 0.00000000E+00 0.00000000E+00 0.14599164E+03 0.14599199E+03 0.32000000E+00 0.0000E+00 0.9000E+01
        1 -1    0    0  501    0 0.00000000E+00 0.00000000E+00 -.25809087E+04 0.25809087E+04 0.32000000E+00 0.0000E+00 0.9000E+01
       25  2    1    2    0    0 -.21977861E+03 -.14016645E+03 -.14965220E+03 0.42501017E+03 0.30048061E+03 0.0000E+00 0.0000E+00
       23  2    3    3    0    0 -.15412790E+03 0.37847508E+02 -.87807914E+02 0.20560427E+03 0.96824802E+02 0.0000E+00 0.0000E+00
       23  1    1    2    0    0 0.21977861E+03 0.14016645E+03 -.22852648E+04 0.23018905E+04 0.91188000E+02 0.0000E+00 0.9000E+01
      -13  1    4    4    0    0 -.96645724E+02 0.24453699E+02 -.10434111E+03 0.14431028E+03 0.10565837E+00 0.0000E+00 0.9000E+01
       13  1    4    4    0    0 -.57482176E+02 0.13393809E+02 0.16533199E+02 0.61293984E+02 0.10565837E+00 0.0000E+00 0.9000E+01
       23  1    3    3    0    0 -.65650709E+02 -.17801396E+03 -.61844284E+02 0.21940590E+03 0.91188000E+02 0.0000E+00 0.9000E+01
#aMCatNLO 1  0  0  1  2 0.71247940D+03 0.00000000D+00  -5  7  0 0.00000000D+00 0.00000000D+00 0.00000000D+00 0.00000000D+00 0.00000000D+00
  <mgrwgt>
 0.3811938807D-03    5    2    0
 0.613833515705988D+03 0.000000000000000D+00 0.000000000000000D+00 0.613833515705988D+03
 0.613833515705988D+03 0.000000000000000D+00 0.000000000000000D+00 -.613833515705988D+03
 0.580447693941769D+03 0.219778608702164D+03 0.140166447195921D+03 -.510543831904502D+03
 0.113595767553025D+03 -.966457695006854D+02 0.244537124093663D+02 0.544574108178251D+02
 0.168938033633377D+03 -.574821299060203D+02 0.133937965012085D+02 0.158292356621107D+03
 0.364685536283804D+03 -.656507092954581D+02 -.178013956106496D+03 0.297794064465570D+03
 0.000000000000000D+00 -.000000000000000D+00 -.000000000000000D+00 0.000000000000000D+00
 0.107400737675051D+04 0.000000000000000D+00 0.000000000000000D+00 0.107400737675051D+04
 0.105808405641660D+04 0.000000000000000D+00 0.000000000000000D+00 -.105808405641660D+04
 0.770771459503347D+03 0.274638908811641D+03 0.499691761901213D+03 -.510543831904502D+03
 0.136908635573464D+03 -.864751419609369D+02 0.911066118590860D+02 0.544574108178251D+02
 0.197978919270417D+03 -.425850837087140D+02 0.111021137430403D+03 0.158292356621107D+03
 0.313775108672303D+03 -.381048041772079D+02 0.250729854792738D+01 0.297794064465570D+03
 0.712657310147583D+03 -.107473878964782D+03 -.704326809738630D+03 0.159233203339052D+02
0.122670460657D-03 0.000000000000D+00 0.000000000000D+00 0.103854525605D-06 0.000000000000D+00  7 -1 1 23 -13 13 23 21 0 0.22460280D-01 0.39706290D+00 0.10412987D+06 0.10412987D+06 0.10412987D+06 0.11202826D+01  1  2  2  1  7  1       -1 0.311879844895D-03 0.100000000000D+01
-.338887069364D-05 0.000000000000D+00 -.471086868795D-06 0.103854525605D-06 0.000000000000D+00  7 -1 1 23 -13 13 23 21 2 0.22460280D-01 0.39706290D+00 0.10412987D+06 0.10412987D+06 0.10412987D+06 0.11202826D+01  1  2  3  1  7  1       -1 -.108132817657D-04 0.100000000000D+01
0.720341729576D-05 0.000000000000D+00 0.000000000000D+00 0.103854525605D-06 0.000000000000D+00  7 -1 1 23 -13 13 23 21 2 0.22460280D-01 0.39706290D+00 0.10412987D+06 0.10412987D+06 0.10412987D+06 0.11202826D+01  1  2 15  1  7  1       -1 0.229848194093D-04 0.100000000000D+01
0.116156876282D-03 0.000000000000D+00 -.465241815677D-04 0.103854525605D-06 0.000000000000D+00  7 -1 1 23 -13 13 23 21 2 0.98769024D-01 0.39706290D+00 0.10412987D+06 0.10412987D+06 0.10412987D+06 0.11202826D+01  1  2  5  1  7  1       -1 0.251124333211D-04 0.100000000000D+01
0.205403514839D-04 0.000000000000D+00 -.831297911267D-05 0.103854525605D-06 0.000000000000D+00  7 21 1 23 -13 13 23 1 2 0.98769024D-01 0.39706290D+00 0.10412987D+06 0.10412987D+06 0.10412987D+06 0.11202826D+01  1  2  5  3  7  1       -1 0.320300648329D-04 0.100000000000D+01
  </mgrwgt>
  </event>
  <event>
  8     66 0.27784906E-05 0.10032749E+03 0.75467711E-02 0.10480552E+00
       -1 -1    0    0    0  501 0.00000000E+00 0.00000000E+00 0.11929286E+03 0.11929329E+03 0.32000000E+00 0.0000E+00 0.9000E+01
        1 -1    0    0  501    0 0.00000000E+00 0.00000000E+00 -.52529178E+03 0.52529188E+03 0.32000000E+00 0.0000E+00 0.9000E+01
       25  2    1    2    0    0 0.12490593E+03 0.23008613E+02 -.18477165E+03 0.37368363E+03 0.29894482E+03 0.0000E+00 0.0000E+00
       23  2    3    3    0    0 -.36663793E+01 -.28992685E+02 0.29957554E+02 0.10228198E+03 0.93328077E+02 0.0000E+00 0.0000E+00
       23  1    1    2    0    0 -.12490593E+03 -.23008613E+02 -.22122727E+03 0.27090154E+03 0.91188000E+02 0.0000E+00 0.9000E+01
      -13  1    4    4    0    0 -.31632613E+01 0.25469398E+02 0.39383168E+02 0.47007888E+02 0.10565837E+00 0.0000E+00 0.9000E+01
       13  1    4    4    0    0 -.50311800E+00 -.54462083E+02 -.94256146E+01 0.55274090E+02 0.10565837E+00 0.0000E+00 0.9000E+01
       23  1    3    3    0    0 0.12857231E+03 0.52001298E+02 -.21472920E+03 0.27140165E+03 0.91188000E+02 0.0000E+00 0.9000E+01
#aMCatNLO 1  0  0  2  1 0.42811795D+02 0.00000000D+00  -5  7  0 0.00000000D+00 0.00000000D+00 0.00000000D+00 0.00000000D+00 0.00000000D+00
  <mgrwgt>
 0.2135157195D-03    6    2    0
 0.250327243691234D+03 0.000000000000000D+00 0.000000000000000D+00 0.250327243691234D+03
 0.250327243691234D+03 0.000000000000000D+00 0.000000000000000D+00 -.250327243691234D+03
 0.169380450491482D+03 -.124905931364356D+03 -.230086133824669D+02 -.651429020302020D+02
 0.924592303333079D+02 -.316326609334903D+01 0.254694934938472D+02 0.888257165612371D+02
 0.635209507509720D+02 -.503115979561587D+00 -.544621796805564D+02 0.326883625019869D+02
 0.175293855806706D+03 0.128572313437267D+03 0.520012995691761D+02 -.563711770330220D+02
 0.000000000000000D+00 0.000000000000000D+00 0.000000000000000D+00 0.000000000000000D+00
 0.275111533525130D+03 0.000000000000000D+00 0.000000000000000D+00 0.275111533525130D+03
 0.270436381275942D+03 0.000000000000000D+00 0.000000000000000D+00 -.270436381275942D+03
 0.179441505435863D+03 -.136303193940268D+03 -.325859504365644D+02 -.651429020302020D+02
 0.916025997097804D+02 -.917722528243429D+01 0.204158489191237D+02 0.888257165612371D+02
 0.667818150497608D+02 -.476057400639471D+01 -.580398028374390D+02 0.326883625019869D+02
 0.164655686971366D+03 0.117464944374724D+03 0.426675655617616D+02 -.563711770330220D+02
 0.430663076343005D+02 0.327760488543726D+02 0.275423387931181D+02 0.467515224918800D+01
0.161681689211D-05 0.000000000000D+00 0.000000000000D+00 0.133207262554D-07 0.000000000000D+00  7 -1 1 23 -13 13 23 21 0 0.18352788D-01 0.80814161D-01 0.40494499D+05 0.40494499D+05 0.40494499D+05 0.11554384D+01  1  2  2  2  7  2        1 0.177503343523D-03 0.100000000000D+01
-.846182841982D-07 0.000000000000D+00 -.620900258335D-08 0.133207262554D-07 0.000000000000D+00  7 -1 1 23 -13 13 23 21 2 0.18352788D-01 0.80814161D-01 0.40494499D+05 0.40494499D+05 0.40494499D+05 0.11554384D+01  1  2  3  2  7  2        1 -.124023357888D-04 0.100000000000D+01
0.100462240499D-06 0.000000000000D+00 0.000000000000D+00 0.133207262554D-07 0.000000000000D+00  7 -1 1 23 -13 13 23 21 2 0.18352788D-01 0.80814161D-01 0.40494499D+05 0.40494499D+05 0.40494499D+05 0.11554384D+01  1  2 15  2  7  2        1 0.147245533583D-04 0.100000000000D+01
0.166983379924D-05 0.000000000000D+00 0.000000000000D+00 0.133207262554D-07 0.000000000000D+00  7 -1 1 23 -13 13 23 21 2 0.18352788D-01 0.90969139D-01 0.49580838D+05 0.49580838D+05 0.49580838D+05 0.11476171D+01  1  2 12  2  7  2        1 0.204734275466D-03 0.100000000000D+01
-.123532652520D-05 0.000000000000D+00 0.000000000000D+00 0.133207262554D-07 0.000000000000D+00  7 -1 1 23 -13 13 23 21 2 0.18352788D-01 0.80814161D-01 0.40494499D+05 0.40494499D+05 0.40494499D+05 0.11554384D+01  1  2  4  2  7  2        1 -.181059383554D-03 0.100000000000D+01
0.313199733223D-07 0.000000000000D+00 0.000000000000D+00 0.133207262554D-07 0.000000000000D+00  7 -1 21 23 -13 13 23 -1 2 0.18352788D-01 0.90969139D-01 0.49580838D+05 0.49580838D+05 0.49580838D+05 0.11476171D+01  1  2 12  4  7  2        1 0.100152665073D-04 0.100000000000D+01
  </mgrwgt>
  </event>
  <event>
  8     66 0.27784906E-05 0.17817171E+03 0.75467711E-02 0.95718564E-01
       -1 -1    0    0    0  501 0.00000000E+00 0.00000000E+00 0.58192317E+02 0.58193196E+02 0.32000000E+00 0.0000E+00 0.9000E+01
        1 -1    0    0  501    0 0.00000000E+00 0.00000000E+00 -.23363506E+04 0.23363507E+04 0.32000000E+00 0.0000E+00 0.9000E+01
       25  2    1    2    0    0 -.26750752E+03 0.56764533E+01 -.17455671E+04 0.17915836E+04 0.30195122E+03 0.0000E+00 0.0000E+00
       23  2    3    3    0    0 -.12403400E+03 -.11045943E+03 -.10149844E+04 0.10325456E+04 0.91495546E+02 0.0000E+00 0.0000E+00
       23  1    1    2    0    0 0.26750752E+03 -.56764533E+01 -.53259118E+03 0.60296029E+03 0.91188000E+02 0.0000E+00 0.9000E+01
      -11  1    4    4    0    0 -.43322942E+02 -.48709573E+01 -.45151226E+03 0.45361208E+03 0.51099893E-03 0.0000E+00 0.9000E+01
       11  1    4    4    0    0 -.80711057E+02 -.10558847E+03 -.56347211E+03 0.57893352E+03 0.51099893E-03 0.0000E+00 0.9000E+01
       23  1    3    3    0    0 -.14347352E+03 0.11613588E+03 -.73058278E+03 0.75903797E+03 0.91188000E+02 0.0000E+00 0.9000E+01
#aMCatNLO 1  0  0  2  1 0.21109085D+03 0.00000000D+00  -5  7  0 0.00000000D+00 0.00000000D+00 0.00000000D+00 0.00000000D+00 0.00000000D+00
  <mgrwgt>
 0.3280674555D-03    7    2    0
 0.368725827690451D+03 0.000000000000000D+00 0.000000000000000D+00 0.368725827690451D+03
 0.368725827690451D+03 0.000000000000000D+00 0.000000000000000D+00 -.368725827690451D+03
 0.312546355740762D+03 0.267507517448916D+03 -.567645330344479D+01 0.133332213395874D+03
 0.780764683320446D+02 -.433229418143758D+02 -.487095729886992D+01 -.647713778975371D+02
 0.139131862934845D+03 -.807110565729991D+02 -.105588469431051D+03 -.411640104192824D+02
 0.207696968373250D+03 -.143473519061541D+03 0.116135880033365D+03 -.273968250790542D+02
 0.000000000000000D+00 0.000000000000000D+00 0.000000000000000D+00 -.000000000000000D+00
 0.411456645307246D+03 0.000000000000000D+00 0.000000000000000D+00 0.411456645307246D+03
 0.782492360643760D+03 0.000000000000000D+00 0.000000000000000D+00 -.782492360643760D+03
 0.265375792713227D+03 0.203216511760942D+03 -.550874780040402D+02 0.133332213395874D+03
 0.918942392704683D+02 -.622313497348798D+02 -.194030648745914D+02 -.647713778975371D+02
 0.181455292337984D+03 -.116374805882960D+03 -.132997939530535D+03 -.411640104192824D+02
 0.228343311629475D+03 -.191980862475933D+03 0.788554312682415D+02 -.273968250790542D+02
 0.426880369999852D+03 0.167370506332830D+03 0.128633051140925D+03 -.371035715336514D+03
0.206077763303D-04 0.000000000000D+00 0.000000000000D+00 0.619083562210D-07 0.000000000000D+00  7 -1 1 23 -11 11 23 21 0 0.89527334D-02 0.35943863D+00 0.11057639D+06 0.11057639D+06 0.11057639D+06 0.11181566D+01  1  2  2  2  7  2        1 0.324613305364D-03 0.100000000000D+01
-.113001610915D-05 0.000000000000D+00 -.791392872604D-07 0.619083562210D-07 0.000000000000D+00  7 -1 1 23 -11 11 23 21 2 0.89527334D-02 0.35943863D+00 0.11057639D+06 0.11057639D+06 0.11057639D+06 0.11181566D+01  1  2  3  2  7  2        1 -.222548691754D-04 0.100000000000D+01
0.134334016352D-05 0.000000000000D+00 0.000000000000D+00 0.619083562210D-07 0.000000000000D+00  7 -1 1 23 -11 11 23 21 2 0.89527334D-02 0.35943863D+00 0.11057639D+06 0.11057639D+06 0.11057639D+06 0.11181566D+01  1  2 15  2  7  2        1 0.264561357623D-04 0.100000000000D+01
0.622604520433D-05 0.000000000000D+00 0.000000000000D+00 0.619083562210D-07 0.000000000000D+00  7 -1 1 23 -11 11 23 21 2 0.89527334D-02 0.76115764D+00 0.20663578D+06 0.20663578D+06 0.20663578D+06 0.10967383D+01  1  2 12  2  7  2        1 0.525281809071D-06 0.100000000000D+01
-.164813672603D-04 0.000000000000D+00 -.455503329910D-05 0.619083562210D-07 0.000000000000D+00  7 -1 1 23 -11 11 23 21 2 0.89527334D-02 0.77022239D+00 0.11057639D+06 0.11057639D+06 0.11057639D+06 0.11181566D+01  1  2  5  2  7  2        1 -.127095373262D-05 0.100000000000D+01
0.505328337138D-06 0.000000000000D+00 0.000000000000D+00 0.619083562210D-07 0.000000000000D+00  7 -1 21 23 -11 11 23 -1 2 0.89527334D-02 0.76115764D+00 0.20663578D+06 0.20663578D+06 0.20663578D+06 0.10967383D+01  1  2 12  4  7  2        1 0.164719737311D-08 0.100000000000D+01
-.107477884458D-05 0.000000000000D+00 -.375704975392D-06 0.619083562210D-07 0.000000000000D+00  7 -1 21 23 -11 11 23 -1 2 0.89527334D-02 0.77022239D+00 0.11057639D+06 0.11057639D+06 0.11057639D+06 0.11181566D+01  1  2  5  4  7  2        1 -.309169547129D-08 0.100000000000D+01
  </mgrwgt>
  </event>
  <event>
  8     66 0.27784906E-05 0.45278077E+03 0.75467711E-02 0.89193172E-01
       -1 -1    0    0    0  501 0.00000000E+00 0.00000000E+00 0.66508145E+03 0.66508153E+03 0.32000000E+00 0.0000E+00 0.9000E+01
        1 -1    0    0  501    0 0.00000000E+00 0.00000000E+00 -.36859844E+03 0.36859858E+03 0.32000000E+00 0.0000E+00 0.9000E+01
       25  2    1    2    0    0 -.78816090E+02 -.39891584E+03 0.35056812E+03 0.61345841E+03 0.29679519E+03 0.0000E+00 0.0000E+00
       23  2    3    3    0    0 -.30778064E+02 -.38240855E+03 0.23962749E+03 0.46113239E+03 0.89655739E+02 0.0000E+00 0.0000E+00
       23  1    1    2    0    0 0.78816090E+02 0.39891584E+03 -.54085109E+02 0.42022170E+03 0.91188000E+02 0.0000E+00 0.9000E+01
      -11  1    4    4    0    0 -.29963027E+02 -.21866401E+03 0.86846579E+02 0.23717938E+03 0.51099893E-03 0.0000E+00 0.9000E+01
       11  1    4    4    0    0 -.81503757E+00 -.16374455E+03 0.15278091E+03 0.22395300E+03 0.51099893E-03 0.0000E+00 0.9000E+01
       23  1    3    3    0    0 -.48038025E+02 -.16507290E+02 0.11094063E+03 0.15232603E+03 0.91188000E+02 0.0000E+00 0.9000E+01
#aMCatNLO 1  0  0  2  1 0.58625514D+03 0.00000000D+00  -5  7  0 0.00000000D+00 0.00000000D+00 0.00000000D+00 0.00000000D+00 0.00000000D+00
  <mgrwgt>
 0.4118552597D-03    3    2    0
 0.495124326036670D+03 0.000000000000000D+00 0.000000000000000D+00 0.495124326036670D+03
 0.495124326036670D+03 0.000000000000000D+00 0.000000000000000D+00 -.495124326036670D+03
 0.454845485736160D+03 0.788160895746568D+02 0.398915844020268D+03 -.182272702191855D+03
 0.221579776210544D+03 -.299630265672594D+02 -.218664007588686D+03 0.196434734631980D+02
 0.188032389145456D+03 -.815037572385890D+00 -.163744546437736D+03 0.924296413138333D+02
 0.125791000981180D+03 -.480380254350115D+02 -.165072899938457D+02 0.701995874148232D+02
 0.000000000000000D+00 0.000000000000000D+00 0.000000000000000D+00 0.000000000000000D+00
 0.977339753750443D+03 0.000000000000000D+00 0.000000000000000D+00 0.977339753750443D+03
 0.789155075442117D+03 0.000000000000000D+00 0.000000000000000D+00 -.789155075442117D+03
 0.436444306092403D+03 -.160483584652887D+03 0.350984418556036D+03 -.182272702191855D+03
 0.300318065661301D+03 -.170085784266264D+03 -.246730420709275D+03 0.196434734631980D+02
 0.238026340927872D+03 -.115206244835264D+03 -.186656962187498D+03 0.924296413138333D+02
 0.175988191433529D+03 -.129061799179052D+03 -.327362505412407D+02 0.701995874148232D+02
 0.615717925077456D+03 0.574837412933467D+03 0.115139214881977D+03 0.188184678308326D+03
0.518091942876D-04 0.000000000000D+00 0.000000000000D+00 0.152342199699D-07 0.000000000000D+00  7 -1 1 23 -11 11 23 21 0 0.10232024D+00 0.56707469D-01 0.20501043D+06 0.20501043D+06 0.20501043D+06 0.10970010D+01  1  2  2  2  7  2        1 0.407524495372D-03 0.100000000000D+01
-.285031815243D-05 0.000000000000D+00 -.198960947739D-06 0.152342199699D-07 0.000000000000D+00  7 -1 1 23 -11 11 23 21 2 0.10232024D+00 0.56707469D-01 0.20501043D+06 0.20501043D+06 0.20501043D+06 0.10970010D+01  1  2  3  2  7  2        1 -.269807662999D-04 0.100000000000D+01
0.330783132994D-05 0.000000000000D+00 0.000000000000D+00 0.152342199699D-07 0.000000000000D+00  7 -1 1 23 -11 11 23 21 2 0.10232024D+00 0.56707469D-01 0.20501043D+06 0.20501043D+06 0.20501043D+06 0.10970010D+01  1  2 15  2  7  2        1 0.313115306081D-04 0.100000000000D+01
  </mgrwgt>
  </event>
  <event>
  9     66 0.27784906E-05 0.25385537E+03 0.75467711E-02 0.96487000E-01
       -1 -1    0    0    0  501 0.00000000E+00 0.00000000E+00 0.54499904E+03 0.54499913E+03 0.32000000E+00 0.0000E+00 0.9000E+01
       21 -1    0    0  501  502 0.00000000E+00 0.00000000E+00 -.40508620E+03 0.40508689E+03 0.75000000E+00 0.0000E+00 0.9000E+01
       25  2    1    2    0    0 0.90366091E+02 -.15584129E+03 0.63944405E+02 0.35459677E+03 0.29865942E+03 0.0000E+00 0.0000E+00
       23  2    3    3    0    0 0.52614965E+02 0.27964892E+02 -.47721111E+02 0.11796563E+03 0.89934505E+02 0.0000E+00 0.0000E+00
       23  1    1    2    0    0 -.23197481E+03 -.80989594E+02 0.15997259E+03 0.30704740E+03 0.91188000E+02 0.0000E+00 0.9000E+01
      -11  1    4    4    0    0 0.27490646E+01 -.28934696E+02 -.26636575E+02 0.39424372E+02 0.51099893E-03 0.0000E+00 0.9000E+01
       11  1    4    4    0    0 0.49865900E+02 0.56899588E+02 -.21084536E+02 0.78541256E+02 0.51099893E-03 0.0000E+00 0.9000E+01
       23  1    3    3    0    0 0.37751127E+02 -.18380618E+03 0.11166552E+03 0.23663115E+03 0.91188000E+02 0.0000E+00 0.9000E+01
       -1  1    1    2    0  502 0.14160872E+03 0.23683089E+03 -.84004154E+02 0.28844185E+03 0.32000000E+00 0.0000E+00 0.9000E+01
#aMCatNLO 2  0  0  2  1 0.27593821D+03 0.00000000D+00  -5  7  0 0.00000000D+00 0.00000000D+00 0.00000000D+00 0.00000000D+00 0.00000000D+00
  <mgrwgt>
 0.2487141109D-04    1    2    0
 0.279057476078035D+03 0.000000000000000D+00 0.000000000000000D+00 0.279057476078035D+03
 0.279057476078035D+03 0.000000000000000D+00 0.000000000000000D+00 -.279057476078035D+03
 0.206597317932897D+03 -.174962166625547D+03 0.143601495313941D+02 0.595753874363982D+02
 0.458435122928232D+02 0.144210622435864D+02 -.941407937484445D+01 -.424857116291226D+02
 0.138366794048664D+03 0.773807921665853D+02 0.102916361076272D+03 -.506537789488145D+02
 0.167307327881686D+03 0.831603122153755D+02 -.107862431232822D+03 0.335641031415390D+02
 0.000000000000000D+00 0.000000000000000D+00 0.000000000000000D+00 -.000000000000000D+00
 0.383167307540011D+03 0.000000000000000D+00 0.000000000000000D+00 0.383167307540011D+03
 0.576176199820785D+03 0.000000000000000D+00 0.000000000000000D+00 -.576176199820785D+03
 0.268767753769075D+03 -.231974811192823D+03 -.809895938126085D+02 0.595753874363982D+02
 0.514763021434642D+02 0.274906461459806D+01 -.289346960149405D+02 -.424857116291226D+02
 0.910493078920324D+02 0.498659000203759D+02 0.568995884078314D+02 -.506537789488145D+02
 0.211309396974195D+03 0.377511266306010D+02 -.183806184128888D+03 0.335641031415390D+02
 0.336740746582029D+03 0.141608719927248D+03 0.236830885548605D+03 -.193008892280774D+03
0.531581502635D-06 0.000000000000D+00 0.000000000000D+00 0.280260043405D-07 0.419069780816D-12  7 -1 21 23 -11 11 23 -1 2 0.83846051D-01 0.62321003D-01 0.18120772D+06 0.18120772D+06 0.18120772D+06 0.11011319D+01  1  2  1  4  7  2        1 0.248714110942D-04 0.100000000000D+01
  </mgrwgt>
  </event>
  <event>
  8     66 0.27784906E-05 0.30701798E+03 0.75467711E-02 0.98000837E-01
       -1 -1    0    0    0  501 0.00000000E+00 0.00000000E+00 0.62631905E+02 0.62632723E+02 0.32000000E+00 0.0000E+00 0.9000E+01
        1 -1    0    0  501    0 0.00000000E+00 0.00000000E+00 -.37019018E+04 0.37019018E+04 0.32000000E+00 0.0000E+00 0.9000E+01
       25  2    1    2    0    0 0.23243989E+03 -.17382232E+03 -.32171316E+04 0.32441899E+04 0.30098202E+03 0.0000E+00 0.0000E+00
       23  2    3    3    0    0 0.60581190E+01 -.10081128E+02 -.36691789E+03 0.37886390E+03 0.93652498E+02 0.0000E+00 0.0000E+00
       23  1    1    2    0    0 -.23243989E+03 0.17382232E+03 -.42213831E+03 0.52034460E+03 0.91188000E+02 0.0000E+00 0.9000E+01
      -13  1    4    4    0    0 0.72444690E+01 -.11782956E+02 -.37257800E+03 0.37283468E+03 0.10565837E+00 0.0000E+00 0.9000E+01
       13  1    4    4    0    0 -.11863500E+01 0.17018280E+01 0.56601063E+01 0.60292298E+01 0.10565837E+00 0.0000E+00 0.9000E+01
       23  1    3    3    0    0 0.22638177E+03 -.16374120E+03 -.28502137E+04 0.28653260E+04 0.91188000E+02 0.0000E+00 0.9000E+01
#aMCatNLO 1  0  0  2  2 0.12702219D+03 0.00000000D+00  -5  7  0 0.00000000D+00 0.00000000D+00 0.00000000D+00 0.00000000D+00 0.00000000D+00
  <mgrwgt>
 0.3465525849D-03    4    2    0
 0.481517109019285D+03 0.000000000000000D+00 0.000000000000000D+00 0.481517109019285D+03
 0.481517109019285D+03 0.000000000000000D+00 0.000000000000000D+00 -.481517109019285D+03
 0.438800596297259D+03 -.232439890898622D+03 0.173822323687541D+03 0.316209122059644D+03
 0.494656667134346D+02 0.724447942251216D+01 -.117829729245500D+02 -.474924336116893D+02
 0.449577922128753D+02 -.118636085590328D+01 0.170184521144633D+01 0.449099025990029D+02
 0.429810162815001D+03 0.226381772332013D+03 -.163741195974437D+03 -.313626591046958D+03
 0.000000000000000D+00 0.000000000000000D+00 -.000000000000000D+00 0.000000000000000D+00
 0.603686816766760D+03 0.000000000000000D+00 0.000000000000000D+00 0.603686816766760D+03
 0.519871302928076D+03 0.000000000000000D+00 0.000000000000000D+00 -.519871302928076D+03
 0.478045956619545D+03 -.290702918898432D+03 0.188987537595729D+03 0.316209122059644D+03
 0.485778865136203D+02 0.101408648631591D+01 -.101612713952408D+02 -.474924336116893D+02
 0.455551483621828D+02 -.693820447062019D+01 0.319898570994416D+01 0.449099025990029D+02
 0.399196086848695D+03 0.173700749338020D+03 -.150028915476268D+03 -.313626591046958D+03
 0.152183041350793D+03 0.122926287544716D+03 -.319963364341645D+02 0.838155138386846D+02
0.328489703383D-03 0.000000000000D+00 0.000000000000D+00 0.138251207772D-06 0.000000000000D+00  7 -1 1 23 -13 13 23 21 0 0.96357417D-02 0.56952341D+00 0.94260039D+05 0.94260039D+05 0.94260039D+05 0.11238349D+01  1  2  2  2  7  2        1 0.446952894233D-03 0.100000000000D+01
-.137555195664D-04 0.000000000000D+00 -.126148695432D-05 0.138251207772D-06 0.000000000000D+00  7 -1 1 23 -13 13 23 21 2 0.96357417D-02 0.56952341D+00 0.94260039D+05 0.94260039D+05 0.94260039D+05 0.11238349D+01  1  2  3  2  7  2        1 -.236386132666D-04 0.100000000000D+01
0.206500535451D-04 0.000000000000D+00 0.000000000000D+00 0.138251207772D-06 0.000000000000D+00  7 -1 1 23 -13 13 23 21 2 0.96357417D-02 0.56952341D+00 0.94260039D+05 0.94260039D+05 0.94260039D+05 0.11238349D+01  1  2 15  2  7  2        1 0.354867460536D-04 0.100000000000D+01
-.653183680477D-04 0.000000000000D+00 0.000000000000D+00 0.138251207772D-06 0.000000000000D+00  7 -1 1 23 -13 13 23 21 2 0.96357417D-02 0.56952341D+00 0.94260039D+05 0.94260039D+05 0.94260039D+05 0.11238349D+01  1  2  4  2  7  2        1 -.112248442091D-03 0.100000000000D+01
  </mgrwgt>
  </event>
  <event>
  8     66 0.27784906E-05 0.23929687E+03 0.75467711E-02 0.95677672E-01
       -1 -1    0    0    0  501 0.00000000E+00 0.00000000E+00 0.12425633E+03 0.12425674E+03 0.32000000E+00 0.0000E+00 0.9000E+01
        1 -1    0    0  501    0 0.00000000E+00 0.00000000E+00 -.23754891E+04 0.23754891E+04 0.32000000E+00 0.0000E+00 0.9000E+01
       25  2    1    2    0    0 -.31130652E+03 -.24054362E+03 -.19043871E+04 0.19674018E+04 0.29867515E+03 0.0000E+00 0.0000E+00
       23  2    3    3    0    0 -.68780350E+02 0.59240084E+01 -.75907962E+03 0.76756448E+03 0.90485029E+02 0.0000E+00 0.0000E+00
       23  1    1    2    0    0 0.31130652E+03 0.24054362E+03 -.34684570E+03 0.53234403E+03 0.91188000E+02 0.0000E+00 0.9000E+01
      -11  1    4    4    0    0 -.14215233E+02 0.32327439E+02 -.50975337E+03 0.51097518E+03 0.51099893E-03 0.0000E+00 0.9000E+01
       11  1    4    4    0    0 -.54565117E+02 -.26403431E+02 -.24932625E+03 0.25658931E+03 0.51099893E-03 0.0000E+00 0.9000E+01
       23  1    3    3    0    0 -.24252617E+03 -.24646763E+03 -.11453075E+04 0.11998373E+04 0.91188000E+02 0.0000E+00 0.9000E+01
#aMCatNLO 1  0  0  1  2 0.48859072D+02 0.00000000D+00  -5  7  0 0.00000000D+00 0.00000000D+00 0.00000000D+00 0.00000000D+00 0.00000000D+00
  <mgrwgt>
 0.3838369533D-03    9    2    0
 0.543295586160064D+03 0.000000000000000D+00 0.000000000000000D+00 0.543295586160064D+03
 0.543295586160064D+03 0.000000000000000D+00 0.000000000000000D+00 -.543295586160064D+03
 0.506072941002028D+03 0.311306515768271D+03 0.240543619373916D+03 0.304994410914624D+03
 0.119395961140582D+03 -.142152330560659D+02 0.323274392581637D+02 -.114053756434651D+03
 0.737320841369058D+02 -.545651173993242D+02 -.264034308570290D+02 -.419753145711597D+02
 0.387390186040612D+03 -.242526165312881D+03 -.246467627775050D+03 -.148965339908813D+03
 0.000000000000000D+00 0.000000000000000D+00 -.000000000000000D+00 0.000000000000000D+00
 0.647908156439322D+03 0.000000000000000D+00 0.000000000000000D+00 0.647908156439322D+03
 0.549579527024468D+03 0.000000000000000D+00 0.000000000000000D+00 -.549579527024468D+03
 0.516825442256137D+03 0.310376839114931D+03 0.263510746405373D+03 0.304994410914624D+03
 0.120994884363290D+03 -.144337159087122D+02 0.377249324757216D+02 -.114053756434651D+03
 0.727195494945805D+02 -.546982221796808D+02 -.231151538114978D+02 -.419753145711597D+02
 0.377149226839372D+03 -.243221028511754D+03 -.229301432086833D+03 -.148965339908813D+03
 0.109798580510411D+03 0.197612748521578D+01 -.488190929827636D+02 0.983286294148540D+02
0.828047240581D-04 0.000000000000D+00 0.000000000000D+00 0.342159830143D-06 0.000000000000D+00  7 -1 1 23 -11 11 23 21 0 0.19116391D-01 0.36545990D+00 0.18377428D+06 0.18377428D+06 0.18377428D+06 0.11006587D+01  1  2  2  1  7  1       -1 0.366622232463D-03 0.100000000000D+01
-.428630271370D-05 0.000000000000D+00 -.317991943368D-06 0.342159830143D-06 0.000000000000D+00  7 -1 1 23 -11 11 23 21 2 0.19116391D-01 0.36545990D+00 0.18377428D+06 0.18377428D+06 0.18377428D+06 0.11006587D+01  1  2  3  1  7  1       -1 -.229906830924D-04 0.100000000000D+01
0.521090595204D-05 0.000000000000D+00 0.000000000000D+00 0.342159830143D-06 0.000000000000D+00  7 -1 1 23 -11 11 23 21 2 0.19116391D-01 0.36545990D+00 0.18377428D+06 0.18377428D+06 0.18377428D+06 0.11006587D+01  1  2 15  1  7  1       -1 0.279500295172D-04 0.100000000000D+01
0.530696405240D-03 0.000000000000D+00 0.000000000000D+00 0.342159830143D-06 0.000000000000D+00  7 -1 1 23 -11 11 23 21 2 0.22893970D-01 0.36545990D+00 0.20809730D+06 0.20809730D+06 0.20809730D+06 0.10965040D+01  1  2 12  1  7  1       -1 0.209533294411D-02 0.100000000000D+01
-.533391175929D-03 0.000000000000D+00 0.000000000000D+00 0.342159830143D-06 0.000000000000D+00  7 -1 1 23 -11 11 23 21 2 0.19116391D-01 0.36545990D+00 0.18377428D+06 0.18377428D+06 0.18377428D+06 0.11006587D+01  1  2  4  1  7  1       -1 -.286098026881D-02 0.100000000000D+01
-.655743199913D-03 0.000000000000D+00 -.631967918545D-04 0.342159830143D-06 0.000000000000D+00  7 -1 1 23 -11 11 23 21 2 0.23017270D-01 0.36545990D+00 0.18377428D+06 0.18377428D+06 0.18377428D+06 0.11006587D+01  1  2  5  1  7  1       -1 -.260264653652D-02 0.100000000000D+01
0.657189108092D-03 0.000000000000D+00 0.621225930822D-04 0.342159830143D-06 0.000000000000D+00  7 -1 1 23 -11 11 23 21 2 0.19116391D-01 0.36545990D+00 0.18377428D+06 0.18377428D+06 0.18377428D+06 0.11006587D+01  1  2  6  1  7  1       -1 0.352500220473D-02 0.100000000000D+01
0.140164358559D-04 0.000000000000D+00 0.000000000000D+00 0.342159830143D-06 0.000000000000D+00  7 21 1 23 -11 11 23 1 2 0.22893970D-01 0.36545990D+00 0.20809730D+06 0.20809730D+06 0.20809730D+06 0.10965040D+01  1  2 12  3  7  1       -1 0.636543700946D-03 0.100000000000D+01
-.170800940393D-04 0.000000000000D+00 -.170776962435D-05 0.342159830143D-06 0.000000000000D+00  7 21 1 23 -11 11 23 1 2 0.23017270D-01 0.36545990D+00 0.18377428D+06 0.18377428D+06 0.18377428D+06 0.11006587D+01  1  2  5  3  7  1       -1 -.780996670066D-03 0.100000000000D+01
  </mgrwgt>
  </event>
  <event>
  8     66 0.27784906E-05 0.18672948E+03 0.75467711E-02 0.94053054E-01
       -1 -1    0    0    0  501 0.00000000E+00 0.00000000E+00 0.29249167E+03 0.29249185E+03 0.32000000E+00 0.0000E+00 0.9000E+01
        1 -1    0    0  501    0 0.00000000E+00 0.00000000E+00 -.80616892E+03 0.80616899E+03 0.32000000E+00 0.0000E+00 0.9000E+01
       25  2    1    2    0    0 0.23992953E+03 0.28239330E+03 -.23447042E+02 0.47740963E+03 0.30009671E+03 0.0000E+00 0.0000E+00
       23  2    3    3    0    0 0.18580932E+03 0.28382051E+03 0.40377587E+02 0.35363618E+03 0.91372922E+02 0.0000E+00 0.0000E+00
       23  1    1    2    0    0 -.23992953E+03 -.28239330E+03 -.49023021E+03 0.62125121E+03 0.91188000E+02 0.0000E+00 0.9000E+01
      -13  1    4    4    0    0 0.16872796E+03 0.27329686E+03 0.15340239E+02 0.32155191E+03 0.10565837E+00 0.0000E+00 0.9000E+01
       13  1    4    4    0    0 0.17081362E+02 0.10523649E+02 0.25037348E+02 0.32084265E+02 0.10565837E+00 0.0000E+00 0.9000E+01
       23  1    3    3    0    0 0.54120203E+02 -.14272073E+01 -.63824630E+02 0.12377345E+03 0.91188000E+02 0.0000E+00 0.9000E+01
#aMCatNLO 1  0  0  1  2 0.19903591D+03 0.00000000D+00  -5  7  0 0.00000000D+00 0.00000000D+00 0.00000000D+00 0.00000000D+00 0.00000000D+00
  <mgrwgt>
 0.4349244138D-03    9    2    0
 0.485590186037238D+03 0.000000000000000D+00 0.000000000000000D+00 0.485590186037238D+03
 0.485590186037238D+03 0.000000000000000D+00 0.000000000000000D+00 -.485590186037238D+03
 0.443505940257048D+03 -.239929525644942D+03 -.282393299110516D+03 -.225986979803173D+03
 0.371874115259658D+03 0.168728164276890D+03 0.273297208511488D+03 0.187429453394423D+03
 0.495380925166334D+02 0.170811588456667D+02 0.105232978415726D+02 0.452936731256495D+02
 0.106262224041137D+03 0.541202025223852D+02 -.142720724254463D+01 -.673614671689985D+01
 0.000000000000000D+00 -.000000000000000D+00 0.000000000000000D+00 0.000000000000000D+00
 0.647957752779016D+03 0.000000000000000D+00 0.000000000000000D+00 0.647957752779016D+03
 0.560722192060890D+03 0.000000000000000D+00 0.000000000000000D+00 -.560722192060890D+03
 0.452553973406566D+03 -.170543340433602D+03 -.341078732106327D+03 -.225986979803173D+03
 0.369835806088258D+03 0.226162294730643D+03 0.224720581850861D+03 0.187429453394423D+03
 0.518478431593594D+02 0.249319545384203D+02 0.388325352745467D+01 0.452936731256495D+02
 0.117128409080765D+03 0.714184027966290D+02 -.160576753977005D+02 -.673614671689985D+01
 0.217313913104957D+03 -.151969311632090D+03 0.128532572125713D+03 0.872355607181262D+02
0.282756012172D-04 0.000000000000D+00 0.000000000000D+00 0.213325263617D-05 0.000000000000D+00  7 -1 1 23 -13 13 23 21 0 0.44998737D-01 0.12402601D+00 0.17177245D+06 0.17177245D+06 0.17177245D+06 0.11029366D+01  1  2  2  1  7  1       -1 0.365220554961D-03 0.100000000000D+01
-.152294389851D-05 0.000000000000D+00 -.108585753811D-06 0.213325263617D-05 0.000000000000D+00  7 -1 1 23 -13 13 23 21 2 0.44998737D-01 0.12402601D+00 0.17177245D+06 0.17177245D+06 0.17177245D+06 0.11029366D+01  1  2  3  1  7  1       -1 -.239292092573D-04 0.100000000000D+01
0.178076341289D-05 0.000000000000D+00 0.000000000000D+00 0.213325263617D-05 0.000000000000D+00  7 -1 1 23 -13 13 23 21 2 0.44998737D-01 0.12402601D+00 0.17177245D+06 0.17177245D+06 0.17177245D+06 0.11029366D+01  1  2 15  1  7  1       -1 0.279801904630D-04 0.100000000000D+01
0.119183164830D-04 0.000000000000D+00 0.000000000000D+00 0.213325263617D-05 0.000000000000D+00  7 -1 1 23 -13 13 23 21 2 0.62600891D-01 0.12402601D+00 0.27673782D+06 0.27673782D+06 0.27673782D+06 0.10871548D+01  1  2 12  1  7  1       -1 0.976902038588D-04 0.100000000000D+01
-.173871476391D-04 0.000000000000D+00 0.000000000000D+00 0.213325263617D-05 0.000000000000D+00  7 -1 1 23 -13 13 23 21 2 0.44998737D-01 0.12402601D+00 0.17177245D+06 0.17177245D+06 0.17177245D+06 0.11029366D+01  1  2  4  1  7  1       -1 -.273195023566D-03 0.100000000000D+01
-.245598812721D-04 0.000000000000D+00 -.112547507674D-04 0.213325263617D-05 0.000000000000D+00  7 -1 1 23 -13 13 23 21 2 0.67953314D-01 0.12402601D+00 0.17177245D+06 0.17177245D+06 0.17177245D+06 0.11029366D+01  1  2  5  1  7  1       -1 -.180120290336D-03 0.100000000000D+01
0.277047150777D-04 0.000000000000D+00 0.103619792226D-04 0.213325263617D-05 0.000000000000D+00  7 -1 1 23 -13 13 23 21 2 0.44998737D-01 0.12402601D+00 0.17177245D+06 0.17177245D+06 0.17177245D+06 0.11029366D+01  1  2  6  1  7  1       -1 0.435309485239D-03 0.100000000000D+01
0.493634582516D-06 0.000000000000D+00 0.000000000000D+00 0.213325263617D-05 0.000000000000D+00  7 21 1 23 -13 13 23 1 2 0.62600891D-01 0.12402601D+00 0.27673782D+06 0.27673782D+06 0.27673782D+06 0.10871548D+01  1  2 12  3  7  1       -1 0.336197353954D-04 0.100000000000D+01
-.795216535104D-06 0.000000000000D+00 -.547694180071D-06 0.213325263617D-05 0.000000000000D+00  7 21 1 23 -13 13 23 1 2 0.67953314D-01 0.12402601D+00 0.17177245D+06 0.17177245D+06 0.17177245D+06 0.11029366D+01  1  2  5  3  7  1       -1 -.476512329161D-04 0.100000000000D+01
  </mgrwgt>
  </event>
  <event>
  8     66 0.27784906E-05 0.43102472E+03 0.75467711E-02 0.87521055E-01
       -3 -1    0    0    0  501 0.00000000E+00 0.00000000E+00 0.15342556E+03 0.15342637E+03 0.50000000E+00 0.0000E+00 0.9000E+01
        3 -1    0    0  501    0 0.00000000E+00 0.00000000E+00 -.20914355E+04 0.20914356E+04 0.50000000E+00 0.0000E+00 0.9000E+01
       25  2    1    2    0    0 0.38939535E+03 0.11060537E+03 -.16853535E+04 0.17590504E+04 0.29996631E+03 0.0000E+00 0.0000E+00
       23  2    3    3    0    0 0.51388762E+02 0.52467129E+02 -.74230334E+03 0.75143576E+03 0.90817682E+02 0.0000E+00 0.0000E+00
       23  1    1    2    0    0 -.38939535E+03 -.11060537E+03 -.25265648E+03 0.48581152E+03 0.91188000E+02 0.0000E+00 0.9000E+01
      -11  1    4    4    0    0 -.29461494E+01 0.35034462E+02 -.89725760E+02 0.96368072E+02 0.51099893E-03 0.0000E+00 0.9000E+01
       11  1    4    4    0    0 0.54334911E+02 0.17432667E+02 -.65257758E+03 0.65506769E+03 0.51099893E-03 0.0000E+00 0.9000E+01
       23  1    3    3    0    0 0.33800658E+03 0.58138243E+02 -.94305011E+03 0.10076146E+04 0.91188000E+02 0.0000E+00 0.9000E+01
#aMCatNLO 1  0  0  2  2 0.81037394D+03 0.00000000D+00  -5  7  0 0.00000000D+00 0.00000000D+00 0.00000000D+00 0.00000000D+00 0.00000000D+00
  <mgrwgt>
 0.6602802043D-05    3    2    0
 0.566463273880405D+03 0.000000000000000D+00 0.000000000000000D+00 0.566463273880405D+03
 0.566463273880405D+03 0.000000000000000D+00 0.000000000000000D+00 -.566463273880405D+03
 0.530421865218397D+03 -.389395345565563D+03 -.110605371182458D+03 0.330408565983435D+03
 0.374636835006530D+02 -.294614935804990D+01 0.350344616742133D+02 -.129396398943418D+02
 0.181684049257421D+03 0.543349114552027D+02 0.174326669254348D+02 -.172490328063909D+03
 0.383356949784340D+03 0.338006583468410D+03 0.581382425828098D+02 -.144978598025184D+03
 0.000000000000000D+00 0.000000000000000D+00 0.000000000000000D+00 0.000000000000000D+00
 0.129781553625208D+04 0.000000000000000D+00 0.000000000000000D+00 0.129781553625208D+04
 0.969471285037519D+03 0.000000000000000D+00 0.000000000000000D+00 -.969471285037519D+03
 0.934026956372499D+03 -.800032116055307D+03 -.338924618007179D+03 0.330408565983435D+03
 0.357251879080665D+02 -.234685748248659D+02 0.236237331122981D+02 -.129396398943418D+02
 0.183351206726020D+03 -.480223006384895D+02 -.394792397809174D+02 -.172490328063909D+03
 0.239817492973016D+03 0.163266205482628D+03 -.390196213951248D+02 -.144978598025184D+03
 0.874365977309997D+03 0.708256786036034D+03 0.393799746070923D+03 0.328344251214559D+03
0.929227935994D-04 0.000000000000D+00 0.000000000000D+00 0.250686592654D-05 0.000000000000D+00  7 -3 3 23 -11 11 23 21 0 0.23603999D-01 0.32175937D+00 0.18578231D+06 0.18578231D+06 0.18578231D+06 0.11002935D+01  1  2  2  2  7  2        3 0.649819672352D-05 0.100000000000D+01
-.469373514995D-05 0.000000000000D+00 -.356847994555D-06 0.250686592654D-05 0.000000000000D+00  7 -3 3 23 -11 11 23 21 2 0.23603999D-01 0.32175937D+00 0.18578231D+06 0.18578231D+06 0.18578231D+06 0.11002935D+01  1  2  3  2  7  2        3 -.397380271731D-06 0.100000000000D+01
0.592930143326D-05 0.000000000000D+00 0.000000000000D+00 0.250686592654D-05 0.000000000000D+00  7 -3 3 23 -11 11 23 21 2 0.23603999D-01 0.32175937D+00 0.18578231D+06 0.18578231D+06 0.18578231D+06 0.11002935D+01  1  2 15  2  7  2        3 0.501985591316D-06 0.100000000000D+01
  </mgrwgt>
  </event>
  <event>
  9     66 0.27784906E-05 0.48060675E+03 0.75467711E-02 0.94594711E-01
       -1 -1    0    0    0  502 0.00000000E+00 0.00000000E+00 0.38870652E+03 0.38870665E+03 0.32000000E+00 0.0000E+00 0.9000E+01
        1 -1    0    0  501    0 0.00000000E+00 0.00000000E+00 -.82536367E+03 0.82536373E+03 0.32000000E+00 0.0000E+00 0.9000E+01
       25  2    1    2    0    0 -.16964680E+03 -.42467751E+03 -.72089988E+02 0.55152729E+03 0.29975716E+03 0.0000E+00 0.0000E+00
       23  2    3    3    0    0 -.10234880E+03 -.27795927E+03 -.15700956E+03 0.34761101E+03 0.91895492E+02 0.0000E+00 0.0000E+00
       23  1    1    2    0    0 0.20914160E+03 0.41380064E+03 -.23715441E+03 0.52870468E+03 0.91188000E+02 0.0000E+00 0.9000E+01
      -11  1    4    4    0    0 -.33524311E+02 -.18591400E+03 -.13066827E+03 0.22970000E+03 0.51099893E-03 0.0000E+00 0.9000E+01
       11  1    4    4    0    0 -.68824492E+02 -.92045274E+02 -.26341286E+02 0.11791101E+03 0.51099893E-03 0.0000E+00 0.9000E+01
       23  1    3    3    0    0 -.67297997E+02 -.14671824E+03 0.84919569E+02 0.20391628E+03 0.91188000E+02 0.0000E+00 0.9000E+01
       21  1    1    2  501  502 -.39494800E+02 0.10876875E+02 -.12741276E+03 0.13383841E+03 0.75000000E+00 0.0000E+00 0.9000E+01
#aMCatNLO 2  0  0  1  2 0.40965176D+02 0.00000000D+00  -5  7  0 0.00000000D+00 0.00000000D+00 0.00000000D+00 0.00000000D+00 0.00000000D+00
  <mgrwgt>
 0.2527163460D-04    1    2    0
 0.517105131837377D+03 0.000000000000000D+00 0.000000000000000D+00 0.517105131837377D+03
 0.517105131837377D+03 0.000000000000000D+00 0.000000000000000D+00 -.517105131837377D+03
 0.477684180335805D+03 0.190844593668713D+03 0.418839637007517D+03 -.895467717895236D+02
 0.200174697463582D+03 -.411755398479011D+02 -.183806845889789D+03 -.677460539582770D+02
 0.116941784390447D+03 -.732551449362723D+02 -.908250715972903D+02 0.773763827886360D+01
 0.239409601484921D+03 -.764139088845400D+02 -.144207719520437D+03 0.149555187468937D+03
 0.000000000000000D+00 -.000000000000000D+00 0.000000000000000D+00 -.000000000000000D+00
 0.521822351222809D+03 0.000000000000000D+00 0.000000000000000D+00 0.521822351222809D+03
 0.614812042127454D+03 0.000000000000000D+00 0.000000000000000D+00 -.614812042127454D+03
 0.480941839223158D+03 0.209141600183376D+03 0.413800638117157D+03 -.895467717895236D+02
 0.200692354237726D+03 -.335243109986498D+02 -.185913995693248D+03 -.677460539582770D+02
 0.115191207475767D+03 -.688244923378813D+02 -.920452741210731D+02 0.773763827886360D+01
 0.238195862183496D+03 -.672979970462614D+02 -.146718243282938D+03 0.149555187468937D+03
 0.101613130230115D+03 -.394947998005834D+02 0.108768749801026D+02 -.929896909046447D+02
0.290917280930D-05 0.000000000000D+00 0.000000000000D+00 0.116308512933D-05 0.445859159828D-08  7 -1 1 23 -11 11 23 21 2 0.59800860D-01 0.12697871D+00 0.25136857D+06 0.25136857D+06 0.25136857D+06 0.10902808D+01  1  2  1  1  7  1       -1 0.252716345982D-04 0.100000000000D+01
  </mgrwgt>
  </event>
  <event>
  8     66 0.27784906E-05 0.19731004E+03 0.75467711E-02 0.99248322E-01
       -1 -1    0    0    0  501 0.00000000E+00 0.00000000E+00 0.14385902E+03 0.14385938E+03 0.32000000E+00 0.0000E+00 0.9000E+01
        1 -1    0    0  501    0 0.00000000E+00 0.00000000E+00 -.66640652E+03 0.66640660E+03 0.32000000E+00 0.0000E+00 0.9000E+01
       25  2    1    2    0    0 -.67663316E+02 0.14483170E+03 -.52641644E+03 0.62618782E+03 0.29906919E+03 0.0000E+00 0.0000E+00
       23  2    3    3    0    0 -.38551993E+02 0.59909416E+02 -.47446890E+03 0.48808257E+03 0.89601678E+02 0.0000E+00 0.0000E+00
       23  1    1    2    0    0 0.67663316E+02 -.14483170E+03 0.38689398E+01 0.18407815E+03 0.91188000E+02 0.0000E+00 0.9000E+01
      -13  1    4    4    0    0 -.12666665E+01 0.40620689E+02 -.40413536E+03 0.40617366E+03 0.10565837E+00 0.0000E+00 0.9000E+01
       13  1    4    4    0    0 -.37285326E+02 0.19288727E+02 -.70333547E+02 0.81908910E+02 0.10565837E+00 0.0000E+00 0.9000E+01
       23  1    3    3    0    0 -.29111324E+02 0.84922283E+02 -.51947535E+02 0.13810525E+03 0.91188000E+02 0.0000E+00 0.9000E+01
#aMCatNLO 1  0  0  2  1 0.21126321D+03 0.00000000D+00  -5  7  0 0.00000000D+00 0.00000000D+00 0.00000000D+00 0.00000000D+00 0.00000000D+00
  <mgrwgt>
 0.4290879783D-03    3    2    0
 0.309626816267455D+03 0.000000000000000D+00 0.000000000000000D+00 0.309626816267455D+03
 0.309626816267455D+03 0.000000000000000D+00 0.000000000000000D+00 -.309626816267455D+03
 0.244122858778974D+03 0.676633165114821D+02 -.144831699156235D+03 0.160393807089313D+03
 0.190437154757857D+03 -.126661672124391D+01 0.406207184417203D+02 -.186050162127390D+03
 0.478241214040033D+02 -.372853759036890D+02 0.192886974287466D+02 -.229105539716464D+02
 0.136869497594075D+03 -.291113238865492D+02 0.849222832857685D+02 0.485669090097234D+02
 0.000000000000000D+00 -.000000000000000D+00 -.000000000000000D+00 0.000000000000000D+00
 0.646674230235040D+03 0.000000000000000D+00 0.000000000000000D+00 0.646674230235040D+03
 0.362070236844421D+03 0.000000000000000D+00 0.000000000000000D+00 -.362070236844421D+03
 0.237428439046363D+03 0.122007800937536D+03 -.862840395541127D+02 0.160393807089313D+03
 0.211077522247875D+03 0.440454989555458D+02 0.894374171833658D+02 -.186050162127390D+03
 0.466999807510261D+02 -.266180521509579D+02 0.307810659098637D+02 -.229105539716464D+02
 0.159093075841312D+03 0.428892554770293D+01 0.120905814184170D+03 0.485669090097234D+02
 0.354445449192884D+03 -.143724173289826D+03 -.154840257723287D+03 0.284603993390619D+03
0.715887902172D-05 0.000000000000D+00 0.000000000000D+00 0.699707825864D-07 0.000000000000D+00  7 -1 1 23 -13 13 23 21 0 0.22132190D-01 0.10252411D+00 0.38931254D+05 0.38931254D+05 0.38931254D+05 0.11569786D+01  1  2  2  2  7  2        1 0.417258890243D-03 0.100000000000D+01
-.299536214304D-06 0.000000000000D+00 -.274919804195D-07 0.699707825864D-07 0.000000000000D+00  7 -1 1 23 -13 13 23 21 2 0.22132190D-01 0.10252411D+00 0.38931254D+05 0.38931254D+05 0.38931254D+05 0.11569786D+01  1  2  3  2  7  2        1 -.233700980069D-04 0.100000000000D+01
0.451150480848D-06 0.000000000000D+00 0.000000000000D+00 0.699707825864D-07 0.000000000000D+00  7 -1 1 23 -13 13 23 21 2 0.22132190D-01 0.10252411D+00 0.38931254D+05 0.38931254D+05 0.38931254D+05 0.11569786D+01  1  2 15  2  7  2        1 0.351991861076D-04 0.100000000000D+01
  </mgrwgt>
  </event>
  <event>
  9     66 0.27784906E-05 0.24966365E+03 0.75467711E-02 0.99127945E-01
       -1 -1    0    0    0  501 0.00000000E+00 0.00000000E+00 0.30818058E+03 0.30818075E+03 0.32000000E+00 0.0000E+00 0.9000E+01
       21 -1    0    0  501  502 0.00000000E+00 0.00000000E+00 -.43295573E+03 0.43295638E+03 0.75000000E+00 0.0000E+00 0.9000E+01
       25  2    1    2    0    0 -.94162800E+02 -.24822108E+03 -.35660483E+01 0.40099458E+03 0.30050558E+03 0.0000E+00 0.0000E+00
       23  2    3    3    0    0 0.36771510E+02 -.34227872E+02 0.66820671E+02 0.12493947E+03 0.92850294E+02 0.0000E+00 0.0000E+00
       23  1    1    2    0    0 0.84482176E+02 0.84969361E+02 -.84019759E+02 0.17242854E+03 0.91188000E+02 0.0000E+00 0.9000E+01
      -11  1    4    4    0    0 -.22326080E+02 -.38482359E+02 0.17355924E+02 0.47755355E+02 0.51099893E-03 0.0000E+00 0.9000E+01
       11  1    4    4    0    0 0.59097591E+02 0.42544874E+01 0.49464747E+02 0.77184112E+02 0.51099893E-03 0.0000E+00 0.9000E+01
       23  1    3    3    0    0 -.13093431E+03 -.21399321E+03 -.70386720E+02 0.27605512E+03 0.91188000E+02 0.0000E+00 0.9000E+01
       -1  1    1    2    0  502 0.96806240E+01 0.16325172E+03 -.37189347E+02 0.16771400E+03 0.32000000E+00 0.0000E+00 0.9000E+01
#aMCatNLO 2  0  0  2  1 0.16353849D+03 0.00000000D+00  -5  7  0 0.00000000D+00 0.00000000D+00 0.00000000D+00 0.00000000D+00 0.00000000D+00
  <mgrwgt>
 0.1950111925D-04    1    2    0
 0.271292263346574D+03 0.000000000000000D+00 0.000000000000000D+00 0.271292263346574D+03
 0.271292263346574D+03 0.000000000000000D+00 0.000000000000000D+00 -.271292263346574D+03
 0.195738734263175D+03 0.875996942992366D+02 0.137542440281602D+03 -.583675545745409D+02
 0.412944248905229D+02 -.215205894707963D+02 -.248987539275978D+02 0.249428508539305D+02
 0.918902323670868D+02 0.606478096349468D+02 0.303970073004915D+02 0.619812869996608D+02
 0.213661135172364D+03 -.126726914463387D+03 -.143040693654496D+03 -.285565832790505D+02
 0.000000000000000D+00 0.000000000000000D+00 0.000000000000000D+00 -.000000000000000D+00
 0.359471021107063D+03 0.000000000000000D+00 0.000000000000000D+00 0.359471021107063D+03
 0.371180788034905D+03 0.000000000000000D+00 0.000000000000000D+00 -.371180788034905D+03
 0.161490102541612D+03 0.844821760117342D+02 0.849693614440566D+02 -.583675545745409D+02
 0.510048197072746D+02 -.223260803867313D+02 -.384823590651013D+02 0.249428508539305D+02
 0.857455877818963D+02 0.590975906694702D+02 0.425448739477659D+01 0.619812869996608D+02
 0.268454121944630D+03 -.130934310328149D+03 -.213993205909396D+03 -.285565832790505D+02
 0.163957177166555D+03 0.968062403367579D+01 0.163251716135664D+03 -.117097669278423D+02
0.155491225340D-06 0.000000000000D+00 0.000000000000D+00 0.865974514473D-07 0.141943650268D-11  7 -1 21 23 -11 11 23 -1 2 0.47412439D-01 0.66608609D-01 0.11723194D+06 0.11723194D+06 0.11723194D+06 0.11160997D+01  1  2  1  4  7  2        1 0.195011192534D-04 0.100000000000D+01
  </mgrwgt>
  </event>
  <event>
  9     66 0.27784906E-05 0.24491991E+03 0.75467711E-02 0.98850358E-01
       -1 -1    0    0    0  501 0.00000000E+00 0.00000000E+00 0.30451585E+03 0.30451602E+03 0.32000000E+00 0.0000E+00 0.9000E+01
        1 -1    0    0  502    0 0.00000000E+00 0.00000000E+00 -.15028689E+04 0.15028689E+04 0.32000000E+00 0.0000E+00 0.9000E+01
       25  2    1    2    0    0 -.25261671E+03 0.36903302E+02 0.62297518E+02 0.39864032E+03 0.29976001E+03 0.0000E+00 0.0000E+00
       23  2    3    3    0    0 -.17757951E+03 0.27856339E+02 -.81672684E+02 0.21221312E+03 0.77804386E+02 0.0000E+00 0.0000E+00
       23  1    1    2    0    0 0.92700806E+02 -.14438408E+03 -.11864737E+04 0.12022792E+04 0.91188000E+02 0.0000E+00 0.9000E+01
      -11  1    4    4    0    0 -.10913813E+03 -.20464821E+02 -.57336985E+02 0.12496988E+03 0.51099893E-03 0.0000E+00 0.9000E+01
       11  1    4    4    0    0 -.68441383E+02 0.48321160E+02 -.24335698E+02 0.87243244E+02 0.51099893E-03 0.0000E+00 0.9000E+01
       23  1    3    3    0    0 -.75037194E+02 0.90469625E+01 0.14397020E+03 0.18642719E+03 0.91188000E+02 0.0000E+00 0.9000E+01
       21  1    1    2  502  501 0.15991590E+03 0.10748078E+03 -.74176908E+02 0.20646547E+03 0.75000000E+00 0.0000E+00 0.9000E+01
#aMCatNLO 2  0  0  2  2 0.19267905D+03 0.00000000D+00  -5  7  0 0.00000000D+00 0.00000000D+00 0.00000000D+00 0.00000000D+00 0.00000000D+00
  <mgrwgt>
 0.6217700021D-03    1    2    0
 0.561704098443963D+03 0.000000000000000D+00 0.000000000000000D+00 0.561704098443963D+03
 0.561704098443963D+03 0.000000000000000D+00 0.000000000000000D+00 -.561704098443963D+03
 0.525412386151046D+03 0.166459331202310D+03 -.948103778958725D+02 -.480671621250784D+03
 0.103219243485205D+03 -.934381587274021D+02 -.991274129536237D+01 0.427230649567886D+02
 0.948546826148550D+02 -.547767172689173D+02 0.575052934380886D+02 0.518658200147776D+02
 0.399921884636820D+03 -.182444552059909D+02 0.472178257531463D+02 0.386082736279218D+03
 0.000000000000000D+00 0.000000000000000D+00 0.000000000000000D+00 0.000000000000000D+00
 0.728044916224761D+03 0.000000000000000D+00 0.000000000000000D+00 0.728044916224761D+03
 0.628596765348344D+03 0.000000000000000D+00 0.000000000000000D+00 -.628596765348344D+03
 0.518459894421029D+03 0.927008055103567D+02 -.144384084860272D+03 -.480671621250784D+03
 0.118975631687783D+03 -.109138131524923D+03 -.204648211195153D+02 0.427230649567886D+02
 0.985353779316616D+02 -.684413829707133D+02 0.483211601204507D+02 0.518658200147776D+02
 0.403841006617341D+03 -.750371940957710D+02 0.904696253407884D+01 0.386082736279218D+03
 0.216829770915291D+03 0.159915903081050D+03 0.107480783325258D+03 0.994481508764172D+02
0.132189192286D-03 0.000000000000D+00 0.000000000000D+00 0.208992126135D-07 0.381704536517D-11  7 -1 1 23 -11 11 23 21 2 0.46848562D-01 0.23121039D+00 0.12258607D+06 0.12258607D+06 0.12258607D+06 0.11145359D+01  1  2  1  2  7  2        1 0.621770002122D-03 0.100000000000D+01
  </mgrwgt>
  </event>
  <event>
  8     66 0.27784906E-05 0.17557561E+03 0.75467711E-02 0.99257658E-01
       -3 -1    0    0    0  501 0.00000000E+00 0.00000000E+00 0.10105508E+03 0.10105632E+03 0.50000000E+00 0.0000E+00 0.9000E+01
        3 -1    0    0  501    0 0.00000000E+00 0.00000000E+00 -.10983197E+04 0.10983198E+04 0.50000000E+00 0.0000E+00 0.9000E+01
       25  2    1    2    0    0 -.77798242E+02 -.23354575E+03 -.71756680E+03 0.81578479E+03 0.30001086E+03 0.0000E+00 0.0000E+00
       23  2    3    3    0    0 -.54585937E+02 -.17109459E+03 -.65761383E+03 0.68792326E+03 0.92355218E+02 0.0000E+00 0.0000E+00
       23  1    1    2    0    0 0.77798242E+02 0.23354575E+03 -.27969777E+03 0.38359129E+03 0.91188000E+02 0.0000E+00 0.9000E+01
      -11  1    4    4    0    0 -.16210003E+02 0.83937746E+01 -.67426606E+02 0.69853896E+02 0.51099893E-03 0.0000E+00 0.9000E+01
       11  1    4    4    0    0 -.38375934E+02 -.17948836E+03 -.59018722E+03 0.61806937E+03 0.51099893E-03 0.0000E+00 0.9000E+01
       23  1    3    3    0    0 -.23212305E+02 -.62451166E+02 -.59952975E+02 0.12786153E+03 0.91188000E+02 0.0000E+00 0.9000E+01
#aMCatNLO 1  0  0  2  1 0.99581310D+02 0.00000000D+00  -5  7  0 0.00000000D+00 0.00000000D+00 0.00000000D+00 0.00000000D+00 0.00000000D+00
  <mgrwgt>
 0.2243422142D-04    7    2    0
 0.333154002132245D+03 0.000000000000000D+00 0.000000000000000D+00 0.333154002132245D+03
 0.333154002132245D+03 0.000000000000000D+00 0.000000000000000D+00 -.333154002132245D+03
 0.271852571744044D+03 0.777982419694794D+02 0.233545754730100D+03 0.706568001954299D+02
 0.248217446886741D+02 -.162100033338340D+02 0.839377456253312D+01 -.168196120615246D+02
 0.229210524504393D+03 -.383759337918599D+02 -.179488363307209D+03 -.137290493795022D+03
 0.140423163327379D+03 -.232123048437856D+02 -.624511659854242D+02 0.834533056611170D+02
 0.000000000000000D+00 -.000000000000000D+00 -.000000000000000D+00 -.000000000000000D+00
 0.344042128664511D+03 0.000000000000000D+00 0.000000000000000D+00 0.344042128664511D+03
 0.681749287765092D+03 0.000000000000000D+00 0.000000000000000D+00 -.681749287765092D+03
 0.306426566575676D+03 0.110409447793002D+03 0.261532712645177D+03 0.706568001954299D+02
 0.240759698719160D+02 -.134524882720445D+02 0.107602757708027D+02 -.168196120615246D+02
 0.209934004123252D+03 -.136110206895787D+02 -.158235098876730D+03 -.137290493795022D+03
 0.133271700267534D+03 -.777768350249165D+01 -.492051639745948D+02 0.834533056611170D+02
 0.352083175591224D+03 -.755682553288870D+02 -.648527255646551D+02 -.337707159100580D+03
0.698753507192D-05 0.000000000000D+00 0.000000000000D+00 0.395926776481D-06 0.000000000000D+00  7 -3 3 23 -11 11 23 21 0 0.15547039D-01 0.16897236D+00 0.83302594D+05 0.83302594D+05 0.83302594D+05 0.11282917D+01  1  2  2  2  7  2        3 0.224931155333D-04 0.100000000000D+01
-.378478763489D-06 0.000000000000D+00 -.268339745364D-07 0.395926776481D-06 0.000000000000D+00  7 -3 3 23 -11 11 23 21 2 0.15547039D-01 0.16897236D+00 0.83302594D+05 0.83302594D+05 0.83302594D+05 0.11282917D+01  1  2  3  2  7  2        3 -.155099318417D-05 0.100000000000D+01
0.445143243358D-06 0.000000000000D+00 0.000000000000D+00 0.395926776481D-06 0.000000000000D+00  7 -3 3 23 -11 11 23 21 2 0.15547039D-01 0.16897236D+00 0.83302594D+05 0.83302594D+05 0.83302594D+05 0.11282917D+01  1  2 15  2  7  2        3 0.182418197012D-05 0.100000000000D+01
0.224808721082D-04 0.000000000000D+00 0.000000000000D+00 0.395926776481D-06 0.000000000000D+00  7 -3 3 23 -11 11 23 21 2 0.15547039D-01 0.34566860D+00 0.11482085D+06 0.11482085D+06 0.11482085D+06 0.11168297D+01  1  2 12  2  7  2        3 0.267739792758D-05 0.100000000000D+01
-.243317124591D-04 0.000000000000D+00 -.202510105557D-05 0.395926776481D-06 0.000000000000D+00  7 -3 3 23 -11 11 23 21 2 0.15547039D-01 0.34846280D+00 0.83302594D+05 0.83302594D+05 0.83302594D+05 0.11282917D+01  1  2  5  2  7  2        3 -.284604868202D-05 0.100000000000D+01
0.173997884173D-05 0.000000000000D+00 0.000000000000D+00 0.395926776481D-06 0.000000000000D+00  7 -3 21 23 -11 11 23 -3 2 0.15547039D-01 0.34566860D+00 0.11482085D+06 0.11482085D+06 0.11482085D+06 0.11168297D+01  1  2 12  4  7  2        3 0.545651663193D-05 0.100000000000D+01
-.178015938721D-05 0.000000000000D+00 -.158494324177D-06 0.395926776481D-06 0.000000000000D+00  7 -3 21 23 -11 11 23 -3 2 0.15547039D-01 0.34846280D+00 0.83302594D+05 0.83302594D+05 0.83302594D+05 0.11282917D+01  1  2  5  4  7  2        3 -.561994877864D-05 0.100000000000D+01
  </mgrwgt>
  </event>
  <event>
  8     66 0.27784906E-05 0.24889499E+03 0.75467711E-02 0.97026856E-01
       -3 -1    0    0    0  501 0.00000000E+00 0.00000000E+00 0.10644062E+03 0.10644179E+03 0.50000000E+00 0.0000E+00 0.9000E+01
        3 -1    0    0  501    0 0.00000000E+00 0.00000000E+00 -.70963795E+03 0.70963813E+03 0.50000000E+00 0.0000E+00 0.9000E+01
       25  2    1    2    0    0 0.16256735E+03 0.72072643E+00 -.27405727E+03 0.43782459E+03 0.30025709E+03 0.0000E+00 0.0000E+00
       23  2    3    3    0    0 0.16714984E+03 -.72433211E+02 -.24283875E+03 0.31673642E+03 0.90364042E+02 0.0000E+00 0.0000E+00
       23  1    1    2    0    0 -.16256735E+03 -.72072643E+00 -.32914006E+03 0.37825533E+03 0.91188000E+02 0.0000E+00 0.9000E+01
      -11  1    4    4    0    0 0.95387227E+02 -.76859120E+02 -.19531247E+03 0.23054936E+03 0.51099893E-03 0.0000E+00 0.9000E+01
       11  1    4    4    0    0 0.71762613E+02 0.44259097E+01 -.47526285E+02 0.86187058E+02 0.51099893E-03 0.0000E+00 0.9000E+01
       23  1    3    3    0    0 -.45824875E+01 0.73153937E+02 -.31218522E+02 0.12108817E+03 0.91188000E+02 0.0000E+00 0.9000E+01
#aMCatNLO 1  0  0  1  1 0.25927340D+03 0.00000000D+00  -5  7  0 0.00000000D+00 0.00000000D+00 0.00000000D+00 0.00000000D+00 0.00000000D+00
  <mgrwgt>
 0.2782058732D-04    5    2    0
 0.274836045786777D+03 0.000000000000000D+00 0.000000000000000D+00 0.274836045786777D+03
 0.274836045786777D+03 0.000000000000000D+00 0.000000000000000D+00 -.274836045786777D+03
 0.200392511581917D+03 -.162567351883739D+03 -.720726427793513D+00 -.735747511652846D+02
 0.127957638572596D+03 0.953872266589731D+02 -.768591203098529D+02 -.369744490774435D+02
 0.758048292740726D+02 0.717626127177510D+02 0.442590970266812D+01 0.240189691805706D+02
 0.145517112144968D+03 -.458248749298482D+01 0.731539370349783D+02 0.865302310621574D+02
 0.000000000000000D+00 0.000000000000000D+00 0.000000000000000D+00 0.000000000000000D+00
 0.471914175646176D+03 0.000000000000000D+00 0.000000000000000D+00 0.471914175646176D+03
 0.403886790377446D+03 0.000000000000000D+00 0.000000000000000D+00 -.403886790377446D+03
 0.239068550502165D+03 -.184611263976837D+03 -.966641489852737D+02 -.735747511652846D+02
 0.166735751000194D+03 0.806050406255798D+02 -.141196771219341D+03 -.369744490774435D+02
 0.742001489028807D+02 0.642381769081750D+02 -.283232738966820D+02 0.240189691805706D+02
 0.127747228626103D+03 -.182897658524568D+02 0.134946898831251D+02 0.865302310621574D+02
 0.268049286992279D+03 0.580578122955388D+02 0.252689504218171D+03 0.680273852687302D+02
0.268771296065D-05 0.000000000000D+00 0.000000000000D+00 0.220095064421D-06 0.000000000000D+00  7 -3 3 23 -11 11 23 21 0 0.16375583D-01 0.10917517D+00 0.61948718D+05 0.61948718D+05 0.61948718D+05 0.11391985D+01  1  2  2  1  7  1       -3 0.262093106313D-04 0.100000000000D+01
-.147532866503D-06 0.000000000000D+00 -.103215254600D-07 0.220095064421D-06 0.000000000000D+00  7 -3 3 23 -11 11 23 21 2 0.16375583D-01 0.10917517D+00 0.61948718D+05 0.61948718D+05 0.61948718D+05 0.11391985D+01  1  2  3  1  7  1       -3 -.186706883474D-05 0.100000000000D+01
0.172586956269D-06 0.000000000000D+00 0.000000000000D+00 0.220095064421D-06 0.000000000000D+00  7 -3 3 23 -11 11 23 21 2 0.16375583D-01 0.10917517D+00 0.61948718D+05 0.61948718D+05 0.61948718D+05 0.11391985D+01  1  2 15  1  7  1       -3 0.218413520303D-05 0.100000000000D+01
-.108489386279D-06 0.000000000000D+00 -.828024654574D-06 0.220095064421D-06 0.000000000000D+00  7 -3 3 23 -11 11 23 21 2 0.40817265D-01 0.10917517D+00 0.61948718D+05 0.61948718D+05 0.61948718D+05 0.11391985D+01  1  2  5  1  7  1       -3 -.257556980411D-06 0.100000000000D+01
0.403508128700D-07 0.000000000000D+00 -.832057390465D-07 0.220095064421D-06 0.000000000000D+00  7 21 3 23 -11 11 23 3 2 0.40817265D-01 0.10917517D+00 0.61948718D+05 0.61948718D+05 0.61948718D+05 0.11391985D+01  1  2  5  3  7  1       -3 0.155176729921D-05 0.100000000000D+01
  </mgrwgt>
  </event>
  <event>
  8     66 0.27784906E-05 0.30870401E+03 0.75467711E-02 0.97983276E-01
       -1 -1    0    0    0  501 0.00000000E+00 0.00000000E+00 0.93650423E+02 0.93650970E+02 0.32000000E+00 0.0000E+00 0.9000E+01
        1 -1    0    0  501    0 0.00000000E+00 0.00000000E+00 -.11970845E+04 0.11970845E+04 0.32000000E+00 0.0000E+00 0.9000E+01
       25  2    1    2    0    0 0.22579141E+03 -.65287931E+02 -.44378554E+03 0.58455159E+03 0.29918337E+03 0.0000E+00 0.0000E+00
       23  2    3    3    0    0 0.14711796E+03 -.15300002E+03 -.27001292E+03 0.35565185E+03 0.92350192E+02 0.0000E+00 0.0000E+00
       23  1    1    2    0    0 -.22579141E+03 0.65287931E+02 -.65964849E+03 0.70618387E+03 0.91188000E+02 0.0000E+00 0.9000E+01
      -11  1    4    4    0    0 0.12103021E+03 -.14530570E+03 -.26849899E+03 0.32841097E+03 0.51099893E-03 0.0000E+00 0.9000E+01
       11  1    4    4    0    0 0.26087753E+02 -.76943154E+01 -.15139334E+01 0.27240876E+02 0.51099893E-03 0.0000E+00 0.9000E+01
       23  1    3    3    0    0 0.78673448E+02 0.87712087E+02 -.17377261E+03 0.22889975E+03 0.91188000E+02 0.0000E+00 0.9000E+01
#aMCatNLO 1  0  0  1  1 0.12293709D+03 0.00000000D+00  -5  7  0 0.00000000D+00 0.00000000D+00 0.00000000D+00 0.00000000D+00 0.00000000D+00
  <mgrwgt>
 0.4445259418D-03    3    2    0
 0.334825097997929D+03 0.000000000000000D+00 0.000000000000000D+00 0.334825097997929D+03
 0.334825097997929D+03 0.000000000000000D+00 0.000000000000000D+00 -.334825097997929D+03
 0.274199835231694D+03 -.225791409487470D+03 0.652879308592747D+02 -.107824040839065D+03
 0.190578255027887D+03 0.121030208860558D+03 -.145305702448037D+03 0.236222917754892D+02
 0.500115424991444D+02 0.260877527998753D+02 -.769431539047197D+01 0.419688104152152D+02
 0.154860563237134D+03 0.786734478270359D+02 0.877120869792347D+02 0.422329386483603D+02
 0.000000000000000D+00 0.000000000000000D+00 0.000000000000000D+00 -.000000000000000D+00
 0.346789532288669D+03 0.000000000000000D+00 0.000000000000000D+00 0.346789532288669D+03
 0.933678572016512D+03 0.000000000000000D+00 0.000000000000000D+00 -.933678572016512D+03
 0.296720500723080D+03 -.259676562447346D+03 0.258817182200273D+02 -.107824040839065D+03
 0.199502675767137D+03 0.978782011735047D+02 -.172229970401670D+03 0.236222917754892D+02
 0.487957776652824D+02 0.202233599126823D+02 -.145142200663181D+02 0.419688104152152D+02
 0.135822372670696D+03 0.614208906386667D+02 0.676484934065369D+02 0.422329386483603D+02
 0.599626777478985D+03 0.801541107224920D+02 0.932139788414239D+02 -.586889039727842D+03
0.101622830646D-04 0.000000000000D+00 0.000000000000D+00 0.130088538065D-06 0.000000000000D+00  7 -1 1 23 -11 11 23 21 0 0.14407803D-01 0.18416688D+00 0.95298167D+05 0.95298167D+05 0.95298167D+05 0.11234424D+01  1  2  2  1  7  1       -1 0.439394151702D-03 0.100000000000D+01
-.560042475377D-06 0.000000000000D+00 -.390258427585D-07 0.130088538065D-06 0.000000000000D+00  7 -1 1 23 -11 11 23 21 2 0.14407803D-01 0.18416688D+00 0.95298167D+05 0.95298167D+05 0.95298167D+05 0.11234424D+01  1  2  3  1  7  1       -1 -.305622701679D-04 0.100000000000D+01
0.654080660424D-06 0.000000000000D+00 0.000000000000D+00 0.130088538065D-06 0.000000000000D+00  7 -1 1 23 -11 11 23 21 2 0.14407803D-01 0.18416688D+00 0.95298167D+05 0.95298167D+05 0.95298167D+05 0.11234424D+01  1  2 15  1  7  1       -1 0.356940602443D-04 0.100000000000D+01
  </mgrwgt>
  </event>
  <event>
  8     66 0.27784906E-05 0.37730089E+03 0.75467711E-02 0.88626366E-01
       -3 -1    0    0    0  501 0.00000000E+00 0.00000000E+00 0.53837080E+03 0.53837103E+03 0.50000000E+00 0.0000E+00 0.9000E+01
        3 -1    0    0  501    0 0.00000000E+00 0.00000000E+00 -.28322760E+03 0.28322804E+03 0.50000000E+00 0.0000E+00 0.9000E+01
       25  2    1    2    0    0 -.28854819E+03 -.12700588E+03 0.60804484E+02 0.44018940E+03 0.30112949E+03 0.0000E+00 0.0000E+00
       23  2    3    3    0    0 -.93825451E+02 -.17141785E+03 0.16789364E+02 0.21626542E+03 0.91112869E+02 0.0000E+00 0.0000E+00
       23  1    1    2    0    0 0.28854819E+03 0.12700588E+03 0.19433872E+03 0.38140967E+03 0.91188000E+02 0.0000E+00 0.9000E+01
      -13  1    4    4    0    0 -.10427982E+03 -.14636243E+03 0.35642664E+02 0.18321204E+03 0.10565837E+00 0.0000E+00 0.9000E+01
       13  1    4    4    0    0 0.10454366E+02 -.25055413E+02 -.18853300E+02 0.33053374E+02 0.10565837E+00 0.0000E+00 0.9000E+01
       23  1    3    3    0    0 -.19472273E+03 0.44411970E+02 0.44015119E+02 0.22392398E+03 0.91188000E+02 0.0000E+00 0.9000E+01
#aMCatNLO 1  0  0  1  1 0.71681672D+03 0.00000000D+00  -5  7  0 0.00000000D+00 0.00000000D+00 0.00000000D+00 0.00000000D+00 0.00000000D+00
  <mgrwgt>
 0.6161326790D-04    3    2    0
 0.390489107522062D+03 0.000000000000000D+00 0.000000000000000D+00 0.390489107522062D+03
 0.390489107522062D+03 0.000000000000000D+00 0.000000000000000D+00 -.390489107522062D+03
 0.337757982751882D+03 0.288548185830463D+03 0.127005876209843D+03 0.798414393077868D+02
 0.181097250181818D+03 -.104279971480543D+03 -.146362595950701D+03 -.223582664355998D+02
 0.409316988902751D+02 0.104545200374221D+02 -.250552491865898D+02 -.306323598997724D+02
 0.221191283220148D+03 -.194722734387343D+03 0.444119689274477D+02 -.268508129724146D+02
 0.000000000000000D+00 -.000000000000000D+00 0.000000000000000D+00 -.000000000000000D+00
 0.619228574057735D+03 0.000000000000000D+00 0.000000000000000D+00 0.619228574057735D+03
 0.197025393557226D+04 0.000000000000000D+00 0.000000000000000D+00 -.197025393557226D+04
 0.715115716772048D+03 0.697609726565711D+03 0.100206042734825D+03 0.798414393077868D+02
 0.159089336416118D+03 0.278890145185744D+02 -.155021700908286D+03 -.223582664355998D+02
 0.666377645995623D+02 0.522473110351583D+02 -.277933209133583D+02 -.306323598997724D+02
 0.119229434521513D+03 -.624627839672987D+02 0.357469043987700D+02 -.268508129724146D+02
 0.152941025732075D+04 -.715283268152145D+03 0.468620746880495D+02 -.135102536151452D+04
0.211350537478D-04 0.000000000000D+00 0.000000000000D+00 0.162086160986D-06 0.000000000000D+00  7 -3 3 23 -13 13 23 21 0 0.82826328D-01 0.43573528D-01 0.14235596D+06 0.14235596D+06 0.14235596D+06 0.11093490D+01  1  2  2  1  7  1       -3 0.609124832466D-04 0.100000000000D+01
-.117248447830D-05 0.000000000000D+00 -.811641713790D-07 0.162086160986D-06 0.000000000000D+00  7 -3 3 23 -13 13 23 21 2 0.82826328D-01 0.43573528D-01 0.14235596D+06 0.14235596D+06 0.14235596D+06 0.11093490D+01  1  2  3  1  7  1       -3 -.415859287615D-05 0.100000000000D+01
0.137006552418D-05 0.000000000000D+00 0.000000000000D+00 0.162086160986D-06 0.000000000000D+00  7 -3 3 23 -13 13 23 21 2 0.82826328D-01 0.43573528D-01 0.14235596D+06 0.14235596D+06 0.14235596D+06 0.11093490D+01  1  2 15  1  7  1       -3 0.485937753050D-05 0.100000000000D+01
  </mgrwgt>
  </event>
  <event>
  8     66 0.27784906E-05 0.11080637E+03 0.75467711E-02 0.98072590E-01
       -1 -1    0    0    0  501 0.00000000E+00 0.00000000E+00 0.12049986E+03 0.12050029E+03 0.32000000E+00 0.0000E+00 0.9000E+01
        1 -1    0    0  501    0 0.00000000E+00 0.00000000E+00 -.10725092E+04 0.10725092E+04 0.32000000E+00 0.0000E+00 0.9000E+01
       25  2    1    2    0    0 -.28205748E+03 0.53633709E+02 -.59587366E+03 0.72655388E+03 0.30063620E+03 0.0000E+00 0.0000E+00
       23  2    3    3    0    0 -.17480789E+03 0.13592300E+03 -.44029489E+03 0.50117863E+03 0.91036052E+02 0.0000E+00 0.0000E+00
       23  1    1    2    0    0 0.28205748E+03 -.53633709E+02 -.35613562E+03 0.46645561E+03 0.91188000E+02 0.0000E+00 0.9000E+01
      -11  1    4    4    0    0 -.15755793E+02 -.13809226E+02 -.36603110E+02 0.42174961E+02 0.51099893E-03 0.0000E+00 0.9000E+01
       11  1    4    4    0    0 -.15905210E+03 0.14973222E+03 -.40369178E+03 0.45900366E+03 0.51099893E-03 0.0000E+00 0.9000E+01
       23  1    3    3    0    0 -.10724959E+03 -.82289289E+02 -.15557877E+03 0.22537526E+03 0.91188000E+02 0.0000E+00 0.9000E+01
#aMCatNLO 1  0  0  2  1 0.40835607D+02 0.00000000D+00  -5  7  0 0.00000000D+00 0.00000000D+00 0.00000000D+00 0.00000000D+00 0.00000000D+00
  <mgrwgt>
 0.7132851192D-03    9    2    0
 0.359496160998279D+03 0.000000000000000D+00 0.000000000000000D+00 0.359496160998279D+03
 0.359496160998279D+03 0.000000000000000D+00 0.000000000000000D+00 -.359496160998279D+03
 0.302425402641750D+03 0.282057482307382D+03 -.536337090146200D+02 0.266997144325614D+02
 0.215143169005961D+02 -.157557926048821D+02 -.138092258690932D+02 -.489143250874279D+01
 0.227091996573320D+03 -.159052100265294D+03 0.149732223488254D+03 -.620762882115148D+02
 0.167960605880893D+03 -.107249589437206D+03 -.822892886045411D+02 0.402680062876962D+02
 0.000000000000000D+00 0.000000000000000D+00 -.000000000000000D+00 -.000000000000000D+00
 0.378036217978659D+03 0.000000000000000D+00 0.000000000000000D+00 0.378036217978659D+03
 0.383286560323365D+03 0.000000000000000D+00 0.000000000000000D+00 -.383286560323365D+03
 0.296409073191528D+03 0.278310550371984D+03 -.370600880614599D+02 0.266997144325614D+02
 0.209813199126080D+02 -.160216895515616D+02 -.126330968966836D+02 -.489143250874279D+01
 0.237744762073888D+03 -.161960602975160D+03 0.162597261414126D+03 -.620762882115148D+02
 0.165015874719162D+03 -.109333036966109D+03 -.730736769480755D+02 0.402680062876962D+02
 0.411717484048379D+02 0.900477912084549D+01 -.398303995079066D+02 -.525034234470586D+01
0.848299074526D-05 0.000000000000D+00 0.000000000000D+00 0.415471407752D-06 0.000000000000D+00  7 -1 1 23 -11 11 23 21 0 0.18538477D-01 0.16500144D+00 0.12379857D+06 0.12379857D+06 0.12379857D+06 0.11141921D+01  1  2  2  2  7  2        1 0.300875003106D-03 0.100000000000D+01
-.471012442850D-06 0.000000000000D+00 -.325769180846D-07 0.415471407752D-06 0.000000000000D+00  7 -1 1 23 -11 11 23 21 2 0.18538477D-01 0.16500144D+00 0.12379857D+06 0.12379857D+06 0.12379857D+06 0.11141921D+01  1  2  3  2  7  2        1 -.207390889569D-04 0.100000000000D+01
0.539204737428D-06 0.000000000000D+00 0.000000000000D+00 0.415471407752D-06 0.000000000000D+00  7 -1 1 23 -11 11 23 21 2 0.18538477D-01 0.16500144D+00 0.12379857D+06 0.12379857D+06 0.12379857D+06 0.11141921D+01  1  2 15  2  7  2        1 0.237416552052D-04 0.100000000000D+01
0.151575688595D-04 0.000000000000D+00 0.000000000000D+00 0.415471407752D-06 0.000000000000D+00  7 -1 1 23 -11 11 23 21 2 0.18538477D-01 0.17992750D+00 0.13911694D+06 0.13911694D+06 0.13911694D+06 0.11101426D+01  1  2 12  2  7  2        1 0.562833020558D-03 0.100000000000D+01
-.128052727228D-04 0.000000000000D+00 0.000000000000D+00 0.415471407752D-06 0.000000000000D+00  7 -1 1 23 -11 11 23 21 2 0.18538477D-01 0.16500144D+00 0.12379857D+06 0.12379857D+06 0.12379857D+06 0.11141921D+01  1  2  4  2  7  2        1 -.563827334388D-03 0.100000000000D+01
-.541497195356D-04 0.000000000000D+00 -.107451877870D-04 0.415471407752D-06 0.000000000000D+00  7 -1 1 23 -11 11 23 21 2 0.18538477D-01 0.18200572D+00 0.12379857D+06 0.12379857D+06 0.12379857D+06 0.11141921D+01  1  2  5  2  7  2        1 -.198610695556D-02 0.100000000000D+01
0.549904014572D-04 0.000000000000D+00 0.106937073928D-04 0.415471407752D-06 0.000000000000D+00  7 -1 1 23 -11 11 23 21 2 0.18538477D-01 0.16500144D+00 0.12379857D+06 0.12379857D+06 0.12379857D+06 0.11141921D+01  1  2  6  2  7  2        1 0.242127537162D-02 0.100000000000D+01
0.217160754230D-06 0.000000000000D+00 0.000000000000D+00 0.415471407752D-06 0.000000000000D+00  7 -1 21 23 -11 11 23 -1 2 0.18538477D-01 0.17992750D+00 0.13911694D+06 0.13911694D+06 0.13911694D+06 0.11101426D+01  1  2 12  4  7  2        1 0.903500822730D-05 0.100000000000D+01
-.830738701093D-06 0.000000000000D+00 -.171630105139D-06 0.415471407752D-06 0.000000000000D+00  7 -1 21 23 -11 11 23 -1 2 0.18538477D-01 0.18200572D+00 0.12379857D+06 0.12379857D+06 0.12379857D+06 0.11141921D+01  1  2  5  4  7  2        1 -.338015606069D-04 0.100000000000D+01
  </mgrwgt>
  </event>
  <event>
  8     66 0.27784906E-05 0.35561455E+03 0.75467711E-02 0.88959041E-01
       -1 -1    0    0    0  501 0.00000000E+00 0.00000000E+00 0.80514305E+02 0.80514941E+02 0.32000000E+00 0.0000E+00 0.9000E+01
        1 -1    0    0  501    0 0.00000000E+00 0.00000000E+00 -.17484927E+04 0.17484928E+04 0.32000000E+00 0.0000E+00 0.9000E+01
       25  2    1    2    0    0 0.29826811E+03 0.38852943E+02 -.11101350E+04 0.11887125E+04 0.30027365E+03 0.0000E+00 0.0000E+00
       23  2    3    3    0    0 0.22682609E+03 0.10163356E+03 -.91953393E+03 0.95700279E+03 0.92370078E+02 0.0000E+00 0.0000E+00
       23  1    1    2    0    0 -.29826811E+03 -.38852943E+02 -.55784348E+03 0.64029525E+03 0.91188000E+02 0.0000E+00 0.9000E+01
      -11  1    4    4    0    0 0.91923133E+02 0.91784183E+02 -.44933386E+03 0.46773403E+03 0.51099893E-03 0.0000E+00 0.9000E+01
       11  1    4    4    0    0 0.13490296E+03 0.98493760E+01 -.47020007E+03 0.48926876E+03 0.51099893E-03 0.0000E+00 0.9000E+01
       23  1    3    3    0    0 0.71442019E+02 -.62780616E+02 -.19060102E+03 0.23170967E+03 0.91188000E+02 0.0000E+00 0.9000E+01
#aMCatNLO 1  0  0  2  1 0.70376607D+03 0.00000000D+00  -5  7  0 0.00000000D+00 0.00000000D+00 0.00000000D+00 0.00000000D+00 0.00000000D+00
  <mgrwgt>
 0.2937449181D-03    5    2    0
 0.375205657794877D+03 0.000000000000000D+00 0.000000000000000D+00 0.375205657794877D+03
 0.375205657794877D+03 0.000000000000000D+00 0.000000000000000D+00 -.375205657794877D+03
 0.320669556799404D+03 -.298268106336101D+03 -.388529431103353D+02 0.635633453199829D+02
 0.141269119698874D+03 0.919231326774500D+02 0.917841827651970D+02 -.555226589185320D+02
 0.147376195058883D+03 0.134902955069413D+03 0.984937596312565D+01 -.585143177069582D+02
 0.141096444032593D+03 0.714420185892380D+02 -.627806156179873D+02 0.504736313055073D+02
 0.000000000000000D+00 -.000000000000000D+00 0.000000000000000D+00 -.000000000000000D+00
 0.665942274102611D+03 0.000000000000000D+00 0.000000000000000D+00 0.665942274102611D+03
 0.133143699580747D+04 0.000000000000000D+00 0.000000000000000D+00 -.133143699580747D+04
 0.409464634119485D+03 -.230555357828024D+03 -.319609078968555D+03 0.635633453199829D+02
 0.130207803370360D+03 0.117099941058932D+03 -.126059592711243D+02 -.555226589185320D+02
 0.222730865853055D+03 0.169226736434937D+03 -.132466693559253D+03 -.585143177069582D+02
 0.266384250359823D+03 0.109231836028914D+03 -.219467847386248D+03 0.504736313055073D+02
 0.968591716207361D+03 -.165003155694759D+03 0.684149579185180D+03 -.665494721704863D+03
0.125084168747D-04 0.000000000000D+00 0.000000000000D+00 0.310314917158D-06 0.000000000000D+00  7 -1 1 23 -11 11 23 21 0 0.12386867D-01 0.26899893D+00 0.12646171D+06 0.12646171D+06 0.12646171D+06 0.11134499D+01  1  2  2  2  7  2        1 0.290889381350D-03 0.100000000000D+01
-.692482216419D-06 0.000000000000D+00 -.480356143405D-07 0.310314917158D-06 0.000000000000D+00  7 -1 1 23 -11 11 23 21 2 0.12386867D-01 0.26899893D+00 0.12646171D+06 0.12646171D+06 0.12646171D+06 0.11134499D+01  1  2  3  2  7  2        1 -.199652857116D-04 0.100000000000D+01
0.791524231355D-06 0.000000000000D+00 0.000000000000D+00 0.310314917158D-06 0.000000000000D+00  7 -1 1 23 -11 11 23 21 2 0.12386867D-01 0.26899893D+00 0.12646171D+06 0.12646171D+06 0.12646171D+06 0.11134499D+01  1  2 15  2  7  2        1 0.228208133754D-04 0.100000000000D+01
0.200234271727D-06 0.000000000000D+00 -.345607307326D-05 0.310314917158D-06 0.000000000000D+00  7 -1 1 23 -11 11 23 21 2 0.12386867D-01 0.96467781D+00 0.12646171D+06 0.12646171D+06 0.12646171D+06 0.11134499D+01  1  2  5  2  7  2        1 0.899047869787D-11 0.100000000000D+01
0.128649443167D-06 0.000000000000D+00 -.518426991125D-06 0.310314917158D-06 0.000000000000D+00  7 -1 21 23 -11 11 23 -1 2 0.12386867D-01 0.96467781D+00 0.12646171D+06 0.12646171D+06 0.12646171D+06 0.11134499D+01  1  2  5  4  7  2        1 0.622638926375D-13 0.100000000000D+01
  </mgrwgt>
  </event>
  <event>
  8     66 0.27784906E-05 0.46279413E+03 0.75467711E-02 0.93054882E-01
       -1 -1    0    0    0  501 0.00000000E+00 0.00000000E+00 0.20254428E+03 0.20254453E+03 0.32000000E+00 0.0000E+00 0.9000E+01
        1 -1    0    0  501    0 0.00000000E+00 0.00000000E+00 -.11422669E+04 0.11422669E+04 0.32000000E+00 0.0000E+00 0.9000E+01
       25  2    1    2    0    0 0.18839683E+03 -.37177225E+03 -.36926205E+03 0.63245728E+03 0.29989961E+03 0.0000E+00 0.0000E+00
       23  2    3    3    0    0 0.17920886E+03 -.36518155E+03 -.33383018E+03 0.53397619E+03 0.90634409E+02 0.0000E+00 0.0000E+00
       23  1    1    2    0    0 -.18839683E+03 0.37177225E+03 -.57046053E+03 0.71235415E+03 0.91188000E+02 0.0000E+00 0.9000E+01
      -13  1    4    4    0    0 0.15400957E+03 -.32475465E+03 -.32687952E+03 0.48583409E+03 0.10565837E+00 0.0000E+00 0.9000E+01
       13  1    4    4    0    0 0.25199293E+02 -.40426904E+02 -.69506626E+01 0.48142101E+02 0.10565837E+00 0.0000E+00 0.9000E+01
       23  1    3    3    0    0 0.91879729E+01 -.65906927E+01 -.35431864E+02 0.98481087E+02 0.91188000E+02 0.0000E+00 0.9000E+01
#aMCatNLO 1  0  0  2  1 0.20489778D+03 0.00000000D+00  -5  7  0 0.00000000D+00 0.00000000D+00 0.00000000D+00 0.00000000D+00 0.00000000D+00
  <mgrwgt>
 0.4495922022D-03    4    2    0
 0.480998766355787D+03 0.000000000000000D+00 0.000000000000000D+00 0.480998766355787D+03
 0.480998766355787D+03 0.000000000000000D+00 0.000000000000000D+00 -.480998766355787D+03
 0.438574268717411D+03 -.188396834831097D+03 0.371772245974854D+03 -.101607911037715D+03
 0.359854934848065D+03 0.154009743720938D+03 -.324755035179670D+03 0.176278217306436D+02
 0.605094703027213D+02 0.251991182229312D+02 -.404265180569180D+02 0.373108171298397D+02
 0.103058858843378D+03 0.918797288722786D+01 -.659069273826643D+01 0.466692721772320D+02
 0.000000000000000D+00 0.000000000000000D+00 -.000000000000000D+00 0.000000000000000D+00
 0.697308780845696D+03 0.000000000000000D+00 0.000000000000000D+00 0.697308780845696D+03
 0.542857358060737D+03 0.000000000000000D+00 0.000000000000000D+00 -.542857358060737D+03
 0.527988435797500D+03 -.269887308056063D+03 0.432773855907095D+03 -.101607911037715D+03
 0.300215110738685D+03 0.983595307288239D+02 -.283096759662980D+03 0.176278217306436D+02
 0.524100429192443D+02 0.156789241105286D+02 -.332999528924139D+02 0.373108171298397D+02
 0.102962717983573D+03 -.818161494371126D+01 0.641172066804232D+01 0.466692721772320D+02
 0.256589831467431D+03 0.164030468160422D+03 -.122788864019743D+03 0.154451422784960D+03
0.407776880934D-04 0.000000000000D+00 0.000000000000D+00 0.149870962941D-05 0.000000000000D+00  7 -1 1 23 -13 13 23 21 0 0.31160681D-01 0.17573338D+00 0.21417840D+06 0.21417840D+06 0.21417840D+06 0.10955481D+01  1  2  2  2  7  2        1 0.541832896054D-03 0.100000000000D+01
-.226132686914D-05 0.000000000000D+00 -.156597059291D-06 0.149870962941D-05 0.000000000000D+00  7 -1 1 23 -13 13 23 21 2 0.31160681D-01 0.17573338D+00 0.21417840D+06 0.21417840D+06 0.21417840D+06 0.10955481D+01  1  2  3  2  7  2        1 -.360635958372D-04 0.100000000000D+01
0.257605424945D-05 0.000000000000D+00 0.000000000000D+00 0.149870962941D-05 0.000000000000D+00  7 -1 1 23 -13 13 23 21 2 0.31160681D-01 0.17573338D+00 0.21417840D+06 0.21417840D+06 0.21417840D+06 0.10955481D+01  1  2 15  2  7  2        1 0.410828618255D-04 0.100000000000D+01
-.609857545520D-05 0.000000000000D+00 0.000000000000D+00 0.149870962941D-05 0.000000000000D+00  7 -1 1 23 -13 13 23 21 2 0.31160681D-01 0.17573338D+00 0.21417840D+06 0.21417840D+06 0.21417840D+06 0.10955481D+01  1  2  4  2  7  2        1 -.972599598054D-04 0.100000000000D+01
  </mgrwgt>
  </event>
  <event>
  9     66 0.27784906E-05 0.20236318E+03 0.75467711E-02 0.10518568E+00
       21 -1    0    0  502  501 0.00000000E+00 0.00000000E+00 0.52278902E+02 0.52284281E+02 0.75000000E+00 0.0000E+00 0.9000E+01
        3 -1    0    0  501    0 0.00000000E+00 0.00000000E+00 -.99363547E+03 0.99363559E+03 0.50000000E+00 0.0000E+00 0.9000E+01
       25  2    1    2    0    0 0.70386816E+02 0.60932055E+02 -.67477236E+03 0.74411277E+03 0.29953138E+03 0.0000E+00 0.0000E+00
       23  2    3    3    0    0 0.15142495E+03 0.70120304E+02 -.40156091E+03 0.44476121E+03 0.93354145E+02 0.0000E+00 0.0000E+00
       23  1    1    2    0    0 -.47967664E+02 -.46465837E+02 -.19470265E+03 0.22513184E+03 0.91188000E+02 0.0000E+00 0.9000E+01
      -11  1    4    4    0    0 0.41829004E+02 0.39613706E+02 -.53647950E+02 0.78721114E+02 0.51099893E-03 0.0000E+00 0.9000E+01
       11  1    4    4    0    0 0.10959595E+03 0.30506598E+02 -.34791296E+03 0.36604009E+03 0.51099893E-03 0.0000E+00 0.9000E+01
       23  1    3    3    0    0 -.81038138E+02 -.91882492E+01 -.27321146E+03 0.29935156E+03 0.91188000E+02 0.0000E+00 0.9000E+01
        3  1    1    2  502    0 -.22419152E+02 -.14466218E+02 -.71881551E+02 0.76675271E+02 0.50000000E+00 0.0000E+00 0.9000E+01
#aMCatNLO 2  0  0  1  1 0.26681263D+02 0.00000000D+00  -5  7  0 0.00000000D+00 0.00000000D+00 0.00000000D+00 0.00000000D+00 0.00000000D+00
  <mgrwgt>
 0.1241760477D-04    1    2    0
 0.213738397803887D+03 0.000000000000000D+00 0.000000000000000D+00 0.213738397803887D+03
 0.213738397803887D+03 0.000000000000000D+00 0.000000000000000D+00 -.213738397803887D+03
 0.118524112897125D+03 -.540647353500628D+02 -.504000434303930D+02 0.164181000055629D+02
 0.658366297088171D+02 0.382904786239560D+02 0.373304314524292D+02 0.384023429720084D+02
 0.115520654298103D+03 0.103371924382359D+03 0.264904737560419D+02 -.442438879296353D+02
 0.127595398703729D+03 -.875976676562526D+02 -.134208617780780D+02 -.105765550479360D+02
 0.000000000000000D+00 -.000000000000000D+00 -.000000000000000D+00 -.000000000000000D+00
 0.224441753719982D+03 0.000000000000000D+00 0.000000000000000D+00 0.224441753719982D+03
 0.231454320492062D+03 0.000000000000000D+00 0.000000000000000D+00 -.231454320492062D+03
 0.114213730220119D+03 -.479676638804537D+02 -.464658373523309D+02 0.164181000055629D+02
 0.692361984743329D+02 0.418290036700097D+02 0.396137057773162D+02 0.384023429720084D+02
 0.122063288524450D+03 0.109595949921218D+03 0.305065984196686D+02 -.442438879296353D+02
 0.122795433878049D+03 -.810381379246956D+02 -.918824914301979D+01 -.105765550479360D+02
 0.275874231150933D+02 -.224191517860786D+02 -.144662177016341D+02 -.701256677208002D+01
0.396379081658D-07 0.000000000000D+00 0.000000000000D+00 0.209766137616D-07 0.187249863440D-11  7 21 3 23 -11 11 23 3 2 0.80432512D-02 0.15286589D+00 0.46963325D+05 0.46963325D+05 0.46963325D+05 0.11496966D+01  1  2  1  3  7  1       -3 0.124176047658D-04 0.100000000000D+01
  </mgrwgt>
  </event>
  <event>
  8     66 0.27784906E-05 0.24070116E+03 0.75467711E-02 0.84427188E-01
       -1 -1    0    0    0  501 0.00000000E+00 0.00000000E+00 0.30696805E+03 0.30696822E+03 0.32000000E+00 0.0000E+00 0.9000E+01
        1 -1    0    0  501    0 0.00000000E+00 0.00000000E+00 -.25057680E+03 0.25057700E+03 0.32000000E+00 0.0000E+00 0.9000E+01
       25  2    1    2    0    0 -.10148576E+02 -.18030337E+03 0.85984272E+01 0.34967097E+03 0.29930513E+03 0.0000E+00 0.0000E+00
       23  2    3    3    0    0 0.23319924E+00 -.16286956E+03 -.95870090E+02 0.20952590E+03 0.90462597E+02 0.0000E+00 0.0000E+00
       23  1    1    2    0    0 0.10148576E+02 0.18030337E+03 0.47792824E+02 0.20787425E+03 0.91188000E+02 0.0000E+00 0.9000E+01
      -11  1    4    4    0    0 -.37062411E+02 -.13248832E+03 -.63340226E+02 0.15145547E+03 0.51099893E-03 0.0000E+00 0.9000E+01
       11  1    4    4    0    0 0.37295610E+02 -.30381242E+02 -.32529864E+02 0.58070427E+02 0.51099893E-03 0.0000E+00 0.9000E+01
       23  1    3    3    0    0 -.10381776E+02 -.17433807E+02 0.10446852E+03 0.14014507E+03 0.91188000E+02 0.0000E+00 0.9000E+01
#aMCatNLO 1  0  0  1  2 0.13327436D+04 0.00000000D+00  -5  7  0 0.00000000D+00 0.00000000D+00 0.00000000D+00 0.00000000D+00 0.00000000D+00
  <mgrwgt>
 0.3874875021D-03    3    2    0
 0.277343063853888D+03 0.000000000000000D+00 0.000000000000000D+00 0.277343063853888D+03
 0.277343063853888D+03 0.000000000000000D+00 0.000000000000000D+00 -.277343063853888D+03
 0.204086943273058D+03 0.101485763209051D+02 0.180303366389370D+03 0.269059758763631D+02
 0.158675521321229D+03 -.370624110022208D+02 -.132488317173077D+03 -.790641800685518D+02
 0.616768418671511D+02 0.372956102422548D+02 -.303812420505903D+02 -.386011711069344D+02
 0.130246821246339D+03 -.103817755609391D+02 -.174338071657031D+02 0.907593752991231D+02
 0.000000000000000D+00 0.000000000000000D+00 -.000000000000000D+00 -.000000000000000D+00
 0.945397792213080D+03 0.000000000000000D+00 0.000000000000000D+00 0.945397792213080D+03
 0.270756911943177D+04 0.000000000000000D+00 0.000000000000000D+00 -.270756911943177D+04
 0.524919362452608D+03 -.475638849274905D+03 0.200670972629918D+03 0.269059758763631D+02
 0.488588411021452D+03 -.468379228023138D+03 -.114404499784775D+03 -.790641800685518D+02
 0.679241306646981D+02 -.490664998060119D+02 -.267603384230241D+02 -.386011711069344D+02
 0.362133891345409D+03 -.338489169014661D+03 -.367725060954814D+01 0.907593752991231D+02
 0.220940111616068D+04 0.133157374611872D+04 -.558288838125706D+02 -.176217132721869D+04
0.627023209560D-05 0.000000000000D+00 0.000000000000D+00 0.932281853613D-07 0.000000000000D+00  7 -1 1 23 -11 11 23 21 0 0.47225882D-01 0.38550305D-01 0.57937051D+05 0.57937051D+05 0.57937051D+05 0.11417093D+01  1  2  2  1  7  1       -1 0.382169825158D-03 0.100000000000D+01
-.339842163767D-06 0.000000000000D+00 -.240793422371D-07 0.932281853613D-07 0.000000000000D+00  7 -1 1 23 -11 11 23 21 2 0.47225882D-01 0.38550305D-01 0.57937051D+05 0.57937051D+05 0.57937051D+05 0.11417093D+01  1  2  3  1  7  1       -1 -.269998376135D-04 0.100000000000D+01
0.406774819765D-06 0.000000000000D+00 0.000000000000D+00 0.932281853613D-07 0.000000000000D+00  7 -1 1 23 -11 11 23 21 2 0.47225882D-01 0.38550305D-01 0.57937051D+05 0.57937051D+05 0.57937051D+05 0.11417093D+01  1  2 15  1  7  1       -1 0.323175145696D-04 0.100000000000D+01
  </mgrwgt>
  </event>
  <event>
  8     66 0.27784906E-05 0.20670687E+03 0.75467711E-02 0.95826624E-01
       -1 -1    0    0    0  501 0.00000000E+00 0.00000000E+00 0.52753016E+03 0.52753025E+03 0.32000000E+00 0.0000E+00 0.9000E+01
        1 -1    0    0  501    0 0.00000000E+00 0.00000000E+00 -.41703734E+03 0.41703747E+03 0.32000000E+00 0.0000E+00 0.9000E+01
       25  2    1    2    0    0 0.12673493E+03 0.39423973E+03 0.97271665E+02 0.52033104E+03 0.29965966E+03 0.0000E+00 0.0000E+00
       23  2    3    3    0    0 0.79591430E+02 0.12708040E+03 -.72961623E+02 0.18732768E+03 0.85346574E+02 0.0000E+00 0.0000E+00
       23  1    1    2    0    0 -.12673493E+03 -.39423973E+03 0.13221149E+02 0.42423668E+03 0.91188000E+02 0.0000E+00 0.9000E+01
      -13  1    4    4    0    0 0.28898689E+02 0.78223751E+02 0.34034092E+01 0.83460673E+02 0.10565837E+00 0.0000E+00 0.9000E+01
       13  1    4    4    0    0 0.50692741E+02 0.48856650E+02 -.76365032E+02 0.10386701E+03 0.10565837E+00 0.0000E+00 0.9000E+01
       23  1    3    3    0    0 0.47143505E+02 0.26715933E+03 0.17023329E+03 0.33300336E+03 0.91188000E+02 0.0000E+00 0.9000E+01
#aMCatNLO 1  0  0  1  2 0.37396332D+02 0.00000000D+00  -5  7  0 0.00000000D+00 0.00000000D+00 0.00000000D+00 0.00000000D+00 0.00000000D+00
  <mgrwgt>
 0.4262452758D-03    9    2    0
 0.469041447169939D+03 0.000000000000000D+00 0.000000000000000D+00 0.469041447169939D+03
 0.469041447169939D+03 0.000000000000000D+00 0.000000000000000D+00 -.469041447169939D+03
 0.425612097168661D+03 -.126734934624883D+03 -.394239728403417D+03 -.366564974640543D+02
 0.836367045075428D+02 0.288986558505815D+02 0.782237961873585D+02 -.640341634990857D+01
 0.113579785891756D+03 0.506927740564600D+02 0.488566050898391D+02 -.891271146216083D+02
 0.315254306771917D+03 0.471435047178415D+02 0.267159327126220D+03 0.132187028435571D+03
 0.000000000000000D+00 -.000000000000000D+00 0.000000000000000D+00 0.000000000000000D+00
 0.509141026322189D+03 0.000000000000000D+00 0.000000000000000D+00 0.509141026322189D+03
 0.478214589825806D+03 0.000000000000000D+00 0.000000000000000D+00 -.478214589825806D+03
 0.438366461136626D+03 -.119897108752308D+03 -.410037665845412D+03 -.366564974640543D+02
 0.812989485068939D+02 0.302040137956958D+02 0.752079306855715D+02 -.640341634990857D+01
 0.112685313250050D+03 0.524835145026204D+02 0.447193243122229D+02 -.891271146216083D+02
 0.306477271092247D+03 0.520641039943508D+02 0.255790900817034D+03 0.132187028435571D+03
 0.485276221621793D+02 -.148545235403590D+02 0.343195100305840D+02 0.309264364963829D+02
0.243942328880D-04 0.000000000000D+00 0.000000000000D+00 0.462582013376D-07 0.000000000000D+00  7 -1 1 23 -13 13 23 21 0 0.81158503D-01 0.64159608D-01 0.18663624D+06 0.18663624D+06 0.18663624D+06 0.11001395D+01  1  2  2  1  7  1       -1 0.267749760787D-03 0.100000000000D+01
-.134409257747D-05 0.000000000000D+00 -.936802774390D-07 0.462582013376D-07 0.000000000000D+00  7 -1 1 23 -13 13 23 21 2 0.81158503D-01 0.64159608D-01 0.18663624D+06 0.18663624D+06 0.18663624D+06 0.11001395D+01  1  2  3  1  7  1       -1 -.178552799677D-04 0.100000000000D+01
0.151347099377D-05 0.000000000000D+00 0.000000000000D+00 0.462582013376D-07 0.000000000000D+00  7 -1 1 23 -13 13 23 21 2 0.81158503D-01 0.64159608D-01 0.18663624D+06 0.18663624D+06 0.18663624D+06 0.11001395D+01  1  2 15  1  7  1       -1 0.201053474811D-04 0.100000000000D+01
0.918636606596D-04 0.000000000000D+00 0.000000000000D+00 0.462582013376D-07 0.000000000000D+00  7 -1 1 23 -13 13 23 21 2 0.88845898D-01 0.64159608D-01 0.20282880D+06 0.20282880D+06 0.20282880D+06 0.10973572D+01  1  2 12  1  7  1       -1 0.100309586138D-02 0.100000000000D+01
-.927195138156D-04 0.000000000000D+00 0.000000000000D+00 0.462582013376D-07 0.000000000000D+00  7 -1 1 23 -13 13 23 21 2 0.81158503D-01 0.64159608D-01 0.18663624D+06 0.18663624D+06 0.18663624D+06 0.11001395D+01  1  2  4  1  7  1       -1 -.123171045313D-02 0.100000000000D+01
-.207341300018D-03 0.000000000000D+00 -.321047392006D-04 0.462582013376D-07 0.000000000000D+00  7 -1 1 23 -13 13 23 21 2 0.89274487D-01 0.64159608D-01 0.18663624D+06 0.18663624D+06 0.18663624D+06 0.11001395D+01  1  2  5  1  7  1       -1 -.225840698257D-02 0.100000000000D+01
0.209593802467D-03 0.000000000000D+00 0.319594643180D-04 0.462582013376D-07 0.000000000000D+00  7 -1 1 23 -13 13 23 21 2 0.81158503D-01 0.64159608D-01 0.18663624D+06 0.18663624D+06 0.18663624D+06 0.11001395D+01  1  2  6  1  7  1       -1 0.278429929997D-02 0.100000000000D+01
0.136987594232D-05 0.000000000000D+00 0.000000000000D+00 0.462582013376D-07 0.000000000000D+00  7 21 1 23 -13 13 23 1 2 0.88845898D-01 0.64159608D-01 0.20282880D+06 0.20282880D+06 0.20282880D+06 0.10973572D+01  1  2 12  3  7  1       -1 0.109879731082D-03 0.100000000000D+01
-.313363600956D-05 0.000000000000D+00 -.500198966758D-06 0.462582013376D-07 0.000000000000D+00  7 21 1 23 -13 13 23 1 2 0.89274487D-01 0.64159608D-01 0.18663624D+06 0.18663624D+06 0.18663624D+06 0.11001395D+01  1  2  5  3  7  1       -1 -.250912009276D-03 0.100000000000D+01
  </mgrwgt>
  </event>
  <event>
  8     66 0.27784906E-05 0.21075847E+03 0.75467711E-02 0.91231485E-01
       -1 -1    0    0    0  501 0.00000000E+00 0.00000000E+00 0.14316746E+03 0.14316782E+03 0.32000000E+00 0.0000E+00 0.9000E+01
        1 -1    0    0  501    0 0.00000000E+00 0.00000000E+00 -.49148869E+03 0.49148880E+03 0.32000000E+00 0.0000E+00 0.9000E+01
       25  2    1    2    0    0 -.83010200E+02 -.33579402E+02 -.59024669E+02 0.31838771E+03 0.29978084E+03 0.0000E+00 0.0000E+00
       23  2    3    3    0    0 0.34302427E+02 0.65938683E+02 0.28184231E+02 0.11942353E+03 0.89123853E+02 0.0000E+00 0.0000E+00
       23  1    1    2    0    0 0.83010200E+02 0.33579402E+02 -.28929656E+03 0.31626891E+03 0.91188000E+02 0.0000E+00 0.9000E+01
      -13  1    4    4    0    0 -.21938537E+02 0.52726808E+02 0.55580014E+01 0.57378726E+02 0.10565837E+00 0.0000E+00 0.9000E+01
       13  1    4    4    0    0 0.56240964E+02 0.13211875E+02 0.22626229E+02 0.62044799E+02 0.10565837E+00 0.0000E+00 0.9000E+01
       23  1    3    3    0    0 -.11731263E+03 -.99518085E+02 -.87208900E+02 0.19896418E+03 0.91188000E+02 0.0000E+00 0.9000E+01
#aMCatNLO 1  0  0  2  1 0.60736194D+03 0.00000000D+00  -5  7  0 0.00000000D+00 0.00000000D+00 0.00000000D+00 0.00000000D+00 0.00000000D+00
  <mgrwgt>
 0.2295603320D-03    5    2    0
 0.265264650411811D+03 0.000000000000000D+00 0.000000000000000D+00 0.265264650411811D+03
 0.265264650411811D+03 0.000000000000000D+00 0.000000000000000D+00 -.265264650411811D+03
 0.188404335141501D+03 0.830102003098168D+02 0.335794022051722D+02 -.138429305236204D+03
 0.722895897082792D+02 -.219386464271404D+02 0.527268630554896D+02 0.443210839834037D+02
 0.890777394352167D+02 0.562410732880845D+02 0.132118203402383D+02 0.678028992122750D+02
 0.180757636538625D+03 -.117312627170761D+03 -.995180856009001D+02 0.263053220405258D+02
 0.000000000000000D+00 -.000000000000000D+00 -.000000000000000D+00 -.000000000000000D+00
 0.494179141554139D+03 0.000000000000000D+00 0.000000000000000D+00 0.494179141554139D+03
 0.141712178618648D+04 0.000000000000000D+00 0.000000000000000D+00 -.141712178618648D+04
 0.380296975170546D+03 0.263554353725342D+03 0.218373460072661D+03 -.138429305236204D+03
 0.135510188011833D+03 0.440310186116588D+02 0.120249415672419D+03 0.443210839834037D+02
 0.191218536903498D+03 0.145226016701226D+03 0.104291417609597D+03 0.678028992122750D+02
 0.994170231376546D+02 -.283662930890242D+02 -.847800650417038D+01 0.263053220405258D+02
 0.110485820451708D+04 -.424445095949202D+03 -.434436286850507D+03 -.922942644632338D+03
0.250417756245D-05 0.000000000000D+00 0.000000000000D+00 0.895981776750D-07 0.000000000000D+00  7 -1 1 23 -13 13 23 21 0 0.22025799D-01 0.75613681D-01 0.44419131D+05 0.44419131D+05 0.44419131D+05 0.11518441D+01  1  2  2  2  7  2        1 0.225400103045D-03 0.100000000000D+01
-.130171710889D-06 0.000000000000D+00 -.961670120489D-08 0.895981776750D-07 0.000000000000D+00  7 -1 1 23 -13 13 23 21 2 0.22025799D-01 0.75613681D-01 0.44419131D+05 0.44419131D+05 0.44419131D+05 0.11518441D+01  1  2  3  2  7  2        1 -.155450825354D-04 0.100000000000D+01
0.151921314726D-06 0.000000000000D+00 0.000000000000D+00 0.895981776750D-07 0.000000000000D+00  7 -1 1 23 -13 13 23 21 2 0.22025799D-01 0.75613681D-01 0.44419131D+05 0.44419131D+05 0.44419131D+05 0.11518441D+01  1  2 15  2  7  2        1 0.181424163528D-04 0.100000000000D+01
0.127439072787D-05 0.000000000000D+00 -.130289275158D-05 0.895981776750D-07 0.000000000000D+00  7 -1 1 23 -13 13 23 21 2 0.22025799D-01 0.50097059D+00 0.44419131D+05 0.44419131D+05 0.44419131D+05 0.11518441D+01  1  2  5  2  7  2        1 0.152034655082D-05 0.100000000000D+01
0.186387542902D-06 0.000000000000D+00 -.301642496467D-06 0.895981776750D-07 0.000000000000D+00  7 -1 21 23 -13 13 23 -1 2 0.22025799D-01 0.50097059D+00 0.44419131D+05 0.44419131D+05 0.44419131D+05 0.11518441D+01  1  2  5  4  7  2        1 0.425485512593D-07 0.100000000000D+01
  </mgrwgt>
  </event>
  <event>
  8     66 0.27784906E-05 0.55451564E+03 0.75467711E-02 0.87893437E-01
       -1 -1    0    0    0  501 0.00000000E+00 0.00000000E+00 0.11112991E+04 0.11112991E+04 0.32000000E+00 0.0000E+00 0.9000E+01
        1 -1    0    0  501    0 0.00000000E+00 0.00000000E+00 -.85137606E+03 0.85137612E+03 0.32000000E+00 0.0000E+00 0.9000E+01
       25  2    1    2    0    0 0.14542300E+03 -.50751068E+03 0.92622250E+03 0.11076985E+04 0.30065406E+03 0.0000E+00 0.0000E+00
       23  2    3    3    0    0 0.81875840E+02 -.41404791E+03 0.52219977E+03 0.67836977E+03 0.96714060E+02 0.0000E+00 0.0000E+00
       23  1    1    2    0    0 -.14542300E+03 0.50751068E+03 -.66629950E+03 0.85497674E+03 0.91188000E+02 0.0000E+00 0.9000E+01
      -11  1    4    4    0    0 0.35824043E+02 -.33235818E+03 0.36196354E+03 0.49270977E+03 0.51099893E-03 0.0000E+00 0.9000E+01
       11  1    4    4    0    0 0.46051797E+02 -.81689735E+02 0.16023624E+03 0.18565999E+03 0.51099893E-03 0.0000E+00 0.9000E+01
       23  1    3    3    0    0 0.63547158E+02 -.93462769E+02 0.40402273E+03 0.42932872E+03 0.91188000E+02 0.0000E+00 0.9000E+01
#aMCatNLO 1  0  0  2  2 0.67856440D+03 0.00000000D+00  -5  7  0 0.00000000D+00 0.00000000D+00 0.00000000D+00 0.00000000D+00 0.00000000D+00
  <mgrwgt>
 0.6225239928D-03    3    2    0
 0.972693945565458D+03 0.000000000000000D+00 0.000000000000000D+00 0.972693945565458D+03
 0.972693945565458D+03 0.000000000000000D+00 0.000000000000000D+00 -.972693945565458D+03
 0.951598508686350D+03 -.145422997810408D+03 0.507510682640081D+03 -.786453767938153D+03
 0.448726251968091D+03 0.358240425628630D+02 -.332358178893537D+03 0.299349174213586D+03
 0.165900683892184D+03 0.460517970932345D+02 -.816897347827050D+02 0.136854141813499D+03
 0.379162446584290D+03 0.635471581543109D+02 -.934627689638382D+02 0.350250451911069D+03
 0.000000000000000D+00 -.000000000000000D+00 0.000000000000000D+00 0.000000000000000D+00
 0.180068425439875D+04 0.000000000000000D+00 0.000000000000000D+00 0.180068425439875D+04
 0.117956436889465D+04 0.000000000000000D+00 0.000000000000000D+00 -.117956436889465D+04
 0.847573951647269D+03 0.719700468549775D+02 0.293899873117600D+03 -.786453767938153D+03
 0.565404826083186D+03 0.158360957510125D+03 -.452763179148082D+03 0.299349174213586D+03
 0.207131613228507D+03 0.911250897416516D+02 -.125978835868215D+03 0.136854141813499D+03
 0.440225430597656D+03 0.162553356453645D+03 -.190746443328933D+03 0.350250451911069D+03
 0.919912801736781D+03 -.484009450560399D+03 0.475588585227631D+03 0.621119885504091D+03
0.103150438915D-02 0.000000000000D+00 0.000000000000D+00 0.261618621139D-06 0.000000000000D+00  7 -1 1 23 -11 11 23 21 0 0.17096909D+00 0.13098094D+00 0.30748760D+06 0.30748760D+06 0.30748760D+06 0.10837607D+01  1  2  2  2  7  2        1 0.604225374967D-03 0.100000000000D+01
-.353012108078D-04 0.000000000000D+00 -.396124845566D-05 0.261618621139D-06 0.000000000000D+00  7 -1 1 23 -11 11 23 21 2 0.17096909D+00 0.13098094D+00 0.30748760D+06 0.30748760D+06 0.30748760D+06 0.10837607D+01  1  2  3  2  7  2        1 -.242875797206D-04 0.100000000000D+01
0.618976594720D-04 0.000000000000D+00 0.000000000000D+00 0.261618621139D-06 0.000000000000D+00  7 -1 1 23 -11 11 23 21 2 0.17096909D+00 0.13098094D+00 0.30748760D+06 0.30748760D+06 0.30748760D+06 0.10837607D+01  1  2 15  2  7  2        1 0.425861975990D-04 0.100000000000D+01
  </mgrwgt>
  </event>
  <event>
  8     66 0.27784906E-05 0.21869859E+03 0.75467711E-02 0.94276124E-01
       -1 -1    0    0    0  501 0.00000000E+00 0.00000000E+00 0.23912868E+04 0.23912868E+04 0.32000000E+00 0.0000E+00 0.9000E+01
        1 -1    0    0  501    0 0.00000000E+00 0.00000000E+00 -.11950722E+03 0.11950765E+03 0.32000000E+00 0.0000E+00 0.9000E+01
       25  2    1    2    0    0 0.16516409E+03 -.36373429E+03 0.55835002E+03 0.74905162E+03 0.29956930E+03 0.0000E+00 0.0000E+00
       23  2    3    3    0    0 -.44669492E+02 -.99152318E+02 0.22122086E+03 0.26324808E+03 0.92381473E+02 0.0000E+00 0.0000E+00
       23  1    1    2    0    0 -.16516409E+03 0.36373429E+03 0.17134296E+04 0.17617429E+04 0.91188000E+02 0.0000E+00 0.9000E+01
      -11  1    4    4    0    0 -.21429596E+02 -.64466659E+02 0.20897143E+03 0.21973675E+03 0.51099893E-03 0.0000E+00 0.9000E+01
       11  1    4    4    0    0 -.23239897E+02 -.34685660E+02 0.12249429E+02 0.43511335E+02 0.51099893E-03 0.0000E+00 0.9000E+01
       23  1    3    3    0    0 0.20983358E+03 -.26458197E+03 0.33712916E+03 0.48580354E+03 0.91188000E+02 0.0000E+00 0.9000E+01
#aMCatNLO 1  0  0  1  2 0.14839696D+03 0.00000000D+00  -5  7  0 0.00000000D+00 0.00000000D+00 0.00000000D+00 0.00000000D+00 0.00000000D+00
  <mgrwgt>
 0.1179488173D-03    9    2    0
 0.534580781660704D+03 0.000000000000000D+00 0.000000000000000D+00 0.534580781660704D+03
 0.534580781660704D+03 0.000000000000000D+00 0.000000000000000D+00 -.534580781660704D+03
 0.496501170272416D+03 -.165164092240334D+03 0.363734289942126D+03 0.280386072572449D+03
 0.719973261297352D+02 -.214295957386070D+02 -.644666588602486D+02 0.238419229867826D+02
 0.761531461042075D+02 -.232398965464440D+02 -.346856595975884D+02 -.636876274354727D+02
 0.424509920815048D+03 0.209833584525385D+03 -.264581971484289D+03 -.240540368123759D+03
 0.000000000000000D+00 0.000000000000000D+00 0.000000000000000D+00 0.000000000000000D+00
 0.710430131192921D+03 0.000000000000000D+00 0.000000000000000D+00 0.710430131192921D+03
 0.571952836567515D+03 0.000000000000000D+00 0.000000000000000D+00 -.571952836567515D+03
 0.481149701681972D+03 -.212333471191303D+03 0.315417075320757D+03 0.280386072572449D+03
 0.811679437305642D+02 -.288194634955141D+02 -.720363541662896D+02 0.238419229867826D+02
 0.825813584307167D+02 -.308984669132195D+02 -.425305962139682D+02 -.636876274354727D+02
 0.434511996208466D+03 0.168387776524141D+03 -.307036335838624D+03 -.240540368123759D+03
 0.202971967708717D+03 0.103663625075895D+03 0.106186210898125D+03 0.138477294625406D+03
0.461403691183D-03 0.000000000000D+00 0.000000000000D+00 0.694595109262D-06 0.000000000000D+00  7 -1 1 23 -11 11 23 21 0 0.36789031D+00 0.18385761D-01 0.18888727D+06 0.18888727D+06 0.18888727D+06 0.10997373D+01  1  2  2  1  7  1       -1 0.817958928655D-04 0.100000000000D+01
-.242976914230D-04 0.000000000000D+00 -.177191166453D-05 0.694595109262D-06 0.000000000000D+00  7 -1 1 23 -11 11 23 21 2 0.36789031D+00 0.18385761D-01 0.18888727D+06 0.18888727D+06 0.18888727D+06 0.10997373D+01  1  2  3  1  7  1       -1 -.520946767866D-05 0.100000000000D+01
0.288145013025D-04 0.000000000000D+00 0.000000000000D+00 0.694595109262D-06 0.000000000000D+00  7 -1 1 23 -11 11 23 21 2 0.36789031D+00 0.18385761D-01 0.18888727D+06 0.18888727D+06 0.18888727D+06 0.10997373D+01  1  2 15  1  7  1       -1 0.617787964291D-05 0.100000000000D+01
0.376391341013D-03 0.000000000000D+00 0.000000000000D+00 0.694595109262D-06 0.000000000000D+00  7 -1 1 23 -11 11 23 21 2 0.49858727D+00 0.18385761D-01 0.26595758D+06 0.26595758D+06 0.26595758D+06 0.10884433D+01  1  2 12  1  7  1       -1 0.464383713958D-05 0.100000000000D+01
-.423262785720D-03 0.000000000000D+00 0.000000000000D+00 0.694595109262D-06 0.000000000000D+00  7 -1 1 23 -11 11 23 21 2 0.36789031D+00 0.18385761D-01 0.18888727D+06 0.18888727D+06 0.18888727D+06 0.10997373D+01  1  2  4  1  7  1       -1 -.907482839995D-04 0.100000000000D+01
-.587052933267D-03 0.000000000000D+00 -.151764583785D-03 0.694595109262D-06 0.000000000000D+00  7 -1 1 23 -11 11 23 21 2 0.49751393D+00 0.18385761D-01 0.18888727D+06 0.18888727D+06 0.18888727D+06 0.10997373D+01  1  2  5  1  7  1       -1 -.776201617971D-05 0.100000000000D+01
0.611455731376D-03 0.000000000000D+00 0.145104266982D-03 0.694595109262D-06 0.000000000000D+00  7 -1 1 23 -11 11 23 21 2 0.36789031D+00 0.18385761D-01 0.18888727D+06 0.18888727D+06 0.18888727D+06 0.10997373D+01  1  2  6  1  7  1       -1 0.131097181789D-03 0.100000000000D+01
0.146891405269D-04 0.000000000000D+00 0.000000000000D+00 0.694595109262D-06 0.000000000000D+00  7 21 1 23 -11 11 23 1 2 0.49858727D+00 0.18385761D-01 0.26595758D+06 0.26595758D+06 0.26595758D+06 0.10884433D+01  1  2 12  3  7  1       -1 0.478647777929D-05 0.100000000000D+01
-.193579033194D-04 0.000000000000D+00 -.589245201739D-05 0.694595109262D-06 0.000000000000D+00  7 21 1 23 -11 11 23 1 2 0.49751393D+00 0.18385761D-01 0.18888727D+06 0.18888727D+06 0.18888727D+06 0.10997373D+01  1  2  5  3  7  1       -1 -.683268406239D-05 0.100000000000D+01
  </mgrwgt>
  </event>
  <event>
  8     66 0.27784906E-05 0.25529577E+03 0.75467711E-02 0.10171075E+00
       -1 -1    0    0    0  501 0.00000000E+00 0.00000000E+00 0.74695241E+02 0.74695926E+02 0.32000000E+00 0.0000E+00 0.9000E+01
        1 -1    0    0  501    0 0.00000000E+00 0.00000000E+00 -.92120628E+03 0.92120634E+03 0.32000000E+00 0.0000E+00 0.9000E+01
       25  2    1    2    0    0 -.15505369E+03 -.40226486E+02 -.56274913E+03 0.65752985E+03 0.29999851E+03 0.0000E+00 0.0000E+00
       23  2    3    3    0    0 -.18159921E+03 -.85886274E+02 -.46007446E+03 0.51040126E+03 0.92120673E+02 0.0000E+00 0.0000E+00
       23  1    1    2    0    0 0.15505369E+03 0.40226486E+02 -.28376192E+03 0.33837242E+03 0.91188000E+02 0.0000E+00 0.9000E+01
      -13  1    4    4    0    0 -.10601307E+03 -.97962027E+02 -.30825755E+03 0.34037929E+03 0.10565837E+00 0.0000E+00 0.9000E+01
       13  1    4    4    0    0 -.75586144E+02 0.12075753E+02 -.15181690E+03 0.17002198E+03 0.10565837E+00 0.0000E+00 0.9000E+01
       23  1    3    3    0    0 0.26545522E+02 0.45659788E+02 -.10267467E+03 0.14712859E+03 0.91188000E+02 0.0000E+00 0.9000E+01
#aMCatNLO 1  0  0  1  2 0.47114588D+02 0.00000000D+00  -5  7  0 0.00000000D+00 0.00000000D+00 0.00000000D+00 0.00000000D+00 0.00000000D+00
  <mgrwgt>
 0.2536612306D-03    4    2    0
 0.262316781881272D+03 0.000000000000000D+00 0.000000000000000D+00 0.262316781881272D+03
 0.262316781881272D+03 0.000000000000000D+00 0.000000000000000D+00 -.262316781881272D+03
 0.184468301915101D+03 0.155053690931999D+03 0.402264864492948D+02 0.731339755173637D+01
 0.148753597192474D+03 -.106013109554758D+03 -.979621702340499D+02 -.359481082014987D+02
 0.777886492832847D+02 -.755861032408795D+02 0.120758957411562D+02 -.138559624792255D+02
 0.113623015371683D+03 0.265455218636388D+02 0.456597880435989D+02 0.424906731289878D+02
 0.000000000000000D+00 -.000000000000000D+00 -.000000000000000D+00 -.000000000000000D+00
 0.267821785884749D+03 0.000000000000000D+00 0.000000000000000D+00 0.267821785884749D+03
 0.388097649772065D+03 0.000000000000000D+00 0.000000000000000D+00 -.388097649772065D+03
 0.199161507005625D+03 0.172244520956714D+03 0.403533610173196D+02 0.731339755173637D+01
 0.139767085026852D+03 -.930842132820704D+02 -.978667502847353D+02 -.359481082014987D+02
 0.713218950885415D+02 -.689043127137037D+02 0.121252097815805D+02 -.138559624792255D+02
 0.116494385267732D+03 0.368573094988348D+02 0.457358927808279D+02 0.424906731289878D+02
 0.129174563268064D+03 -.471133044597744D+02 -.347713294992670D+00 -.120275863887316D+03
0.269502172997D-05 0.000000000000D+00 0.000000000000D+00 0.188390786265D-06 0.000000000000D+00  7 -1 1 23 -13 13 23 21 0 0.11491632D-01 0.14172410D+00 0.65175931D+05 0.65175931D+05 0.65175931D+05 0.11373053D+01  1  2  2  1  7  1       -1 0.264826204584D-03 0.100000000000D+01
-.149589438903D-06 0.000000000000D+00 -.103495930586D-07 0.188390786265D-06 0.000000000000D+00  7 -1 1 23 -13 13 23 21 2 0.11491632D-01 0.14172410D+00 0.65175931D+05 0.65175931D+05 0.65175931D+05 0.11373053D+01  1  2  3  1  7  1       -1 -.190131360033D-04 0.100000000000D+01
0.174958367076D-06 0.000000000000D+00 0.000000000000D+00 0.188390786265D-06 0.000000000000D+00  7 -1 1 23 -13 13 23 21 2 0.11491632D-01 0.14172410D+00 0.65175931D+05 0.65175931D+05 0.65175931D+05 0.11373053D+01  1  2 15  1  7  1       -1 0.222375807579D-04 0.100000000000D+01
-.113211469682D-06 0.000000000000D+00 0.000000000000D+00 0.188390786265D-06 0.000000000000D+00  7 -1 1 23 -13 13 23 21 2 0.11491632D-01 0.14172410D+00 0.65175931D+05 0.65175931D+05 0.65175931D+05 0.11373053D+01  1  2  4  1  7  1       -1 -.143894187049D-04 0.100000000000D+01
  </mgrwgt>
  </event>
  <event>
  9     66 0.27784906E-05 0.20655399E+03 0.75467711E-02 0.10292994E+00
       21 -1    0    0  502  501 0.00000000E+00 0.00000000E+00 0.44528613E+03 0.44528676E+03 0.75000000E+00 0.0000E+00 0.9000E+01
        1 -1    0    0  501    0 0.00000000E+00 0.00000000E+00 -.22168971E+03 0.22168994E+03 0.32000000E+00 0.0000E+00 0.9000E+01
       25  2    1    2    0    0 -.56726878E+02 0.37202475E+02 0.82822084E+02 0.32048563E+03 0.30207546E+03 0.0000E+00 0.0000E+00
       23  2    3    3    0    0 0.42810656E+02 0.87389896E+02 -.29689919E+02 0.13772705E+03 0.92830506E+02 0.0000E+00 0.0000E+00
       23  1    1    2    0    0 0.11749308E+03 0.32417386E+02 -.27337533E+02 0.15465479E+03 0.91188000E+02 0.0000E+00 0.9000E+01
      -11  1    4    4    0    0 -.20481501E+02 0.12845231E+02 -.31760946E+02 0.39915530E+02 0.51099893E-03 0.0000E+00 0.9000E+01
       11  1    4    4    0    0 0.63292157E+02 0.74544665E+02 0.20710279E+01 0.97811519E+02 0.51099893E-03 0.0000E+00 0.9000E+01
       23  1    3    3    0    0 -.99537534E+02 -.50187421E+02 0.11251200E+03 0.18275858E+03 0.91188000E+02 0.0000E+00 0.9000E+01
        1  1    1    2  502    0 -.60766202E+02 -.69619862E+02 0.16811186E+03 0.19183628E+03 0.32000000E+00 0.0000E+00 0.9000E+01
#aMCatNLO 2  0  0  1  2 0.92409179D+02 0.00000000D+00  -5  7  0 0.00000000D+00 0.00000000D+00 0.00000000D+00 0.00000000D+00 0.00000000D+00
  <mgrwgt>
 0.3425829399D-04    2    2    0
 0.231376547526254D+03 0.000000000000000D+00 0.000000000000000D+00 0.231376547526254D+03
 0.231376547526254D+03 0.000000000000000D+00 0.000000000000000D+00 -.231376547526254D+03
 0.141766850576812D+03 0.979428537317398D+02 0.100186836999150D+02 -.457100859578317D+02
 0.455491789360833D+02 -.262986989467192D+02 0.618046546297039D+01 -.366729870902575D+02
 0.806552853712174D+02 0.516610852124550D+02 0.612189416591742D+02 -.941533404158346D+01
 0.194781780168395D+03 -.123305239997476D+03 -.774180908220596D+02 0.917984070896727D+02
 0.000000000000000D+00 -.000000000000000D+00 -.000000000000000D+00 0.000000000000000D+00
 0.395997228883281D+03 0.000000000000000D+00 0.000000000000000D+00 0.395997228883281D+03
 0.249283380871577D+03 0.000000000000000D+00 0.000000000000000D+00 -.249283380871577D+03
 0.158934496911582D+03 0.117493080857403D+03 0.324173866451501D+02 -.457100859578317D+02
 0.439249341200317D+02 -.204815010966768D+02 0.128452313390516D+02 -.366729870902575D+02
 0.982418067239858D+02 0.632921564124833D+02 0.745446645303079D+02 -.941533404158346D+01
 0.170788456356885D+03 -.995375342184797D+02 -.501874209167140D+02 0.917984070896727D+02
 0.173390915642373D+03 -.607662019547300D+02 -.696198615977956D+02 0.146713848011704D+03
-.120033467103D-06 0.000000000000D+00 0.000000000000D+00 0.533365293941D-08 0.000000000000D+00  7 21 1 23 -11 11 23 1 2 0.69098964D-01 0.31656201D-01 0.65181780D+05 0.65181780D+05 0.65181780D+05 0.11373020D+01  1  2 13  3  7  1       -1 -.507199306706D-04 0.100000000000D+01
0.217092973818D-06 0.000000000000D+00 0.000000000000D+00 0.533365293941D-08 0.354295664855D-12  7 21 1 23 -11 11 23 1 2 0.68505585D-01 0.34106156D-01 0.65181780D+05 0.65181780D+05 0.65181780D+05 0.11373020D+01  1  2  1  3  7  1       -1 0.849782246642D-04 0.100000000000D+01
  </mgrwgt>
  </event>
  <event>
  7     66 0.27784906E-05 0.26378014E+03 0.75467711E-02 0.10167630E+00
       -1 -1    0    0    0  501 0.00000000E+00 0.00000000E+00 0.12483442E+03 0.12483483E+03 0.32000000E+00 0.0000E+00 0.9000E+01
        1 -1    0    0  501    0 0.00000000E+00 0.00000000E+00 -.60586891E+03 0.60586900E+03 0.32000000E+00 0.0000E+00 0.9000E+01
       25  2    1    2    0    0 -.65985976E+02 -.15164566E+03 -.39368253E+03 0.52262651E+03 0.30133367E+03 0.0000E+00 0.0000E+00
       23  1    1    2    0    0 0.65985976E+02 0.15164566E+03 -.87351962E+02 0.20807732E+03 0.91188000E+02 0.0000E+00 0.9000E+01
      -13  1    3    3    0    0 -.57563950E+02 -.92477806E+02 -.10253827E+03 0.14959900E+03 0.10565837E+00 0.0000E+00 0.9000E+01
       13  1    3    3    0    0 0.75034468E+02 -.73866252E+02 -.16552627E+03 0.19617684E+03 0.10565837E+00 0.0000E+00 0.9000E+01
       23  1    3    3    0    0 -.83456494E+02 0.14698402E+02 -.12561799E+03 0.17685067E+03 0.91188000E+02 0.0000E+00 0.9000E+01
#aMCatNLO 1  0  0  2  2 0.32501964D+02 0.00000000D+00  -5  7  0 0.00000000D+00 0.00000000D+00 0.00000000D+00 0.00000000D+00 0.00000000D+00
  <mgrwgt>
 0.4138964709D-03    3    2    0
 0.275015410367610D+03 0.000000000000000D+00 0.000000000000000D+00 0.275015410367610D+03
 0.275015410367610D+03 0.000000000000000D+00 0.000000000000000D+00 -.275015410367610D+03
 0.200031683572331D+03 0.659859790840899D+02 0.151645663259347D+03 0.659307702649356D+02
 0.109061520181832D+03 -.575609473395392D+02 -.924777314726852D+02 -.538717991280150D+01
 0.115854199228466D+03 0.750335606852234D+02 -.738677271242150D+02 -.483292782820991D+02
 0.125083417752591D+03 -.834585924297742D+02 0.146997953375530D+02 -.122143120700350D+02
 0.000000000000000D+00 0.000000000000000D+00 -.000000000000000D+00 0.000000000000000D+00
 0.602413985164170D+03 0.000000000000000D+00 0.000000000000000D+00 0.602413985164170D+03
 0.276302965373024D+03 0.000000000000000D+00 0.000000000000000D+00 -.276302965373024D+03
 0.209340041383168D+03 0.659813655874506D+02 0.163730249220460D+03 0.659307702649356D+02
 0.103788444627451D+03 -.575633460948451D+02 -.861944355346543D+02 -.538717991280150D+01
 0.111689668178310D+03 0.750309963340394D+02 -.671506695992964D+02 -.483292782820991D+02
 0.126172119242604D+03 -.834614240043674D+02 0.221168174471138D+02 -.122143120700350D+02
 0.327726677105660D+03 0.124081777225058D-01 -.325019615336231D+02 0.326111019791147D+03
0.489586903801D-05 0.000000000000D+00 0.000000000000D+00 0.346210687462D-10 0.000000000000D+00  7 -1 1 23 -13 13 23 21 0 0.19205334D-01 0.93210640D-01 0.69579964D+05 0.69579964D+05 0.69579964D+05 0.11348819D+01  1  2  2  2  7  2        1 0.409357834835D-03 0.100000000000D+01
-.271417359280D-06 0.000000000000D+00 -.188014262179D-07 0.346210687462D-10 0.000000000000D+00  7 -1 1 23 -13 13 23 21 2 0.19205334D-01 0.93210640D-01 0.69579964D+05 0.69579964D+05 0.69579964D+05 0.11348819D+01  1  2  3  2  7  2        1 -.292288862345D-04 0.100000000000D+01
0.313562810873D-06 0.000000000000D+00 0.000000000000D+00 0.346210687462D-10 0.000000000000D+00  7 -1 1 23 -13 13 23 21 2 0.19205334D-01 0.93210640D-01 0.69579964D+05 0.69579964D+05 0.69579964D+05 0.11348819D+01  1  2 15  2  7  2        1 0.337675222789D-04 0.100000000000D+01
  </mgrwgt>
  </event>
  <event>
  8     66 0.27784906E-05 0.18974554E+03 0.75467711E-02 0.10708982E+00
       -1 -1    0    0    0  501 0.00000000E+00 0.00000000E+00 0.15468985E+03 0.15469018E+03 0.32000000E+00 0.0000E+00 0.9000E+01
        1 -1    0    0  501    0 0.00000000E+00 0.00000000E+00 -.38787779E+03 0.38787792E+03 0.32000000E+00 0.0000E+00 0.9000E+01
       25  2    1    2    0    0 0.23287272E+02 -.53802426E+02 -.28900142E+03 0.42063617E+03 0.29995995E+03 0.0000E+00 0.0000E+00
       23  2    3    3    0    0 0.10343171E+02 -.13924849E+03 -.22512495E+03 0.27969635E+03 0.89731162E+02 0.0000E+00 0.0000E+00
       23  1    1    2    0    0 -.23287272E+02 0.53802426E+02 0.55813488E+02 0.12193193E+03 0.91188000E+02 0.0000E+00 0.9000E+01
      -11  1    4    4    0    0 0.23560205E+02 -.11871301E+03 -.22475793E+03 0.25527238E+03 0.51099893E-03 0.0000E+00 0.9000E+01
       11  1    4    4    0    0 -.13217033E+02 -.20535474E+02 -.36702849E+00 0.24423971E+02 0.51099893E-03 0.0000E+00 0.9000E+01
       23  1    3    3    0    0 0.12944100E+02 0.85446061E+02 -.63876469E+02 0.14093982E+03 0.91188000E+02 0.0000E+00 0.9000E+01
#aMCatNLO 1  0  0  1  2 0.11284092D+02 0.00000000D+00  -5  7  0 0.00000000D+00 0.00000000D+00 0.00000000D+00 0.00000000D+00 0.00000000D+00
  <mgrwgt>
 0.2049299135D-05    1    2    0
 0.244950776757225D+03 0.000000000000000D+00 0.000000000000000D+00 0.244950776757225D+03
 0.244950776757225D+03 0.000000000000000D+00 0.000000000000000D+00 -.244950776757225D+03
 0.161606767586332D+03 -.232872715921681D+02 0.538024262214464D+02 0.119851983296819D+03
 0.175732886342872D+03 0.235602047488219D+02 -.118713013100484D+03 -.127413439696111D+03
 0.268749530030459D+02 -.132170332632279D+02 -.205354742733489D+02 0.112190653355472D+02
 0.125686946582201D+03 0.129441001065742D+02 0.854460611523866D+02 -.365760893625482D+01
 0.000000000000000D+00 -.000000000000000D+00 -.000000000000000D+00 0.000000000000000D+00
 0.691960864995194D+03 0.000000000000000D+00 0.000000000000000D+00 0.691960864995194D+03
 0.575675659010438D+03 0.000000000000000D+00 0.000000000000000D+00 -.575675659010438D+03
 0.229797572369649D+03 0.142100525446555D+03 0.996725423103883D+02 0.119851983296819D+03
 0.249603588649733D+03 0.203286016187587D+03 -.688662651391142D+02 -.127413439696111D+03
 0.198826681006874D+02 0.654038677454537D+01 -.150557764541775D+02 0.112190653355472D+02
 0.223866539806146D+03 0.160647830390903D+03 0.126411521580677D+03 -.365760893625482D+01
 0.544486155079417D+03 -.512574758799589D+03 -.142162022297774D+03 0.116285205984757D+03
0.139671521335D-07 0.000000000000D+00 0.000000000000D+00 0.169558950398D-06 0.000000000000D+00  7 -1 1 23 -11 11 23 21 2 0.23798474D-01 0.59673541D-01 0.36003369D+05 0.36003369D+05 0.36003369D+05 0.11600562D+01  1  2 14  1  7  1       -1 0.204929913503D-05 0.100000000000D+01
  </mgrwgt>
  </event>
  <event>
  8     66 0.27784906E-05 0.22310082E+03 0.75467711E-02 0.95643081E-01
       -1 -1    0    0    0  501 0.00000000E+00 0.00000000E+00 0.21263182E+03 0.21263206E+03 0.32000000E+00 0.0000E+00 0.9000E+01
        1 -1    0    0  501    0 0.00000000E+00 0.00000000E+00 -.10155983E+04 0.10155983E+04 0.32000000E+00 0.0000E+00 0.9000E+01
       25  2    1    2    0    0 -.30456979E+03 0.25951336E+03 -.31630789E+03 0.59162867E+03 0.29977301E+03 0.0000E+00 0.0000E+00
       23  2    3    3    0    0 -.22653402E+03 0.85706215E+02 -.79864571E+02 0.27458104E+03 0.10175058E+03 0.0000E+00 0.0000E+00
       23  1    1    2    0    0 0.30456979E+03 -.25951336E+03 -.48665857E+03 0.63660172E+03 0.91188000E+02 0.0000E+00 0.9000E+01
      -13  1    4    4    0    0 -.17283874E+03 0.14545596E+02 -.56569030E+02 0.18244141E+03 0.10565837E+00 0.0000E+00 0.9000E+01
       13  1    4    4    0    0 -.53695280E+02 0.71160619E+02 -.23295541E+02 0.92139623E+02 0.10565837E+00 0.0000E+00 0.9000E+01
       23  1    3    3    0    0 -.78035770E+02 0.17380715E+03 -.23644332E+03 0.31704763E+03 0.91188000E+02 0.0000E+00 0.9000E+01
#aMCatNLO 1  0  0  2  1 0.30399277D+02 0.00000000D+00  -5  7  0 0.00000000D+00 0.00000000D+00 0.00000000D+00 0.00000000D+00 0.00000000D+00
  <mgrwgt>
 0.4090718322D-03    9    2    0
 0.464702798436229D+03 0.000000000000000D+00 0.000000000000000D+00 0.464702798436229D+03
 0.464702798436229D+03 0.000000000000000D+00 0.000000000000000D+00 -.464702798436229D+03
 0.420831420342722D+03 0.304569787032445D+03 -.259513362846124D+03 -.931337336037822D+02
 0.192227319238366D+03 -.172838861992311D+03 0.145455380295620D+02 0.828643311093640D+02
 0.101638132024249D+03 -.536951534878816D+02 0.711606667193576D+02 0.488190524831038D+02
 0.214708725267121D+03 -.780357715522523D+02 0.173807158097204D+03 -.385496499886856D+02
 0.000000000000000D+00 0.000000000000000D+00 0.000000000000000D+00 -.000000000000000D+00
 0.470554048217883D+03 0.000000000000000D+00 0.000000000000000D+00 0.470554048217883D+03
 0.506186321836557D+03 0.000000000000000D+00 0.000000000000000D+00 -.506186321836557D+03
 0.426094663114253D+03 0.300338569283120D+03 -.272698115241813D+03 -.931337336037822D+02
 0.193604570461147D+03 -.174766466740636D+03 0.853899503671373D+01 0.828643311093640D+02
 0.100012929129368D+03 -.547025962456256D+02 0.680214089215742D+02 0.488190524831038D+02
 0.210190455617157D+03 -.801585553358058D+02 0.167192424412036D+03 -.385496499886856D+02
 0.468377517325154D+02 0.928904903894717D+01 0.289452868714888D+02 -.356322736186733D+02
0.148085208014D-04 0.000000000000D+00 0.000000000000D+00 0.180353659873D-07 0.000000000000D+00  7 -1 1 23 -13 13 23 21 0 0.32712610D-01 0.15624591D+00 0.19545768D+06 0.19545768D+06 0.19545768D+06 0.10985925D+01  1  2  2  2  7  2        1 0.225254287241D-03 0.100000000000D+01
-.820210039009D-06 0.000000000000D+00 -.568686190504D-07 0.180353659873D-07 0.000000000000D+00  7 -1 1 23 -13 13 23 21 2 0.32712610D-01 0.15624591D+00 0.19545768D+06 0.19545768D+06 0.19545768D+06 0.10985925D+01  1  2  3  2  7  2        1 -.150577372369D-04 0.100000000000D+01
0.932599377232D-06 0.000000000000D+00 0.000000000000D+00 0.180353659873D-07 0.000000000000D+00  7 -1 1 23 -13 13 23 21 2 0.32712610D-01 0.15624591D+00 0.19545768D+06 0.19545768D+06 0.19545768D+06 0.10985925D+01  1  2 15  2  7  2        1 0.171210247398D-04 0.100000000000D+01
0.836596330684D-04 0.000000000000D+00 0.000000000000D+00 0.180353659873D-07 0.000000000000D+00  7 -1 1 23 -13 13 23 21 2 0.32712610D-01 0.17112272D+00 0.20934268D+06 0.20934268D+06 0.20934268D+06 0.10963058D+01  1  2 12  2  7  2        1 0.129427938480D-02 0.100000000000D+01
-.852179011290D-04 0.000000000000D+00 0.000000000000D+00 0.180353659873D-07 0.000000000000D+00  7 -1 1 23 -13 13 23 21 2 0.32712610D-01 0.15624591D+00 0.19545768D+06 0.19545768D+06 0.19545768D+06 0.10985925D+01  1  2  4  2  7  2        1 -.156446361548D-02 0.100000000000D+01
-.159697167214D-03 0.000000000000D+00 -.202080667018D-04 0.180353659873D-07 0.000000000000D+00  7 -1 1 23 -13 13 23 21 2 0.32712610D-01 0.17124288D+00 0.19545768D+06 0.19545768D+06 0.19545768D+06 0.10985925D+01  1  2  5  2  7  2        1 -.248285207750D-02 0.100000000000D+01
0.160957352742D-03 0.000000000000D+00 0.201234883588D-04 0.180353659873D-07 0.000000000000D+00  7 -1 1 23 -13 13 23 21 2 0.32712610D-01 0.15624591D+00 0.19545768D+06 0.19545768D+06 0.19545768D+06 0.10985925D+01  1  2  6  2  7  2        1 0.295491814129D-02 0.100000000000D+01
0.125756669422D-05 0.000000000000D+00 0.000000000000D+00 0.180353659873D-07 0.000000000000D+00  7 -1 21 23 -13 13 23 -1 2 0.32712610D-01 0.17112272D+00 0.20934268D+06 0.20934268D+06 0.20934268D+06 0.10963058D+01  1  2 12  4  7  2        1 0.228720338481D-04 0.100000000000D+01
-.234801740578D-05 0.000000000000D+00 -.304280710479D-06 0.180353659873D-07 0.000000000000D+00  7 -1 21 23 -13 13 23 -1 2 0.32712610D-01 0.17124288D+00 0.19545768D+06 0.19545768D+06 0.19545768D+06 0.10985925D+01  1  2  5  4  7  2        1 -.429996095208D-04 0.100000000000D+01
  </mgrwgt>
  </event>
  <event>
  9     66 0.27784906E-05 0.31016980E+03 0.75467711E-02 0.97687275E-01
       -1 -1    0    0    0  501 0.00000000E+00 0.00000000E+00 0.71453240E+03 0.71453247E+03 0.32000000E+00 0.0000E+00 0.9000E+01
        1 -1    0    0  502    0 0.00000000E+00 0.00000000E+00 -.23261601E+03 0.23261623E+03 0.32000000E+00 0.0000E+00 0.9000E+01
       25  2    1    2    0    0 0.17117492E+03 -.13737422E+02 0.24334556E+03 0.42284040E+03 0.30014559E+03 0.0000E+00 0.0000E+00
       23  2    3    3    0    0 0.15094431E+03 0.77888997E+02 0.21467539E+03 0.28889300E+03 0.92318799E+02 0.0000E+00 0.0000E+00
       23  1    1    2    0    0 -.30725402E+03 0.40993800E+02 0.13074999E+03 0.34856324E+03 0.91188000E+02 0.0000E+00 0.9000E+01
      -11  1    4    4    0    0 0.12264454E+03 0.38068377E+02 0.95321805E+02 0.15992852E+03 0.51099893E-03 0.0000E+00 0.9000E+01
       11  1    4    4    0    0 0.28299768E+02 0.39820620E+02 0.11935358E+03 0.12896448E+03 0.51099893E-03 0.0000E+00 0.9000E+01
       23  1    3    3    0    0 0.20230616E+02 -.91626419E+02 0.28670171E+02 0.13394741E+03 0.91188000E+02 0.0000E+00 0.9000E+01
       21  1    1    2  502  501 0.13607909E+03 -.27256378E+02 0.10782084E+03 0.17574506E+03 0.75000000E+00 0.0000E+00 0.9000E+01
#aMCatNLO 2  0  0  2  1 0.13878195D+03 0.00000000D+00  -5  7  0 0.00000000D+00 0.00000000D+00 0.00000000D+00 0.00000000D+00 0.00000000D+00
  <mgrwgt>
 0.4040312877D-04    1    2    0
 0.330096832957474D+03 0.000000000000000D+00 0.000000000000000D+00 0.330096832957474D+03
 0.330096832957474D+03 0.000000000000000D+00 0.000000000000000D+00 -.330096832957474D+03
 0.268166426133592D+03 -.246674698329163D+03 0.288598802307488D+02 -.437799186676508D+02
 0.156562742627702D+03 0.151859799063764D+03 0.322166173767882D+02 0.203121483900392D+02
 0.872466176322312D+02 0.454804685730775D+02 0.363793594205979D+02 0.649618463006174D+02
 0.148217879521422D+03 0.493344306923222D+02 -.974558570281348D+02 -.414940760230057D+02
 0.000000000000000D+00 0.000000000000000D+00 -.000000000000000D+00 0.000000000000000D+00
 0.420811171764368D+03 0.000000000000000D+00 0.000000000000000D+00 0.420811171764368D+03
 0.394977628382573D+03 0.000000000000000D+00 0.000000000000000D+00 -.394977628382573D+03
 0.326063574157485D+03 -.307254015664493D+03 0.409937998708469D+02 -.437799186676508D+02
 0.130013337523710D+03 0.122644540171242D+03 0.380683770079550D+02 0.203121483900392D+02
 0.812809950129535D+02 0.282997679669196D+02 0.398206203935756D+02 0.649618463006174D+02
 0.137265029289702D+03 0.202306161454120D+02 -.916264194830112D+02 -.414940760230057D+02
 0.141165864163091D+03 0.136079091380919D+03 -.272563777893663D+02 0.258335433817947D+02
0.265789405530D-05 0.000000000000D+00 0.000000000000D+00 0.262750644444D-06 0.967576112195D-10  7 -1 1 23 -11 11 23 21 2 0.10992781D+00 0.35787013D-01 0.14822709D+06 0.14822709D+06 0.14822709D+06 0.11079596D+01  1  2  1  2  7  2        1 0.404031287703D-04 0.100000000000D+01
  </mgrwgt>
  </event>
  <event>
  8     66 0.27784906E-05 0.28527194E+03 0.75467711E-02 0.91615299E-01
       -3 -1    0    0    0  501 0.00000000E+00 0.00000000E+00 0.38382392E+03 0.38382424E+03 0.50000000E+00 0.0000E+00 0.9000E+01
        3 -1    0    0  501    0 0.00000000E+00 0.00000000E+00 -.11843757E+04 0.11843758E+04 0.50000000E+00 0.0000E+00 0.9000E+01
       25  2    1    2    0    0 0.19745223E+02 0.61570790E+03 -.60876254E+03 0.91659859E+03 0.30012508E+03 0.0000E+00 0.0000E+00
       23  2    3    3    0    0 0.63853015E+02 0.46883159E+03 -.32363324E+03 0.58024741E+03 0.89823838E+02 0.0000E+00 0.0000E+00
       23  1    1    2    0    0 -.19745223E+02 -.61570790E+03 -.19178924E+03 0.65160145E+03 0.91188000E+02 0.0000E+00 0.9000E+01
      -11  1    4    4    0    0 0.28643256E+02 0.12467860E+03 -.43563297E+02 0.13514049E+03 0.51099893E-03 0.0000E+00 0.9000E+01
       11  1    4    4    0    0 0.35209759E+02 0.34415299E+03 -.28006994E+03 0.44510693E+03 0.51099893E-03 0.0000E+00 0.9000E+01
       23  1    3    3    0    0 -.44107791E+02 0.14687631E+03 -.28512930E+03 0.33635118E+03 0.91188000E+02 0.0000E+00 0.9000E+01
#aMCatNLO 1  0  0  2  1 0.39342346D+02 0.00000000D+00  -5  7  0 0.00000000D+00 0.00000000D+00 0.00000000D+00 0.00000000D+00 0.00000000D+00
  <mgrwgt>
 0.2215657948D-04    9    2    0
 0.674234422945548D+03 0.000000000000000D+00 0.000000000000000D+00 0.674234422945548D+03
 0.674234422945548D+03 0.000000000000000D+00 0.000000000000000D+00 -.674234422945548D+03
 0.643918626277454D+03 -.197452232746770D+02 -.615707896303559D+03 0.163798224991368D+03
 0.131299023407610D+03 0.286432558152016D+02 0.124678603685662D+03 0.295676043515629D+02
 0.351366080382052D+03 0.352097589162203D+02 0.344152985444137D+03 -.614582616903175D+02
 0.221885115823980D+03 -.441077914567449D+02 0.146876307173759D+03 -.131907567652613D+03
 0.000000000000000D+00 0.000000000000000D+00 -.000000000000000D+00 -.000000000000000D+00
 0.689177172569374D+03 0.000000000000000D+00 0.000000000000000D+00 0.689177172569374D+03
 0.700924088744491D+03 0.000000000000000D+00 0.000000000000000D+00 -.700924088744491D+03
 0.626590174569969D+03 -.229042216605193D+02 -.597449189172960D+03 0.163798224991368D+03
 0.134796744616224D+03 0.279816341868382D+02 0.128502713124179D+03 0.295676043515629D+02
 0.361234335414644D+03 0.334379462678146D+02 0.354393892303260D+03 -.614582616903175D+02
 0.226421386890156D+03 -.452224626164346D+02 0.153318999371043D+03 -.131907567652613D+03
 0.410586198228714D+02 0.670710382230114D+01 -.387664156255224D+02 -.117469161751166D+02
0.459221601507D-04 0.000000000000D+00 0.000000000000D+00 0.119217905049D-05 0.000000000000D+00  7 -3 3 23 -11 11 23 21 0 0.59049866D-01 0.18221168D+00 0.40642669D+06 0.40642669D+06 0.40642669D+06 0.10749290D+01  1  2  2  2  7  2        3 0.864676098832D-05 0.100000000000D+01
-.254150402721D-05 0.000000000000D+00 -.176353186561D-06 0.119217905049D-05 0.000000000000D+00  7 -3 3 23 -11 11 23 21 2 0.59049866D-01 0.18221168D+00 0.40642669D+06 0.40642669D+06 0.40642669D+06 0.10749290D+01  1  2  3  2  7  2        3 -.552944414933D-06 0.100000000000D+01
0.289926879182D-05 0.000000000000D+00 0.000000000000D+00 0.119217905049D-05 0.000000000000D+00  7 -3 3 23 -11 11 23 21 2 0.59049866D-01 0.18221168D+00 0.40642669D+06 0.40642669D+06 0.40642669D+06 0.10749290D+01  1  2 15  2  7  2        3 0.630781800328D-06 0.100000000000D+01
0.116770142393D-03 0.000000000000D+00 0.000000000000D+00 0.119217905049D-05 0.000000000000D+00  7 -3 3 23 -11 11 23 21 2 0.59049866D-01 0.19138084D+00 0.43273775D+06 0.43273775D+06 0.43273775D+06 0.10729733D+01  1  2 12  2  7  2        3 0.212555528003D-04 0.100000000000D+01
-.106399659098D-03 0.000000000000D+00 0.000000000000D+00 0.119217905049D-05 0.000000000000D+00  7 -3 3 23 -11 11 23 21 2 0.59049866D-01 0.18221168D+00 0.40642669D+06 0.40642669D+06 0.40642669D+06 0.10749290D+01  1  2  4  2  7  2        3 -.231489293815D-04 0.100000000000D+01
-.673576302072D-03 0.000000000000D+00 -.103977263624D-03 0.119217905049D-05 0.000000000000D+00  7 -3 3 23 -11 11 23 21 2 0.59049866D-01 0.19200664D+00 0.40642669D+06 0.40642669D+06 0.40642669D+06 0.10749290D+01  1  2  5  2  7  2        3 -.121948212960D-03 0.100000000000D+01
0.678233061237D-03 0.000000000000D+00 0.103834890966D-03 0.119217905049D-05 0.000000000000D+00  7 -3 3 23 -11 11 23 21 2 0.59049866D-01 0.18221168D+00 0.40642669D+06 0.40642669D+06 0.40642669D+06 0.10749290D+01  1  2  6  2  7  2        3 0.147560334046D-03 0.100000000000D+01
0.148559754851D-05 0.000000000000D+00 0.000000000000D+00 0.119217905049D-05 0.000000000000D+00  7 -3 21 23 -11 11 23 -3 2 0.59049866D-01 0.19138084D+00 0.43273775D+06 0.43273775D+06 0.43273775D+06 0.10729733D+01  1  2 12  4  7  2        3 0.337856026917D-05 0.100000000000D+01
-.602336357355D-05 0.000000000000D+00 -.945244861306D-06 0.119217905049D-05 0.000000000000D+00  7 -3 21 23 -11 11 23 -3 2 0.59049866D-01 0.19200664D+00 0.40642669D+06 0.40642669D+06 0.40642669D+06 0.10749290D+01  1  2  5  4  7  2        3 -.136653236693D-04 0.100000000000D+01
  </mgrwgt>
  </event>
  <event>
  8     66 0.27784906E-05 0.27797725E+03 0.75467711E-02 0.10076876E+00
       -1 -1    0    0    0  501 0.00000000E+00 0.00000000E+00 0.32787504E+03 0.32787519E+03 0.32000000E+00 0.0000E+00 0.9000E+01
        1 -1    0    0  501    0 0.00000000E+00 0.00000000E+00 -.26794557E+03 0.26794576E+03 0.32000000E+00 0.0000E+00 0.9000E+01
       25  2    1    2    0    0 -.54601438E+02 -.19934146E+03 0.17032314E+02 0.36587802E+03 0.30142709E+03 0.0000E+00 0.0000E+00
       23  2    3    3    0    0 -.91357931E+02 0.75438404E+01 0.42332161E+02 0.13542651E+03 0.90250461E+02 0.0000E+00 0.0000E+00
       23  1    1    2    0    0 0.54601438E+02 0.19934146E+03 0.42897157E+02 0.22994293E+03 0.91188000E+02 0.0000E+00 0.9000E+01
      -11  1    4    4    0    0 -.31965662E+02 0.23284489E+02 0.59669060E+02 0.71584689E+02 0.51099893E-03 0.0000E+00 0.9000E+01
       11  1    4    4    0    0 -.59392269E+02 -.15740649E+02 -.17336899E+02 0.63841818E+02 0.51099893E-03 0.0000E+00 0.9000E+01
       23  1    3    3    0    0 0.36756492E+02 -.20688530E+03 -.25299847E+02 0.23045151E+03 0.91188000E+02 0.0000E+00 0.9000E+01
#aMCatNLO 1  0  0  2  2 0.45619369D+02 0.00000000D+00  -5  7  0 0.00000000D+00 0.00000000D+00 0.00000000D+00 0.00000000D+00 0.00000000D+00
  <mgrwgt>
 0.2812909677D-03    4    2    0
 0.296399672084395D+03 0.000000000000000D+00 0.000000000000000D+00 0.296399672084395D+03
 0.296399672084395D+03 0.000000000000000D+00 0.000000000000000D+00 -.296399672084395D+03
 0.226778272447985D+03 0.546014382654824D+02 0.199341457671691D+03 0.198695672614844D+02
 0.659172828433002D+02 -.319656618253993D+02 0.232844890248921D+02 0.527362988117059D+02
 0.659199169136501D+02 -.593922686791414D+02 -.157406486838992D+02 -.238794021293934D+02
 0.234183871963854D+03 0.367564922390583D+02 -.206885298012684D+03 -.487264639437970D+02
 0.000000000000000D+00 -.000000000000000D+00 -.000000000000000D+00 0.000000000000000D+00
 0.456590902529683D+03 0.000000000000000D+00 0.000000000000000D+00 0.456590902529683D+03
 0.300541790719910D+03 0.000000000000000D+00 0.000000000000000D+00 -.300541790719910D+03
 0.234274236421095D+03 0.720414134474568D+02 0.202446046027136D+03 0.198695672614844D+02
 0.640043579056193D+02 -.270511886435476D+02 0.241593421169593D+02 0.527362988117059D+02
 0.614026865287383D+02 -.545761078266903D+02 -.148832967241370D+02 -.238794021293934D+02
 0.234870810452086D+03 0.544991611606275D+02 -.203726825437255D+03 -.487264639437970D+02
 0.162580601942054D+03 -.449132781378464D+02 -.799526598270355D+01 0.156049111809772D+03
0.586781957539D-05 0.000000000000D+00 0.000000000000D+00 0.302350668838D-07 0.000000000000D+00  7 -1 1 23 -11 11 23 21 0 0.50442340D-01 0.41222421D-01 0.77271350D+05 0.77271350D+05 0.77271350D+05 0.11310289D+01  1  2  2  2  7  2        1 0.291033826511D-03 0.100000000000D+01
-.324357889370D-06 0.000000000000D+00 -.225339722019D-07 0.302350668838D-07 0.000000000000D+00  7 -1 1 23 -11 11 23 21 2 0.50442340D-01 0.41222421D-01 0.77271350D+05 0.77271350D+05 0.77271350D+05 0.11310289D+01  1  2  3  2  7  2        1 -.205796792197D-04 0.100000000000D+01
0.377438549249D-06 0.000000000000D+00 0.000000000000D+00 0.302350668838D-07 0.000000000000D+00  7 -1 1 23 -11 11 23 21 2 0.50442340D-01 0.41222421D-01 0.77271350D+05 0.77271350D+05 0.77271350D+05 0.11310289D+01  1  2 15  2  7  2        1 0.239475114472D-04 0.100000000000D+01
-.206638599179D-06 0.000000000000D+00 0.000000000000D+00 0.302350668838D-07 0.000000000000D+00  7 -1 1 23 -11 11 23 21 2 0.50442340D-01 0.41222421D-01 0.77271350D+05 0.77271350D+05 0.77271350D+05 0.11310289D+01  1  2  4  2  7  2        1 -.131106910757D-04 0.100000000000D+01
  </mgrwgt>
  </event>
  <event>
  9     66 0.27784906E-05 0.21460104E+03 0.75467711E-02 0.96684761E-01
       21 -1    0    0  502  501 0.00000000E+00 0.00000000E+00 0.39555662E+03 0.39555733E+03 0.75000000E+00 0.0000E+00 0.9000E+01
        1 -1    0    0  501    0 0.00000000E+00 0.00000000E+00 -.11808565E+04 0.11808566E+04 0.32000000E+00 0.0000E+00 0.9000E+01
       25  2    1    2    0    0 -.54507125E+02 -.71392054E+02 -.16008623E+03 0.35136349E+03 0.29960115E+03 0.0000E+00 0.0000E+00
       23  2    3    3    0    0 0.18510017E+01 -.13408691E+03 -.25173520E+02 0.16799617E+03 0.98011626E+02 0.0000E+00 0.0000E+00
       23  1    1    2    0    0 -.22143306E+03 -.51948872E+02 -.82639917E+03 0.86196410E+03 0.91188000E+02 0.0000E+00 0.9000E+01
      -13  1    4    4    0    0 0.11990496E+00 0.15835026E+02 -.55759101E+01 0.16788817E+02 0.10565837E+00 0.0000E+00 0.9000E+01
       13  1    4    4    0    0 0.17310967E+01 -.14992194E+03 -.19597610E+02 0.15120735E+03 0.10565837E+00 0.0000E+00 0.9000E+01
       23  1    3    3    0    0 -.56358127E+02 0.62694861E+02 -.13491271E+03 0.18336732E+03 0.91188000E+02 0.0000E+00 0.9000E+01
        1  1    1    2  502    0 0.27594018E+03 0.12334093E+03 0.20118548E+03 0.36308631E+03 0.32000000E+00 0.0000E+00 0.9000E+01
#aMCatNLO 2  0  0  1  2 0.30225150D+03 0.00000000D+00  -5  7  0 0.00000000D+00 0.00000000D+00 0.00000000D+00 0.00000000D+00 0.00000000D+00
  <mgrwgt>
 0.1297897572D-03    1    2    0
 0.319239111414796D+03 0.000000000000000D+00 0.000000000000000D+00 0.319239111414796D+03
 0.319239111414796D+03 0.000000000000000D+00 0.000000000000000D+00 -.319239111414796D+03
 0.255458081805903D+03 -.102036361032196D+03 0.141957458187008D+01 -.215708474685778D+03
 0.263999883745647D+02 0.985550354170994D+01 0.201868657127497D+02 0.138679085954554D+02
 0.228852931759448D+03 0.963589677874299D+02 -.107624962630734D+03 0.177497834129232D+03
 0.127767220889677D+03 -.417811029694393D+01 0.860185223361141D+02 0.243427319610906D+02
 0.000000000000000D+00 0.000000000000000D+00 0.000000000000000D+00 0.000000000000000D+00
 0.123179942931127D+04 0.000000000000000D+00 0.000000000000000D+00 0.123179942931127D+04
 0.379198214667203D+03 0.000000000000000D+00 0.000000000000000D+00 -.379198214667203D+03
 0.326460841061346D+03 -.221433055430317D+03 -.519488721148996D+02 -.215708474685778D+03
 0.210496329040531D+02 0.119906865809853D+00 0.158352069429807D+02 0.138679085954554D+02
 0.232346989628924D+03 0.173110141882388D+01 -.149922132311852D+03 0.177497834129232D+03
 0.126549223971788D+03 -.563581334141301D+02 0.626948717408965D+02 0.243427319610906D+02
 0.904590956412358D+03 0.275940180559814D+03 0.123340925742875D+03 0.852601214644063D+03
0.327854979468D-05 0.000000000000D+00 0.000000000000D+00 0.254334373783D-07 0.784512055946D-12  7 21 1 23 -13 13 23 1 2 0.60854918D-01 0.18167028D+00 0.17524653D+06 0.17524653D+06 0.17524653D+06 0.11022597D+01  1  2  1  3  7  1       -1 0.129789757187D-03 0.100000000000D+01
  </mgrwgt>
  </event>
  <event>
  8     66 0.27784906E-05 0.29477522E+03 0.75467711E-02 0.93542532E-01
       -1 -1    0    0    0  501 0.00000000E+00 0.00000000E+00 0.44883039E+03 0.44883050E+03 0.32000000E+00 0.0000E+00 0.9000E+01
        1 -1    0    0  501    0 0.00000000E+00 0.00000000E+00 -.12990189E+04 0.12990189E+04 0.32000000E+00 0.0000E+00 0.9000E+01
       25  2    1    2    0    0 -.10824223E+03 0.17795624E+03 0.36023658E+03 0.51625333E+03 0.30555246E+03 0.0000E+00 0.0000E+00
       23  2    3    3    0    0 -.79394766E+02 0.23083238E+03 0.26637343E+03 0.37219222E+03 0.89359539E+02 0.0000E+00 0.0000E+00
       23  1    1    2    0    0 0.10824223E+03 -.17795624E+03 -.12104251E+04 0.12315961E+04 0.91188000E+02 0.0000E+00 0.9000E+01
      -13  1    4    4    0    0 -.84087793E+02 0.15033027E+03 0.21915776E+03 0.27874734E+03 0.10565837E+00 0.0000E+00 0.9000E+01
       13  1    4    4    0    0 0.46930266E+01 0.80502112E+02 0.47215678E+02 0.93444882E+02 0.10565837E+00 0.0000E+00 0.9000E+01
       23  1    3    3    0    0 -.28847469E+02 -.52876138E+02 0.93863148E+02 0.14406111E+03 0.91188000E+02 0.0000E+00 0.9000E+01
#aMCatNLO 1  0  0  2  2 0.46273138D+03 0.00000000D+00  -5  7  0 0.00000000D+00 0.00000000D+00 0.00000000D+00 0.00000000D+00 0.00000000D+00
  <mgrwgt>
 0.5410262192D-03    3    2    0
 0.763570086970833D+03 0.000000000000000D+00 0.000000000000000D+00 0.763570086970833D+03
 0.763570086970833D+03 0.000000000000000D+00 0.000000000000000D+00 -.763570086970833D+03
 0.735724885478255D+03 0.108242234899094D+03 -.177956239242134D+03 -.699707832789399D+03
 0.441042964522115D+03 -.840879167737900D+02 0.150330361661213D+03 0.406015887829416D+03
 0.133235412045571D+03 0.469315077949107D+01 0.805020139116888D+02 0.106061657138083D+03
 0.217136911895725D+03 -.288474689047949D+02 -.528761363307672D+02 0.187630287821900D+03
 0.000000000000000D+00 0.000000000000000D+00 -.000000000000000D+00 0.000000000000000D+00
 0.383860806941652D+04 0.000000000000000D+00 0.000000000000000D+00 0.383860806941652D+04
 0.815457176040097D+03 0.000000000000000D+00 0.000000000000000D+00 -.815457176040097D+03
 0.706708536020045D+03 0.324321882603857D+02 0.218816232807390D+02 -.699707832789399D+03
 0.512471513980859D+03 -.134201825678444D+03 0.282432330756409D+03 0.406015887829416D+03
 0.161519638050882D+03 -.107983053679934D+02 0.121338019443170D+03 0.106061657138083D+03
 0.215006249914049D+03 -.515596390217131D+02 0.699391692287838D+01 0.187630287821900D+03
 0.305835930749078D+04 0.164127581807765D+03 -.432645890403197D+03 0.302315089337642D+04
0.193440769680D-03 0.000000000000D+00 0.000000000000D+00 0.210921574975D-07 0.000000000000D+00  7 -1 1 23 -13 13 23 21 0 0.69050840D-01 0.19984907D+00 0.86892429D+05 0.86892429D+05 0.86892429D+05 0.11267639D+01  1  2  2  2  7  2        1 0.498817571326D-03 0.100000000000D+01
0.109027147248D-05 0.000000000000D+00 -.742863489694D-06 0.210921574975D-07 0.000000000000D+00  7 -1 1 23 -13 13 23 21 2 0.69050840D-01 0.19984907D+00 0.86892429D+05 0.86892429D+05 0.86892429D+05 0.11267639D+01  1  2  3  2  7  2        1 0.356939210778D-05 0.100000000000D+01
0.118023677329D-04 0.000000000000D+00 0.000000000000D+00 0.210921574975D-07 0.000000000000D+00  7 -1 1 23 -13 13 23 21 2 0.69050840D-01 0.19984907D+00 0.86892429D+05 0.86892429D+05 0.86892429D+05 0.11267639D+01  1  2 15  2  7  2        1 0.386392557290D-04 0.100000000000D+01
  </mgrwgt>
  </event>
  <event>
  8     66 0.27784906E-05 0.14413070E+03 0.75467711E-02 0.96766362E-01
       -1 -1    0    0    0  501 0.00000000E+00 0.00000000E+00 0.19424728E+03 0.19424755E+03 0.32000000E+00 0.0000E+00 0.9000E+01
        1 -1    0    0  501    0 0.00000000E+00 0.00000000E+00 -.59937456E+03 0.59937465E+03 0.32000000E+00 0.0000E+00 0.9000E+01
       25  2    1    2    0    0 -.38237778E+02 0.78641555E+01 0.66159818E+02 0.31200954E+03 0.30240512E+03 0.0000E+00 0.0000E+00
       23  2    3    3    0    0 -.18992821E+02 0.37656626E+02 0.15251954E+03 0.18150585E+03 0.88901153E+02 0.0000E+00 0.0000E+00
       23  1    1    2    0    0 0.38237778E+02 -.78641555E+01 -.47128710E+03 0.48161266E+03 0.91188000E+02 0.0000E+00 0.9000E+01
      -13  1    4    4    0    0 0.25783477E+02 0.38623505E+02 0.11145518E+03 0.12074283E+03 0.10565837E+00 0.0000E+00 0.9000E+01
       13  1    4    4    0    0 -.44776298E+02 -.96687954E+00 0.41064359E+02 0.60763019E+02 0.10565837E+00 0.0000E+00 0.9000E+01
       23  1    3    3    0    0 -.19244957E+02 -.29792470E+02 -.86359720E+02 0.13050369E+03 0.91188000E+02 0.0000E+00 0.9000E+01
#aMCatNLO 1  0  0  1  2 0.35095848D+03 0.00000000D+00  -5  7  0 0.00000000D+00 0.00000000D+00 0.00000000D+00 0.00000000D+00 0.00000000D+00
  <mgrwgt>
 0.3898816391D-03    5    2    0
 0.341214036778178D+03 0.000000000000000D+00 0.000000000000000D+00 0.341214036778178D+03
 0.341214036778178D+03 0.000000000000000D+00 0.000000000000000D+00 -.341214036778178D+03
 0.280303883175033D+03 0.382377784850835D+02 -.786415571516646D+01 -.262166059836921D+03
 0.206582693850363D+03 0.257835762203222D+02 0.386235595865354D+02 0.201295397961873D+03
 0.950416128472242D+02 -.447763979218851D+02 -.966935958154860D+00 0.838274859255332D+02
 0.100499883683736D+03 -.192449567835206D+02 -.297924679132141D+02 -.229568240504855D+02
 0.000000000000000D+00 -.000000000000000D+00 -.000000000000000D+00 0.000000000000000D+00
 0.873865437824109D+03 0.000000000000000D+00 0.000000000000000D+00 0.873865437824109D+03
 0.446513179441816D+03 0.000000000000000D+00 0.000000000000000D+00 -.446513179441816D+03
 0.322610974944892D+03 0.118335814826061D+03 0.114141061016314D+03 -.262166059836921D+03
 0.256182505176081D+03 0.872625449830836D+02 0.132268238669527D+03 0.201295397961873D+03
 0.938201048289898D+02 -.196858689324009D+02 0.372509226449962D+02 0.838274859255332D+02
 0.947715382515352D+02 0.669710989451530D+01 0.972245170407342D+01 -.229568240504855D+02
 0.552993494064428D+03 -.192609600771259D+03 -.293382674034911D+03 0.427352258382293D+03
0.785969256110D-05 0.000000000000D+00 0.000000000000D+00 0.114003603558D-07 0.000000000000D+00  7 -1 1 23 -13 13 23 21 0 0.29884224D-01 0.92211498D-01 0.20773658D+05 0.20773658D+05 0.20773658D+05 0.11824408D+01  1  2  2  1  7  1       -1 0.329945238540D-03 0.100000000000D+01
-.423585549997D-07 0.000000000000D+00 -.301832889392D-07 0.114003603558D-07 0.000000000000D+00  7 -1 1 23 -13 13 23 21 2 0.29884224D-01 0.92211498D-01 0.20773658D+05 0.20773658D+05 0.20773658D+05 0.11824408D+01  1  2  3  1  7  1       -1 -.248620105670D-05 0.100000000000D+01
0.486197412908D-06 0.000000000000D+00 0.000000000000D+00 0.114003603558D-07 0.000000000000D+00  7 -1 1 23 -13 13 23 21 2 0.29884224D-01 0.92211498D-01 0.20773658D+05 0.20773658D+05 0.20773658D+05 0.11824408D+01  1  2 15  1  7  1       -1 0.285369631175D-04 0.100000000000D+01
0.184346167735D-05 0.000000000000D+00 -.251197034888D-05 0.114003603558D-07 0.000000000000D+00  7 -1 1 23 -13 13 23 21 2 0.94286786D-01 0.92211498D-01 0.20773658D+05 0.20773658D+05 0.20773658D+05 0.11824408D+01  1  2  5  1  7  1       -1 0.136051080673D-04 0.100000000000D+01
0.355903562351D-06 0.000000000000D+00 -.331526998408D-06 0.114003603558D-07 0.000000000000D+00  7 21 1 23 -13 13 23 1 2 0.94286786D-01 0.92211498D-01 0.20773658D+05 0.20773658D+05 0.20773658D+05 0.11824408D+01  1  2  5  3  7  1       -1 0.202805304775D-04 0.100000000000D+01
  </mgrwgt>
  </event>
  <event>
  9     66 0.27784906E-05 0.28073913E+03 0.75467711E-02 0.95020035E-01
       21 -1    0    0  502  501 0.00000000E+00 0.00000000E+00 0.67860084E+03 0.67860125E+03 0.75000000E+00 0.0000E+00 0.9000E+01
        1 -1    0    0  501    0 0.00000000E+00 0.00000000E+00 -.39768107E+03 0.39768120E+03 0.32000000E+00 0.0000E+00 0.9000E+01
       25  2    1    2    0    0 -.15661471E+03 0.33529735E+03 0.26766487E+03 0.54661072E+03 0.30031036E+03 0.0000E+00 0.0000E+00
       23  2    3    3    0    0 -.14952545E+03 0.32645348E+03 0.17653100E+03 0.41719239E+03 0.11813787E+03 0.0000E+00 0.0000E+00
       23  1    1    2    0    0 -.98347586E+02 -.13843131E+03 -.54916258E+02 0.20041587E+03 0.91188000E+02 0.0000E+00 0.9000E+01
      -13  1    4    4    0    0 -.40363048E+02 0.77800863E+02 0.10420817E+03 0.13616719E+03 0.10565837E+00 0.0000E+00 0.9000E+01
       13  1    4    4    0    0 -.10916241E+03 0.24865262E+03 0.72322826E+02 0.28102519E+03 0.10565837E+00 0.0000E+00 0.9000E+01
       23  1    3    3    0    0 -.70892565E+01 0.88438705E+01 0.91133869E+02 0.12941833E+03 0.91188000E+02 0.0000E+00 0.9000E+01
        1  1    1    2  502    0 0.25496230E+03 -.19686605E+03 0.68171152E+02 0.32925586E+03 0.32000000E+00 0.0000E+00 0.9000E+01
#aMCatNLO 2  0  0  1  2 0.32212111D+03 0.00000000D+00  -5  7  0 0.00000000D+00 0.00000000D+00 0.00000000D+00 0.00000000D+00 0.00000000D+00
  <mgrwgt>
 0.3759166393D-04    1    2    0
 0.319775212300300D+03 0.000000000000000D+00 0.000000000000000D+00 0.319775212300300D+03
 0.319775212300300D+03 0.000000000000000D+00 0.000000000000000D+00 -.319775212300300D+03
 0.255768482691493D+03 -.785383713542729D+01 -.208304960095576D+03 -.116831614882870D+03
 0.843448865641156D+02 -.360668643752165D+01 0.494198929015211D+02 0.682548598127424D+02
 0.184134403763592D+03 -.234354589872012D+02 0.182459708740588D+03 -.804441407018320D+01
 0.115302651581399D+03 0.348959825601501D+02 -.235746415465336D+02 0.566211691403104D+02
 0.000000000000000D+00 0.000000000000000D+00 -.000000000000000D+00 -.000000000000000D+00
 0.506306348541113D+03 0.000000000000000D+00 0.000000000000000D+00 0.506306348541113D+03
 0.533011128623635D+03 0.000000000000000D+00 0.000000000000000D+00 -.533011128623635D+03
 0.225389335667204D+03 -.983475860699862D+02 -.138431309199079D+03 -.116831614882870D+03
 0.111089454667777D+03 -.403629970155313D+02 0.778008324007604D+02 0.682548598127424D+02
 0.271678852410767D+03 -.109162529797337D+03 0.248652826924900D+03 -.804441407018320D+01
 0.107933663025539D+03 -.708918371237741D+01 0.884369547119181D+01 0.566211691403104D+02
 0.323226171393461D+03 0.254962296595231D+03 -.196866045597773D+03 -.267047800825228D+02
0.675311387312D-06 0.000000000000D+00 0.000000000000D+00 0.114209456943D-08 0.992858461336D-14  7 21 1 23 -13 13 23 1 2 0.10440015D+00 0.61181736D-01 0.23327143D+06 0.23327143D+06 0.23327143D+06 0.10927291D+01  1  2  1  3  7  1       -1 0.375916639339D-04 0.100000000000D+01
  </mgrwgt>
  </event>
  <event>
  8     66 0.27784906E-05 0.37305212E+03 0.75467711E-02 0.96683535E-01
       -1 -1    0    0    0  501 0.00000000E+00 0.00000000E+00 0.11809082E+03 0.11809125E+03 0.32000000E+00 0.0000E+00 0.9000E+01
        1 -1    0    0  501    0 0.00000000E+00 0.00000000E+00 -.21014909E+04 0.21014910E+04 0.32000000E+00 0.0000E+00 0.9000E+01
       25  2    1    2    0    0 -.10607735E+03 -.37500976E+03 -.58998244E+03 0.76981920E+03 0.30439708E+03 0.0000E+00 0.0000E+00
       23  2    3    3    0    0 -.36251016E+02 -.24985820E+03 -.52210619E+03 0.58689553E+03 0.90045727E+02 0.0000E+00 0.0000E+00
       23  1    1    2    0    0 0.10607735E+03 0.37500976E+03 -.13934177E+04 0.14497630E+04 0.91188000E+02 0.0000E+00 0.9000E+01
      -13  1    4    4    0    0 0.21521102E+02 -.20582308E+02 -.82956634E+02 0.88139682E+02 0.10565837E+00 0.0000E+00 0.9000E+01
       13  1    4    4    0    0 -.57772117E+02 -.22927589E+03 -.43914955E+03 0.49875584E+03 0.10565837E+00 0.0000E+00 0.9000E+01
       23  1    3    3    0    0 -.69826331E+02 -.12515157E+03 -.67876255E+02 0.18292367E+03 0.91188000E+02 0.0000E+00 0.9000E+01
#aMCatNLO 1  0  0  2  2 0.10266451D+01 0.00000000D+00  -5  7  0 0.00000000D+00 0.00000000D+00 0.00000000D+00 0.00000000D+00 0.00000000D+00
  <mgrwgt>
 0.7009303271D-03   10    2    0
 0.498163917096045D+03 0.000000000000000D+00 0.000000000000000D+00 0.498163917096045D+03
 0.498163917096045D+03 0.000000000000000D+00 0.000000000000000D+00 -.498163917096045D+03
 0.455837322788452D+03 0.106077347434645D+03 0.375009765190587D+03 -.218146019619598D+03
 0.312114019788890D+02 0.215212105481288D+02 -.205820194137911D+02 -.934716999317079D+01
 0.236890504782540D+03 -.577722272337148D+02 -.229276174835185D+03 0.145573579171615D+02
 0.272388604642209D+03 -.698263307490590D+02 -.125151570941610D+03 0.212935831695607D+03
 0.000000000000000D+00 -.000000000000000D+00 -.000000000000000D+00 -.000000000000000D+00
 0.498556356814237D+03 0.000000000000000D+00 0.000000000000000D+00 0.498556356814237D+03
 0.498836075170321D+03 0.000000000000000D+00 0.000000000000000D+00 -.498836075170321D+03
 0.456229967093729D+03 0.106106195037877D+03 0.375478789053463D+03 -.218146019619598D+03
 0.311916116213482D+02 0.215231842812039D+02 -.205499291252580D+02 -.934716999317079D+01
 0.236651168791855D+03 -.577572496739835D+02 -.229032659529421D+03 0.145573579171615D+02
 0.272255615627462D+03 -.698091043003711D+02 -.124871491676716D+03 0.212935831695607D+03
 0.106406885016430D+01 -.630253447265024D-01 -.102470872206780D+01 -.279718356083877D+00
0.180318993392D-04 0.000000000000D+00 0.000000000000D+00 0.160973130138D-07 0.000000000000D+00  7 -1 1 23 -13 13 23 21 0 0.18167853D-01 0.32330633D+00 0.17486443D+06 0.17486443D+06 0.17486443D+06 0.11023335D+01  1  2  2  2  7  2        1 0.132626586900D-03 0.100000000000D+01
-.964451029733D-06 0.000000000000D+00 -.692472413706D-07 0.160973130138D-07 0.000000000000D+00  7 -1 1 23 -13 13 23 21 2 0.18167853D-01 0.32330633D+00 0.17486443D+06 0.17486443D+06 0.17486443D+06 0.11023335D+01  1  2  3  2  7  2        1 -.861976213720D-05 0.100000000000D+01
0.111760567255D-05 0.000000000000D+00 0.000000000000D+00 0.160973130138D-07 0.000000000000D+00  7 -1 1 23 -13 13 23 21 2 0.18167853D-01 0.32330633D+00 0.17486443D+06 0.17486443D+06 0.17486443D+06 0.11023335D+01  1  2 15  2  7  2        1 0.998857874954D-05 0.100000000000D+01
-.149729210422D-02 0.000000000000D+00 0.000000000000D+00 0.160973130138D-07 0.000000000000D+00  7 -1 1 23 -13 13 23 21 2 0.18167853D-01 0.32330633D+00 0.17486443D+06 0.17486443D+06 0.17486443D+06 0.11023335D+01  1  2  4  2  7  2        1 -.133820187759D-01 0.100000000000D+01
-.131628649147D-01 0.000000000000D+00 -.100811112073D-02 0.160973130138D-07 0.000000000000D+00  7 -1 1 23 -13 13 23 21 2 0.18167853D-01 0.32385924D+00 0.17486443D+06 0.17486443D+06 0.17486443D+06 0.11023335D+01  1  2  5  2  7  2        1 -.116997667103D+00 0.100000000000D+01
0.131645697188D-01 0.000000000000D+00 0.100810964908D-02 0.160973130138D-07 0.000000000000D+00  7 -1 1 23 -13 13 23 21 2 0.18167853D-01 0.32330633D+00 0.17486443D+06 0.17486443D+06 0.17486443D+06 0.11023335D+01  1  2  6  2  7  2        1 0.117658083321D+00 0.100000000000D+01
0.149729398306D-02 0.000000000000D+00 0.000000000000D+00 0.160973130138D-07 0.989633456403D-07  7 -1 1 23 -13 13 23 21 2 0.18182165D-01 0.32374256D+00 0.17528280D+06 0.17528280D+06 0.17528280D+06 0.11022528D+01  1  2 11  2  7  2        1 0.133040257362D-01 0.100000000000D+01
0.647243382431D-11 0.000000000000D+00 0.000000000000D+00 0.160973130138D-07 0.000000000000D+00  7 -1 21 23 -13 13 23 -1 2 0.18167853D-01 0.32386977D+00 0.17528280D+06 0.17528280D+06 0.17528280D+06 0.11022528D+01  1  2 12  4  7  2        1 0.273888491935D-10 0.100000000000D+01
-.420522323076D-05 0.000000000000D+00 -.322151951635D-06 0.160973130138D-07 0.000000000000D+00  7 -1 21 23 -13 13 23 -1 2 0.18167853D-01 0.32385924D+00 0.17486443D+06 0.17486443D+06 0.17486443D+06 0.11023335D+01  1  2  5  4  7  2        1 -.178042384257D-04 0.100000000000D+01
0.546938483369D-06 0.000000000000D+00 0.000000000000D+00 0.160973130138D-07 0.249945264042D-10  7 -1 21 23 -13 13 23 -1 2 0.18182165D-01 0.32374256D+00 0.17528280D+06 0.17528280D+06 0.17528280D+06 0.11022528D+01  1  2 11  4  7  2        1 0.231595706304D-05 0.100000000000D+01
  </mgrwgt>
  </event>
  <event>
  8     66 0.27784906E-05 0.24402251E+03 0.75467711E-02 0.10287098E+00
       -1 -1    0    0    0  501 0.00000000E+00 0.00000000E+00 0.72375149E+02 0.72375856E+02 0.32000000E+00 0.0000E+00 0.9000E+01
        1 -1    0    0  501    0 0.00000000E+00 0.00000000E+00 -.12108587E+04 0.12108587E+04 0.32000000E+00 0.0000E+00 0.9000E+01
       25  2    1    2    0    0 -.16756921E+02 -.14076354E+03 -.37291603E+03 0.49933151E+03 0.30028390E+03 0.0000E+00 0.0000E+00
       23  2    3    3    0    0 -.92734677E+02 -.16316582E+03 -.27466164E+03 0.34362776E+03 0.86129069E+02 0.0000E+00 0.0000E+00
       23  1    1    2    0    0 0.16756921E+02 0.14076354E+03 -.76556750E+03 0.78390306E+03 0.91188000E+02 0.0000E+00 0.9000E+01
      -11  1    4    4    0    0 -.19116929E+02 -.99665804E+02 -.93310344E+02 0.13786062E+03 0.51099893E-03 0.0000E+00 0.9000E+01
       11  1    4    4    0    0 -.73617748E+02 -.63500016E+02 -.18135130E+03 0.20576715E+03 0.51099893E-03 0.0000E+00 0.9000E+01
       23  1    3    3    0    0 0.75977756E+02 0.22402277E+02 -.98254389E+02 0.15570375E+03 0.91188000E+02 0.0000E+00 0.9000E+01
#aMCatNLO 1  0  0  1  1 0.22782568D+02 0.00000000D+00  -5  7  0 0.00000000D+00 0.00000000D+00 0.00000000D+00 0.00000000D+00 0.00000000D+00
  <mgrwgt>
 0.3615894994D-03    4    2    0
 0.296034724914798D+03 0.000000000000000D+00 0.000000000000000D+00 0.296034724914798D+03
 0.296034724914798D+03 0.000000000000000D+00 0.000000000000000D+00 -.296034724914798D+03
 0.226908398420164D+03 0.167569210399606D+02 0.140763542949738D+03 -.151911159903088D+03
 0.119369815762965D+03 -.191169289644774D+02 -.996658043087010D+02 0.628523936994523D+02
 0.972555666195351D+02 -.736177476063989D+02 -.635000158502226D+02 0.261160159076009D+01
 0.148535669026932D+03 0.759777555309157D+02 0.224022772091852D+02 0.864471646128757D+02
 0.000000000000000D+00 -.000000000000000D+00 -.000000000000000D+00 -.000000000000000D+00
 0.299337253786422D+03 0.000000000000000D+00 0.000000000000000D+00 0.299337253786422D+03
 0.338337061108473D+03 0.000000000000000D+00 0.000000000000000D+00 -.338337061108473D+03
 0.232078912133785D+03 0.212083138494253D+02 0.148386579695617D+03 -.151911159903088D+03
 0.115775416186112D+03 -.168364219207973D+02 -.957604223895308D+02 0.628523936994523D+02
 0.937890352447173D+02 -.717649413360050D+02 -.603270740572234D+02 0.261160159076009D+01
 0.150864255666990D+03 0.788814233258452D+02 0.273748256330197D+02 0.864471646128757D+02
 0.451666956632906D+02 -.114883739184682D+02 -.196739088818824D+02 -.389998073220517D+02
0.680059630764D-05 0.000000000000D+00 0.000000000000D+00 0.224875145880D-07 0.000000000000D+00  7 -1 1 23 -11 11 23 21 0 0.11134696D-01 0.18628601D+00 0.59546987D+05 0.59546987D+05 0.59546987D+05 0.11406794D+01  1  2  2  1  7  1       -1 0.431512408769D-03 0.100000000000D+01
-.360661725367D-06 0.000000000000D+00 -.261160804595D-07 0.224875145880D-07 0.000000000000D+00  7 -1 1 23 -11 11 23 21 2 0.11134696D-01 0.18628601D+00 0.59546987D+05 0.59546987D+05 0.59546987D+05 0.11406794D+01  1  2  3  1  7  1       -1 -.297764923897D-04 0.100000000000D+01
0.429874483183D-06 0.000000000000D+00 0.000000000000D+00 0.224875145880D-07 0.000000000000D+00  7 -1 1 23 -11 11 23 21 2 0.11134696D-01 0.18628601D+00 0.59546987D+05 0.59546987D+05 0.59546987D+05 0.11406794D+01  1  2 15  1  7  1       -1 0.354907476362D-04 0.100000000000D+01
-.916139816763D-06 0.000000000000D+00 0.000000000000D+00 0.224875145880D-07 0.000000000000D+00  7 -1 1 23 -11 11 23 21 2 0.11134696D-01 0.18628601D+00 0.59546987D+05 0.59546987D+05 0.59546987D+05 0.11406794D+01  1  2  4  1  7  1       -1 -.756371645870D-04 0.100000000000D+01
  </mgrwgt>
  </event>
  <event>
  8     66 0.27784906E-05 0.49861395E+03 0.75467711E-02 0.90950279E-01
       -1 -1    0    0    0  501 0.00000000E+00 0.00000000E+00 0.24206407E+03 0.24206428E+03 0.32000000E+00 0.0000E+00 0.9000E+01
        1 -1    0    0  501    0 0.00000000E+00 0.00000000E+00 -.13406333E+04 0.13406334E+04 0.32000000E+00 0.0000E+00 0.9000E+01
       25  2    1    2    0    0 -.32290114E+03 0.31982810E+03 -.21629710E+03 0.58606604E+03 0.30022293E+03 0.0000E+00 0.0000E+00
       23  2    3    3    0    0 -.24987951E+03 0.85455290E+02 -.79560101E+02 0.29064256E+03 0.91656477E+02 0.0000E+00 0.0000E+00
       23  1    1    2    0    0 0.32290114E+03 -.31982810E+03 -.88227214E+03 0.99663160E+03 0.91188000E+02 0.0000E+00 0.9000E+01
      -13  1    4    4    0    0 -.16809209E+03 0.88504460E+02 -.23447655E+02 0.19141002E+03 0.10565837E+00 0.0000E+00 0.9000E+01
       13  1    4    4    0    0 -.81787422E+02 -.30491700E+01 -.56112446E+02 0.99232543E+02 0.10565837E+00 0.0000E+00 0.9000E+01
       23  1    3    3    0    0 -.73021621E+02 0.23437281E+03 -.13673700E+03 0.29542348E+03 0.91188000E+02 0.0000E+00 0.9000E+01
#aMCatNLO 1  0  0  1  1 0.35388432D+03 0.00000000D+00  -5  7  0 0.00000000D+00 0.00000000D+00 0.00000000D+00 0.00000000D+00 0.00000000D+00
  <mgrwgt>
 0.4893612778D-03    3    2    0
 0.569666005205052D+03 0.000000000000000D+00 0.000000000000000D+00 0.569666005205052D+03
 0.569666005205052D+03 0.000000000000000D+00 0.000000000000000D+00 -.569666005205052D+03
 0.533759634713570D+03 0.322901135775648D+03 -.319828102993041D+03 -.264629811918902D+03
 0.243287775596276D+03 -.168092206898179D+03 0.885045812000060D+02 0.151989772160152D+03
 0.837433353533911D+02 -.817873074435882D+02 -.304929169069837D+01 0.177337073795509D+02
 0.278541264746868D+03 -.730216214338801D+02 0.234372813483733D+03 0.949063323791993D+02
 0.000000000000000D+00 0.000000000000000D+00 -.000000000000000D+00 -.000000000000000D+00
 0.615320878730091D+03 0.000000000000000D+00 0.000000000000000D+00 0.615320878730091D+03
 0.226117215941524D+04 0.000000000000000D+00 0.000000000000000D+00 -.226117215941524D+04
 0.429242778079258D+03 0.186902476858011D+03 -.266406903021123D+03 -.264629811918902D+03
 0.313400023880588D+03 -.246709657030104D+03 0.119386051342468D+03 0.151989772160152D+03
 0.110988626175246D+03 -.109288054341502D+03 0.775318909185310D+01 0.177337073795509D+02
 0.339394784564536D+03 -.160288769352535D+03 0.268651943859311D+03 0.949063323791993D+02
 0.168346682544570D+04 0.329384003866130D+03 -.129384281272510D+03 -.164585128068515D+04
0.684555886097D-04 0.000000000000D+00 0.000000000000D+00 0.173104675085D-05 0.000000000000D+00  7 -1 1 23 -13 13 23 21 0 0.37240646D-01 0.20625130D+00 0.24861588D+06 0.24861588D+06 0.24861588D+06 0.10906405D+01  1  2  2  1  7  1       -1 0.484217291325D-03 0.100000000000D+01
-.372102585632D-05 0.000000000000D+00 -.262887485032D-06 0.173104675085D-05 0.000000000000D+00  7 -1 1 23 -13 13 23 21 2 0.37240646D-01 0.20625130D+00 0.24861588D+06 0.24861588D+06 0.24861588D+06 0.10906405D+01  1  2  3  1  7  1       -1 -.313081459141D-04 0.100000000000D+01
0.433239730508D-05 0.000000000000D+00 0.000000000000D+00 0.173104675085D-05 0.000000000000D+00  7 -1 1 23 -13 13 23 21 2 0.37240646D-01 0.20625130D+00 0.24861588D+06 0.24861588D+06 0.24861588D+06 0.10906405D+01  1  2 15  1  7  1       -1 0.364521323481D-04 0.100000000000D+01
  </mgrwgt>
  </event>
  <event>
  8     66 0.27784906E-05 0.10491974E+03 0.75467711E-02 0.10067285E+00
       -1 -1    0    0    0  501 0.00000000E+00 0.00000000E+00 0.72918330E+03 0.72918337E+03 0.32000000E+00 0.0000E+00 0.9000E+01
        1 -1    0    0  501    0 0.00000000E+00 0.00000000E+00 -.24950165E+03 0.24950185E+03 0.32000000E+00 0.0000E+00 0.9000E+01
       25  2    1    2    0    0 -.15523481E+03 0.16407129E+03 -.67178618E+02 0.38002953E+03 0.29814802E+03 0.0000E+00 0.0000E+00
       23  2    3    3    0    0 -.71104993E+02 0.16131763E+03 0.54800286E+02 0.20601944E+03 0.91442004E+02 0.0000E+00 0.0000E+00
       23  1    1    2    0    0 0.15523481E+03 -.16407129E+03 0.54686028E+03 0.59865570E+03 0.91188000E+02 0.0000E+00 0.9000E+01
      -11  1    4    4    0    0 -.61165244E+01 -.98805591E+00 -.16180976E+02 0.17326630E+02 0.51099893E-03 0.0000E+00 0.9000E+01
       11  1    4    4    0    0 -.64988468E+02 0.16230568E+03 0.70981262E+02 0.18869281E+03 0.51099893E-03 0.0000E+00 0.9000E+01
       23  1    3    3    0    0 -.84129815E+02 0.27536598E+01 -.12197890E+03 0.17401009E+03 0.91188000E+02 0.0000E+00 0.9000E+01
#aMCatNLO 1  0  0  2  1 0.59710148D+02 0.00000000D+00  -5  7  0 0.00000000D+00 0.00000000D+00 0.00000000D+00 0.00000000D+00 0.00000000D+00
  <mgrwgt>
 0.5492952215D-03    9    2    0
 0.426535544329355D+03 0.000000000000000D+00 0.000000000000000D+00 0.426535544329355D+03
 0.426535544329355D+03 0.000000000000000D+00 0.000000000000000D+00 -.426535544329355D+03
 0.379307948469095D+03 0.155234807923508D+03 -.164071285216651D+03 0.290761132554098D+03
 0.289765230861490D+02 -.611652441600024D+01 -.988055915546774D+00 -.283063732176757D+02
 0.176564947130017D+03 -.649884683853949D+02 0.162305681343783D+03 -.246687116703858D+02
 0.268221669973449D+03 -.841298151221129D+02 0.275365978841471D+01 -.237786047666037D+03
 0.000000000000000D+00 -.000000000000000D+00 -.000000000000000D+00 -.000000000000000D+00
 0.440792841601108D+03 0.000000000000000D+00 0.000000000000000D+00 0.440792841601108D+03
 0.495033597717573D+03 0.000000000000000D+00 0.000000000000000D+00 -.495033597717573D+03
 0.383683657082166D+03 0.178138723375331D+03 -.150407634108150D+03 0.290761132554098D+03
 0.286443180374203D+02 -.438682927419899D+01 0.438179136836307D-01 -.283063732176757D+02
 0.178910688759126D+03 -.543175988104858D+02 0.168671537836860D+03 -.246687116703858D+02
 0.263919557753935D+03 -.681556974521140D+02 0.122832431065211D+02 -.237786047666037D+03
 0.806682176860327D+02 -.512785978385322D+02 -.305909647489153D+02 -.542407561164652D+02
0.395916326201D-04 0.000000000000D+00 0.000000000000D+00 0.175966977516D-06 0.000000000000D+00  7 -1 1 23 -11 11 23 21 0 0.11218207D+00 0.38384890D-01 0.75270934D+05 0.75270934D+05 0.75270934D+05 0.11319890D+01  1  2  2  2  7  2        1 0.435283452140D-03 0.100000000000D+01
-.167879236841D-05 0.000000000000D+00 -.152042293978D-06 0.175966977516D-06 0.000000000000D+00  7 -1 1 23 -11 11 23 21 2 0.11218207D+00 0.38384890D-01 0.75270934D+05 0.75270934D+05 0.75270934D+05 0.11319890D+01  1  2  3  2  7  2        1 -.236510358743D-04 0.100000000000D+01
0.241068815495D-05 0.000000000000D+00 0.000000000000D+00 0.175966977516D-06 0.000000000000D+00  7 -1 1 23 -11 11 23 21 2 0.11218207D+00 0.38384890D-01 0.75270934D+05 0.75270934D+05 0.75270934D+05 0.11319890D+01  1  2 15  2  7  2        1 0.339620748268D-04 0.100000000000D+01
0.990649950458D-04 0.000000000000D+00 0.000000000000D+00 0.175966977516D-06 0.000000000000D+00  7 -1 1 23 -11 11 23 21 2 0.11218207D+00 0.45120110D-01 0.91853161D+05 0.91853161D+05 0.91853161D+05 0.11247632D+01  1  2 12  2  7  2        1 0.110939621690D-02 0.100000000000D+01
-.102334116535D-03 0.000000000000D+00 0.000000000000D+00 0.175966977516D-06 0.000000000000D+00  7 -1 1 23 -11 11 23 21 2 0.11218207D+00 0.38384890D-01 0.75270934D+05 0.75270934D+05 0.75270934D+05 0.11319890D+01  1  2  4  2  7  2        1 -.144169577303D-02 0.100000000000D+01
-.157928867025D-03 0.000000000000D+00 -.338880336965D-04 0.175966977516D-06 0.000000000000D+00  7 -1 1 23 -11 11 23 21 2 0.11218207D+00 0.45745676D-01 0.75270934D+05 0.75270934D+05 0.75270934D+05 0.11319890D+01  1  2  5  2  7  2        1 -.177092416399D-02 0.100000000000D+01
0.161891190375D-03 0.000000000000D+00 0.333731545518D-04 0.175966977516D-06 0.000000000000D+00  7 -1 1 23 -11 11 23 21 2 0.11218207D+00 0.38384890D-01 0.75270934D+05 0.75270934D+05 0.75270934D+05 0.11319890D+01  1  2  6  2  7  2        1 0.228074324339D-02 0.100000000000D+01
0.240000420879D-05 0.000000000000D+00 0.000000000000D+00 0.175966977516D-06 0.000000000000D+00  7 -1 21 23 -11 11 23 -1 2 0.11218207D+00 0.45120110D-01 0.91853161D+05 0.91853161D+05 0.91853161D+05 0.11247632D+01  1  2 12  4  7  2        1 0.130430012507D-03 0.100000000000D+01
-.377136651224D-05 0.000000000000D+00 -.875924268548D-06 0.175966977516D-06 0.000000000000D+00  7 -1 21 23 -11 11 23 -1 2 0.11218207D+00 0.45745676D-01 0.75270934D+05 0.75270934D+05 0.75270934D+05 0.11319890D+01  1  2  5  4  7  2        1 -.204248805415D-03 0.100000000000D+01
  </mgrwgt>
  </event>
  <event>
  8     66 0.27784906E-05 0.16694988E+03 0.75467711E-02 0.10881469E+00
       -1 -1    0    0    0  501 0.00000000E+00 0.00000000E+00 0.22493876E+02 0.22496152E+02 0.32000000E+00 0.0000E+00 0.9000E+01
        1 -1    0    0  501    0 0.00000000E+00 0.00000000E+00 -.18332423E+04 0.18332423E+04 0.32000000E+00 0.0000E+00 0.9000E+01
       25  2    1    2    0    0 -.38137422E+02 -.14034136E+02 -.12462023E+04 0.12824332E+04 0.29993866E+03 0.0000E+00 0.0000E+00
       23  2    3    3    0    0 -.76533966E+02 0.31250431E+02 -.24377156E+03 0.27411395E+03 0.94232923E+02 0.0000E+00 0.0000E+00
       23  1    1    2    0    0 0.38137422E+02 0.14034136E+02 -.56454606E+03 0.57330526E+03 0.91188000E+02 0.0000E+00 0.9000E+01
      -11  1    4    4    0    0 -.42487372E+02 -.32156410E+02 -.10918092E+03 0.12148944E+03 0.51099893E-03 0.0000E+00 0.9000E+01
       11  1    4    4    0    0 -.34046594E+02 0.63406841E+02 -.13459064E+03 0.15262450E+03 0.51099893E-03 0.0000E+00 0.9000E+01
       23  1    3    3    0    0 0.38396544E+02 -.45284567E+02 -.10024308E+04 0.10083192E+04 0.91188000E+02 0.0000E+00 0.9000E+01
#aMCatNLO 1  0  0  2  1 0.38652297D+01 0.00000000D+00  -5  7  0 0.00000000D+00 0.00000000D+00 0.00000000D+00 0.00000000D+00 0.00000000D+00
  <mgrwgt>
 0.4614086155D-03    6    2    0
 0.203073538767311D+03 0.000000000000000D+00 0.000000000000000D+00 0.203073538767311D+03
 0.203073538767311D+03 0.000000000000000D+00 0.000000000000000D+00 -.203073538767311D+03
 0.102558290103779D+03 0.381374228252792D+02 0.140341362358105D+02 -.234847083305596D+02
 0.683335098734809D+02 -.424873723697692D+02 -.321564102924329D+02 0.427815034547221D+02
 0.973080249465372D+02 -.340465943060220D+02 0.634068408303188D+02 0.654923939940790D+02
 0.137947252610824D+03 0.383965438505120D+02 -.452845667736964D+02 -.847891891182414D+02
 0.000000000000000D+00 0.000000000000000D+00 0.000000000000000D+00 0.000000000000000D+00
 0.206785038444377D+03 0.000000000000000D+00 0.000000000000000D+00 0.206785038444377D+03
 0.204091566091986D+03 0.000000000000000D+00 0.000000000000000D+00 -.204091566091986D+03
 0.102261059919475D+03 0.376338862288660D+02 0.131997012767654D+02 -.234847083305596D+02
 0.688075311925084D+02 -.428245257346201D+02 -.327151235144616D+02 0.427815034547221D+02
 0.969631872052210D+02 -.345241989119192D+02 0.626153790327049D+02 0.654923939940790D+02
 0.138133691153317D+03 0.377178147229088D+02 -.464093217881851D+02 -.847891891182414D+02
 0.471113506584181D+01 0.199702369476452D+01 0.330936499317647D+01 0.269347235239041D+01
0.365258792849D-05 0.000000000000D+00 0.000000000000D+00 0.178231974641D-07 0.000000000000D+00  7 -1 1 23 -11 11 23 21 0 0.34607736D-02 0.28203745D+00 0.27872261D+05 0.27872261D+05 0.27872261D+05 0.11703119D+01  1  2  2  2  7  2        1 0.516040839598D-03 0.100000000000D+01
-.193455568947D-06 0.000000000000D+00 -.140268993939D-07 0.178231974641D-07 0.000000000000D+00  7 -1 1 23 -11 11 23 21 2 0.34607736D-02 0.28203745D+00 0.27872261D+05 0.27872261D+05 0.27872261D+05 0.11703119D+01  1  2  3  2  7  2        1 -.374341381787D-04 0.100000000000D+01
0.235106567334D-06 0.000000000000D+00 0.000000000000D+00 0.178231974641D-07 0.000000000000D+00  7 -1 1 23 -11 11 23 21 2 0.34607736D-02 0.28203745D+00 0.27872261D+05 0.27872261D+05 0.27872261D+05 0.11703119D+01  1  2 15  2  7  2        1 0.454937109135D-04 0.100000000000D+01
-.759725237540D-05 0.000000000000D+00 0.000000000000D+00 0.178231974641D-07 0.000000000000D+00  7 -1 1 23 -11 11 23 21 2 0.34607736D-02 0.28203745D+00 0.27872261D+05 0.27872261D+05 0.27872261D+05 0.11703119D+01  1  2  4  2  7  2        1 -.147008740429D-02 0.100000000000D+01
0.754346472065D-05 0.000000000000D+00 0.000000000000D+00 0.178231974641D-07 0.870170290493D-08  7 -1 1 23 -11 11 23 21 2 0.35240248D-02 0.28345133D+00 0.28533205D+05 0.28533205D+05 0.28533205D+05 0.11693612D+01  1  2 11  2  7  2        1 0.140069186571D-02 0.100000000000D+01
0.558947313333D-07 0.000000000000D+00 0.000000000000D+00 0.178231974641D-07 0.816836662147D-11  7 -1 21 23 -11 11 23 -1 2 0.35240248D-02 0.28345133D+00 0.28533205D+05 0.28533205D+05 0.28533205D+05 0.11693612D+01  1  2 11  4  7  2        1 0.670374171724D-05 0.100000000000D+01
  </mgrwgt>
  </event>
  <event>
  8     66 0.27784906E-05 0.18065610E+03 0.75467711E-02 0.10613324E+00
       -3 -1    0    0    0  501 0.00000000E+00 0.00000000E+00 0.22845801E+03 0.22845856E+03 0.50000000E+00 0.0000E+00 0.9000E+01
        3 -1    0    0  501    0 0.00000000E+00 0.00000000E+00 -.17368298E+03 0.17368370E+03 0.50000000E+00 0.0000E+00 0.9000E+01
       25  2    1    2    0    0 -.22492476E+02 -.16563535E+01 0.63595265E+02 0.30779342E+03 0.30030614E+03 0.0000E+00 0.0000E+00
       23  2    3    3    0    0 0.83330016E+02 0.71383858E+02 0.26909244E+02 0.14594662E+03 0.92394601E+02 0.0000E+00 0.0000E+00
       23  1    1    2    0    0 0.22492476E+02 0.16563535E+01 -.88202348E+01 0.94348836E+02 0.91188000E+02 0.0000E+00 0.9000E+01
      -13  1    4    4    0    0 0.57948740E+02 0.48419066E+02 -.28586165E+02 0.80744303E+02 0.10565837E+00 0.0000E+00 0.9000E+01
       13  1    4    4    0    0 0.25381276E+02 0.22964792E+02 0.55495409E+02 0.65202319E+02 0.10565837E+00 0.0000E+00 0.9000E+01
       23  1    3    3    0    0 -.10582249E+03 -.73040211E+02 0.36686021E+02 0.16184680E+03 0.91188000E+02 0.0000E+00 0.9000E+01
#aMCatNLO 1  0  0  1  1 0.39297537D+02 0.00000000D+00  -5  7  0 0.00000000D+00 0.00000000D+00 0.00000000D+00 0.00000000D+00 0.00000000D+00
  <mgrwgt>
 0.9142955981D-04    3    2    0
 0.199197197655206D+03 0.000000000000000D+00 0.000000000000000D+00 0.199197197655206D+03
 0.199197197655206D+03 0.000000000000000D+00 0.000000000000000D+00 -.199197197655206D+03
 0.964498610043257D+02 0.224941372573251D+02 0.165647583839800D+01 -.218767963970774D+02
 0.854331868609083D+02 0.579478805459803D+02 0.484186959888076D+02 -.399562565336531D+02
 0.581857396025714D+02 0.253808510284806D+02 0.229647243417288D+02 0.470533115739660D+02
 0.158325607842607D+03 -.105822868831786D+03 -.730398961689345D+02 0.147797413567644D+02
 0.000000000000000D+00 -.000000000000000D+00 -.000000000000000D+00 -.000000000000000D+00
 0.201985133938937D+03 0.000000000000000D+00 0.000000000000000D+00 0.201985133938937D+03
 0.412151964764162D+03 0.000000000000000D+00 0.000000000000000D+00 -.412151964764162D+03
 0.991093970319754D+02 0.318239030693668D+02 0.400826756518330D+01 -.218767963970774D+02
 0.925577819000096D+02 0.664394961916560D+02 0.505592118200587D+02 -.399562565336531D+02
 0.614494315405084D+02 0.310884209019625D+02 0.244034545176974D+02 0.470533115739660D+02
 0.147211243419953D+03 -.912462780947769D+02 -.693655161050976D+02 0.147797413567644D+02
 0.213809244810653D+03 -.381055420682084D+02 -.960541779784183D+01 -.210166830825225D+03
0.206644821781D-05 0.000000000000D+00 0.000000000000D+00 0.462353863225D-07 0.000000000000D+00  7 -3 3 23 -13 13 23 21 0 0.35147484D-01 0.26720556D-01 0.32636627D+05 0.32636627D+05 0.32636627D+05 0.11639567D+01  1  2  2  1  7  1       -3 0.902901342311D-04 0.100000000000D+01
-.113470314355D-06 0.000000000000D+00 -.793570526469D-08 0.462353863225D-07 0.000000000000D+00  7 -3 3 23 -13 13 23 21 2 0.35147484D-01 0.26720556D-01 0.32636627D+05 0.32636627D+05 0.32636627D+05 0.11639567D+01  1  2  3  1  7  1       -3 -.671694368033D-05 0.100000000000D+01
0.132718797701D-06 0.000000000000D+00 0.000000000000D+00 0.462353863225D-07 0.000000000000D+00  7 -3 3 23 -13 13 23 21 2 0.35147484D-01 0.26720556D-01 0.32636627D+05 0.32636627D+05 0.32636627D+05 0.11639567D+01  1  2 15  1  7  1       -3 0.785636925873D-05 0.100000000000D+01
  </mgrwgt>
  </event>
  <event>
  8     66 0.27784906E-05 0.17285637E+03 0.75467711E-02 0.99685891E-01
       -1 -1    0    0    0  501 0.00000000E+00 0.00000000E+00 0.63957301E+03 0.63957309E+03 0.32000000E+00 0.0000E+00 0.9000E+01
        1 -1    0    0  501    0 0.00000000E+00 0.00000000E+00 -.15116968E+03 0.15117002E+03 0.32000000E+00 0.0000E+00 0.9000E+01
       25  2    1    2    0    0 0.18713916E+03 0.22168091E+02 0.45810263E+03 0.57921090E+03 0.30019121E+03 0.0000E+00 0.0000E+00
       23  2    3    3    0    0 0.20408488E+03 0.49373714E+01 0.19153860E+03 0.29644654E+03 0.97562794E+02 0.0000E+00 0.0000E+00
       23  1    1    2    0    0 -.18713916E+03 -.22168091E+02 0.30300701E+02 0.21153221E+03 0.91188000E+02 0.0000E+00 0.9000E+01
      -11  1    4    4    0    0 0.12707882E+03 -.14116413E+02 0.17275522E+03 0.21492479E+03 0.51099893E-03 0.0000E+00 0.9000E+01
       11  1    4    4    0    0 0.77006062E+02 0.19053784E+02 0.18783382E+02 0.81521750E+02 0.51099893E-03 0.0000E+00 0.9000E+01
       23  1    3    3    0    0 -.16945715E+02 0.17230720E+02 0.26656403E+03 0.28276437E+03 0.91188000E+02 0.0000E+00 0.9000E+01
#aMCatNLO 1  0  0  1  2 0.12800968D+03 0.00000000D+00  -5  7  0 0.00000000D+00 0.00000000D+00 0.00000000D+00 0.00000000D+00 0.00000000D+00
  <mgrwgt>
 0.2140282080D-03    7    2    0
 0.310940851790715D+03 0.000000000000000D+00 0.000000000000000D+00 0.310940851790715D+03
 0.310940851790715D+03 0.000000000000000D+00 0.000000000000000D+00 -.310940851790715D+03
 0.245173109787576D+03 -.187139162639680D+03 -.221680912004495D+02 -.127601379138154D+03
 0.137608278376696D+03 0.127078815977367D+03 -.141164128530417D+02 0.508698308995747D+02
 0.889058082054868D+02 0.770060617258108D+02 0.190537842099650D+02 -.401405343441204D+02
 0.150194507211671D+03 -.169457150634980D+02 0.172307198435263D+02 0.116872082582700D+03
 0.000000000000000D+00 0.000000000000000D+00 0.000000000000000D+00 0.000000000000000D+00
 0.183205717752032D+04 0.000000000000000D+00 0.000000000000000D+00 0.183205717752032D+04
 0.320164728400151D+03 0.000000000000000D+00 0.000000000000000D+00 -.320164728400151D+03
 0.270250230620802D+03 -.208636176546762D+03 -.700626126017701D+02 -.127601379138154D+03
 0.132432916711843D+03 0.115816075485824D+03 -.392093661274487D+02 0.508698308995747D+02
 0.807008143627167D+02 0.699321951810921D+02 0.329348121716233D+01 -.401405343441204D+02
 0.151535978564668D+03 -.295301363351183D+02 -.108068874503068D+02 0.116872082582700D+03
 0.151730196566044D+04 0.524180422149643D+02 0.116785384962363D+03 0.151189244912017D+04
0.747539623336D-05 0.000000000000D+00 0.000000000000D+00 0.176590517275D-07 0.000000000000D+00  7 -1 1 23 -11 11 23 21 0 0.98395880D-01 0.23256906D-01 0.65248487D+05 0.65248487D+05 0.65248487D+05 0.11372639D+01  1  2  2  1  7  1       -1 0.211770576314D-03 0.100000000000D+01
-.395778224576D-06 0.000000000000D+00 -.287074898531D-07 0.176590517275D-07 0.000000000000D+00  7 -1 1 23 -11 11 23 21 2 0.98395880D-01 0.23256906D-01 0.65248487D+05 0.65248487D+05 0.65248487D+05 0.11372639D+01  1  2  3  1  7  1       -1 -.145012632726D-04 0.100000000000D+01
0.478019814359D-06 0.000000000000D+00 0.000000000000D+00 0.176590517275D-07 0.000000000000D+00  7 -1 1 23 -11 11 23 21 2 0.98395880D-01 0.23256906D-01 0.65248487D+05 0.65248487D+05 0.65248487D+05 0.11372639D+01  1  2 15  1  7  1       -1 0.175145845504D-04 0.100000000000D+01
0.942754431891D-04 0.000000000000D+00 0.000000000000D+00 0.176590517275D-07 0.000000000000D+00  7 -1 1 23 -11 11 23 21 2 0.57035169D+00 0.23256906D-01 0.10724945D+06 0.10724945D+06 0.10724945D+06 0.11192363D+01  1  2 12  1  7  1       -1 0.281228588707D-06 0.100000000000D+01
-.147781024794D-03 0.000000000000D+00 -.319400961406D-05 0.176590517275D-07 0.000000000000D+00  7 -1 1 23 -11 11 23 21 2 0.58093728D+00 0.23256906D-01 0.65248487D+05 0.65248487D+05 0.65248487D+05 0.11372639D+01  1  2  5  1  7  1       -1 -.413389735219D-06 0.100000000000D+01
0.202977072321D-04 0.000000000000D+00 0.000000000000D+00 0.176590517275D-07 0.000000000000D+00  7 21 1 23 -11 11 23 1 2 0.57035169D+00 0.23256906D-01 0.10724945D+06 0.10724945D+06 0.10724945D+06 0.11192363D+01  1  2 12  3  7  1       -1 0.143804600377D-05 0.100000000000D+01
-.323509804828D-04 0.000000000000D+00 -.695012456864D-06 0.176590517275D-07 0.000000000000D+00  7 21 1 23 -11 11 23 1 2 0.58093728D+00 0.23256906D-01 0.65248487D+05 0.65248487D+05 0.65248487D+05 0.11372639D+01  1  2  5  3  7  1       -1 -.206157442354D-05 0.100000000000D+01
  </mgrwgt>
  </event>
  <event>
  8     66 0.27784906E-05 0.35040325E+03 0.75467711E-02 0.90018587E-01
       -1 -1    0    0    0  501 0.00000000E+00 0.00000000E+00 0.11027039E+04 0.11027039E+04 0.32000000E+00 0.0000E+00 0.9000E+01
        1 -1    0    0  501    0 0.00000000E+00 0.00000000E+00 -.16938687E+03 0.16938717E+03 0.32000000E+00 0.0000E+00 0.9000E+01
       25  2    1    2    0    0 -.29785678E+03 -.99457213E+02 0.81648972E+03 0.92485304E+03 0.30014545E+03 0.0000E+00 0.0000E+00
       23  2    3    3    0    0 -.52409393E+02 -.98925431E+02 0.45790299E+03 0.48084359E+03 0.94881095E+02 0.0000E+00 0.0000E+00
       23  1    1    2    0    0 0.29785678E+03 0.99457213E+02 0.11682729E+03 0.34723805E+03 0.91188000E+02 0.0000E+00 0.9000E+01
      -11  1    4    4    0    0 -.88359451E+01 -.18480002E+02 0.28042830E+03 0.28117541E+03 0.51099893E-03 0.0000E+00 0.9000E+01
       11  1    4    4    0    0 -.43573448E+02 -.80445429E+02 0.17747469E+03 0.19966817E+03 0.51099893E-03 0.0000E+00 0.9000E+01
       23  1    3    3    0    0 -.24544738E+03 -.53178246E+00 0.35858674E+03 0.44400946E+03 0.91188000E+02 0.0000E+00 0.9000E+01
#aMCatNLO 1  0  0  1  1 0.59064664D+03 0.00000000D+00  -5  7  0 0.00000000D+00 0.00000000D+00 0.00000000D+00 0.00000000D+00 0.00000000D+00
  <mgrwgt>
 0.4558488800D-03    3    2    0
 0.432184886407288D+03 0.000000000000000D+00 0.000000000000000D+00 0.432184886407288D+03
 0.432184886407288D+03 0.000000000000000D+00 0.000000000000000D+00 -.432184886407288D+03
 0.384883349680070D+03 0.297856777113905D+03 0.994572134488290D+02 -.203001341220355D+03
 0.111008324956178D+03 -.883594506230710D+01 -.184800020836965D+02 0.109102079757533D+03
 0.102220086536481D+03 -.435734477554468D+02 -.804454289037725D+02 0.455942289189882D+02
 0.266258011641846D+03 -.245447384296151D+03 -.531782461360002D+00 0.483050325438341D+02
 0.000000000000000D+00 -.000000000000000D+00 0.000000000000000D+00 -.000000000000000D+00
 0.596872985270121D+03 0.000000000000000D+00 0.000000000000000D+00 0.596872985270121D+03
 0.171130069621836D+04 0.000000000000000D+00 0.000000000000000D+00 -.171130069621836D+04
 0.533869647737971D+03 0.468166984547911D+03 -.127717185507345D+03 -.203001341220355D+03
 0.140932115284451D+03 0.378665187761570D+02 -.807757641059854D+02 0.109102079757533D+03
 0.149928743188504D+03 0.316764546045317D+01 -.142792718111268D+03 0.455942289189882D+02
 0.222168989243354D+03 -.154907158499991D+03 -.121302120813329D+03 0.483050325438341D+02
 0.126127418603420D+04 -.354293990284531D+03 0.472587788537927D+03 -.111442771094824D+04
0.762401853065D-04 0.000000000000D+00 0.000000000000D+00 0.121485774037D-06 0.000000000000D+00  7 -1 1 23 -11 11 23 21 0 0.16964678D+00 0.26059545D-01 0.12278244D+06 0.12278244D+06 0.12278244D+06 0.11144800D+01  1  2  2  1  7  1       -1 0.449035858634D-03 0.100000000000D+01
-.400895805435D-05 0.000000000000D+00 -.292782386079D-06 0.121485774037D-06 0.000000000000D+00  7 -1 1 23 -11 11 23 21 2 0.16964678D+00 0.26059545D-01 0.12278244D+06 0.12278244D+06 0.12278244D+06 0.11144800D+01  1  2  3  1  7  1       -1 -.293273699677D-04 0.100000000000D+01
0.494027637923D-05 0.000000000000D+00 0.000000000000D+00 0.121485774037D-06 0.000000000000D+00  7 -1 1 23 -11 11 23 21 2 0.16964678D+00 0.26059545D-01 0.12278244D+06 0.12278244D+06 0.12278244D+06 0.11144800D+01  1  2 15  1  7  1       -1 0.361403913815D-04 0.100000000000D+01
  </mgrwgt>
  </event>
  <event>
  8     66 0.27784906E-05 0.25679367E+03 0.75467711E-02 0.96623241E-01
       -1 -1    0    0    0  501 0.00000000E+00 0.00000000E+00 0.32365404E+03 0.32365420E+03 0.32000000E+00 0.0000E+00 0.9000E+01
        1 -1    0    0  501    0 0.00000000E+00 0.00000000E+00 -.32415695E+03 0.32415711E+03 0.32000000E+00 0.0000E+00 0.9000E+01
       25  2    1    2    0    0 0.15340277E+03 0.46796622E+02 0.18439508E+03 0.38661243E+03 0.29957519E+03 0.0000E+00 0.0000E+00
       23  2    3    3    0    0 0.19663875E+03 -.21414413E+02 0.10057894E+03 0.23875273E+03 0.88098631E+02 0.0000E+00 0.0000E+00
       23  1    1    2    0    0 -.15340277E+03 -.46796622E+02 -.18489799E+03 0.26119888E+03 0.91188000E+02 0.0000E+00 0.9000E+01
      -11  1    4    4    0    0 0.77154224E+02 -.39105780E+02 0.85874811E+01 0.86923997E+02 0.51099893E-03 0.0000E+00 0.9000E+01
       11  1    4    4    0    0 0.11948452E+03 0.17691367E+02 0.91991459E+02 0.15182873E+03 0.51099893E-03 0.0000E+00 0.9000E+01
       23  1    3    3    0    0 -.43235980E+02 0.68211035E+02 0.83816137E+02 0.14785970E+03 0.91188000E+02 0.0000E+00 0.9000E+01
#aMCatNLO 1  0  0  1  2 0.26770213D+03 0.00000000D+00  -5  7  0 0.00000000D+00 0.00000000D+00 0.00000000D+00 0.00000000D+00 0.00000000D+00
  <mgrwgt>
 0.3681163079D-03    3    2    0
 0.323905555871263D+03 0.000000000000000D+00 0.000000000000000D+00 0.323905555871263D+03
 0.323905555871263D+03 0.000000000000000D+00 0.000000000000000D+00 -.323905555871263D+03
 0.261055411671563D+03 -.153402768260840D+03 -.467966221108786D+02 -.184695271915476D+03
 0.869306896838937D+02 0.771542243958470D+02 -.391057801154219D+02 0.865496553181973D+01
 0.151900195213861D+03 0.119484523414260D+03 0.176913674681138D+02 0.921093561348928D+02
 0.147924815173208D+03 -.432359795492671D+02 0.682110347581867D+02 0.839309502487637D+02
 0.000000000000000D+00 -.000000000000000D+00 -.000000000000000D+00 -.000000000000000D+00
 0.451028967199095D+03 0.000000000000000D+00 0.000000000000000D+00 0.451028967199095D+03
 0.528641890850597D+03 0.000000000000000D+00 0.000000000000000D+00 -.528641890850597D+03
 0.250555112773272D+03 -.132604611829125D+03 0.525955002499481D+02 -.184695271915476D+03
 0.847735119878206D+02 0.841343991102475D+02 -.574828607062672D+01 0.865496553181973D+01
 0.181627967623728D+03 0.133043218111962D+03 0.824868913825361D+02 0.921093561348928D+02
 0.183988245060528D+03 -.297429425247428D+02 0.132692787809897D+03 0.839309502487637D+02
 0.278726020604344D+03 -.548300628683417D+02 -.262026893371755D+03 -.776129236515020D+02
0.917557676117D-05 0.000000000000D+00 0.000000000000D+00 0.555071170031D-07 0.000000000000D+00  7 -1 1 23 -11 11 23 21 0 0.49792953D-01 0.49870325D-01 0.65942989D+05 0.65942989D+05 0.65942989D+05 0.11368705D+01  1  2  2  1  7  1       -1 0.363885614430D-03 0.100000000000D+01
-.476343342710D-06 0.000000000000D+00 -.352366307477D-07 0.555071170031D-07 0.000000000000D+00  7 -1 1 23 -11 11 23 21 2 0.49792953D-01 0.49870325D-01 0.65942989D+05 0.65942989D+05 0.65942989D+05 0.11368705D+01  1  2  3  1  7  1       -1 -.244159486677D-04 0.100000000000D+01
0.558882125548D-06 0.000000000000D+00 0.000000000000D+00 0.555071170031D-07 0.000000000000D+00  7 -1 1 23 -11 11 23 21 2 0.49792953D-01 0.49870325D-01 0.65942989D+05 0.65942989D+05 0.65942989D+05 0.11368705D+01  1  2 15  1  7  1       -1 0.286466421700D-04 0.100000000000D+01
  </mgrwgt>
  </event>
  <event>
  8     66 0.27784906E-05 0.30900155E+03 0.75467711E-02 0.96976128E-01
       -1 -1    0    0    0  501 0.00000000E+00 0.00000000E+00 0.32550757E+03 0.32550773E+03 0.32000000E+00 0.0000E+00 0.9000E+01
        1 -1    0    0  501    0 0.00000000E+00 0.00000000E+00 -.37819973E+03 0.37819987E+03 0.32000000E+00 0.0000E+00 0.9000E+01
       25  2    1    2    0    0 0.26257129E+03 -.64999159E+02 0.32904965E+02 0.40569636E+03 0.30056319E+03 0.0000E+00 0.0000E+00
       23  2    3    3    0    0 0.37628551E+02 0.16262069E+02 -.77490688E+02 0.12694006E+03 0.91807462E+02 0.0000E+00 0.0000E+00
       23  1    1    2    0    0 -.26257129E+03 0.64999159E+02 -.85597129E+02 0.29801123E+03 0.91188000E+02 0.0000E+00 0.9000E+01
      -11  1    4    4    0    0 0.42754789E+02 -.14692319E+02 -.83538121E+02 0.94986598E+02 0.51099893E-03 0.0000E+00 0.9000E+01
       11  1    4    4    0    0 -.51262382E+01 0.30954389E+02 0.60474322E+01 0.31953465E+02 0.51099893E-03 0.0000E+00 0.9000E+01
       23  1    3    3    0    0 0.22494274E+03 -.81261228E+02 0.11039565E+03 0.27875630E+03 0.91188000E+02 0.0000E+00 0.9000E+01
#aMCatNLO 1  0  0  1  1 0.19053352D+03 0.00000000D+00  -5  7  0 0.00000000D+00 0.00000000D+00 0.00000000D+00 0.00000000D+00 0.00000000D+00
  <mgrwgt>
 0.2947020922D-03    3    2    0
 0.350866040812628D+03 0.000000000000000D+00 0.000000000000000D+00 0.350866040812628D+03
 0.350866040812628D+03 0.000000000000000D+00 0.000000000000000D+00 -.350866040812628D+03
 0.292422811368433D+03 -.262571291259204D+03 0.649991585936439D+02 -.634608198277579D+02
 0.889812334496809D+02 0.427547892540061D+02 -.146923193166337D+02 -.766408745720598D+02
 0.324975142931625D+02 -.512623823937084D+01 0.309543886609057D+02 0.846380170946270D+01
 0.287830522513980D+03 0.224942740244568D+03 -.812612279379158D+02 0.131637892690355D+03
 0.000000000000000D+00 0.000000000000000D+00 -.000000000000000D+00 -.000000000000000D+00
 0.397363353014568D+03 0.000000000000000D+00 0.000000000000000D+00 0.397363353014568D+03
 0.632131228147543D+03 0.000000000000000D+00 0.000000000000000D+00 -.632131228147543D+03
 0.366863544197520D+03 -.326325580795746D+03 0.125530667098815D+03 -.634608198277579D+02
 0.810374836297419D+02 0.263136443344999D+02 0.917725290002869D+00 -.766408745720598D+02
 0.404704672193010D+02 -.121823858161688D+02 0.376538477900655D+02 0.846380170946270D+01
 0.238767374465398D+03 0.174019686081651D+03 -.329123355170353D+02 0.131637892690355D+03
 0.302355711650150D+03 0.138174636195763D+03 -.131189904661848D+03 -.234767875132975D+03
0.915612147091D-05 0.000000000000D+00 0.000000000000D+00 0.269453559021D-06 0.000000000000D+00  7 -1 1 23 -11 11 23 21 0 0.50078110D-01 0.58184597D-01 0.95481960D+05 0.95481960D+05 0.95481960D+05 0.11233735D+01  1  2  2  1  7  1       -1 0.291807319837D-03 0.100000000000D+01
-.498688924691D-06 0.000000000000D+00 -.351619173104D-07 0.269453559021D-06 0.000000000000D+00  7 -1 1 23 -11 11 23 21 2 0.50078110D-01 0.58184597D-01 0.95481960D+05 0.95481960D+05 0.95481960D+05 0.11233735D+01  1  2  3  1  7  1       -1 -.200568478971D-04 0.100000000000D+01
0.570663889060D-06 0.000000000000D+00 0.000000000000D+00 0.269453559021D-06 0.000000000000D+00  7 -1 1 23 -11 11 23 21 2 0.50078110D-01 0.58184597D-01 0.95481960D+05 0.95481960D+05 0.95481960D+05 0.11233735D+01  1  2 15  1  7  1       -1 0.229516202518D-04 0.100000000000D+01
  </mgrwgt>
  </event>
  <event>
  8     66 0.27784906E-05 0.26721759E+03 0.75467711E-02 0.89256475E-01
       -1 -1    0    0    0  501 0.00000000E+00 0.00000000E+00 0.22169659E+03 0.22169682E+03 0.32000000E+00 0.0000E+00 0.9000E+01
        1 -1    0    0  501    0 0.00000000E+00 0.00000000E+00 -.29793485E+04 0.29793486E+04 0.32000000E+00 0.0000E+00 0.9000E+01
       25  2    1    2    0    0 0.15152113E+03 0.76566944E+03 -.13223980E+04 0.15647454E+04 0.30080473E+03 0.0000E+00 0.0000E+00
       23  2    3    3    0    0 0.13290722E+03 0.44532764E+03 -.97060537E+03 0.10799376E+04 0.90605626E+02 0.0000E+00 0.0000E+00
       23  1    1    2    0    0 -.15152113E+03 -.76566944E+03 -.14352540E+04 0.16363000E+04 0.91188000E+02 0.0000E+00 0.9000E+01
      -13  1    4    4    0    0 0.17350174E+02 0.12918624E+03 -.19630443E+03 0.23563861E+03 0.10565837E+00 0.0000E+00 0.9000E+01
       13  1    4    4    0    0 0.11555704E+03 0.31614140E+03 -.77430093E+03 0.84429897E+03 0.10565837E+00 0.0000E+00 0.9000E+01
       23  1    3    3    0    0 0.18613917E+02 0.32034180E+03 -.35179261E+03 0.48480784E+03 0.91188000E+02 0.0000E+00 0.9000E+01
#aMCatNLO 1  0  0  1  2 0.64451538D+02 0.00000000D+00  -5  7  0 0.00000000D+00 0.00000000D+00 0.00000000D+00 0.00000000D+00 0.00000000D+00
  <mgrwgt>
 0.2618698297D-03    9    2    0
 0.812718783482379D+03 0.000000000000000D+00 0.000000000000000D+00 0.812718783482379D+03
 0.812718783482379D+03 0.000000000000000D+00 0.000000000000000D+00 -.812718783482379D+03
 0.787443055146677D+03 -.151521133468093D+03 -.765669440216518D+03 -.504278512907470D+02
 0.131010940853085D+03 0.173500402870642D+02 0.129185987464310D+03 0.131842090441189D+02
 0.349067446640943D+03 0.115557175886761D+03 0.316141650632497D+03 -.924612250668577D+02
 0.357916124324053D+03 0.186139172942681D+02 0.320341802119711D+03 0.129704867313486D+03
 0.000000000000000D+00 0.000000000000000D+00 -.000000000000000D+00 0.000000000000000D+00
 0.971109665743318D+03 0.000000000000000D+00 0.000000000000000D+00 0.971109665743318D+03
 0.819940546960899D+03 0.000000000000000D+00 0.000000000000000D+00 -.819940546960899D+03
 0.773663570122766D+03 -.175592216410935D+03 -.746233524937870D+03 -.504278512907470D+02
 0.133796650997621D+03 0.132669075886603D+02 0.132482865356596D+03 0.131842090441189D+02
 0.353651819567963D+03 0.104721776517722D+03 0.324890567523649D+03 -.924612250668577D+02
 0.365602834395108D+03 0.745780240490780D+01 0.329349677018541D+03 0.129704867313486D+03
 0.164335337620758D+03 0.501457298996454D+02 -.404895849609172D+02 0.151169118782419D+03
0.389741521037D-03 0.000000000000D+00 0.000000000000D+00 0.143883564914D-05 0.000000000000D+00  7 -1 1 23 -13 13 23 21 0 0.34107187D-01 0.45836133D+00 0.62913388D+06 0.62913388D+06 0.62913388D+06 0.10615296D+01  1  2  2  1  7  1       -1 0.227775238916D-03 0.100000000000D+01
-.216367160381D-04 0.000000000000D+00 -.149671006208D-05 0.143883564914D-05 0.000000000000D+00  7 -1 1 23 -13 13 23 21 2 0.34107187D-01 0.45836133D+00 0.62913388D+06 0.62913388D+06 0.62913388D+06 0.10615296D+01  1  2  3  1  7  1       -1 -.142490334826D-04 0.100000000000D+01
0.239195806843D-04 0.000000000000D+00 0.000000000000D+00 0.143883564914D-05 0.000000000000D+00  7 -1 1 23 -13 13 23 21 2 0.34107187D-01 0.45836133D+00 0.62913388D+06 0.62913388D+06 0.62913388D+06 0.10615296D+01  1  2 15  1  7  1       -1 0.157524323682D-04 0.100000000000D+01
0.320478189536D-02 0.000000000000D+00 0.000000000000D+00 0.143883564914D-05 0.000000000000D+00  7 -1 1 23 -13 13 23 21 2 0.40886735D-01 0.45836133D+00 0.68292715D+06 0.68292715D+06 0.68292715D+06 0.10590703D+01  1  2 12  1  7  1       -1 0.152030512715D-02 0.100000000000D+01
-.320890873374D-02 0.000000000000D+00 0.000000000000D+00 0.143883564914D-05 0.000000000000D+00  7 -1 1 23 -13 13 23 21 2 0.34107187D-01 0.45836133D+00 0.62913388D+06 0.62913388D+06 0.62913388D+06 0.10615296D+01  1  2  4  1  7  1       -1 -.211325267240D-02 0.100000000000D+01
-.392249568152D-02 0.000000000000D+00 -.296099071635D-03 0.143883564914D-05 0.000000000000D+00  7 -1 1 23 -13 13 23 21 2 0.40973466D-01 0.45836133D+00 0.62913388D+06 0.62913388D+06 0.62913388D+06 0.10615296D+01  1  2  5  1  7  1       -1 -.187328637506D-02 0.100000000000D+01
0.391566733014D-02 0.000000000000D+00 0.291187316394D-03 0.143883564914D-05 0.000000000000D+00  7 -1 1 23 -13 13 23 21 2 0.34107187D-01 0.45836133D+00 0.62913388D+06 0.62913388D+06 0.62913388D+06 0.10615296D+01  1  2  6  1  7  1       -1 0.257869423416D-02 0.100000000000D+01
0.849985813038D-04 0.000000000000D+00 0.000000000000D+00 0.143883564914D-05 0.000000000000D+00  7 21 1 23 -13 13 23 1 2 0.40886735D-01 0.45836133D+00 0.68292715D+06 0.68292715D+06 0.68292715D+06 0.10590703D+01  1  2 12  3  7  1       -1 0.379808690046D-03 0.100000000000D+01
-.102046936261D-03 0.000000000000D+00 -.792481749334D-05 0.143883564914D-05 0.000000000000D+00  7 21 1 23 -13 13 23 1 2 0.40973466D-01 0.45836133D+00 0.62913388D+06 0.62913388D+06 0.62913388D+06 0.10615296D+01  1  2  5  3  7  1       -1 -.459677811956D-03 0.100000000000D+01
  </mgrwgt>
  </event>
  <event>
  8     66 0.27784906E-05 0.30006309E+03 0.75467711E-02 0.91546896E-01
       -1 -1    0    0    0  501 0.00000000E+00 0.00000000E+00 0.64507740E+02 0.64508534E+02 0.32000000E+00 0.0000E+00 0.9000E+01
        1 -1    0    0  501    0 0.00000000E+00 0.00000000E+00 -.22019228E+04 0.22019228E+04 0.32000000E+00 0.0000E+00 0.9000E+01
       25  2    1    2    0    0 -.51205629E+02 -.22548894E+03 -.18416585E+04 0.18800966E+04 0.29931634E+03 0.0000E+00 0.0000E+00
       23  2    3    3    0    0 -.78059683E+02 -.23167340E+03 -.15855674E+04 0.16068619E+04 0.90637066E+02 0.0000E+00 0.0000E+00
       23  1    1    2    0    0 0.51205629E+02 0.22548894E+03 -.29575658E+03 0.38633468E+03 0.91188000E+02 0.0000E+00 0.9000E+01
      -13  1    4    4    0    0 0.15339464E+02 -.22564883E+02 -.96405449E+02 0.10019229E+03 0.10565837E+00 0.0000E+00 0.9000E+01
       13  1    4    4    0    0 -.93399147E+02 -.20910852E+03 -.14891620E+04 0.15066696E+04 0.10565837E+00 0.0000E+00 0.9000E+01
       23  1    3    3    0    0 0.26854054E+02 0.61844542E+01 -.25609101E+03 0.27323478E+03 0.91188000E+02 0.0000E+00 0.9000E+01
#aMCatNLO 1  0  0  2  2 0.53015911D+03 0.00000000D+00  -5  7  0 0.00000000D+00 0.00000000D+00 0.00000000D+00 0.00000000D+00 0.00000000D+00
  <mgrwgt>
 0.4925778572D-03    5    2    0
 0.376884581830396D+03 0.000000000000000D+00 0.000000000000000D+00 0.376884581830396D+03
 0.376884581830396D+03 0.000000000000000D+00 0.000000000000000D+00 -.376884581830396D+03
 0.322972173156550D+03 0.512056289994793D+02 0.225488943704926D+03 0.206224375656877D+03
 0.278867884206838D+02 0.153396116195011D+02 -.225646291536919D+02 -.576253372564638D+01
 0.307529424449578D+03 -.933992946616322D+02 -.209108768696979D+03 -.205242396967662D+03
 0.953807776339805D+02 0.268540540426518D+02 0.618445414574509D+01 0.478055503643168D+01
 0.000000000000000D+00 0.000000000000000D+00 0.000000000000000D+00 -.000000000000000D+00
 0.689596802969125D+03 0.000000000000000D+00 0.000000000000000D+00 0.689596802969125D+03
 0.767846206873759D+03 0.000000000000000D+00 0.000000000000000D+00 -.767846206873759D+03
 0.299797012399913D+03 -.130240414188006D+03 0.148566277118940D+03 0.206224375656877D+03
 0.303550599535886D+02 -.162936048208836D+01 -.297584954973559D+02 -.576253372564638D+01
 0.493865291848995D+03 -.326888528997794D+03 -.308094749370580D+03 -.205242396967662D+03
 0.975229950681962D+02 -.293491542799838D+02 -.176424675049939D+02 0.478055503643168D+01
 0.535902650572190D+03 0.488107457947872D+03 0.206929435253990D+03 -.782494039046341D+02
0.291106457830D-04 0.000000000000D+00 0.000000000000D+00 0.466345769563D-06 0.000000000000D+00  7 -1 1 23 -13 13 23 21 0 0.99243306D-02 0.33875741D+00 0.90037855D+05 0.90037855D+05 0.90037855D+05 0.11254813D+01  1  2  2  2  7  2        1 0.484934214003D-03 0.100000000000D+01
-.151508754455D-05 0.000000000000D+00 -.111792544816D-06 0.466345769563D-06 0.000000000000D+00  7 -1 1 23 -13 13 23 21 2 0.99243306D-02 0.33875741D+00 0.90037855D+05 0.90037855D+05 0.90037855D+05 0.11254813D+01  1  2  3  2  7  2        1 -.319701938000D-04 0.100000000000D+01
0.187833267763D-05 0.000000000000D+00 0.000000000000D+00 0.466345769563D-06 0.000000000000D+00  7 -1 1 23 -13 13 23 21 2 0.99243306D-02 0.33875741D+00 0.90037855D+05 0.90037855D+05 0.90037855D+05 0.11254813D+01  1  2 15  2  7  2        1 0.396351088364D-04 0.100000000000D+01
-.300209125481D-06 0.000000000000D+00 -.658006250070D-05 0.466345769563D-06 0.000000000000D+00  7 -1 1 23 -13 13 23 21 2 0.99243306D-02 0.76587499D+00 0.90037855D+05 0.90037855D+05 0.90037855D+05 0.11254813D+01  1  2  5  2  7  2        1 -.223876228976D-07 0.100000000000D+01
0.389517533706D-06 0.000000000000D+00 -.583125862535D-06 0.466345769563D-06 0.000000000000D+00  7 -1 21 23 -13 13 23 -1 2 0.99243306D-02 0.76587499D+00 0.90037855D+05 0.90037855D+05 0.90037855D+05 0.11254813D+01  1  2  5  4  7  2        1 0.111575510167D-08 0.100000000000D+01
  </mgrwgt>
  </event>
  <event>
  8     66 0.27784906E-05 0.62305044E+02 0.75467711E-02 0.10529654E+00
       -3 -1    0    0    0  501 0.00000000E+00 0.00000000E+00 0.10173024E+03 0.10173146E+03 0.50000000E+00 0.0000E+00 0.9000E+01
        3 -1    0    0  501    0 0.00000000E+00 0.00000000E+00 -.46087392E+03 0.46087420E+03 0.50000000E+00 0.0000E+00 0.9000E+01
       25  2    1    2    0    0 0.62854204E+02 -.43514469E+02 -.22200483E+03 0.38103892E+03 0.30010058E+03 0.0000E+00 0.0000E+00
       23  2    3    3    0    0 0.11038054E+03 -.49215563E+02 -.17341175E+02 0.15192385E+03 0.90410757E+02 0.0000E+00 0.0000E+00
       23  1    1    2    0    0 -.62854204E+02 0.43514469E+02 -.13713886E+03 0.18156673E+03 0.91188000E+02 0.0000E+00 0.9000E+01
      -11  1    4    4    0    0 0.34373663E+02 -.64723693E+02 -.10785139E+02 0.74074451E+02 0.51099893E-03 0.0000E+00 0.9000E+01
       11  1    4    4    0    0 0.76006879E+02 0.15508129E+02 -.65560362E+01 0.77849401E+02 0.51099893E-03 0.0000E+00 0.9000E+01
       23  1    3    3    0    0 -.47526337E+02 0.57010945E+01 -.20466365E+03 0.22911507E+03 0.91188000E+02 0.0000E+00 0.9000E+01
#aMCatNLO 1  0  0  1  2 0.52367924D+02 0.00000000D+00  -5  7  0 0.00000000D+00 0.00000000D+00 0.00000000D+00 0.00000000D+00 0.00000000D+00
  <mgrwgt>
 0.3672788008D-04    9    2    0
 0.216529985715236D+03 0.000000000000000D+00 0.000000000000000D+00 0.216529985715236D+03
 0.216529985715236D+03 0.000000000000000D+00 0.000000000000000D+00 -.216529985715236D+03
 0.122149168386616D+03 -.628542045143213D+02 0.435144690225576D+02 -.275863726158154D+02
 0.872888128812318D+02 0.343736625933386D+02 -.647236927028500D+02 0.474197403729824D+02
 0.957002667240953D+02 0.760068787078312D+02 0.155081292354337D+02 0.560445659076160D+02
 0.127921723438528D+03 -.475263367868484D+02 0.570109444485871D+01 -.758779336647830D+02
 0.000000000000000D+00 -.000000000000000D+00 0.000000000000000D+00 0.000000000000000D+00
 0.385242180632502D+03 0.000000000000000D+00 0.000000000000000D+00 0.385242180632502D+03
 0.222209469816835D+03 0.000000000000000D+00 0.000000000000000D+00 -.222209469816835D+03
 0.113875435503418D+03 -.523335626671928D+02 0.339492817531319D+02 -.275863726158154D+02
 0.962653577412264D+02 0.425554693068680D+02 -.721624511507021D+02 0.474197403729824D+02
 0.101936480858806D+03 0.848164070488671D+02 0.749865704146094D+01 0.560445659076160D+02
 0.124137510481516D+03 -.362909618275078D+02 -.451391592141863D+01 -.758779336647830D+02
 0.171236865864371D+03 -.387473518610346D+02 0.352284282775279D+02 0.163032710815667D+03
0.127633031972D-05 0.000000000000D+00 0.000000000000D+00 0.102099788298D-06 0.000000000000D+00  7 -3 3 23 -11 11 23 21 0 0.15650921D-01 0.70903796D-01 0.34752261D+05 0.34752261D+05 0.34752261D+05 0.11614567D+01  1  2  2  1  7  1       -3 0.355026080746D-04 0.100000000000D+01
-.689744512738D-07 0.000000000000D+00 -.490144449321D-08 0.102099788298D-06 0.000000000000D+00  7 -3 3 23 -11 11 23 21 2 0.15650921D-01 0.70903796D-01 0.34752261D+05 0.34752261D+05 0.34752261D+05 0.11614567D+01  1  2  3  1  7  1       -3 -.258816202881D-05 0.100000000000D+01
0.835219905592D-07 0.000000000000D+00 0.000000000000D+00 0.102099788298D-06 0.000000000000D+00  7 -3 3 23 -11 11 23 21 2 0.15650921D-01 0.70903796D-01 0.34752261D+05 0.34752261D+05 0.34752261D+05 0.11614567D+01  1  2 15  1  7  1       -3 0.313403645181D-05 0.100000000000D+01
0.496677276156D-05 0.000000000000D+00 0.000000000000D+00 0.102099788298D-06 0.000000000000D+00  7 -3 3 23 -11 11 23 21 2 0.27905448D-01 0.70903796D-01 0.46229827D+05 0.46229827D+05 0.46229827D+05 0.11503023D+01  1  2 12  1  7  1       -3 0.663733952606D-04 0.100000000000D+01
-.460725564064D-05 0.000000000000D+00 0.000000000000D+00 0.102099788298D-06 0.000000000000D+00  7 -3 3 23 -11 11 23 21 2 0.15650921D-01 0.70903796D-01 0.34752261D+05 0.34752261D+05 0.34752261D+05 0.11614567D+01  1  2  4  1  7  1       -3 -.172880304024D-03 0.100000000000D+01
-.520957852828D-05 0.000000000000D+00 -.429857962140D-06 0.102099788298D-06 0.000000000000D+00  7 -3 3 23 -11 11 23 21 2 0.28328693D-01 0.70903796D-01 0.34752261D+05 0.34752261D+05 0.34752261D+05 0.11614567D+01  1  2  5  1  7  1       -3 -.687314897573D-04 0.100000000000D+01
0.468196314342D-05 0.000000000000D+00 0.363899451338D-06 0.102099788298D-06 0.000000000000D+00  7 -3 3 23 -11 11 23 21 2 0.15650921D-01 0.70903796D-01 0.34752261D+05 0.34752261D+05 0.34752261D+05 0.11614567D+01  1  2  6  1  7  1       -3 0.175683590145D-03 0.100000000000D+01
0.315710746218D-06 0.000000000000D+00 0.000000000000D+00 0.102099788298D-06 0.000000000000D+00  7 21 3 23 -11 11 23 3 2 0.27905448D-01 0.70903796D-01 0.46229827D+05 0.46229827D+05 0.46229827D+05 0.11503023D+01  1  2 12  3  7  1       -3 0.708497985481D-04 0.100000000000D+01
-.315559750654D-06 0.000000000000D+00 -.279391550471D-07 0.102099788298D-06 0.000000000000D+00  7 21 3 23 -11 11 23 3 2 0.28328693D-01 0.70903796D-01 0.34752261D+05 0.34752261D+05 0.34752261D+05 0.11614567D+01  1  2  5  3  7  1       -3 -.706155925881D-04 0.100000000000D+01
  </mgrwgt>
  </event>
  <event>
  9     66 0.27784906E-05 0.22072048E+03 0.75467711E-02 0.10202430E+00
       -1 -1    0    0    0  501 0.00000000E+00 0.00000000E+00 0.51044395E+03 0.51044405E+03 0.32000000E+00 0.0000E+00 0.9000E+01
        1 -1    0    0  502    0 0.00000000E+00 0.00000000E+00 -.19296150E+03 0.19296177E+03 0.32000000E+00 0.0000E+00 0.9000E+01
       25  2    1    2    0    0 -.34370354E+02 -.16319738E+03 0.69340112E+02 0.35092547E+03 0.30087527E+03 0.0000E+00 0.0000E+00
       23  2    3    3    0    0 0.39201362E+02 0.39544192E+02 0.42325024E+02 0.11520952E+03 0.91549637E+02 0.0000E+00 0.0000E+00
       23  1    1    2    0    0 0.87370894E+01 0.68636478E+02 0.22403218E+03 0.25158094E+03 0.91188000E+02 0.0000E+00 0.9000E+01
      -11  1    4    4    0    0 -.10206478E+01 0.56298004E+02 0.44221590E+02 0.71596481E+02 0.51099893E-03 0.0000E+00 0.9000E+01
       11  1    4    4    0    0 0.40222010E+02 -.16753812E+02 -.18965660E+01 0.43613040E+02 0.51099893E-03 0.0000E+00 0.9000E+01
       23  1    3    3    0    0 -.73571716E+02 -.20274157E+03 0.27015088E+02 0.23571595E+03 0.91188000E+02 0.0000E+00 0.9000E+01
       21  1    1    2  502  501 0.25633264E+02 0.94560901E+02 0.24110155E+02 0.10089941E+03 0.75000000E+00 0.0000E+00 0.9000E+01
#aMCatNLO 2  0  0  2  1 0.97973610D+02 0.00000000D+00  -5  7  0 0.00000000D+00 0.00000000D+00 0.00000000D+00 0.00000000D+00 0.00000000D+00
  <mgrwgt>
 0.4171854026D-05    2    2    0
 0.258528455722057D+03 0.000000000000000D+00 0.000000000000000D+00 0.258528455722057D+03
 0.258528455722057D+03 0.000000000000000D+00 0.000000000000000D+00 -.258528455722057D+03
 0.179029782435842D+03 0.171439171373841D+02 0.996491966576359D+02 0.116243431494856D+03
 0.685831216429793D+02 0.207262349604376D+01 0.677090564791291D+02 0.107159916407886D+02
 0.508267108336936D+02 0.427235374452089D+02 -.752569731846578D+01 -.264842927451456D+02
 0.218617296531599D+03 -.619400780786368D+02 -.159832555818299D+03 -.100475130390499D+03
 0.000000000000000D+00 0.000000000000000D+00 0.000000000000000D+00 -.000000000000000D+00
 0.299843855873282D+03 0.000000000000000D+00 0.000000000000000D+00 0.299843855873282D+03
 0.328488593748666D+03 0.000000000000000D+00 0.000000000000000D+00 -.328488593748666D+03
 0.163141317913995D+03 0.873708941347246D+01 0.686364784178000D+02 0.116243431494856D+03
 0.573178809291898D+02 -.102064778785439D+01 0.562980041871865D+02 0.107159916407886D+02
 0.509893915777597D+02 0.402220099006030D+02 -.167538118294117D+02 -.264842927451456D+02
 0.254808645147582D+03 -.735717159570501D+02 -.202741572160457D+03 -.100475130390499D+03
 0.102075214053421D+03 0.256332644308290D+02 0.945609013848827D+02 -.286447378753836D+02
-.169516657488D-05 0.000000000000D+00 0.000000000000D+00 0.987583494511D-07 0.000000000000D+00  7 -1 1 23 -11 11 23 21 2 0.67708958D-01 0.31141615D-01 0.74660586D+05 0.74660586D+05 0.74660586D+05 0.11322876D+01  1  2 13  2  7  2        1 -.899890011276D-04 0.100000000000D+01
0.222709877735D-05 0.000000000000D+00 0.000000000000D+00 0.987583494511D-07 0.724551763038D-10  7 -1 1 23 -11 11 23 21 2 0.78529518D-01 0.29686282D-01 0.74660586D+05 0.74660586D+05 0.74660586D+05 0.11322876D+01  1  2  1  2  7  2        1 0.941608551532D-04 0.100000000000D+01
  </mgrwgt>
  </event>
  <event>
  8     66 0.27784906E-05 0.10365157E+03 0.75467711E-02 0.10318915E+00
       -1 -1    0    0    0  501 0.00000000E+00 0.00000000E+00 0.30551729E+02 0.30553405E+02 0.32000000E+00 0.0000E+00 0.9000E+01
        1 -1    0    0  501    0 0.00000000E+00 0.00000000E+00 -.20609987E+04 0.20609988E+04 0.32000000E+00 0.0000E+00 0.9000E+01
       25  2    1    2    0    0 0.74694301E+02 -.12086121E+03 -.14101376E+04 0.14486792E+04 0.29999437E+03 0.0000E+00 0.0000E+00
       23  2    3    3    0    0 -.62441910E+02 0.22721319E+02 -.53035488E+03 0.54217205E+03 0.90878926E+02 0.0000E+00 0.0000E+00
       23  1    1    2    0    0 -.74694301E+02 0.12086121E+03 -.62030935E+03 0.64287294E+03 0.91188000E+02 0.0000E+00 0.9000E+01
      -11  1    4    4    0    0 0.20726215E+02 0.18103062E+02 -.17738419E+03 0.17950612E+03 0.51099893E-03 0.0000E+00 0.9000E+01
       11  1    4    4    0    0 -.83168125E+02 0.46182571E+01 -.35297069E+03 0.36266593E+03 0.51099893E-03 0.0000E+00 0.9000E+01
       23  1    3    3    0    0 0.13713621E+03 -.14358253E+03 -.87978277E+03 0.90650717E+03 0.91188000E+02 0.0000E+00 0.9000E+01
#aMCatNLO 1  0  0  2  1 0.27712019D+01 0.00000000D+00  -5  7  0 0.00000000D+00 0.00000000D+00 0.00000000D+00 0.00000000D+00 0.00000000D+00
  <mgrwgt>
 0.1120019350D-02   11    2    0
 0.250935953715566D+03 0.000000000000000D+00 0.000000000000000D+00 0.250935953715566D+03
 0.250935953715566D+03 0.000000000000000D+00 0.000000000000000D+00 -.250935953715566D+03
 0.169559240378195D+03 -.746943007918142D+02 0.120861214014113D+03 0.157611240045628D+02
 0.304404759379710D+02 0.207262150210030D+02 0.181030620584134D+02 -.130125220592541D+02
 0.833806787211197D+02 -.831681254172790D+02 0.461825711170523D+01 -.375129308646034D+01
 0.218491512393846D+03 0.137136211188090D+03 -.143582533184232D+03 0.100269114115169D+01
 0.000000000000000D+00 0.000000000000000D+00 -.000000000000000D+00 -.000000000000000D+00
 0.251686969228877D+03 0.000000000000000D+00 0.000000000000000D+00 0.251686969228877D+03
 0.253509259159833D+03 0.000000000000000D+00 0.000000000000000D+00 -.253509259159833D+03
 0.170076989360470D+03 -.756195828368871D+02 0.121013208484072D+03 0.157611240045628D+02
 0.303442120634780D+02 0.205606173152860D+02 0.181302645051060D+02 -.130125220592541D+02
 0.838392421197890D+02 -.836236880951819D+02 0.469309159934003D+01 -.375129308646034D+01
 0.217619114745420D+03 0.135948100799314D+03 -.143387364360028D+03 0.100269114115169D+01
 0.331667009955304D+01 0.273455281746956D+01 -.449200228490232D+00 -.182228993095577D+01
0.427811925949D-05 0.000000000000D+00 0.000000000000D+00 0.280565130358D-06 0.000000000000D+00  7 -1 1 23 -11 11 23 21 0 0.47003968D-02 0.31707686D+00 0.62033278D+05 0.62033278D+05 0.62033278D+05 0.11391476D+01  1  2  2  2  7  2        1 0.273803365249D-03 0.100000000000D+01
-.237657103936D-06 0.000000000000D+00 -.164291044111D-07 0.280565130358D-06 0.000000000000D+00  7 -1 1 23 -11 11 23 21 2 0.47003968D-02 0.31707686D+00 0.62033278D+05 0.62033278D+05 0.62033278D+05 0.11391476D+01  1  2  3  2  7  2        1 -.197377053211D-04 0.100000000000D+01
0.286620730170D-06 0.000000000000D+00 0.000000000000D+00 0.280565130358D-06 0.000000000000D+00  7 -1 1 23 -11 11 23 21 2 0.47003968D-02 0.31707686D+00 0.62033278D+05 0.62033278D+05 0.62033278D+05 0.11391476D+01  1  2 15  2  7  2        1 0.238041927522D-04 0.100000000000D+01
0.193589086867D-07 0.000000000000D+00 0.000000000000D+00 0.280565130358D-06 0.000000000000D+00  7 -1 1 23 -11 11 23 21 2 0.47003968D-02 0.32079974D+00 0.62725430D+05 0.62725430D+05 0.62725430D+05 0.11387331D+01  1  2 12  2  7  2        1 0.154884553955D-05 0.100000000000D+01
-.885721434845D-04 0.000000000000D+00 0.000000000000D+00 0.280565130358D-06 0.000000000000D+00  7 -1 1 23 -11 11 23 21 2 0.47003968D-02 0.31707686D+00 0.62033278D+05 0.62033278D+05 0.62033278D+05 0.11391476D+01  1  2  4  2  7  2        1 -.735602192740D-02 0.100000000000D+01
-.379178014107D-03 0.000000000000D+00 -.363048693911D-04 0.280565130358D-06 0.000000000000D+00  7 -1 1 23 -11 11 23 21 2 0.47003968D-02 0.32071750D+00 0.62033278D+05 0.62033278D+05 0.62033278D+05 0.11391476D+01  1  2  5  2  7  2        1 -.303893633467D-01 0.100000000000D+01
0.379570117040D-03 0.000000000000D+00 0.363025036109D-04 0.280565130358D-06 0.000000000000D+00  7 -1 1 23 -11 11 23 21 2 0.47003968D-02 0.31707686D+00 0.62033278D+05 0.62033278D+05 0.62033278D+05 0.11391476D+01  1  2  6  2  7  2        1 0.315237499522D-01 0.100000000000D+01
0.885589246449D-04 0.000000000000D+00 0.000000000000D+00 0.280565130358D-06 0.252679069031D-06  7 -1 1 23 -11 11 23 21 2 0.47144644D-02 0.32032843D+00 0.62725430D+05 0.62725430D+05 0.62725430D+05 0.11387331D+01  1  2 11  2  7  2        1 0.708685573779D-02 0.100000000000D+01
0.187248418645D-08 0.000000000000D+00 0.000000000000D+00 0.280565130358D-06 0.000000000000D+00  7 -1 21 23 -11 11 23 -1 2 0.47003968D-02 0.32079974D+00 0.62725430D+05 0.62725430D+05 0.62725430D+05 0.11387331D+01  1  2 12  4  7  2        1 0.765155078419D-07 0.100000000000D+01
-.796190562400D-06 0.000000000000D+00 -.763997339753D-07 0.280565130358D-06 0.000000000000D+00  7 -1 21 23 -11 11 23 -1 2 0.47003968D-02 0.32071750D+00 0.62033278D+05 0.62033278D+05 0.62033278D+05 0.11391476D+01  1  2  5  4  7  2        1 -.326248830288D-04 0.100000000000D+01
0.193522393430D-06 0.000000000000D+00 0.000000000000D+00 0.280565130358D-06 0.476612464759D-09  7 -1 21 23 -11 11 23 -1 2 0.47144644D-02 0.32032843D+00 0.62725430D+05 0.62725430D+05 0.62725430D+05 0.11387331D+01  1  2 11  4  7  2        1 0.792860309572D-05 0.100000000000D+01
  </mgrwgt>
  </event>
  <event>
  8     66 0.27784906E-05 0.71833615E+03 0.75467711E-02 0.85566498E-01
       -1 -1    0    0    0  501 0.00000000E+00 0.00000000E+00 0.56007807E+03 0.56007816E+03 0.32000000E+00 0.0000E+00 0.9000E+01
        1 -1    0    0  501    0 0.00000000E+00 0.00000000E+00 -.12644597E+04 0.12644597E+04 0.32000000E+00 0.0000E+00 0.9000E+01
       25  2    1    2    0    0 -.63325544E+03 -.31601110E+03 -.79431624E+03 0.11053168E+04 0.29985252E+03 0.0000E+00 0.0000E+00
       23  2    3    3    0    0 -.25570565E+03 -.15786176E+03 -.18154764E+03 0.36278355E+03 0.91359972E+02 0.0000E+00 0.0000E+00
       23  1    1    2    0    0 0.63325544E+03 0.31601110E+03 0.89934597E+02 0.71922108E+03 0.91188000E+02 0.0000E+00 0.9000E+01
      -11  1    4    4    0    0 -.69780431E+02 -.21036137E+02 -.66881343E+01 0.73188515E+02 0.51099893E-03 0.0000E+00 0.9000E+01
       11  1    4    4    0    0 -.18592522E+03 -.13682562E+03 -.17485950E+03 0.28959503E+03 0.51099893E-03 0.0000E+00 0.9000E+01
       23  1    3    3    0    0 -.37754980E+03 -.15814935E+03 -.61276860E+03 0.74253328E+03 0.91188000E+02 0.0000E+00 0.9000E+01
#aMCatNLO 1  0  0  2  1 0.82907485D+03 0.00000000D+00  -5  7  0 0.00000000D+00 0.00000000D+00 0.00000000D+00 0.00000000D+00 0.00000000D+00
  <mgrwgt>
 0.3343801706D-03    5    2    0
 0.841543979122442D+03 0.000000000000000D+00 0.000000000000000D+00 0.841543979122442D+03
 0.841543979122442D+03 0.000000000000000D+00 0.000000000000000D+00 -.841543979122442D+03
 0.817303927014694D+03 0.633255444214346D+03 0.316011103554174D+03 0.398490881417636D+03
 0.765403976578389D+02 -.697804311335724D+02 -.210361373598780D+02 0.233795814635169D+02
 0.240753483549564D+03 -.185925216636411D+03 -.136825621149275D+03 -.683579041301655D+02
 0.548490150022787D+03 -.377549796444362D+03 -.158149345045022D+03 -.353512558750987D+03
 0.000000000000000D+00 -.000000000000000D+00 -.000000000000000D+00 -.000000000000000D+00
 0.108937486801138D+04 0.000000000000000D+00 0.000000000000000D+00 0.108937486801138D+04
 0.207408082309801D+04 0.000000000000000D+00 0.000000000000000D+00 -.207408082309801D+04
 0.125243317409511D+04 0.101191278746123D+04 0.614419345585232D+03 0.398490881417636D+03
 0.519114337182102D+02 -.462802343317800D+02 -.251635281040874D+01 0.233795814635169D+02
 0.154727245332869D+03 -.113572219715369D+03 -.798064427233344D+02 -.683579041301655D+02
 0.417134474032579D+03 -.200889265731298D+03 -.189285974574395D+02 -.353512558750987D+03
 0.128724936393062D+04 -.651171067682784D+03 -.513167952594049D+03 -.984705955086630D+03
0.211593588111D-03 0.000000000000D+00 0.000000000000D+00 0.482960442345D-05 0.000000000000D+00  7 -1 1 23 -11 11 23 21 0 0.86165867D-01 0.19453227D+00 0.51600682D+06 0.51600682D+06 0.51600682D+06 0.10675445D+01  1  2  2  2  7  2        1 0.335438001713D-03 0.100000000000D+01
-.113970395311D-04 0.000000000000D+00 -.812575092218D-06 0.482960442345D-05 0.000000000000D+00  7 -1 1 23 -11 11 23 21 2 0.86165867D-01 0.19453227D+00 0.51600682D+06 0.51600682D+06 0.51600682D+06 0.10675445D+01  1  2  3  2  7  2        1 -.205908279183D-04 0.100000000000D+01
0.131418117134D-04 0.000000000000D+00 0.000000000000D+00 0.482960442345D-05 0.000000000000D+00  7 -1 1 23 -11 11 23 21 2 0.86165867D-01 0.19453227D+00 0.51600682D+06 0.51600682D+06 0.51600682D+06 0.10675445D+01  1  2 15  2  7  2        1 0.237430766811D-04 0.100000000000D+01
-.652109621494D-04 0.000000000000D+00 -.583774526660D-04 0.482960442345D-05 0.000000000000D+00  7 -1 1 23 -11 11 23 21 2 0.86165867D-01 0.51153375D+00 0.51600682D+06 0.51600682D+06 0.51600682D+06 0.10675445D+01  1  2  5  2  7  2        1 -.417488941718D-05 0.100000000000D+01
-.351510494395D-05 0.000000000000D+00 -.626581639466D-05 0.482960442345D-05 0.000000000000D+00  7 -1 21 23 -11 11 23 -1 2 0.86165867D-01 0.51153375D+00 0.51600682D+06 0.51600682D+06 0.51600682D+06 0.10675445D+01  1  2  5  4  7  2        1 -.351904988895D-07 0.100000000000D+01
  </mgrwgt>
  </event>
  <event>
  8     66 0.27784906E-05 0.23578214E+03 0.75467711E-02 0.98921172E-01
       -1 -1    0    0    0  501 0.00000000E+00 0.00000000E+00 0.47730316E+02 0.47731389E+02 0.32000000E+00 0.0000E+00 0.9000E+01
        1 -1    0    0  501    0 0.00000000E+00 0.00000000E+00 -.14865732E+04 0.14865733E+04 0.32000000E+00 0.0000E+00 0.9000E+01
       25  2    1    2    0    0 0.13927101E+03 0.93888691E+02 -.84805269E+03 0.91337000E+03 0.29468609E+03 0.0000E+00 0.0000E+00
       23  2    3    3    0    0 0.44269593E+02 0.11206194E+03 -.19441773E+03 0.24635467E+03 0.91513360E+02 0.0000E+00 0.0000E+00
       23  1    1    2    0    0 -.13927101E+03 -.93888691E+02 -.59079024E+03 0.62093467E+03 0.91188000E+02 0.0000E+00 0.9000E+01
      -11  1    4    4    0    0 0.59647948E+02 0.11702834E+03 -.18712550E+03 0.22862516E+03 0.51099893E-03 0.0000E+00 0.9000E+01
       11  1    4    4    0    0 -.15378356E+02 -.49663988E+01 -.72922230E+01 0.17729508E+02 0.51099893E-03 0.0000E+00 0.9000E+01
       23  1    3    3    0    0 0.95001421E+02 -.18173251E+02 -.65363496E+03 0.66701533E+03 0.91188000E+02 0.0000E+00 0.9000E+01
#aMCatNLO 1  0  0  1  2 0.19118324D+03 0.00000000D+00  -5  7  0 0.00000000D+00 0.00000000D+00 0.00000000D+00 0.00000000D+00 0.00000000D+00
  <mgrwgt>
 0.2996490961D-03    5    2    0
 0.266374661157696D+03 0.000000000000000D+00 0.000000000000000D+00 0.266374661157696D+03
 0.266374661157696D+03 0.000000000000000D+00 0.000000000000000D+00 -.266374661157696D+03
 0.192677108451809D+03 -.139271013830864D+03 -.938886914035682D+02 -.244482128262834D+02
 0.153048425632647D+03 0.596479481978365D+02 0.117028341444264D+03 0.785513218426328D+02
 0.313657903412282D+02 -.153783556784477D+02 -.496639879512228D+01 0.268822220689594D+02
 0.155657997889708D+03 0.950014213114749D+02 -.181732512455738D+02 -.809853310853088D+02
 0.000000000000000D+00 -.000000000000000D+00 0.000000000000000D+00 0.000000000000000D+00
 0.386662947163029D+03 0.000000000000000D+00 0.000000000000000D+00 0.386662947163029D+03
 0.371162520309082D+03 0.000000000000000D+00 0.000000000000000D+00 -.371162520309082D+03
 0.223839479601333D+03 -.119927853322939D+03 -.163732880543732D+03 -.244482128262834D+02
 0.127844591689177D+03 0.726927076995109D+02 0.699263877821602D+02 0.785513218426328D+02
 0.335689634781647D+02 -.123627654193850D+02 -.158550773198609D+02 0.268822220689594D+02
 0.180761867848562D+03 0.110624865005390D+03 -.745863051480855D+02 -.809853310853088D+02
 0.191810564854873D+03 -.510269539625761D+02 0.184247875229518D+03 0.155004268539469D+02
0.383874487086D-05 0.000000000000D+00 0.000000000000D+00 0.323433736775D-08 0.000000000000D+00  7 -1 1 23 -11 11 23 21 0 0.73432107D-02 0.22870366D+00 0.55593219D+05 0.55593219D+05 0.55593219D+05 0.11432666D+01  1  2  2  1  7  1       -1 0.299496077560D-03 0.100000000000D+01
-.209404501187D-06 0.000000000000D+00 -.147417910688D-07 0.323433736775D-08 0.000000000000D+00  7 -1 1 23 -11 11 23 21 2 0.73432107D-02 0.22870366D+00 0.55593219D+05 0.55593219D+05 0.55593219D+05 0.11432666D+01  1  2  3  1  7  1       -1 -.213541813554D-04 0.100000000000D+01
0.244406235271D-06 0.000000000000D+00 0.000000000000D+00 0.323433736775D-08 0.000000000000D+00  7 -1 1 23 -11 11 23 21 2 0.73432107D-02 0.22870366D+00 0.55593219D+05 0.55593219D+05 0.55593219D+05 0.11432666D+01  1  2 15  1  7  1       -1 0.249235094890D-04 0.100000000000D+01
-.528615734083D-06 0.000000000000D+00 -.121274209180D-05 0.323433736775D-08 0.000000000000D+00  7 -1 1 23 -11 11 23 21 2 0.15509751D-01 0.22870366D+00 0.55593219D+05 0.55593219D+05 0.55593219D+05 0.11432666D+01  1  2  5  1  7  1       -1 -.171604230198D-04 0.100000000000D+01
0.325645902338D-07 0.000000000000D+00 -.980812900465D-07 0.323433736775D-08 0.000000000000D+00  7 21 1 23 -11 11 23 1 2 0.15509751D-01 0.22870366D+00 0.55593219D+05 0.55593219D+05 0.55593219D+05 0.11432666D+01  1  2  5  3  7  1       -1 0.137441134408D-04 0.100000000000D+01
  </mgrwgt>
  </event>
  <event>
  8     66 0.27784906E-05 0.12598133E+03 0.75467711E-02 0.10638791E+00
       -1 -1    0    0    0  501 0.00000000E+00 0.00000000E+00 0.35200742E+03 0.35200757E+03 0.32000000E+00 0.0000E+00 0.9000E+01
        1 -1    0    0  501    0 0.00000000E+00 0.00000000E+00 -.11828358E+03 0.11828401E+03 0.32000000E+00 0.0000E+00 0.9000E+01
       25  2    1    2    0    0 -.17936704E+02 -.97381111E+01 0.22610761E+03 0.37653757E+03 0.30039862E+03 0.0000E+00 0.0000E+00
       23  2    3    3    0    0 -.82361122E+02 0.80786633E+02 0.65287464E+02 0.16084425E+03 0.91096578E+02 0.0000E+00 0.0000E+00
       23  1    1    2    0    0 0.17936704E+02 0.97381111E+01 0.76162328E+01 0.93754011E+02 0.91188000E+02 0.0000E+00 0.9000E+01
      -13  1    4    4    0    0 -.85285085E+02 0.50759437E+02 0.79814550E+02 0.12735949E+03 0.10565837E+00 0.0000E+00 0.9000E+01
       13  1    4    4    0    0 0.29239627E+01 0.30027195E+02 -.14527085E+02 0.33484764E+02 0.10565837E+00 0.0000E+00 0.9000E+01
       23  1    3    3    0    0 0.64424419E+02 -.90524744E+02 0.16082015E+03 0.21569331E+03 0.91188000E+02 0.0000E+00 0.9000E+01
#aMCatNLO 1  0  0  2  1 0.31387547D+02 0.00000000D+00  -5  7  0 0.00000000D+00 0.00000000D+00 0.00000000D+00 0.00000000D+00 0.00000000D+00
  <mgrwgt>
 0.5414178777D-03    6    2    0
 0.204051055882700D+03 0.000000000000000D+00 0.000000000000000D+00 0.204051055882700D+03
 0.204051055882700D+03 0.000000000000000D+00 0.000000000000000D+00 -.204051055882700D+03
 0.103679186215368D+03 0.179368318297218D+02 0.973818062864006D+01 -.449172596251963D+02
 0.101056964529190D+03 -.852852092787950D+02 0.507594053273260D+02 0.190374874640071D+02
 0.469070190628670D+02 0.292411156361243D+01 0.300270926321898D+02 -.359178467754627D+02
 0.156458941957975D+03 0.644242658854608D+02 -.905246785881559D+02 0.617976189366519D+02
 0.000000000000000D+00 0.000000000000000D+00 0.000000000000000D+00 0.000000000000000D+00
 0.222131495777758D+03 0.000000000000000D+00 0.000000000000000D+00 0.222131495777758D+03
 0.218745513287130D+03 0.000000000000000D+00 0.000000000000000D+00 -.218745513287130D+03
 0.103101829295134D+03 0.171405119373161D+02 0.183806917510425D+01 -.449172596251963D+02
 0.981289825307253D+02 -.860522803348099D+02 0.431494650343716D+02 0.190374874640071D+02
 0.447252236479507D+02 0.257123304874383D+01 0.265262638526922D+02 -.359178467754627D+02
 0.163351320604306D+03 0.631926669727411D+02 -.102743095796278D+03 0.617976189366519D+02
 0.315696529867724D+02 0.314786837600888D+01 0.312292977341103D+02 0.338598249062826D+01
0.305247222205D-05 0.000000000000D+00 0.000000000000D+00 0.910386702634D-07 0.000000000000D+00  7 -1 1 23 -13 13 23 21 0 0.54155032D-01 0.18197518D-01 0.33598587D+05 0.33598587D+05 0.33598587D+05 0.11627984D+01  1  2  2  2  7  2        1 0.382575047451D-03 0.100000000000D+01
-.167210088483D-06 0.000000000000D+00 -.117222970670D-07 0.910386702634D-07 0.000000000000D+00  7 -1 1 23 -13 13 23 21 2 0.54155032D-01 0.18197518D-01 0.33598587D+05 0.33598587D+05 0.33598587D+05 0.11627984D+01  1  2  3  2  7  2        1 -.283358513832D-04 0.100000000000D+01
0.183768496969D-06 0.000000000000D+00 0.000000000000D+00 0.910386702634D-07 0.000000000000D+00  7 -1 1 23 -13 13 23 21 2 0.54155032D-01 0.18197518D-01 0.33598587D+05 0.33598587D+05 0.33598587D+05 0.11627984D+01  1  2 15  2  7  2        1 0.311418818461D-04 0.100000000000D+01
0.354529856387D-05 0.000000000000D+00 0.000000000000D+00 0.910386702634D-07 0.000000000000D+00  7 -1 1 23 -13 13 23 21 2 0.54155032D-01 0.20252915D-01 0.39664048D+05 0.39664048D+05 0.39664048D+05 0.11562482D+01  1  2 12  2  7  2        1 0.518053047353D-03 0.100000000000D+01
-.257717496294D-05 0.000000000000D+00 0.000000000000D+00 0.910386702634D-07 0.000000000000D+00  7 -1 1 23 -13 13 23 21 2 0.54155032D-01 0.18197518D-01 0.33598587D+05 0.33598587D+05 0.33598587D+05 0.11627984D+01  1  2  4  2  7  2        1 -.436734693467D-03 0.100000000000D+01
0.610394115333D-07 0.000000000000D+00 0.000000000000D+00 0.910386702634D-07 0.000000000000D+00  7 -1 21 23 -13 13 23 -1 2 0.54155032D-01 0.20252915D-01 0.39664048D+05 0.39664048D+05 0.39664048D+05 0.11562482D+01  1  2 12  4  7  2        1 0.747184458765D-04 0.100000000000D+01
  </mgrwgt>
  </event>
  <event>
  8     66 0.27784906E-05 0.10246412E+03 0.75467711E-02 0.10488738E+00
       -1 -1    0    0    0  501 0.00000000E+00 0.00000000E+00 0.52537985E+03 0.52537995E+03 0.32000000E+00 0.0000E+00 0.9000E+01
        1 -1    0    0  501    0 0.00000000E+00 0.00000000E+00 -.16061412E+03 0.16061444E+03 0.32000000E+00 0.0000E+00 0.9000E+01
       25  2    1    2    0    0 0.17632169E+03 -.58141000E+01 0.11388173E+03 0.36602380E+03 0.29980199E+03 0.0000E+00 0.0000E+00
       23  2    3    3    0    0 0.74256814E+02 0.69643387E+01 0.17917302E+03 0.21384387E+03 0.89797853E+02 0.0000E+00 0.0000E+00
       23  1    1    2    0    0 -.17632169E+03 0.58141000E+01 0.25088400E+03 0.31997059E+03 0.91188000E+02 0.0000E+00 0.9000E+01
      -11  1    4    4    0    0 0.27495831E+02 0.99110532E+01 0.60767764E+00 0.29233867E+02 0.51099893E-03 0.0000E+00 0.9000E+01
       11  1    4    4    0    0 0.46760982E+02 -.29467145E+01 0.17856534E+03 0.18461001E+03 0.51099893E-03 0.0000E+00 0.9000E+01
       23  1    3    3    0    0 0.10206487E+03 -.12778439E+02 -.65291292E+02 0.15217993E+03 0.91188000E+02 0.0000E+00 0.9000E+01
#aMCatNLO 1  0  0  2  1 0.26827097D+02 0.00000000D+00  -5  7  0 0.00000000D+00 0.00000000D+00 0.00000000D+00 0.00000000D+00 0.00000000D+00
  <mgrwgt>
 0.6353868617D-03    6    2    0
 0.290488494179289D+03 0.000000000000000D+00 0.000000000000000D+00 0.290488494179289D+03
 0.290488494179289D+03 0.000000000000000D+00 0.000000000000000D+00 -.290488494179289D+03
 0.220291235773218D+03 -.176321686538159D+03 0.581409997537199D+01 0.953406330601328D+02
 0.341366513160952D+02 0.274958314209134D+02 0.991105316313041D+01 -.176369283818635D+02
 0.105868065458306D+03 0.467609821821951D+02 -.294671449038442D+01 0.949356345265188D+02
 0.220681035810959D+03 0.102064872935051D+03 -.127784386481180D+02 -.172639339204788D+03
 0.000000000000000D+00 -.000000000000000D+00 0.000000000000000D+00 0.000000000000000D+00
 0.306513094364058D+03 0.000000000000000D+00 0.000000000000000D+00 0.306513094364058D+03
 0.302247108916587D+03 0.000000000000000D+00 0.000000000000000D+00 -.302247108916587D+03
 0.215922795628975D+03 -.170910554142112D+03 -.267366766097670D+01 0.953406330601328D+02
 0.344696470497310D+02 0.283468764055666D+02 0.857612517595101D+01 -.176369283818635D+02
 0.107256342024089D+03 0.494047402979285D+02 -.709364768859050D+01 0.949356345265188D+02
 0.223947255620338D+03 0.107580382246453D+03 -.214299293167801D+02 -.172639339204788D+03
 0.271641629575120D+02 -.144214448078356D+02 0.226211194903963D+02 0.426598544747039D+01
0.906233781901D-05 0.000000000000D+00 0.000000000000D+00 0.406944210164D-06 0.000000000000D+00  7 -1 1 23 -11 11 23 21 0 0.80827702D-01 0.24709897D-01 0.42463654D+05 0.42463654D+05 0.42463654D+05 0.11535891D+01  1  2  2  2  7  2        1 0.359780313847D-03 0.100000000000D+01
-.431293678553D-06 0.000000000000D+00 -.348017633934D-07 0.406944210164D-06 0.000000000000D+00  7 -1 1 23 -11 11 23 21 2 0.80827702D-01 0.24709897D-01 0.42463654D+05 0.42463654D+05 0.42463654D+05 0.11535891D+01  1  2  3  2  7  2        1 -.227862342402D-04 0.100000000000D+01
0.573556606800D-06 0.000000000000D+00 0.000000000000D+00 0.406944210164D-06 0.000000000000D+00  7 -1 1 23 -11 11 23 21 2 0.80827702D-01 0.24709897D-01 0.42463654D+05 0.42463654D+05 0.42463654D+05 0.11535891D+01  1  2 15  2  7  2        1 0.303023110295D-04 0.100000000000D+01
0.164823228876D-04 0.000000000000D+00 0.000000000000D+00 0.406944210164D-06 0.000000000000D+00  7 -1 1 23 -11 11 23 21 2 0.80827702D-01 0.26360324D-01 0.49003505D+05 0.49003505D+05 0.49003505D+05 0.11480652D+01  1  2 12  2  7  2        1 0.792477797231D-03 0.100000000000D+01
-.111296518022D-04 0.000000000000D+00 0.000000000000D+00 0.406944210164D-06 0.000000000000D+00  7 -1 1 23 -11 11 23 21 2 0.80827702D-01 0.24709897D-01 0.42463654D+05 0.42463654D+05 0.42463654D+05 0.11535891D+01  1  2  4  2  7  2        1 -.588005031348D-03 0.100000000000D+01
0.184500170495D-06 0.000000000000D+00 0.000000000000D+00 0.406944210164D-06 0.000000000000D+00  7 -1 21 23 -11 11 23 -1 2 0.80827702D-01 0.26360324D-01 0.49003505D+05 0.49003505D+05 0.49003505D+05 0.11480652D+01  1  2 12  4  7  2        1 0.636177052128D-04 0.100000000000D+01
  </mgrwgt>
  </event>
  <event>
  8     66 0.27784906E-05 0.25937143E+03 0.75467711E-02 0.95671619E-01
       -1 -1    0    0    0  501 0.00000000E+00 0.00000000E+00 0.30053991E+03 0.30054008E+03 0.32000000E+00 0.0000E+00 0.9000E+01
        1 -1    0    0  501    0 0.00000000E+00 0.00000000E+00 -.49600590E+03 0.49600600E+03 0.32000000E+00 0.0000E+00 0.9000E+01
       25  2    1    2    0    0 -.75280621E+02 0.16928290E+03 -.38109135E+03 0.51888460E+03 0.29947744E+03 0.0000E+00 0.0000E+00
       23  2    3    3    0    0 -.41307932E+02 -.30231641E+02 -.40741610E+02 0.11254312E+03 0.91573897E+02 0.0000E+00 0.0000E+00
       23  1    1    2    0    0 0.75280621E+02 -.16928290E+03 0.18562536E+03 0.27766148E+03 0.91188000E+02 0.0000E+00 0.9000E+01
      -11  1    4    4    0    0 -.63166937E+02 -.21391082E+02 -.14342891E+01 0.66706053E+02 0.51099893E-03 0.0000E+00 0.9000E+01
       11  1    4    4    0    0 0.21859005E+02 -.88405590E+01 -.39307321E+02 0.45837071E+02 0.51099893E-03 0.0000E+00 0.9000E+01
       23  1    3    3    0    0 -.33972689E+02 0.19951454E+03 -.34034974E+03 0.40634147E+03 0.91188000E+02 0.0000E+00 0.9000E+01
#aMCatNLO 1  0  0  1  2 0.31301775D+03 0.00000000D+00  -5  7  0 0.00000000D+00 0.00000000D+00 0.00000000D+00 0.00000000D+00 0.00000000D+00
  <mgrwgt>
 0.4453586656D-03    3    2    0
 0.386095421799065D+03 0.000000000000000D+00 0.000000000000000D+00 0.386095421799065D+03
 0.386095421799065D+03 0.000000000000000D+00 0.000000000000000D+00 -.386095421799065D+03
 0.333406707968605D+03 0.752806212653531D+02 -.169282903974132D+03 0.261764986311100D+03
 0.684469268841677D+02 -.631669372074927D+02 -.213910819478185D+02 0.154058903284743D+02
 0.373328625360470D+02 0.218590053094425D+02 -.884055900289879D+01 -.289442745380396D+02
 0.333004346209310D+03 -.339726893673029D+02 0.199514544924849D+03 -.248226602101534D+03
 0.000000000000000D+00 -.000000000000000D+00 -.000000000000000D+00 -.000000000000000D+00
 0.512922636323417D+03 0.000000000000000D+00 0.000000000000000D+00 0.512922636323417D+03
 0.670941833323272D+03 0.000000000000000D+00 0.000000000000000D+00 -.670941833323272D+03
 0.316369861869519D+03 0.140026179217865D+03 -.603854223346567D+02 0.261764986311100D+03
 0.533176921977850D+02 -.510339694039597D+02 -.984282154902026D+00 0.154058903284743D+02
 0.417315288277282D+02 0.297372027863055D+02 0.441001589705172D+01 -.289442745380396D+02
 0.421802863277963D+03 0.412384157930548D+02 0.326014342011963D+03 -.248226602101534D+03
 0.350642523473694D+03 -.159967828393265D+03 -.269054653419456D+03 -.158019196999855D+03
0.169966334202D-04 0.000000000000D+00 0.000000000000D+00 0.116210728201D-05 0.000000000000D+00  7 -1 1 23 -11 11 23 21 0 0.46236930D-01 0.76308621D-01 0.67273537D+05 0.67273537D+05 0.67273537D+05 0.11361293D+01  1  2  2  1  7  1       -1 0.435667561631D-03 0.100000000000D+01
-.762558377651D-06 0.000000000000D+00 -.652715476500D-07 0.116210728201D-05 0.000000000000D+00  7 -1 1 23 -11 11 23 21 2 0.46236930D-01 0.76308621D-01 0.67273537D+05 0.67273537D+05 0.67273537D+05 0.11361293D+01  1  2  3  1  7  1       -1 -.252302134892D-04 0.100000000000D+01
0.105546245951D-05 0.000000000000D+00 0.000000000000D+00 0.116210728201D-05 0.000000000000D+00  7 -1 1 23 -11 11 23 21 2 0.46236930D-01 0.76308621D-01 0.67273537D+05 0.67273537D+05 0.67273537D+05 0.11361293D+01  1  2 15  1  7  1       -1 0.349213174541D-04 0.100000000000D+01
  </mgrwgt>
  </event>
  <event>
  8     66 0.27784906E-05 0.18904849E+03 0.75467711E-02 0.10026916E+00
       -1 -1    0    0    0  501 0.00000000E+00 0.00000000E+00 0.18677239E+04 0.18677239E+04 0.32000000E+00 0.0000E+00 0.9000E+01
        1 -1    0    0  501    0 0.00000000E+00 0.00000000E+00 -.48847696E+02 0.48848744E+02 0.32000000E+00 0.0000E+00 0.9000E+01
       25  2    1    2    0    0 0.17541615E+03 0.12154990E+03 0.10187701E+04 0.10834879E+04 0.30084600E+03 0.0000E+00 0.0000E+00
       23  2    3    3    0    0 0.22615410E+03 0.83148936E+02 0.73680615E+03 0.78039074E+03 0.89816335E+02 0.0000E+00 0.0000E+00
       23  1    1    2    0    0 -.17541615E+03 -.12154990E+03 0.80010607E+03 0.83308474E+03 0.91188000E+02 0.0000E+00 0.9000E+01
      -13  1    4    4    0    0 -.72749654E+01 0.10313318E+02 0.35791784E+02 0.37951978E+02 0.10565837E+00 0.0000E+00 0.9000E+01
       13  1    4    4    0    0 0.23342906E+03 0.72835618E+02 0.70101437E+03 0.74243876E+03 0.10565837E+00 0.0000E+00 0.9000E+01
       23  1    3    3    0    0 -.50737945E+02 0.38400961E+02 0.28196397E+03 0.30309718E+03 0.91188000E+02 0.0000E+00 0.9000E+01
#aMCatNLO 1  0  0  1  2 0.24547954D+02 0.00000000D+00  -5  7  0 0.00000000D+00 0.00000000D+00 0.00000000D+00 0.00000000D+00 0.00000000D+00
  <mgrwgt>
 0.6615129562D-03    9    2    0
 0.302051384166319D+03 0.000000000000000D+00 0.000000000000000D+00 0.302051384166319D+03
 0.302051384166319D+03 0.000000000000000D+00 0.000000000000000D+00 -.302051384166319D+03
 0.234022346871088D+03 -.175416152317453D+03 -.121549898284080D+03 0.300998874469951D+02
 0.126414007887707D+02 -.727529836087869D+01 0.103132318962741D+02 -.715748221236027D+00
 0.244792245866564D+03 0.233429393132439D+03 0.728357048350809D+02 -.113543894329329D+02
 0.112646774806215D+03 -.507379424541067D+02 0.384009615527248D+02 -.180297497928262D+02
 0.000000000000000D+00 0.000000000000000D+00 0.000000000000000D+00 0.000000000000000D+00
 0.348971118874991D+03 0.000000000000000D+00 0.000000000000000D+00 0.348971118874991D+03
 0.305528623187006D+03 0.000000000000000D+00 0.000000000000000D+00 -.305528623187006D+03
 0.242788830882043D+03 -.184115147421764D+03 -.125804508355663D+03 0.300998874469951D+02
 0.127332787417094D+02 -.773823678033700D+01 0.100868123571972D+02 -.715748221236027D+00
 0.235172960428431D+03 0.224672855587588D+03 0.685529512085096D+02 -.113543894329329D+02
 0.113906250447503D+03 -.548712005434738D+02 0.363794175370536D+02 -.180297497928262D+02
 0.498984215623096D+02 0.220517291579859D+02 0.107853272529021D+02 0.434424956879851D+02
0.871136282993D-04 0.000000000000D+00 0.000000000000D+00 0.821167122828D-07 0.000000000000D+00  7 -1 1 23 -13 13 23 21 0 0.28734222D+00 0.75151128D-02 0.90126940D+05 0.90126940D+05 0.90126940D+05 0.11254457D+01  1  2  2  1  7  1       -1 0.294301255358D-03 0.100000000000D+01
-.483942634675D-05 0.000000000000D+00 -.334539270214D-06 0.821167122828D-07 0.000000000000D+00  7 -1 1 23 -13 13 23 21 2 0.28734222D+00 0.75151128D-02 0.90126940D+05 0.90126940D+05 0.90126940D+05 0.11254457D+01  1  2  3  1  7  1       -1 -.207085156700D-04 0.100000000000D+01
0.558683720356D-05 0.000000000000D+00 0.000000000000D+00 0.821167122828D-07 0.000000000000D+00  7 -1 1 23 -13 13 23 21 2 0.28734222D+00 0.75151128D-02 0.90126940D+05 0.90126940D+05 0.90126940D+05 0.11254457D+01  1  2 15  1  7  1       -1 0.239067809873D-04 0.100000000000D+01
0.416436923608D-03 0.000000000000D+00 0.000000000000D+00 0.821167122828D-07 0.000000000000D+00  7 -1 1 23 -13 13 23 21 2 0.33346783D+00 0.75151128D-02 0.97826903D+05 0.97826903D+05 0.97826903D+05 0.11225059D+01  1  2 12  1  7  1       -1 0.674492182906D-03 0.100000000000D+01
-.421161102200D-03 0.000000000000D+00 0.000000000000D+00 0.821167122828D-07 0.000000000000D+00  7 -1 1 23 -13 13 23 21 2 0.28734222D+00 0.75151128D-02 0.90126940D+05 0.90126940D+05 0.90126940D+05 0.11254457D+01  1  2  4  1  7  1       -1 -.180220147174D-02 0.100000000000D+01
-.586512215146D-03 0.000000000000D+00 -.590675863574D-04 0.821167122828D-07 0.000000000000D+00  7 -1 1 23 -13 13 23 21 2 0.33324253D+00 0.75151128D-02 0.90126940D+05 0.90126940D+05 0.90126940D+05 0.11254457D+01  1  2  5  1  7  1       -1 -.963785228769D-03 0.100000000000D+01
0.589424185123D-03 0.000000000000D+00 0.584248411366D-04 0.821167122828D-07 0.000000000000D+00  7 -1 1 23 -13 13 23 21 2 0.28734222D+00 0.75151128D-02 0.90126940D+05 0.90126940D+05 0.90126940D+05 0.11254457D+01  1  2  6  1  7  1       -1 0.252222042435D-02 0.100000000000D+01
0.944144542901D-05 0.000000000000D+00 0.000000000000D+00 0.821167122828D-07 0.000000000000D+00  7 21 1 23 -13 13 23 1 2 0.33346783D+00 0.75151128D-02 0.97826903D+05 0.97826903D+05 0.97826903D+05 0.11225059D+01  1  2 12  3  7  1       -1 0.174639591532D-03 0.100000000000D+01
-.128472681137D-04 0.000000000000D+00 -.133424607822D-05 0.821167122828D-07 0.000000000000D+00  7 21 1 23 -13 13 23 1 2 0.33324253D+00 0.75151128D-02 0.90126940D+05 0.90126940D+05 0.90126940D+05 0.11254457D+01  1  2  5  3  7  1       -1 -.241352062764D-03 0.100000000000D+01
  </mgrwgt>
  </event>
  <event>
  8     66 0.27784906E-05 0.25676201E+03 0.75467711E-02 0.94940360E-01
       -1 -1    0    0    0  501 0.00000000E+00 0.00000000E+00 0.42184838E+02 0.42186052E+02 0.32000000E+00 0.0000E+00 0.9000E+01
        1 -1    0    0  501    0 0.00000000E+00 0.00000000E+00 -.22701735E+04 0.22701735E+04 0.32000000E+00 0.0000E+00 0.9000E+01
       25  2    1    2    0    0 -.15164382E+03 -.79392737E+01 -.19711237E+04 0.20003440E+04 0.30494007E+03 0.0000E+00 0.0000E+00
       23  2    3    3    0    0 -.99960389E+01 0.10292062E+03 -.91779510E+03 0.92788399E+03 0.89040841E+02 0.0000E+00 0.0000E+00
       23  1    1    2    0    0 0.15164382E+03 0.79392737E+01 -.25686494E+03 0.31201559E+03 0.91188000E+02 0.0000E+00 0.9000E+01
      -13  1    4    4    0    0 -.46547205E+02 0.76801217E+02 -.53841787E+03 0.54585610E+03 0.10565837E+00 0.0000E+00 0.9000E+01
       13  1    4    4    0    0 0.36551166E+02 0.26119399E+02 -.37937724E+03 0.38202789E+03 0.10565837E+00 0.0000E+00 0.9000E+01
       23  1    3    3    0    0 -.14164778E+03 -.11085989E+03 -.10533286E+04 0.10724600E+04 0.91188000E+02 0.0000E+00 0.9000E+01
#aMCatNLO 1  0  0  2  2 0.37019319D+03 0.00000000D+00  -5  7  0 0.00000000D+00 0.00000000D+00 0.00000000D+00 0.00000000D+00 0.00000000D+00
  <mgrwgt>
 0.4594382429D-03    3    2    0
 0.309464587039717D+03 0.000000000000000D+00 0.000000000000000D+00 0.309464587039717D+03
 0.309464587039717D+03 0.000000000000000D+00 0.000000000000000D+00 -.309464587039717D+03
 0.241061656665380D+03 0.151643853373694D+03 0.793927537832846D+01 0.163513242921490D+03
 0.101185574541548D+03 -.465473453410224D+02 0.768012648335637D+02 -.466200692510375D+02
 0.616187186232414D+02 0.365512663356871D+02 0.261193030365365D+02 -.421740847311881D+02
 0.215063224249264D+03 -.141647774368359D+03 -.110859843248429D+03 -.747190889392645D+02
 0.000000000000000D+00 0.000000000000000D+00 0.000000000000000D+00 0.000000000000000D+00
 0.622239379138790D+03 0.000000000000000D+00 0.000000000000000D+00 0.622239379138790D+03
 0.491539636594008D+03 0.000000000000000D+00 0.000000000000000D+00 -.491539636594008D+03
 0.222678585239970D+03 0.747928590931242D+02 -.945513014106553D+02 0.163513242921490D+03
 0.978540324255559D+02 -.795321724368727D+02 0.328118020297843D+02 -.466200692510375D+02
 0.461852883809975D+02 0.186859952700024D+02 0.229369149885341D+01 -.421740847311881D+02
 0.354473000326911D+03 -.236031270089255D+03 -.236732240949352D+03 -.747190889392645D+02
 0.392588109359363D+03 0.222084588163001D+03 0.296178048831369D+03 0.130699742544782D+03
0.156896509934D-04 0.000000000000D+00 0.000000000000D+00 0.170892220455D-08 0.000000000000D+00  7 -1 1 23 -13 13 23 21 0 0.64900702D-02 0.34925756D+00 0.65926731D+05 0.65926731D+05 0.65926731D+05 0.11368797D+01  1  2  2  2  7  2        1 0.452452630341D-03 0.100000000000D+01
-.834708445403D-06 0.000000000000D+00 -.602523909945D-07 0.170892220455D-08 0.000000000000D+00  7 -1 1 23 -13 13 23 21 2 0.64900702D-02 0.34925756D+00 0.65926731D+05 0.65926731D+05 0.65926731D+05 0.11368797D+01  1  2  3  2  7  2        1 -.311116918180D-04 0.100000000000D+01
0.102212833222D-05 0.000000000000D+00 0.000000000000D+00 0.170892220455D-08 0.000000000000D+00  7 -1 1 23 -13 13 23 21 2 0.64900702D-02 0.34925756D+00 0.65926731D+05 0.65926731D+05 0.65926731D+05 0.11368797D+01  1  2 15  2  7  2        1 0.380973043290D-04 0.100000000000D+01
  </mgrwgt>
  </event>
  <event>
  8     66 0.27784906E-05 0.80024784E+03 0.75467711E-02 0.83550707E-01
       -1 -1    0    0    0  501 0.00000000E+00 0.00000000E+00 0.36552827E+03 0.36552841E+03 0.32000000E+00 0.0000E+00 0.9000E+01
        1 -1    0    0  501    0 0.00000000E+00 0.00000000E+00 -.26639794E+04 0.26639794E+04 0.32000000E+00 0.0000E+00 0.9000E+01
       25  2    1    2    0    0 0.38449566E+03 0.67671885E+03 -.30518190E+03 0.88772754E+03 0.29856134E+03 0.0000E+00 0.0000E+00
       23  2    3    3    0    0 0.24938228E+03 0.56952735E+03 -.28919881E+03 0.69198191E+03 0.93005796E+02 0.0000E+00 0.0000E+00
       23  1    1    2    0    0 -.38449566E+03 -.67671885E+03 -.19932692E+04 0.21417803E+04 0.91188000E+02 0.0000E+00 0.9000E+01
      -13  1    4    4    0    0 0.71731970E+02 0.17006167E+03 -.40339685E+02 0.18892789E+03 0.10565837E+00 0.0000E+00 0.9000E+01
       13  1    4    4    0    0 0.17765031E+03 0.39946569E+03 -.24885913E+03 0.50305402E+03 0.10565837E+00 0.0000E+00 0.9000E+01
       23  1    3    3    0    0 0.13511338E+03 0.10719150E+03 -.15983087E+02 0.19574563E+03 0.91188000E+02 0.0000E+00 0.9000E+01
#aMCatNLO 1  0  0  2  1 0.11167013D+04 0.00000000D+00  -5  7  0 0.00000000D+00 0.00000000D+00 0.00000000D+00 0.00000000D+00 0.00000000D+00
  <mgrwgt>
 0.4034741786D-03    3    2    0
 0.986792793298809D+03 0.000000000000000D+00 0.000000000000000D+00 0.986792793298809D+03
 0.986792793298809D+03 0.000000000000000D+00 0.000000000000000D+00 -.986792793298809D+03
 0.966316451905010D+03 -.384495655437419D+03 -.676718854345692D+03 -.565390941739511D+03
 0.243029297567071D+03 0.717318330381755D+02 0.170061371773594D+03 0.158104122132887D+03
 0.482378949786593D+03 0.177650445008870D+03 0.399465981680555D+03 0.203854605210080D+03
 0.281860887338944D+03 0.135113377390374D+03 0.107191500891543D+03 0.203432214396544D+03
 0.000000000000000D+00 -.000000000000000D+00 -.000000000000000D+00 0.000000000000000D+00
 0.178618478798070D+04 0.000000000000000D+00 0.000000000000000D+00 0.178618478798070D+04
 0.161168047239568D+04 0.000000000000000D+00 0.000000000000000D+00 -.161168047239568D+04
 0.804365078672801D+03 0.670870434890709D+02 -.560821130164605D+03 -.565390941739511D+03
 0.342470030162025D+03 0.221053640528465D+03 0.208384491104496D+03 0.158104122132887D+03
 0.707795827288638D+03 0.481184608970292D+03 0.477367369173843D+03 0.203854605210080D+03
 0.412980557899369D+03 0.312321062537633D+03 0.152671470484686D+03 0.203432214396544D+03
 0.113025376635355D+04 -.108164635552546D+04 -.277602200598420D+03 0.174504315585023D+03
0.988473449012D-03 0.000000000000D+00 0.000000000000D+00 0.352567471666D-06 0.000000000000D+00  7 -1 1 23 -13 13 23 21 0 0.56235130D-01 0.40984300D+00 0.64039660D+06 0.64039660D+06 0.64039660D+06 0.10609963D+01  1  2  2  2  7  2        1 0.398928833172D-03 0.100000000000D+01
-.519836092645D-04 0.000000000000D+00 -.379599831524D-05 0.352567471666D-06 0.000000000000D+00  7 -1 1 23 -13 13 23 21 2 0.56235130D-01 0.40984300D+00 0.64039660D+06 0.64039660D+06 0.64039660D+06 0.10609963D+01  1  2  3  2  7  2        1 -.236169903417D-04 0.100000000000D+01
0.619884174588D-04 0.000000000000D+00 0.000000000000D+00 0.352567471666D-06 0.000000000000D+00  7 -1 1 23 -13 13 23 21 2 0.56235130D-01 0.40984300D+00 0.64039660D+06 0.64039660D+06 0.64039660D+06 0.10609963D+01  1  2 15  2  7  2        1 0.281623357273D-04 0.100000000000D+01
  </mgrwgt>
  </event>
  <event>
  8     66 0.27784906E-05 0.16158378E+03 0.75467711E-02 0.10340508E+00
       -1 -1    0    0    0  501 0.00000000E+00 0.00000000E+00 0.60397371E+03 0.60397380E+03 0.32000000E+00 0.0000E+00 0.9000E+01
        1 -1    0    0  501    0 0.00000000E+00 0.00000000E+00 -.95576205E+02 0.95576741E+02 0.32000000E+00 0.0000E+00 0.9000E+01
       25  2    1    2    0    0 0.25228064E+02 0.12108164E+03 0.37509020E+03 0.49612167E+03 0.30024461E+03 0.0000E+00 0.0000E+00
       23  2    3    3    0    0 -.87915594E+01 0.18909345E+03 0.22364897E+03 0.30368300E+03 0.79817782E+02 0.0000E+00 0.0000E+00
       23  1    1    2    0    0 -.25228064E+02 -.12108164E+03 0.13330730E+03 0.20342887E+03 0.91188000E+02 0.0000E+00 0.9000E+01
      -13  1    4    4    0    0 -.19614671E+02 0.41769457E+01 0.25424117E+02 0.32381771E+02 0.10565837E+00 0.0000E+00 0.9000E+01
       13  1    4    4    0    0 0.10823112E+02 0.18491650E+03 0.19822485E+03 0.27130123E+03 0.10565837E+00 0.0000E+00 0.9000E+01
       23  1    3    3    0    0 0.34019624E+02 -.68011813E+02 0.15144124E+03 0.19243867E+03 0.91188000E+02 0.0000E+00 0.9000E+01
#aMCatNLO 1  0  0  2  1 0.15017618D+02 0.00000000D+00  -5  7  0 0.00000000D+00 0.00000000D+00 0.00000000D+00 0.00000000D+00 0.00000000D+00
  <mgrwgt>
 0.2341166915D-02    9    2    0
 0.240261800515616D+03 0.000000000000000D+00 0.000000000000000D+00 0.240261800515616D+03
 0.240261800515616D+03 0.000000000000000D+00 0.000000000000000D+00 -.240261800515616D+03
 0.155113460789274D+03 -.252280651841518D+02 -.121081640741259D+03 -.211592858219395D+02
 0.202424761623022D+02 -.196147216061632D+02 0.417663125373851D+01 0.275250592449542D+01
 0.185239680715265D+03 0.108231624533735D+02 0.184916820607084D+03 0.153880556560719D+01
 0.119927983364390D+03 0.340196243369415D+02 -.680118111195635D+02 0.168679743318369D+02
 0.000000000000000D+00 0.000000000000000D+00 0.000000000000000D+00 -.000000000000000D+00
 0.246765832518302D+03 0.000000000000000D+00 0.000000000000000D+00 0.246765832518302D+03
 0.249207138369850D+03 0.000000000000000D+00 0.000000000000000D+00 -.249207138369850D+03
 0.158786755767853D+03 -.279149329070067D+02 -.125183959066578D+03 -.211592858219395D+02
 0.204790363910521D+02 -.199632824287886D+02 0.364444746293212D+01 0.275250592449542D+01
 0.180310308804621D+03 0.769419211144889D+01 0.180139498573748D+03 0.153880556560719D+01
 0.121182112706271D+03 0.319558126521578D+02 -.711628454717491D+02 0.168679743318369D+02
 0.152147572183549D+02 0.822821057218857D+01 0.125628585016471D+02 -.244130585154785D+01
0.263268504099D-04 0.000000000000D+00 0.000000000000D+00 0.258612987021D-08 0.000000000000D+00  7 -1 1 23 -13 13 23 21 0 0.92919081D-01 0.14704079D-01 0.57046232D+05 0.57046232D+05 0.57046232D+05 0.11422929D+01  1  2  2  2  7  2        1 0.153319820617D-02 0.100000000000D+01
-.146254046637D-05 0.000000000000D+00 -.101102037593D-06 0.258612987021D-08 0.000000000000D+00  7 -1 1 23 -13 13 23 21 2 0.92919081D-01 0.14704079D-01 0.57046232D+05 0.57046232D+05 0.57046232D+05 0.11422929D+01  1  2  3  2  7  2        1 -.111137912924D-03 0.100000000000D+01
0.170727653573D-05 0.000000000000D+00 0.000000000000D+00 0.258612987021D-08 0.000000000000D+00  7 -1 1 23 -13 13 23 21 2 0.92919081D-01 0.14704079D-01 0.57046232D+05 0.57046232D+05 0.57046232D+05 0.11422929D+01  1  2 15  2  7  2        1 0.129735316955D-03 0.100000000000D+01
0.636229832586D-04 0.000000000000D+00 0.000000000000D+00 0.258612987021D-08 0.000000000000D+00  7 -1 1 23 -13 13 23 21 2 0.92919081D-01 0.15444178D-01 0.60759198D+05 0.60759198D+05 0.60759198D+05 0.11399239D+01  1  2 12  2  7  2        1 0.451344656792D-02 0.100000000000D+01
-.543056384567D-04 0.000000000000D+00 0.000000000000D+00 0.258612987021D-08 0.000000000000D+00  7 -1 1 23 -13 13 23 21 2 0.92919081D-01 0.14704079D-01 0.57046232D+05 0.57046232D+05 0.57046232D+05 0.11422929D+01  1  2  4  2  7  2        1 -.412666552265D-02 0.100000000000D+01
-.362757636925D-03 0.000000000000D+00 -.603052918922D-04 0.258612987021D-08 0.000000000000D+00  7 -1 1 23 -13 13 23 21 2 0.92919081D-01 0.15655791D-01 0.57046232D+05 0.57046232D+05 0.57046232D+05 0.11422929D+01  1  2  5  2  7  2        1 -.253962159458D-01 0.100000000000D+01
0.365938238077D-03 0.000000000000D+00 0.601868869276D-04 0.258612987021D-08 0.000000000000D+00  7 -1 1 23 -13 13 23 21 2 0.92919081D-01 0.14704079D-01 0.57046232D+05 0.57046232D+05 0.57046232D+05 0.11422929D+01  1  2  6  2  7  2        1 0.278075123211D-01 0.100000000000D+01
0.762091446469D-06 0.000000000000D+00 0.000000000000D+00 0.258612987021D-08 0.000000000000D+00  7 -1 21 23 -13 13 23 -1 2 0.92919081D-01 0.15444178D-01 0.60759198D+05 0.60759198D+05 0.60759198D+05 0.11399239D+01  1  2 12  4  7  2        1 0.513935906117D-03 0.100000000000D+01
-.380986739002D-05 0.000000000000D+00 -.647011438886D-06 0.258612987021D-08 0.000000000000D+00  7 -1 21 23 -13 13 23 -1 2 0.92919081D-01 0.15655791D-01 0.57046232D+05 0.57046232D+05 0.57046232D+05 0.11422929D+01  1  2  5  4  7  2        1 -.252264202175D-02 0.100000000000D+01
  </mgrwgt>
  </event>
  <event>
  8     66 0.27784906E-05 0.21929789E+03 0.75467711E-02 0.98808585E-01
       -3 -1    0    0    0  501 0.00000000E+00 0.00000000E+00 0.27454662E+03 0.27454708E+03 0.50000000E+00 0.0000E+00 0.9000E+01
        3 -1    0    0  501    0 0.00000000E+00 0.00000000E+00 -.37220215E+03 0.37220248E+03 0.50000000E+00 0.0000E+00 0.9000E+01
       25  2    1    2    0    0 -.21834277E+03 -.94839182E+02 -.81695142E+02 0.39133221E+03 0.29966442E+03 0.0000E+00 0.0000E+00
       23  2    3    3    0    0 -.21135721E+02 0.50428139E+02 -.75673949E+02 0.12990398E+03 0.90325967E+02 0.0000E+00 0.0000E+00
       23  1    1    2    0    0 0.21834277E+03 0.94839182E+02 -.15960381E+02 0.25541735E+03 0.91188000E+02 0.0000E+00 0.9000E+01
      -13  1    4    4    0    0 -.33765788E+02 0.20683331E+02 0.78311046E+01 0.40364167E+02 0.10565837E+00 0.0000E+00 0.9000E+01
       13  1    4    4    0    0 0.12630067E+02 0.29744809E+02 -.83505053E+02 0.89539809E+02 0.10565837E+00 0.0000E+00 0.9000E+01
       23  1    3    3    0    0 -.19720705E+03 -.14526732E+03 -.60211934E+01 0.26142824E+03 0.91188000E+02 0.0000E+00 0.9000E+01
#aMCatNLO 1  0  0  1  2 0.11236843D+03 0.00000000D+00  -5  7  0 0.00000000D+00 0.00000000D+00 0.00000000D+00 0.00000000D+00 0.00000000D+00
  <mgrwgt>
 0.5425292136D-04    9    2    0
 0.319667167676427D+03 0.000000000000000D+00 0.000000000000000D+00 0.319667167676427D+03
 0.319667167676427D+03 0.000000000000000D+00 0.000000000000000D+00 -.319667167676427D+03
 0.255941891397678D+03 0.218342773696515D+03 0.948391819638432D+02 0.228683879441109D+02
 0.420284422236612D+02 -.337658509197896D+02 0.206833183674396D+02 0.140874983130900D+02
 0.778233400603973D+02 0.126301302677062D+02 0.297448209502939D+02 -.707968763026446D+02
 0.263540661671117D+03 -.197207053044432D+03 -.145267321281577D+03 0.338409900454437D+02
 0.000000000000000D+00 0.000000000000000D+00 0.000000000000000D+00 0.000000000000000D+00
 0.483631424855318D+03 0.000000000000000D+00 0.000000000000000D+00 0.483631424855318D+03
 0.344412252598641D+03 0.000000000000000D+00 0.000000000000000D+00 -.344412252598641D+03
 0.241398042244767D+03 0.216289318517811D+03 0.515143764743838D+02 0.228683879441109D+02
 0.393224308719370D+02 -.341017386302873D+02 0.135965945496848D+02 0.140874983130900D+02
 0.736890816879420D+02 0.120045541857726D+02 0.165461096515487D+02 -.707968763026446D+02
 0.294724528021855D+03 -.199512061082836D+03 -.193899512503070D+03 0.338409900454437D+02
 0.178909594627458D+03 0.531992700953945D+01 0.112242431827453D+03 0.139219172256677D+03
0.654463595500D-05 0.000000000000D+00 0.000000000000D+00 0.279874875972D-06 0.000000000000D+00  7 -3 3 23 -13 13 23 21 0 0.42238003D-01 0.57261929D-01 0.86491707D+05 0.86491707D+05 0.86491707D+05 0.11269310D+01  1  2  2  1  7  1       -3 0.470852266469D-04 0.100000000000D+01
-.360517606798D-06 0.000000000000D+00 -.251331253094D-07 0.279874875972D-06 0.000000000000D+00  7 -3 3 23 -13 13 23 21 2 0.42238003D-01 0.57261929D-01 0.86491707D+05 0.86491707D+05 0.86491707D+05 0.11269310D+01  1  2  3  1  7  1       -3 -.329397503979D-05 0.100000000000D+01
0.425749134226D-06 0.000000000000D+00 0.000000000000D+00 0.279874875972D-06 0.000000000000D+00  7 -3 3 23 -13 13 23 21 2 0.42238003D-01 0.57261929D-01 0.86491707D+05 0.86491707D+05 0.86491707D+05 0.11269310D+01  1  2 15  1  7  1       -3 0.388998205611D-05 0.100000000000D+01
0.688842534875D-05 0.000000000000D+00 0.000000000000D+00 0.279874875972D-06 0.000000000000D+00  7 -3 3 23 -13 13 23 21 2 0.64862788D-01 0.57261929D-01 0.12341541D+06 0.12341541D+06 0.12341541D+06 0.11143004D+01  1  2 12  1  7  1       -3 0.249708449623D-04 0.100000000000D+01
-.798218172343D-05 0.000000000000D+00 0.000000000000D+00 0.279874875972D-06 0.000000000000D+00  7 -3 3 23 -13 13 23 21 2 0.42238003D-01 0.57261929D-01 0.86491707D+05 0.86491707D+05 0.86491707D+05 0.11269310D+01  1  2  4  1  7  1       -3 -.729315485965D-04 0.100000000000D+01
-.940760989005D-05 0.000000000000D+00 -.241613547848D-05 0.279874875972D-06 0.000000000000D+00  7 -3 3 23 -13 13 23 21 2 0.67451764D-01 0.57261929D-01 0.86491707D+05 0.86491707D+05 0.86491707D+05 0.11269310D+01  1  2  5  1  7  1       -3 -.320013013069D-04 0.100000000000D+01
0.969897843603D-05 0.000000000000D+00 0.217362365042D-05 0.279874875972D-06 0.000000000000D+00  7 -3 3 23 -13 13 23 21 2 0.42238003D-01 0.57261929D-01 0.86491707D+05 0.86491707D+05 0.86491707D+05 0.11269310D+01  1  2  6  1  7  1       -3 0.886175661808D-04 0.100000000000D+01
0.345288942788D-06 0.000000000000D+00 0.000000000000D+00 0.279874875972D-06 0.000000000000D+00  7 21 3 23 -13 13 23 3 2 0.64862788D-01 0.57261929D-01 0.12341541D+06 0.12341541D+06 0.12341541D+06 0.11143004D+01  1  2 12  3  7  1       -3 0.191772995505D-04 0.100000000000D+01
-.402903454953D-06 0.000000000000D+00 -.129392650436D-06 0.279874875972D-06 0.000000000000D+00  7 21 3 23 -13 13 23 3 2 0.67451764D-01 0.57261929D-01 0.86491707D+05 0.86491707D+05 0.86491707D+05 0.11269310D+01  1  2  5  3  7  1       -3 -.212611730928D-04 0.100000000000D+01
  </mgrwgt>
  </event>
  <event>
  8     66 0.27784906E-05 0.10218888E+03 0.75467711E-02 0.10617148E+00
       -1 -1    0    0    0  501 0.00000000E+00 0.00000000E+00 0.67180499E+02 0.67181261E+02 0.32000000E+00 0.0000E+00 0.9000E+01
        1 -1    0    0  501    0 0.00000000E+00 0.00000000E+00 -.10648950E+04 0.10648950E+04 0.32000000E+00 0.0000E+00 0.9000E+01
       25  2    1    2    0    0 -.42224819E+02 0.97316682E+02 -.36791220E+03 0.48692543E+03 0.30080477E+03 0.0000E+00 0.0000E+00
       23  2    3    3    0    0 -.17179304E+02 0.97349157E+02 -.36913986E+03 0.39235251E+03 0.88905965E+02 0.0000E+00 0.0000E+00
       23  1    1    2    0    0 0.42224819E+02 -.97316682E+02 -.62980228E+03 0.64515086E+03 0.91188000E+02 0.0000E+00 0.9000E+01
      -13  1    4    4    0    0 -.49980067E+02 0.72913940E+02 -.20605487E+03 0.22421657E+03 0.10565837E+00 0.0000E+00 0.9000E+01
       13  1    4    4    0    0 0.32800763E+02 0.24435217E+02 -.16308499E+03 0.16813594E+03 0.10565837E+00 0.0000E+00 0.9000E+01
       23  1    3    3    0    0 -.25045515E+02 -.32474831E-01 0.12276526E+01 0.94572921E+02 0.91188000E+02 0.0000E+00 0.9000E+01
#aMCatNLO 1  0  0  2  1 0.38250481D+02 0.00000000D+00  -5  7  0 0.00000000D+00 0.00000000D+00 0.00000000D+00 0.00000000D+00 0.00000000D+00
  <mgrwgt>
 0.4067134812D-03    9    2    0
 0.267470811294467D+03 0.000000000000000D+00 0.000000000000000D+00 0.267470811294467D+03
 0.267470811294467D+03 0.000000000000000D+00 0.000000000000000D+00 -.267470811294467D+03
 0.190669667823491D+03 0.422248203840599D+02 -.973166849231978D+02 -.129561561672486D+03
 0.901899600972001D+02 -.499801829819476D+02 0.729140080789332D+02 -.178817682931761D+02
 0.516512929954792D+02 0.328008786412164D+02 0.244351480572388D+02 -.315417496009630D+02
 0.202430701672764D+03 -.250455160433286D+02 -.324712129741442D-01 0.178985079566625D+03
 0.000000000000000D+00 -.000000000000000D+00 0.000000000000000D+00 -.000000000000000D+00
 0.285612806552221D+03 0.000000000000000D+00 0.000000000000000D+00 0.285612806552221D+03
 0.289104086771852D+03 0.000000000000000D+00 0.000000000000000D+00 -.289104086771852D+03
 0.196486867851898D+03 0.551140782611837D+02 -.102313625723340D+03 -.129561561672486D+03
 0.852035175865877D+02 -.441409640730168D+02 0.706502446035523D+02 -.178817682931761D+02
 0.533384127247168D+02 0.362962074469416D+02 0.230800699537710D+02 -.315417496009630D+02
 0.201278612644869D+03 -.116051812429375D+02 -.524305493873257D+01 0.178985079566625D+03
 0.384094825160015D+02 -.356641403921710D+02 0.138263661047492D+02 -.349128021963109D+01
0.213797542668D-05 0.000000000000D+00 0.000000000000D+00 0.264103136690D-07 0.000000000000D+00  7 -1 1 23 -13 13 23 21 0 0.10335524D-01 0.16383006D+00 0.33079373D+05 0.33079373D+05 0.33079373D+05 0.11634190D+01  1  2  2  2  7  2        1 0.193387340076D-03 0.100000000000D+01
-.972950857337D-07 0.000000000000D+00 -.821038858030D-08 0.264103136690D-07 0.000000000000D+00  7 -1 1 23 -13 13 23 21 2 0.10335524D-01 0.16383006D+00 0.33079373D+05 0.33079373D+05 0.33079373D+05 0.11634190D+01  1  2  3  2  7  2        1 -.119121056467D-04 0.100000000000D+01
0.126719722390D-06 0.000000000000D+00 0.000000000000D+00 0.264103136690D-07 0.000000000000D+00  7 -1 1 23 -13 13 23 21 2 0.10335524D-01 0.16383006D+00 0.33079373D+05 0.33079373D+05 0.33079373D+05 0.11634190D+01  1  2 15  2  7  2        1 0.155146450537D-04 0.100000000000D+01
0.293166695574D-05 0.000000000000D+00 0.000000000000D+00 0.264103136690D-07 0.000000000000D+00  7 -1 1 23 -13 13 23 21 2 0.10335524D-01 0.18223161D+00 0.40876984D+05 0.40876984D+05 0.40876984D+05 0.11550715D+01  1  2 12  2  7  2        1 0.291038363471D-03 0.100000000000D+01
-.248151352065D-05 0.000000000000D+00 0.000000000000D+00 0.264103136690D-07 0.000000000000D+00  7 -1 1 23 -13 13 23 21 2 0.10335524D-01 0.16383006D+00 0.33079373D+05 0.33079373D+05 0.33079373D+05 0.11634190D+01  1  2  4  2  7  2        1 -.303818543340D-03 0.100000000000D+01
-.840946564763D-05 0.000000000000D+00 -.220260615925D-05 0.264103136690D-07 0.000000000000D+00  7 -1 1 23 -13 13 23 21 2 0.10335524D-01 0.18518988D+00 0.33079373D+05 0.33079373D+05 0.33079373D+05 0.11634190D+01  1  2  5  2  7  2        1 -.822918495098D-03 0.100000000000D+01
0.863094183659D-05 0.000000000000D+00 0.218616857610D-05 0.264103136690D-07 0.000000000000D+00  7 -1 1 23 -13 13 23 21 2 0.10335524D-01 0.16383006D+00 0.33079373D+05 0.33079373D+05 0.33079373D+05 0.11634190D+01  1  2  6  2  7  2        1 0.105671000968D-02 0.100000000000D+01
0.502464474132D-07 0.000000000000D+00 0.000000000000D+00 0.264103136690D-07 0.000000000000D+00  7 -1 21 23 -13 13 23 -1 2 0.10335524D-01 0.18223161D+00 0.40876984D+05 0.40876984D+05 0.40876984D+05 0.11550715D+01  1  2 12  4  7  2        1 0.580325895743D-05 0.100000000000D+01
-.151813948567D-06 0.000000000000D+00 -.425365101362D-07 0.264103136690D-07 0.000000000000D+00  7 -1 21 23 -13 13 23 -1 2 0.10335524D-01 0.18518988D+00 0.33079373D+05 0.33079373D+05 0.33079373D+05 0.11634190D+01  1  2  5  4  7  2        1 -.170909919551D-04 0.100000000000D+01
  </mgrwgt>
  </event>
  <event>
  8     66 0.27784906E-05 0.17564612E+03 0.75467711E-02 0.94896657E-01
       -3 -1    0    0    0  501 0.00000000E+00 0.00000000E+00 0.14553169E+03 0.14553255E+03 0.50000000E+00 0.0000E+00 0.9000E+01
        3 -1    0    0  501    0 0.00000000E+00 0.00000000E+00 -.11484567E+04 0.11484568E+04 0.50000000E+00 0.0000E+00 0.9000E+01
       25  2    1    2    0    0 -.19333163E+02 -.33406243E+03 -.41210652E+03 0.60889579E+03 0.29824623E+03 0.0000E+00 0.0000E+00
       23  2    3    3    0    0 0.79685897E+02 -.25659059E+03 -.32244957E+03 0.42956291E+03 0.91443947E+02 0.0000E+00 0.0000E+00
       23  1    1    2    0    0 0.19333163E+02 0.33406243E+03 -.59081851E+03 0.68509360E+03 0.91188000E+02 0.0000E+00 0.9000E+01
      -11  1    4    4    0    0 0.41845566E+02 -.23019525E+03 -.24058144E+03 0.33558953E+03 0.51099893E-03 0.0000E+00 0.9000E+01
       11  1    4    4    0    0 0.37840331E+02 -.26395334E+02 -.81868134E+02 0.93973378E+02 0.51099893E-03 0.0000E+00 0.9000E+01
       23  1    3    3    0    0 -.99019060E+02 -.77471842E+02 -.89656951E+02 0.17933288E+03 0.91188000E+02 0.0000E+00 0.9000E+01
#aMCatNLO 1  0  0  1  2 0.17645370D+03 0.00000000D+00  -5  7  0 0.00000000D+00 0.00000000D+00 0.00000000D+00 0.00000000D+00 0.00000000D+00
  <mgrwgt>
 0.2654622088D-04    9    2    0
 0.408824506792446D+03 0.000000000000000D+00 0.000000000000000D+00 0.408824506792446D+03
 0.408824506792446D+03 0.000000000000000D+00 0.000000000000000D+00 -.408824506792446D+03
 0.359515107098729D+03 0.193331629452873D+02 0.334062428298803D+03 -.946804293286028D+02
 0.235998750523390D+03 0.418455660509058D+02 -.230195252346861D+03 0.308950586250544D+02
 0.483006171889686D+02 0.378403310550814D+02 -.263953338673353D+02 -.142949402415343D+02
 0.173834538773804D+03 -.990190600512745D+02 -.774718420846074D+02 0.780803109450828D+02
 0.000000000000000D+00 -.000000000000000D+00 0.000000000000000D+00 0.000000000000000D+00
 0.673297825036764D+03 0.000000000000000D+00 0.000000000000000D+00 0.673297825036764D+03
 0.448754138907802D+03 0.000000000000000D+00 0.000000000000000D+00 -.448754138907802D+03
 0.339136565022890D+03 0.859202626011035D+02 0.300585567132279D+03 -.946804293286028D+02
 0.271814139141278D+03 0.902442013650184D+02 -.254527809305110D+03 0.308950586250544D+02
 0.592672066612228D+02 0.480924061481260D+02 -.315495949228948D+02 -.142949402415343D+02
 0.166254334911242D+03 -.666058667139825D+02 -.937676708401020D+02 0.780803109450828D+02
 0.285579718207932D+03 -.157651003400265D+03 0.792595079358279D+02 0.224543686128962D+03
0.174484724761D-04 0.000000000000D+00 0.000000000000D+00 0.790467767234D-07 0.000000000000D+00  7 -3 3 23 -11 11 23 21 0 0.22389566D-01 0.17668572D+00 0.15297510D+06 0.15297510D+06 0.15297510D+06 0.11068794D+01  1  2  2  1  7  1       -3 0.254596264493D-04 0.100000000000D+01
-.967049642387D-06 0.000000000000D+00 -.670067285964D-07 0.790467767234D-07 0.000000000000D+00  7 -3 3 23 -11 11 23 21 2 0.22389566D-01 0.17668572D+00 0.15297510D+06 0.15297510D+06 0.15297510D+06 0.11068794D+01  1  2  3  1  7  1       -3 -.172879706449D-05 0.100000000000D+01
0.111418573551D-05 0.000000000000D+00 0.000000000000D+00 0.790467767234D-07 0.000000000000D+00  7 -3 3 23 -11 11 23 21 2 0.22389566D-01 0.17668572D+00 0.15297510D+06 0.15297510D+06 0.15297510D+06 0.11068794D+01  1  2 15  1  7  1       -3 0.199183262618D-05 0.100000000000D+01
0.138118248546D-04 0.000000000000D+00 0.000000000000D+00 0.790467767234D-07 0.000000000000D+00  7 -3 3 23 -11 11 23 21 2 0.37371255D-01 0.17668572D+00 0.23836581D+06 0.23836581D+06 0.23836581D+06 0.10920195D+01  1  2 12  1  7  1       -3 0.906321004957D-05 0.100000000000D+01
-.181224136517D-04 0.000000000000D+00 0.000000000000D+00 0.790467767234D-07 0.000000000000D+00  7 -3 3 23 -11 11 23 21 2 0.22389566D-01 0.17668572D+00 0.15297510D+06 0.15297510D+06 0.15297510D+06 0.11068794D+01  1  2  4  1  7  1       -3 -.323974842130D-04 0.100000000000D+01
-.201909054137D-04 0.000000000000D+00 -.589890511849D-05 0.790467767234D-07 0.000000000000D+00  7 -3 3 23 -11 11 23 21 2 0.39936093D-01 0.17668572D+00 0.15297510D+06 0.15297510D+06 0.15297510D+06 0.11068794D+01  1  2  5  1  7  1       -3 -.120896209648D-04 0.100000000000D+01
0.208767186120D-04 0.000000000000D+00 0.503249337509D-05 0.790467767234D-07 0.000000000000D+00  7 -3 3 23 -11 11 23 21 2 0.22389566D-01 0.17668572D+00 0.15297510D+06 0.15297510D+06 0.15297510D+06 0.11068794D+01  1  2  6  1  7  1       -3 0.373213620797D-04 0.100000000000D+01
0.793989209811D-06 0.000000000000D+00 0.000000000000D+00 0.790467767234D-07 0.000000000000D+00  7 21 3 23 -11 11 23 3 2 0.37371255D-01 0.17668572D+00 0.23836581D+06 0.23836581D+06 0.23836581D+06 0.10920195D+01  1  2 12  3  7  1       -3 0.807413844098D-05 0.100000000000D+01
-.974976439092D-06 0.000000000000D+00 -.375180599747D-06 0.790467767234D-07 0.000000000000D+00  7 21 3 23 -11 11 23 3 2 0.39936093D-01 0.17668572D+00 0.15297510D+06 0.15297510D+06 0.15297510D+06 0.11068794D+01  1  2  5  3  7  1       -3 -.914804651912D-05 0.100000000000D+01
  </mgrwgt>
  </event>
  <event>
  8     66 0.27784906E-05 0.58705609E+03 0.75467711E-02 0.89320944E-01
       -1 -1    0    0    0  501 0.00000000E+00 0.00000000E+00 0.40058126E+03 0.40058139E+03 0.32000000E+00 0.0000E+00 0.9000E+01
        1 -1    0    0  501    0 0.00000000E+00 0.00000000E+00 -.18338290E+04 0.18338290E+04 0.32000000E+00 0.0000E+00 0.9000E+01
       25  2    1    2    0    0 -.18752622E+03 -.53551133E+03 -.15229069E+04 0.16527813E+04 0.30083580E+03 0.0000E+00 0.0000E+00
       23  2    3    3    0    0 -.26061828E+02 -.99278259E+02 -.59556110E+03 0.61131334E+03 0.92062982E+02 0.0000E+00 0.0000E+00
       23  1    1    2    0    0 0.18752622E+03 0.53551133E+03 0.89659111E+02 0.58162915E+03 0.91188000E+02 0.0000E+00 0.9000E+01
      -13  1    4    4    0    0 -.45368877E+02 -.32227784E+02 -.39631350E+03 0.40020165E+03 0.10565837E+00 0.0000E+00 0.9000E+01
       13  1    4    4    0    0 0.19307049E+02 -.67050474E+02 -.19924760E+03 0.21111169E+03 0.10565837E+00 0.0000E+00 0.9000E+01
       23  1    3    3    0    0 -.16146439E+03 -.43623307E+03 -.92734576E+03 0.10414679E+04 0.91188000E+02 0.0000E+00 0.9000E+01
#aMCatNLO 1  0  0  1  1 0.41668927D+03 0.00000000D+00  -5  7  0 0.00000000D+00 0.00000000D+00 0.00000000D+00 0.00000000D+00 0.00000000D+00
  <mgrwgt>
 0.5643811804D-03    3    2    0
 0.857086759397208D+03 0.000000000000000D+00 0.000000000000000D+00 0.857086759397208D+03
 0.857086759397208D+03 0.000000000000000D+00 0.000000000000000D+00 -.857086759397208D+03
 0.833114002794910D+03 0.187526218101809D+03 0.535511326637971D+03 0.603179265953191D+03
 0.190295499970533D+03 -.453689619332298D+02 -.322277386300604D+02 -.181976392603351D+03
 0.108588075656701D+03 0.193071341201219D+02 -.670505202940914D+02 -.832035604718017D+02
 0.582175940372271D+03 -.161464390288701D+03 -.436233067713819D+03 -.337999312878039D+03
 0.000000000000000D+00 -.000000000000000D+00 -.000000000000000D+00 -.000000000000000D+00
 0.921890333838050D+03 0.000000000000000D+00 0.000000000000000D+00 0.921890333838050D+03
 0.197147369342171D+04 0.000000000000000D+00 0.000000000000000D+00 -.197147369342171D+04
 0.995256771431043D+03 0.254691608802408D+03 0.743994453786555D+03 0.603179265953191D+03
 0.184998642980639D+03 -.315824925287224D+02 0.105658225151797D+02 -.181976392603351D+03
 0.976756795966501D+02 0.268842546387044D+02 -.435309402839404D+02 -.832035604718017D+02
 0.486160966631890D+03 -.122218922810049D+03 -.314414111536964D+03 -.337999312878039D+03
 0.112927196661953D+04 -.127774448102341D+03 -.396615224480830D+03 -.104958335958366D+04
0.424823217323D-03 0.000000000000D+00 0.000000000000D+00 0.154306742268D-05 0.000000000000D+00  7 -1 1 23 -13 13 23 21 0 0.61627899D-01 0.28212755D+00 0.34463486D+06 0.34463486D+06 0.34463486D+06 0.10801231D+01  1  2  2  1  7  1       -1 0.554392190238D-03 0.100000000000D+01
-.194920395673D-04 0.000000000000D+00 -.163143301304D-05 0.154306742268D-05 0.000000000000D+00  7 -1 1 23 -13 13 23 21 2 0.61627899D-01 0.28212755D+00 0.34463486D+06 0.34463486D+06 0.34463486D+06 0.10801231D+01  1  2  3  1  7  1       -1 -.296765001250D-04 0.100000000000D+01
0.260529814259D-04 0.000000000000D+00 0.000000000000D+00 0.154306742268D-05 0.000000000000D+00  7 -1 1 23 -13 13 23 21 2 0.61627899D-01 0.28212755D+00 0.34463486D+06 0.34463486D+06 0.34463486D+06 0.10801231D+01  1  2 15  1  7  1       -1 0.396654903081D-04 0.100000000000D+01
  </mgrwgt>
  </event>
  <event>
  9     66 0.27784906E-05 0.27413225E+03 0.75467711E-02 0.90968642E-01
       -1 -1    0    0    0  502 0.00000000E+00 0.00000000E+00 0.11807751E+04 0.11807751E+04 0.32000000E+00 0.0000E+00 0.9000E+01
        1 -1    0    0  501    0 0.00000000E+00 0.00000000E+00 -.51338183E+03 0.51338193E+03 0.32000000E+00 0.0000E+00 0.9000E+01
       25  2    1    2    0    0 0.11884745E+03 -.33941596E+03 0.42857448E+03 0.63450525E+03 0.29932077E+03 0.0000E+00 0.0000E+00
       23  2    3    3    0    0 0.66157802E+02 -.16563367E+03 0.67629849E+02 0.22029183E+03 0.11019676E+03 0.0000E+00 0.0000E+00
       23  1    1    2    0    0 -.30934362E+03 -.22471589E+03 -.52876783E+02 0.39661305E+03 0.91188000E+02 0.0000E+00 0.9000E+01
      -13  1    4    4    0    0 -.29152452E+02 -.38650197E+02 0.30554194E+02 0.57247473E+02 0.10565837E+00 0.0000E+00 0.9000E+01
       13  1    4    4    0    0 0.95310254E+02 -.12698347E+03 0.37075655E+02 0.16304435E+03 0.10565837E+00 0.0000E+00 0.9000E+01
       23  1    3    3    0    0 0.52689652E+02 -.17378229E+03 0.36094463E+03 0.41421343E+03 0.91188000E+02 0.0000E+00 0.9000E+01
       21  1    1    2  501  502 0.19049617E+03 0.56413185E+03 0.29169556E+03 0.66303876E+03 0.75000000E+00 0.0000E+00 0.9000E+01
#aMCatNLO 2  0  0  1  2 0.59542719D+03 0.00000000D+00  -5  7  0 0.00000000D+00 0.00000000D+00 0.00000000D+00 0.00000000D+00 0.00000000D+00
  <mgrwgt>
 0.4650003278D-05    1    2    0
 0.376670502258456D+03 0.000000000000000D+00 0.000000000000000D+00 0.376670502258456D+03
 0.376670502258456D+03 0.000000000000000D+00 0.000000000000000D+00 -.376670502258456D+03
 0.322725695423672D+03 -.223821227192876D+03 0.285485575586218D+02 -.211956743846214D+03
 0.268038287085614D+02 -.206678528579356D+02 -.135237599507612D+02 0.104111963037304D+02
 0.133683975042021D+03 0.128022503339251D+03 -.301101865031656D+02 -.239795848698822D+02
 0.270127505342658D+03 0.116466576711561D+03 0.150853888953050D+02 0.225525132412366D+03
 0.000000000000000D+00 0.000000000000000D+00 0.000000000000000D+00 0.000000000000000D+00
 0.805950694667858D+03 0.000000000000000D+00 0.000000000000000D+00 0.805950694667858D+03
 0.752140593519242D+03 0.000000000000000D+00 0.000000000000000D+00 -.752140593519242D+03
 0.446577676090035D+03 -.309343622228584D+03 -.224715890765618D+03 -.211956743846214D+03
 0.495185762846134D+02 -.291525093817441D+02 -.386500657894342D+02 0.104111963037304D+02
 0.160573623841937D+03 0.953102918166414D+02 -.126983528290195D+03 -.239795848698822D+02
 0.303567700076872D+03 0.526896717807522D+02 -.173782364824464D+03 0.225525132412366D+03
 0.597853711893643D+03 0.190496168012935D+03 0.564131849669712D+03 0.538101011486166D+02
0.406752550580D-05 0.000000000000D+00 0.000000000000D+00 0.204454789816D-08 0.515567734037D-13  7 -1 1 23 -13 13 23 21 2 0.18165766D+00 0.78981807D-01 0.48922201D+06 0.48922201D+06 0.48922201D+06 0.10691799D+01  1  2  1  1  7  1       -1 0.465000327772D-05 0.100000000000D+01
  </mgrwgt>
  </event>
  <event>
  8     66 0.27784906E-05 0.24533219E+03 0.75467711E-02 0.99209877E-01
       -1 -1    0    0    0  501 0.00000000E+00 0.00000000E+00 0.62449813E+02 0.62450632E+02 0.32000000E+00 0.0000E+00 0.9000E+01
        1 -1    0    0  501    0 0.00000000E+00 0.00000000E+00 -.15783852E+04 0.15783852E+04 0.32000000E+00 0.0000E+00 0.9000E+01
       25  2    1    2    0    0 -.15784555E+03 0.15910768E+03 -.10647858E+04 0.11288967E+04 0.30068018E+03 0.0000E+00 0.0000E+00
       23  2    3    3    0    0 -.34978154E+02 0.19424028E+03 -.64864791E+03 0.68413085E+03 0.91313480E+02 0.0000E+00 0.0000E+00
       23  1    1    2    0    0 0.15784555E+03 -.15910768E+03 -.45114959E+03 0.51193913E+03 0.91188000E+02 0.0000E+00 0.9000E+01
      -11  1    4    4    0    0 -.27739682E+01 -.83995740E+01 -.10094295E+02 0.13421719E+02 0.51099893E-03 0.0000E+00 0.9000E+01
       11  1    4    4    0    0 -.32204186E+02 0.20263986E+03 -.63855361E+03 0.67070913E+03 0.51099893E-03 0.0000E+00 0.9000E+01
       23  1    3    3    0    0 -.12286739E+03 -.35132608E+02 -.41613788E+03 0.44476587E+03 0.91188000E+02 0.0000E+00 0.9000E+01
#aMCatNLO 1  0  0  2  1 0.64128209D+02 0.00000000D+00  -5  7  0 0.00000000D+00 0.00000000D+00 0.00000000D+00 0.00000000D+00 0.00000000D+00
  <mgrwgt>
 0.8503859431D-03    9    2    0
 0.313959484789822D+03 0.000000000000000D+00 0.000000000000000D+00 0.313959484789822D+03
 0.313959484789822D+03 0.000000000000000D+00 0.000000000000000D+00 -.313959484789822D+03
 0.248590127688926D+03 0.157845548272425D+03 -.159107675423879D+03 0.570204415291889D+02
 0.107028751441616D+02 -.277396817284872D+01 -.839957400892789D+01 0.602526293169665D+01
 0.211042481439051D+03 -.322041857755314D+02 0.202639857628324D+03 -.493852963022366D+02
 0.157583485307506D+03 -.122867394324045D+03 -.351326081955170D+02 -.136604081586489D+02
 0.000000000000000D+00 0.000000000000000D+00 0.000000000000000D+00 -.000000000000000D+00
 0.346988114279159D+03 0.000000000000000D+00 0.000000000000000D+00 0.346988114279159D+03
 0.348339454196677D+03 0.000000000000000D+00 0.000000000000000D+00 -.348339454196677D+03
 0.253668340119943D+03 0.142914644031165D+03 -.179878984888366D+03 0.570204415291889D+02
 0.116204514650009D+02 -.343758555973291D+01 -.932277342714491D+01 0.602526293169665D+01
 0.197255646910895D+03 -.443418810997615D+02 0.185754354802009D+03 -.493852963022366D+02
 0.168640684542621D+03 -.132565233491328D+03 -.486238753837306D+02 -.136604081586489D+02
 0.641424454373762D+02 0.374300561196580D+02 0.520712788972324D+02 -.135133991751727D+01
0.878150179609D-05 0.000000000000D+00 0.000000000000D+00 0.280468427540D-06 0.000000000000D+00  7 -1 1 23 -11 11 23 21 0 0.96077290D-02 0.24282856D+00 0.93936483D+05 0.93936483D+05 0.93936483D+05 0.11239581D+01  1  2  2  2  7  2        1 0.393490244080D-03 0.100000000000D+01
-.487517353367D-06 0.000000000000D+00 -.337232791195D-07 0.280468427540D-06 0.000000000000D+00  7 -1 1 23 -11 11 23 21 2 0.96077290D-02 0.24282856D+00 0.93936483D+05 0.93936483D+05 0.93936483D+05 0.11239581D+01  1  2  3  2  7  2        1 -.275965969325D-04 0.100000000000D+01
0.560646961071D-06 0.000000000000D+00 0.000000000000D+00 0.280468427540D-06 0.000000000000D+00  7 -1 1 23 -11 11 23 21 2 0.96077290D-02 0.24282856D+00 0.93936483D+05 0.93936483D+05 0.93936483D+05 0.11239581D+01  1  2 15  2  7  2        1 0.317361999512D-04 0.100000000000D+01
0.792029695542D-05 0.000000000000D+00 0.000000000000D+00 0.280468427540D-06 0.000000000000D+00  7 -1 1 23 -11 11 23 21 2 0.96077290D-02 0.28087954D+00 0.11570244D+06 0.11570244D+06 0.11570244D+06 0.11165608D+01  1  2 12  2  7  2        1 0.303284731226D-03 0.100000000000D+01
-.648744239412D-05 0.000000000000D+00 0.000000000000D+00 0.280468427540D-06 0.000000000000D+00  7 -1 1 23 -11 11 23 21 2 0.96077290D-02 0.24282856D+00 0.93936483D+05 0.93936483D+05 0.93936483D+05 0.11239581D+01  1  2  4  2  7  2        1 -.367230687559D-03 0.100000000000D+01
-.250025335827D-04 0.000000000000D+00 -.638619244349D-05 0.280468427540D-06 0.000000000000D+00  7 -1 1 23 -11 11 23 21 2 0.96077290D-02 0.28526572D+00 0.93936483D+05 0.93936483D+05 0.93936483D+05 0.11239581D+01  1  2  5  2  7  2        1 -.934177261748D-03 0.100000000000D+01
0.257779872740D-04 0.000000000000D+00 0.630424293222D-05 0.280468427540D-06 0.000000000000D+00  7 -1 1 23 -11 11 23 21 2 0.96077290D-02 0.24282856D+00 0.93936483D+05 0.93936483D+05 0.93936483D+05 0.11239581D+01  1  2  6  2  7  2        1 0.145919877440D-02 0.100000000000D+01
0.176326628968D-06 0.000000000000D+00 0.000000000000D+00 0.280468427540D-06 0.000000000000D+00  7 -1 21 23 -11 11 23 -1 2 0.96077290D-02 0.28087954D+00 0.11570244D+06 0.11570244D+06 0.11570244D+06 0.11165608D+01  1  2 12  4  7  2        1 0.411057933836D-05 0.100000000000D+01
-.553593679105D-06 0.000000000000D+00 -.154257661949D-06 0.280468427540D-06 0.000000000000D+00  7 -1 21 23 -11 11 23 -1 2 0.96077290D-02 0.28526572D+00 0.93936483D+05 0.93936483D+05 0.93936483D+05 0.11239581D+01  1  2  5  4  7  2        1 -.124300396533D-04 0.100000000000D+01
  </mgrwgt>
  </event>
  <event>
  8     66 0.27784906E-05 0.22850351E+03 0.75467711E-02 0.93710511E-01
       -1 -1    0    0    0  501 0.00000000E+00 0.00000000E+00 0.61347407E+03 0.61347415E+03 0.32000000E+00 0.0000E+00 0.9000E+01
        1 -1    0    0  501    0 0.00000000E+00 0.00000000E+00 -.49717280E+03 0.49717291E+03 0.32000000E+00 0.0000E+00 0.9000E+01
       25  2    1    2    0    0 0.13602562E+03 0.48800716E+03 0.31315748E+02 0.58892706E+03 0.29866444E+03 0.0000E+00 0.0000E+00
       23  2    3    3    0    0 0.14720725E+03 0.16784125E+03 -.50037344E+02 0.24604980E+03 0.90532360E+02 0.0000E+00 0.0000E+00
       23  1    1    2    0    0 -.13602562E+03 -.48800716E+03 0.84985513E+02 0.52171999E+03 0.91188000E+02 0.0000E+00 0.9000E+01
      -11  1    4    4    0    0 0.31791634E+02 0.20310093E+02 0.23914731E+02 0.44666791E+02 0.51099893E-03 0.0000E+00 0.9000E+01
       11  1    4    4    0    0 0.11541562E+03 0.14753116E+03 -.73952075E+02 0.20138301E+03 0.51099893E-03 0.0000E+00 0.9000E+01
       23  1    3    3    0    0 -.11181631E+02 0.32016591E+03 0.81353092E+02 0.34287726E+03 0.91188000E+02 0.0000E+00 0.9000E+01
#aMCatNLO 1  0  0  2  1 0.11736867D+02 0.00000000D+00  -5  7  0 0.00000000D+00 0.00000000D+00 0.00000000D+00 0.00000000D+00 0.00000000D+00
  <mgrwgt>
 0.5077248157D-03    9    2    0
 0.552270517968100D+03 0.000000000000000D+00 0.000000000000000D+00 0.552270517968100D+03
 0.552270517968100D+03 0.000000000000000D+00 0.000000000000000D+00 -.552270517968100D+03
 0.515655672403754D+03 -.136025622673627D+03 -.488007162785704D+03 0.305214708732504D+02
 0.423956421235348D+02 0.317916338043627D+02 0.203100930161602D+02 0.193438003709475D+02
 0.210282967307138D+03 0.115415619514950D+03 0.147531156144568D+03 -.955652608332260D+02
 0.336206754101772D+03 -.111816306456857D+02 0.320165913624976D+03 0.456999895890281D+02
 0.000000000000000D+00 0.000000000000000D+00 -.000000000000000D+00 -.000000000000000D+00
 0.557863991298004D+03 0.000000000000000D+00 0.000000000000000D+00 0.557863991298004D+03
 0.558493117725495D+03 0.000000000000000D+00 0.000000000000000D+00 -.558493117725495D+03
 0.510534495366766D+03 -.136153338283614D+03 -.482556657715298D+03 0.305214708732504D+02
 0.426058780909545D+02 0.317810548480007D+02 0.207615699757649D+02 0.193438003709475D+02
 0.211833347364686D+03 0.115363084571324D+03 0.149773184167910D+03 -.955652608332260D+02
 0.339629671407320D+03 -.112657426008047D+02 0.323755550302168D+03 0.456999895890281D+02
 0.117537167937728D+02 0.274941465093888D+00 -.117336467305446D+02 -.629126427491109D+00
0.330625814442D-04 0.000000000000D+00 0.000000000000D+00 0.222838846470D-06 0.000000000000D+00  7 -1 1 23 -11 11 23 21 0 0.94380640D-01 0.76488138D-01 0.28776598D+06 0.28776598D+06 0.28776598D+06 0.10858922D+01  1  2  2  2  7  2        1 0.204215763261D-03 0.100000000000D+01
-.183492065094D-05 0.000000000000D+00 -.126969018323D-06 0.222838846470D-06 0.000000000000D+00  7 -1 1 23 -11 11 23 21 2 0.94380640D-01 0.76488138D-01 0.28776598D+06 0.28776598D+06 0.28776598D+06 0.10858922D+01  1  2  3  2  7  2        1 -.133642071843D-04 0.100000000000D+01
0.206306705532D-05 0.000000000000D+00 0.000000000000D+00 0.222838846470D-06 0.000000000000D+00  7 -1 1 23 -11 11 23 21 2 0.94380640D-01 0.76488138D-01 0.28776598D+06 0.28776598D+06 0.28776598D+06 0.10858922D+01  1  2 15  2  7  2        1 0.150258571390D-04 0.100000000000D+01
0.200580596752D-04 0.000000000000D+00 0.000000000000D+00 0.222838846470D-06 0.000000000000D+00  7 -1 1 23 -11 11 23 21 2 0.94380640D-01 0.77733167D-01 0.29425888D+06 0.29425888D+06 0.29425888D+06 0.10851733D+01  1  2 12  2  7  2        1 0.142511904451D-03 0.100000000000D+01
-.157941789217D-04 0.000000000000D+00 0.000000000000D+00 0.222838846470D-06 0.000000000000D+00  7 -1 1 23 -11 11 23 21 2 0.94380640D-01 0.76488138D-01 0.28776598D+06 0.28776598D+06 0.28776598D+06 0.10858922D+01  1  2  4  2  7  2        1 -.115033137431D-03 0.100000000000D+01
-.179056225220D-02 0.000000000000D+00 -.219735449658D-03 0.222838846470D-06 0.000000000000D+00  7 -1 1 23 -11 11 23 21 2 0.94380640D-01 0.78017546D-01 0.28776598D+06 0.28776598D+06 0.28776598D+06 0.10858922D+01  1  2  5  2  7  2        1 -.126840187296D-01 0.100000000000D+01
0.179460392665D-02 0.000000000000D+00 0.219692392527D-03 0.222838846470D-06 0.000000000000D+00  7 -1 1 23 -11 11 23 21 2 0.94380640D-01 0.76488138D-01 0.28776598D+06 0.28776598D+06 0.28776598D+06 0.10858922D+01  1  2  6  2  7  2        1 0.130705699329D-01 0.100000000000D+01
0.892505192136D-06 0.000000000000D+00 0.000000000000D+00 0.222838846470D-06 0.000000000000D+00  7 -1 21 23 -11 11 23 -1 2 0.94380640D-01 0.77733167D-01 0.29425888D+06 0.29425888D+06 0.29425888D+06 0.10851733D+01  1  2 12  4  7  2        1 0.182307601133D-04 0.100000000000D+01
-.642224228628D-05 0.000000000000D+00 -.791995348908D-06 0.222838846470D-06 0.000000000000D+00  7 -1 21 23 -11 11 23 -1 2 0.94380640D-01 0.78017546D-01 0.28776598D+06 0.28776598D+06 0.28776598D+06 0.10858922D+01  1  2  5  4  7  2        1 -.130413327921D-03 0.100000000000D+01
  </mgrwgt>
  </event>
  <event>
  7     66 0.27784906E-05 0.17112341E+03 0.75467711E-02 0.10716766E+00
       -1 -1    0    0    0  501 0.00000000E+00 0.00000000E+00 0.68238555E+03 0.68238563E+03 0.32000000E+00 0.0000E+00 0.9000E+01
        1 -1    0    0  501    0 0.00000000E+00 0.00000000E+00 -.74094261E+02 0.74094952E+02 0.32000000E+00 0.0000E+00 0.9000E+01
       23  2    1    2    0    0 0.31816422E+02 -.99860060E+02 0.38868025E+03 0.41294383E+03 0.92010642E+02 0.0000E+00 0.0000E+00
       23  1    1    2    0    0 -.77855742E+01 -.11510353E+02 0.16244662E+03 0.18680808E+03 0.91188000E+02 0.0000E+00 0.9000E+01
      -13  1    3    3    0    0 0.33369915E+02 -.11714350E+03 0.34864205E+03 0.36930670E+03 0.10565837E+00 0.0000E+00 0.9000E+01
       13  1    3    3    0    0 -.15534935E+01 0.17283441E+02 0.40038202E+02 0.43637134E+02 0.10565837E+00 0.0000E+00 0.9000E+01
       23  1    1    2    0    0 -.24030847E+02 0.11137041E+03 0.57164417E+02 0.15672866E+03 0.91188000E+02 0.0000E+00 0.9000E+01
#aMCatNLO 1  0  0  1  1 0.20011230D+00 0.00000000D+00  -5  7  0 0.00000000D+00 0.00000000D+00 0.00000000D+00 0.00000000D+00 0.00000000D+00
  <mgrwgt>
 0.2667954550D-04    9    2    0
 0.224858049887994D+03 0.000000000000000D+00 0.000000000000000D+00 0.224858049887994D+03
 0.224858049887994D+03 0.000000000000000D+00 0.000000000000000D+00 -.224858049887994D+03
 0.946504247068133D+02 -.795372506598371D+01 -.117589506604848D+02 0.210218193817560D+02
 0.149383748342258D+03 0.334073979963107D+02 -.116975555589183D+03 0.866958443208271D+02
 0.192455446757694D+02 -.153059624086723D+01 0.173069910509714D+02 0.827745889606683D+01
 0.186436382051147D+03 -.239230766894598D+02 0.111427515198697D+03 -.115995122598650D+03
 0.000000000000000D+00 0.000000000000000D+00 -.000000000000000D+00 0.000000000000000D+00
 0.225020035735780D+03 0.000000000000000D+00 0.000000000000000D+00 0.225020035735780D+03
 0.224919883779155D+03 0.000000000000000D+00 0.000000000000000D+00 -.224919883779155D+03
 0.946462827944487D+02 -.796451324564056D+01 -.117182396906536D+02 0.210218193817560D+02
 0.149329640757654D+03 0.333903740673156D+02 -.116911312993883D+03 0.866958443208271D+02
 0.192531652743484D+02 -.153279031494797D+01 0.173152707502858D+02 0.827745889606683D+01
 0.186487055471994D+03 -.239443299119556D+02 0.111507717728444D+03 -.115995122598650D+03
 0.223775216490300D+00 0.512594052285572D-01 -.193435794193283D+00 0.100151956624466D+00
0.148784545964D-06 0.000000000000D+00 0.000000000000D+00 0.233752814999D-10 0.000000000000D+00  7 -1 1 23 -13 13 23 21 0 0.10498245D+00 0.11399176D-01 0.35583392D+05 0.35583392D+05 0.35583392D+05 0.11605202D+01  1  2  2  1  7  1       -1 0.929632410604D-05 0.100000000000D+01
-.795572803723D-08 0.000000000000D+00 -.571371832373D-09 0.233752814999D-10 0.000000000000D+00  7 -1 1 23 -13 13 23 21 2 0.10498245D+00 0.11399176D-01 0.35583392D+05 0.35583392D+05 0.35583392D+05 0.11605202D+01  1  2  3  1  7  1       -1 -.669481819044D-06 0.100000000000D+01
0.934523110036D-08 0.000000000000D+00 0.000000000000D+00 0.233752814999D-10 0.000000000000D+00  7 -1 1 23 -13 13 23 21 2 0.10498245D+00 0.11399176D-01 0.35583392D+05 0.35583392D+05 0.35583392D+05 0.11605202D+01  1  2 15  1  7  1       -1 0.786409777607D-06 0.100000000000D+01
-.381628089516D-04 0.000000000000D+00 0.000000000000D+00 0.233752814999D-10 0.000000000000D+00  7 -1 1 23 -13 13 23 21 2 0.10498245D+00 0.11399176D-01 0.35583392D+05 0.35583392D+05 0.35583392D+05 0.11605202D+01  1  2  4  1  7  1       -1 -.321143541323D-02 0.100000000000D+01
-.278365125700D-03 0.000000000000D+00 -.188630469307D-04 0.233752814999D-10 0.000000000000D+00  7 -1 1 23 -13 13 23 21 2 0.10507861D+00 0.11399176D-01 0.35583392D+05 0.35583392D+05 0.35583392D+05 0.11605202D+01  1  2  5  1  7  1       -1 -.233769303633D-01 0.100000000000D+01
0.278382286209D-03 0.000000000000D+00 0.188630390256D-04 0.233752814999D-10 0.000000000000D+00  7 -1 1 23 -13 13 23 21 2 0.10498245D+00 0.11399176D-01 0.35583392D+05 0.35583392D+05 0.35583392D+05 0.11605202D+01  1  2  6  1  7  1       -1 0.234261249868D-01 0.100000000000D+01
0.381628215674D-04 0.000000000000D+00 0.000000000000D+00 0.233752814999D-10 0.419258404054D-08  7 -1 1 23 -13 13 23 21 2 0.10505808D+00 0.11402311D-01 0.35621616D+05 0.35621616D+05 0.35621616D+05 0.11604777D+01  1  2 11  1  7  1       -1 0.320488428132D-02 0.100000000000D+01
-.477120485341D-07 0.000000000000D+00 -.323354556647D-08 0.233752814999D-10 0.000000000000D+00  7 21 1 23 -13 13 23 1 2 0.10507861D+00 0.11399176D-01 0.35583392D+05 0.35583392D+05 0.35583392D+05 0.11605202D+01  1  2  5  3  7  1       -1 -.292819071365D-04 0.100000000000D+01
0.636215606036D-08 0.000000000000D+00 0.000000000000D+00 0.233752814999D-10 0.565528381952D-12  7 21 1 23 -13 13 23 1 2 0.10505808D+00 0.11402311D-01 0.35621616D+05 0.35621616D+05 0.35621616D+05 0.11604777D+01  1  2 11  3  7  1       -1 0.390470900860D-05 0.100000000000D+01
  </mgrwgt>
  </event>
  <event>
  9     66 0.27784906E-05 0.20837904E+03 0.75467711E-02 0.10527742E+00
       -1 -1    0    0    0  501 0.00000000E+00 0.00000000E+00 0.15739532E+03 0.15739565E+03 0.32000000E+00 0.0000E+00 0.9000E+01
        1 -1    0    0  502    0 0.00000000E+00 0.00000000E+00 -.48542327E+03 0.48542337E+03 0.32000000E+00 0.0000E+00 0.9000E+01
       25  2    1    2    0    0 -.75566495E+02 -.38589769E+02 -.31537890E+02 0.31325620E+03 0.29989222E+03 0.0000E+00 0.0000E+00
       23  2    3    3    0    0 -.12157637E+03 -.10928798E+03 -.26993555E+02 0.18895396E+03 0.90831003E+02 0.0000E+00 0.0000E+00
       23  1    1    2    0    0 0.71461010E+02 0.51404993E+02 -.23915476E+03 0.27066473E+03 0.91188000E+02 0.0000E+00 0.9000E+01
      -13  1    4    4    0    0 -.56740194E+02 -.71001120E+02 -.57678295E+02 0.10764481E+03 0.10565837E+00 0.0000E+00 0.9000E+01
       13  1    4    4    0    0 -.64836176E+02 -.38286859E+02 0.30684740E+02 0.81309149E+02 0.10565837E+00 0.0000E+00 0.9000E+01
       23  1    3    3    0    0 0.46009874E+02 0.70698209E+02 -.45443351E+01 0.12430224E+03 0.91188000E+02 0.0000E+00 0.9000E+01
       21  1    1    2  502  501 0.41054849E+01 -.12815224E+02 -.57335301E+02 0.58898083E+02 0.75000000E+00 0.0000E+00 0.9000E+01
#aMCatNLO 2  0  0  2  1 0.13456781D+02 0.00000000D+00  -5  7  0 0.00000000D+00 0.00000000D+00 0.00000000D+00 0.00000000D+00 0.00000000D+00
  <mgrwgt>
 0.1796908450D-04    2    2    0
 0.258605910132230D+03 0.000000000000000D+00 0.000000000000000D+00 0.258605910132230D+03
 0.258605910132230D+03 0.000000000000000D+00 0.000000000000000D+00 -.258605910132230D+03
 0.179701978176619D+03 0.728897550396237D+02 0.469451835352945D+02 -.128299582889778D+03
 0.926504479999318D+02 -.560101896263894D+02 -.732798279216293D+02 -.877673016449587D+01
 0.108289731750448D+03 -.639786249781699D+02 -.409636837285391D+02 0.771710966870045D+02
 0.136569662337461D+03 0.470990595649356D+02 0.672983281148739D+02 0.599052163672697D+02
 0.000000000000000D+00 0.000000000000000D+00 -.000000000000000D+00 -.000000000000000D+00
 0.259980279322206D+03 0.000000000000000D+00 0.000000000000000D+00 0.259980279322206D+03
 0.293873188905002D+03 0.000000000000000D+00 0.000000000000000D+00 -.293873188905002D+03
 0.180347397169937D+03 0.714610104321575D+02 0.514049933400931D+02 -.128299582889778D+03
 0.913107031582249D+02 -.567401825681839D+02 -.710011633777803D+02 -.877673016449587D+01
 0.107819244380613D+03 -.648361866222502D+02 -.382868149526203D+02 0.771710966870045D+02
 0.137909504743511D+03 0.460098738679703D+02 0.706982086989810D+02 0.599052163672697D+02
 0.364666187749212D+02 0.410548489030633D+01 -.128152237086735D+02 -.338929095827955D+02
-.209011172933D-04 0.000000000000D+00 0.000000000000D+00 0.323656527713D-06 0.000000000000D+00  7 -1 1 23 -13 13 23 21 2 0.24086333D-01 0.74839517D-01 0.46355400D+05 0.46355400D+05 0.46355400D+05 0.11501979D+01  1  2 13  2  7  2        1 -.218589607125D-02 0.100000000000D+01
0.211923194242D-04 0.000000000000D+00 0.000000000000D+00 0.323656527713D-06 0.127075104702D-07  7 -1 1 23 -13 13 23 21 2 0.24214340D-01 0.74679434D-01 0.46355400D+05 0.46355400D+05 0.46355400D+05 0.11501979D+01  1  2  1  2  7  2        1 0.220386515576D-02 0.100000000000D+01
  </mgrwgt>
  </event>
  <event>
  9     66 0.27784906E-05 0.17708883E+03 0.75467711E-02 0.10622647E+00
       21 -1    0    0  502  501 0.00000000E+00 0.00000000E+00 0.19311985E+03 0.19312131E+03 0.75000000E+00 0.0000E+00 0.9000E+01
        1 -1    0    0  501    0 0.00000000E+00 0.00000000E+00 -.34003600E+03 0.34003615E+03 0.32000000E+00 0.0000E+00 0.9000E+01
       25  2    1    2    0    0 -.31443939E+02 0.50615116E+01 -.16831833E+03 0.34664538E+03 0.30135962E+03 0.0000E+00 0.0000E+00
       23  2    3    3    0    0 -.89763075E+02 -.20833110E+02 -.19348723E+03 0.23253851E+03 0.90251991E+02 0.0000E+00 0.0000E+00
       23  1    1    2    0    0 0.70020791E+02 0.21525627E+02 0.54606425E+02 0.12908670E+03 0.91188000E+02 0.0000E+00 0.9000E+01
      -13  1    4    4    0    0 -.41834299E+01 0.28575394E+02 -.58566571E+02 0.65300143E+02 0.10565837E+00 0.0000E+00 0.9000E+01
       13  1    4    4    0    0 -.85579645E+02 -.49408503E+02 -.13492066E+03 0.16723837E+03 0.10565837E+00 0.0000E+00 0.9000E+01
       23  1    3    3    0    0 0.58319135E+02 0.25894621E+02 0.25168904E+02 0.11410687E+03 0.91188000E+02 0.0000E+00 0.9000E+01
        1  1    1    2  502    0 -.38576852E+02 -.26587138E+02 -.33204252E+02 0.57425379E+02 0.32000000E+00 0.0000E+00 0.9000E+01
#aMCatNLO 2  0  0  1  2 0.46851355D+02 0.00000000D+00  -5  7  0 0.00000000D+00 0.00000000D+00 0.00000000D+00 0.00000000D+00 0.00000000D+00
  <mgrwgt>
 0.6168241233D-04    1    2    0
 0.229780095271820D+03 0.000000000000000D+00 0.000000000000000D+00 0.229780095271820D+03
 0.229780095271820D+03 0.000000000000000D+00 0.000000000000000D+00 -.229780095271820D+03
 0.140017839869493D+03 0.580312724006570D+02 0.132624409168480D+02 0.880126310378614D+02
 0.518044022938191D+02 -.856373592329254D+01 0.255565199499735D+02 -.442405109837417D+02
 0.149781586100311D+03 -.976697976929671D+02 -.577410573182737D+02 -.977809002469682D+02
 0.117956362280017D+03 0.482022612156026D+02 0.189220964514522D+02 0.540087801928485D+02
 0.000000000000000D+00 -.000000000000000D+00 -.000000000000000D+00 -.000000000000000D+00
 0.246423850821311D+03 0.000000000000000D+00 0.000000000000000D+00 0.246423850821311D+03
 0.266483416374018D+03 0.000000000000000D+00 0.000000000000000D+00 -.266483416374018D+03
 0.146382188659421D+03 0.700208357930092D+02 0.215256392556434D+02 0.880126310378614D+02
 0.528325865919561D+02 -.418331802363372D+01 0.285755007691399D+02 -.442405109837417D+02
 0.139018734525111D+03 -.855797508809761D+02 -.494086058800063D+02 -.977809002469682D+02
 0.123708714102806D+03 0.583190854627656D+02 0.258946043383004D+02 0.540087801928485D+02
 0.509650433160345D+02 -.385768523511650D+02 -.265871384830774D+02 -.200595655527071D+02
0.457073805436D-07 0.000000000000D+00 0.000000000000D+00 0.233364782925D-07 0.104216120747D-11  7 21 1 23 -13 13 23 1 2 0.29710811D-01 0.52313251D-01 0.40564873D+05 0.40564873D+05 0.40564873D+05 0.11553706D+01  1  2  1  3  7  1       -1 0.616824123267D-04 0.100000000000D+01
  </mgrwgt>
  </event>
  <event>
  8     66 0.27784906E-05 0.46828242E+03 0.75467711E-02 0.93710129E-01
       -1 -1    0    0    0  501 0.00000000E+00 0.00000000E+00 0.18907748E+04 0.18907749E+04 0.32000000E+00 0.0000E+00 0.9000E+01
        1 -1    0    0  501    0 0.00000000E+00 0.00000000E+00 -.19054470E+03 0.19054497E+03 0.32000000E+00 0.0000E+00 0.9000E+01
       25  2    1    2    0    0 0.16099072E+03 -.48730810E+03 0.12812266E+04 0.14125400E+04 0.30056704E+03 0.0000E+00 0.0000E+00
       23  2    3    3    0    0 0.17350528E+03 -.37235324E+03 0.73656183E+03 0.84831827E+03 0.91485209E+02 0.0000E+00 0.0000E+00
       23  1    1    2    0    0 -.16099072E+03 0.48730810E+03 0.41900351E+03 0.66877978E+03 0.91188000E+02 0.0000E+00 0.9000E+01
      -13  1    4    4    0    0 0.30747289E+02 -.23836899E+02 0.36340659E+02 0.53237658E+02 0.10565837E+00 0.0000E+00 0.9000E+01
       13  1    4    4    0    0 0.14275799E+03 -.34851634E+03 0.70022117E+03 0.79508061E+03 0.10565837E+00 0.0000E+00 0.9000E+01
       23  1    3    3    0    0 -.12514555E+02 -.11495487E+03 0.54466479E+03 0.56422178E+03 0.91188000E+02 0.0000E+00 0.9000E+01
#aMCatNLO 1  0  0  1  2 0.91055759D+00 0.00000000D+00  -5  7  0 0.00000000D+00 0.00000000D+00 0.00000000D+00 0.00000000D+00 0.00000000D+00
  <mgrwgt>
 0.1238811062D-02   10    2    0
 0.600231153211730D+03 0.000000000000000D+00 0.000000000000000D+00 0.600231153211730D+03
 0.600231153211730D+03 0.000000000000000D+00 0.000000000000000D+00 -.600231153211730D+03
 0.566067108352041D+03 -.160990723266012D+03 0.487308104586489D+03 -.220747634280983D+03
 0.408313986011160D+02 0.307471392463770D+02 -.238364659503473D+02 -.123951373887123D+02
 0.386751391774617D+03 0.142758138938286D+03 -.348516769945400D+03 0.879364194933235D+02
 0.206812407695685D+03 -.125145549186518D+02 -.114954868690742D+03 0.145206352176372D+03
 0.000000000000000D+00 -.000000000000000D+00 0.000000000000000D+00 0.000000000000000D+00
 0.601903618540611D+03 0.000000000000000D+00 0.000000000000000D+00 0.601903618540611D+03
 0.600355274744354D+03 0.000000000000000D+00 0.000000000000000D+00 -.600355274744354D+03
 0.565747265039538D+03 -.160647956308384D+03 0.487049722973955D+03 -.220747634280983D+03
 0.408609169703859D+02 0.307718795457832D+02 -.238551154680821D+02 -.123951373887123D+02
 0.386997096514277D+03 0.142992466599725D+03 -.348693408789013D+03 0.879364194933235D+02
 0.206857373230802D+03 -.123892761312428D+02 -.115049305258756D+03 0.145206352176372D+03
 0.179624152996178D+01 -.727113705881444D+00 0.548106541895939D+00 0.154834379625768D+01
0.431059768866D-03 0.000000000000D+00 0.000000000000D+00 0.130894855877D-05 0.000000000000D+00  7 -1 1 23 -13 13 23 21 0 0.29088846D+00 0.29314593D-01 0.29378585D+06 0.29378585D+06 0.29378585D+06 0.10852251D+01  1  2  2  1  7  1       -1 0.208792853333D-03 0.100000000000D+01
-.236447626243D-04 0.000000000000D+00 -.165538301309D-05 0.130894855877D-05 0.000000000000D+00  7 -1 1 23 -13 13 23 21 2 0.29088846D+00 0.29314593D-01 0.29378585D+06 0.29378585D+06 0.29378585D+06 0.10852251D+01  1  2  3  1  7  1       -1 -.134881602820D-04 0.100000000000D+01
0.269371551110D-04 0.000000000000D+00 0.000000000000D+00 0.130894855877D-05 0.000000000000D+00  7 -1 1 23 -13 13 23 21 2 0.29088846D+00 0.29314593D-01 0.29378585D+06 0.29378585D+06 0.29378585D+06 0.10852251D+01  1  2 15  1  7  1       -1 0.153663063339D-04 0.100000000000D+01
-.105603463421D+00 0.000000000000D+00 0.000000000000D+00 0.130894855877D-05 0.000000000000D+00  7 -1 1 23 -13 13 23 21 2 0.29088846D+00 0.29314593D-01 0.29378585D+06 0.29378585D+06 0.29378585D+06 0.10852251D+01  1  2  4  1  7  1       -1 -.602415200181D-01 0.100000000000D+01
-.250365869579D+00 0.000000000000D+00 -.138742886521D-01 0.130894855877D-05 0.000000000000D+00  7 -1 1 23 -13 13 23 21 2 0.29172156D+00 0.29314593D-01 0.29378585D+06 0.29378585D+06 0.29378585D+06 0.10852251D+01  1  2  5  1  7  1       -1 -.140430500071D+00 0.100000000000D+01
0.250404581248D+00 0.000000000000D+00 0.138742319135D-01 0.130894855877D-05 0.000000000000D+00  7 -1 1 23 -13 13 23 21 2 0.29088846D+00 0.29314593D-01 0.29378585D+06 0.29378585D+06 0.29378585D+06 0.10852251D+01  1  2  6  1  7  1       -1 0.142843351016D+00 0.100000000000D+01
0.105603793785D+00 0.000000000000D+00 0.000000000000D+00 0.130894855877D-05 0.991526283261D-05  7 -1 1 23 -13 13 23 21 2 0.29169898D+00 0.29320654D-01 0.29427910D+06 0.29427910D+06 0.29427910D+06 0.10851711D+01  1  2 11  1  7  1       -1 0.592318586440D-01 0.100000000000D+01
0.232906982752D-09 0.000000000000D+00 0.000000000000D+00 0.130894855877D-05 0.000000000000D+00  7 21 1 23 -13 13 23 1 2 0.29172901D+00 0.29314593D-01 0.29427910D+06 0.29427910D+06 0.29427910D+06 0.10851711D+01  1  2 12  3  7  1       -1 0.112462498349D-08 0.100000000000D+01
-.133637099725D-03 0.000000000000D+00 -.740799054731D-05 0.130894855877D-05 0.000000000000D+00  7 21 1 23 -13 13 23 1 2 0.29172156D+00 0.29314593D-01 0.29378585D+06 0.29378585D+06 0.29378585D+06 0.10852251D+01  1  2  5  3  7  1       -1 -.645526099892D-03 0.100000000000D+01
0.560043341085D-04 0.000000000000D+00 0.000000000000D+00 0.130894855877D-05 0.515390964520D-08  7 21 1 23 -13 13 23 1 2 0.29169898D+00 0.29320654D-01 0.29427910D+06 0.29427910D+06 0.29427910D+06 0.10851711D+01  1  2 11  3  7  1       -1 0.270475466782D-03 0.100000000000D+01
  </mgrwgt>
  </event>
  <event>
  9     66 0.27784906E-05 0.35099954E+03 0.75467711E-02 0.94575903E-01
       21 -1    0    0  502  501 0.00000000E+00 0.00000000E+00 0.17490638E+03 0.17490799E+03 0.75000000E+00 0.0000E+00 0.9000E+01
        1 -1    0    0  501    0 0.00000000E+00 0.00000000E+00 -.22550299E+04 0.22550300E+04 0.32000000E+00 0.0000E+00 0.9000E+01
       25  2    1    2    0    0 -.16122082E+02 0.24330428E+03 -.12960650E+04 0.13531755E+04 0.30305544E+03 0.0000E+00 0.0000E+00
       23  2    3    3    0    0 -.65653016E+02 0.17200583E+03 -.41397901E+03 0.46214929E+03 0.91142897E+02 0.0000E+00 0.0000E+00
       23  1    1    2    0    0 0.25557443E+03 -.34013515E+03 -.30130394E+03 0.52925375E+03 0.91188000E+02 0.0000E+00 0.9000E+01
      -13  1    4    4    0    0 -.50280655E+02 0.10605597E+03 -.15477493E+03 0.19424547E+03 0.10565837E+00 0.0000E+00 0.9000E+01
       13  1    4    4    0    0 -.15372361E+02 0.65949858E+02 -.25920407E+03 0.26790382E+03 0.10565837E+00 0.0000E+00 0.9000E+01
       23  1    3    3    0    0 0.49530934E+02 0.71298451E+02 -.88208595E+03 0.89102618E+03 0.91188000E+02 0.0000E+00 0.9000E+01
        1  1    1    2  502    0 -.23945235E+03 0.96830872E+02 -.48275467E+03 0.54750874E+03 0.32000000E+00 0.0000E+00 0.9000E+01
#aMCatNLO 2  0  0  1  2 0.25828985D+03 0.00000000D+00  -5  7  0 0.00000000D+00 0.00000000D+00 0.00000000D+00 0.00000000D+00 0.00000000D+00
  <mgrwgt>
 0.5276879650D-04    1    2    0
 0.480946655781555D+03 0.000000000000000D+00 0.000000000000000D+00 0.480946655781555D+03
 0.480946655781555D+03 0.000000000000000D+00 0.000000000000000D+00 -.480946655781555D+03
 0.437528458112411D+03 0.138823675983575D+03 -.292922931266400D+03 0.279356481290359D+03
 0.146305269218646D+03 -.827161208320382D+02 0.119172412773606D+03 0.190055568020844D+02
 0.104307129070589D+03 -.392138148689436D+02 0.755909430884187D+02 -.602350663764571D+02
 0.273752455161464D+03 -.168937402825929D+02 0.981595754043752D+02 -.238126971715987D+03
 0.000000000000000D+00 -.000000000000000D+00 0.000000000000000D+00 -.000000000000000D+00
 0.611105581642202D+03 0.000000000000000D+00 0.000000000000000D+00 0.611105581642202D+03
 0.645422004355869D+03 0.000000000000000D+00 0.000000000000000D+00 -.645422004355869D+03
 0.517073988322978D+03 0.255574434266046D+03 -.340135153971022D+03 0.279356481290359D+03
 0.118900127918887D+03 -.502807009019611D+02 0.106056024565217D+03 0.190055568020844D+02
 0.906308334611243D+02 -.153723141179209D+02 0.659498044814526D+02 -.602350663764571D+02
 0.269363116667805D+03 0.495309321900820D+02 0.712984528215649D+02 -.238126971715987D+03
 0.260559519627276D+03 -.239452351436246D+03 0.968308721027881D+02 -.343164227136669D+02
0.134735107208D-05 0.000000000000D+00 0.000000000000D+00 0.721134850795D-07 0.365690729808D-12  7 21 1 23 -13 13 23 1 2 0.26908796D-01 0.34692775D+00 0.25220443D+06 0.25220443D+06 0.25220443D+06 0.10901724D+01  1  2  1  3  7  1       -1 0.527687964955D-04 0.100000000000D+01
  </mgrwgt>
  </event>
  <event>
  8     66 0.27784906E-05 0.15727167E+03 0.75467711E-02 0.97800881E-01
       -1 -1    0    0    0  501 0.00000000E+00 0.00000000E+00 0.10060973E+03 0.10061024E+03 0.32000000E+00 0.0000E+00 0.9000E+01
        1 -1    0    0  501    0 0.00000000E+00 0.00000000E+00 -.97910773E+03 0.97910778E+03 0.32000000E+00 0.0000E+00 0.9000E+01
       25  2    1    2    0    0 0.12881916E+03 0.19068122E+03 -.47839076E+03 0.60923447E+03 0.29892344E+03 0.0000E+00 0.0000E+00
       23  2    3    3    0    0 0.14775283E+03 0.20255106E+03 -.42293748E+03 0.50019460E+03 0.91982040E+02 0.0000E+00 0.0000E+00
       23  1    1    2    0    0 -.12881916E+03 -.19068122E+03 -.40010725E+03 0.47048354E+03 0.91188000E+02 0.0000E+00 0.9000E+01
      -13  1    4    4    0    0 0.87386699E+02 0.17899081E+03 -.34933663E+03 0.40213211E+03 0.10565837E+00 0.0000E+00 0.9000E+01
       13  1    4    4    0    0 0.60366128E+02 0.23560253E+02 -.73600847E+02 0.98062484E+02 0.10565837E+00 0.0000E+00 0.9000E+01
       23  1    3    3    0    0 -.18933669E+02 -.11869843E+02 -.55453280E+02 0.10903988E+03 0.91188000E+02 0.0000E+00 0.9000E+01
#aMCatNLO 1  0  0  2  1 0.14089592D+03 0.00000000D+00  -5  7  0 0.00000000D+00 0.00000000D+00 0.00000000D+00 0.00000000D+00 0.00000000D+00
  <mgrwgt>
 0.6809252149D-03    8    2    0
 0.313859942570077D+03 0.000000000000000D+00 0.000000000000000D+00 0.313859942570077D+03
 0.313859942570077D+03 0.000000000000000D+00 0.000000000000000D+00 -.313859942570077D+03
 0.249308878058204D+03 -.128819158517155D+03 -.190681221113247D+03 -.297651079005833D+02
 0.202794071273420D+03 0.873867355594617D+02 0.178991015505252D+03 -.380947523985709D+02
 0.656686535118285D+02 0.603660915590235D+02 0.235600484202641D+02 0.106410132214459D+02
 0.109948282296701D+03 -.189336686013304D+02 -.118698428122687D+02 0.572188470777083D+02
 0.000000000000000D+00 0.000000000000000D+00 -.000000000000000D+00 -.000000000000000D+00
 0.340494638912709D+03 0.000000000000000D+00 0.000000000000000D+00 0.340494638912709D+03
 0.585295095229159D+03 0.000000000000000D+00 0.000000000000000D+00 -.585295095229159D+03
 0.254462413373659D+03 -.174447275588581D+03 -.158486765590490D+03 -.297651079005833D+02
 0.214975187684607D+03 0.495480873856048D+02 0.205689348766901D+03 -.380947523985709D+02
 0.592801846552171D+02 0.490490905452892D+02 0.315451398325904D+02 0.106410132214459D+02
 0.114620317259886D+03 -.392735381520749D+02 0.248163753843372D+01 0.572188470777083D+02
 0.282451631168499D+03 0.115123635809762D+03 -.812293605474349D+02 -.244800456316450D+03
0.476619518493D-05 0.000000000000D+00 0.000000000000D+00 0.751569884004D-07 0.000000000000D+00  7 -1 1 23 -13 13 23 21 0 0.15478463D-01 0.15063200D+00 0.91626259D+05 0.91626259D+05 0.91626259D+05 0.11248521D+01  1  2  2  2  7  2        1 0.265319771954D-03 0.100000000000D+01
-.264366493579D-06 0.000000000000D+00 -.183034444782D-07 0.751569884004D-07 0.000000000000D+00  7 -1 1 23 -13 13 23 21 2 0.15478463D-01 0.15063200D+00 0.91626259D+05 0.91626259D+05 0.91626259D+05 0.11248521D+01  1  2  3  2  7  2        1 -.186206602041D-04 0.100000000000D+01
0.310826108364D-06 0.000000000000D+00 0.000000000000D+00 0.751569884004D-07 0.000000000000D+00  7 -1 1 23 -13 13 23 21 2 0.15478463D-01 0.15063200D+00 0.91626259D+05 0.91626259D+05 0.91626259D+05 0.11248521D+01  1  2 15  2  7  2        1 0.218930442661D-04 0.100000000000D+01
0.458202992972D-05 0.000000000000D+00 0.000000000000D+00 0.751569884004D-07 0.000000000000D+00  7 -1 1 23 -13 13 23 21 2 0.15478463D-01 0.28226373D+00 0.14547303D+06 0.14547303D+06 0.14547303D+06 0.11086037D+01  1  2 12  2  7  2        1 0.807146865808D-04 0.100000000000D+01
-.647887194958D-05 0.000000000000D+00 -.145541197707D-05 0.751569884004D-07 0.000000000000D+00  7 -1 1 23 -13 13 23 21 2 0.15478463D-01 0.28878780D+00 0.91626259D+05 0.91626259D+05 0.91626259D+05 0.11248521D+01  1  2  5  2  7  2        1 -.111942647829D-03 0.100000000000D+01
0.630478964837D-05 0.000000000000D+00 0.119355973127D-05 0.751569884004D-07 0.000000000000D+00  7 -1 1 23 -13 13 23 21 2 0.15478463D-01 0.15063200D+00 0.91626259D+05 0.91626259D+05 0.91626259D+05 0.11248521D+01  1  2  6  2  7  2        1 0.444078007433D-03 0.100000000000D+01
0.313253584595D-06 0.000000000000D+00 0.000000000000D+00 0.751569884004D-07 0.000000000000D+00  7 -1 21 23 -13 13 23 -1 2 0.15478463D-01 0.28226373D+00 0.14547303D+06 0.14547303D+06 0.14547303D+06 0.11086037D+01  1  2 12  4  7  2        1 0.329705751439D-05 0.100000000000D+01
-.373772352515D-06 0.000000000000D+00 -.102819886040D-06 0.751569884004D-07 0.000000000000D+00  7 -1 21 23 -13 13 23 -1 2 0.15478463D-01 0.28878780D+00 0.91626259D+05 0.91626259D+05 0.91626259D+05 0.11248521D+01  1  2  5  4  7  2        1 -.381404484391D-05 0.100000000000D+01
  </mgrwgt>
  </event>
  <event>
  8     66 0.27784906E-05 0.95631885E+03 0.75467711E-02 0.84730769E-01
       -1 -1    0    0    0  501 0.00000000E+00 0.00000000E+00 0.12667614E+04 0.12667614E+04 0.32000000E+00 0.0000E+00 0.9000E+01
        1 -1    0    0  501    0 0.00000000E+00 0.00000000E+00 -.15543790E+04 0.15543790E+04 0.32000000E+00 0.0000E+00 0.9000E+01
       25  2    1    2    0    0 0.66753193E+03 0.65959864E+03 -.11699979E+04 0.15297924E+04 0.30116530E+03 0.0000E+00 0.0000E+00
       23  2    3    3    0    0 0.40295996E+03 0.28247510E+03 -.73884586E+03 0.89227550E+03 0.89963662E+02 0.0000E+00 0.0000E+00
       23  1    1    2    0    0 -.66753193E+03 -.65959864E+03 0.88238032E+03 0.12913479E+04 0.91188000E+02 0.0000E+00 0.9000E+01
      -13  1    4    4    0    0 0.45416312E+02 0.15191176E+01 -.72286656E+02 0.85383376E+02 0.10565837E+00 0.0000E+00 0.9000E+01
       13  1    4    4    0    0 0.35754365E+03 0.28095598E+03 -.66655920E+03 0.80689213E+03 0.10565837E+00 0.0000E+00 0.9000E+01
       23  1    3    3    0    0 0.26457196E+03 0.37712354E+03 -.43115206E+03 0.63751693E+03 0.91188000E+02 0.0000E+00 0.9000E+01
#aMCatNLO 1  0  0  2  2 0.66915879D+03 0.00000000D+00  -5  7  0 0.00000000D+00 0.00000000D+00 0.00000000D+00 0.00000000D+00 0.00000000D+00
  <mgrwgt>
 0.3509803745D-03    4    2    0
 0.140322032770265D+04 0.000000000000000D+00 0.000000000000000D+00 0.140322032770265D+04
 0.140322032770265D+04 0.000000000000000D+00 0.000000000000000D+00 -.140322032770265D+04
 0.138854243245073D+04 -.667531927084907D+03 -.659598637077441D+03 0.101934567231145D+04
 0.784213998230273D+02 0.454158816454790D+02 0.151873211587533D+01 -.639140602475478D+02
 0.742807218294554D+03 0.357544081772932D+03 0.280956363459676D+03 -.587357059182196D+03
 0.596669604836999D+03 0.264571963666496D+03 0.377123541501889D+03 -.368074552881706D+03
 0.000000000000000D+00 0.000000000000000D+00 0.000000000000000D+00 0.000000000000000D+00
 0.236782520218143D+04 0.000000000000000D+00 0.000000000000000D+00 0.236782520218143D+04
 0.156354176896771D+04 0.000000000000000D+00 0.000000000000000D+00 -.156354176896771D+04
 0.163434931945322D+04 -.806095681635667D+03 -.986877195522038D+03 0.101934567231145D+04
 0.760644130325788D+02 0.383345383454365D+02 -.152069392878988D+02 -.639140602475478D+02
 0.668703512306640D+03 0.292843046316535D+03 0.128136734093432D+03 -.587357059182196D+03
 0.505996729518296D+03 0.214027782847332D+03 0.257741480226989D+03 -.368074552881706D+03
 0.104625299683840D+04 0.260890314126364D+03 0.616205920489516D+03 0.804283433213726D+03
0.357522826742D-02 0.000000000000D+00 0.000000000000D+00 0.181304194221D-05 0.000000000000D+00  7 -1 1 23 -13 13 23 21 0 0.19488637D+00 0.23913523D+00 0.91454575D+06 0.91454575D+06 0.91454575D+06 0.10504562D+01  1  2  2  2  7  2        1 0.376817222368D-03 0.100000000000D+01
-.163118476296D-03 0.000000000000D+00 -.137298179261D-04 0.181304194221D-05 0.000000000000D+00  7 -1 1 23 -13 13 23 21 2 0.19488637D+00 0.23913523D+00 0.91454575D+06 0.91454575D+06 0.91454575D+06 0.10504562D+01  1  2  3  2  7  2        1 -.189708158695D-04 0.100000000000D+01
0.218627720647D-03 0.000000000000D+00 0.000000000000D+00 0.181304194221D-05 0.000000000000D+00  7 -1 1 23 -13 13 23 21 2 0.19488637D+00 0.23913523D+00 0.91454575D+06 0.91454575D+06 0.91454575D+06 0.10504562D+01  1  2 15  2  7  2        1 0.254265876346D-04 0.100000000000D+01
-.277664542502D-03 0.000000000000D+00 0.000000000000D+00 0.181304194221D-05 0.000000000000D+00  7 -1 1 23 -13 13 23 21 2 0.19488637D+00 0.23913523D+00 0.91454575D+06 0.91454575D+06 0.91454575D+06 0.10504562D+01  1  2  4  2  7  2        1 -.322926196278D-04 0.100000000000D+01
  </mgrwgt>
  </event>
  <event>
  8     66 0.27784906E-05 0.14837464E+03 0.75467711E-02 0.10335765E+00
       -3 -1    0    0    0  501 0.00000000E+00 0.00000000E+00 0.62406395E+02 0.62408398E+02 0.50000000E+00 0.0000E+00 0.9000E+01
        3 -1    0    0  501    0 0.00000000E+00 0.00000000E+00 -.11987951E+04 0.11987952E+04 0.50000000E+00 0.0000E+00 0.9000E+01
       25  2    1    2    0    0 0.11746343E+03 -.70997062E+02 -.45710948E+03 0.56222308E+03 0.29716575E+03 0.0000E+00 0.0000E+00
       23  2    3    3    0    0 0.17650545E+03 -.33185573E+02 -.21741938E+03 0.29636173E+03 0.91124252E+02 0.0000E+00 0.0000E+00
       23  1    1    2    0    0 -.11746343E+03 0.70997062E+02 -.67927926E+03 0.69898055E+03 0.91188000E+02 0.0000E+00 0.9000E+01
      -11  1    4    4    0    0 0.42538373E+02 0.29127940E+02 -.38628440E+02 0.64421320E+02 0.51099893E-03 0.0000E+00 0.9000E+01
       11  1    4    4    0    0 0.13396708E+03 -.62313512E+02 -.17879094E+03 0.23194041E+03 0.51099893E-03 0.0000E+00 0.9000E+01
       23  1    3    3    0    0 -.59042020E+02 -.37811490E+02 -.23969009E+03 0.26586135E+03 0.91188000E+02 0.0000E+00 0.9000E+01
#aMCatNLO 1  0  0  2  1 0.15492876D+02 0.00000000D+00  -5  7  0 0.00000000D+00 0.00000000D+00 0.00000000D+00 0.00000000D+00 0.00000000D+00
  <mgrwgt>
 0.2797338481D-04    6    2    0
 0.273521134185789D+03 0.000000000000000D+00 0.000000000000000D+00 0.273521134185789D+03
 0.273521134185789D+03 0.000000000000000D+00 0.000000000000000D+00 -.273521134185789D+03
 0.200407741336016D+03 -.117463432260648D+03 0.709970622556421D+02 -.114060381710829D+03
 0.682789617516377D+02 0.425383728434746D+02 0.291279397972759D+02 0.447668021739035D+02
 0.163329377187354D+03 0.133967079563360D+03 -.623135123028250D+02 0.696156105349864D+02
 0.115026188096571D+03 -.590420201461863D+02 -.378114897500930D+02 -.322030998061393D+00
 0.000000000000000D+00 -.000000000000000D+00 0.000000000000000D+00 0.000000000000000D+00
 0.283360626555191D+03 0.000000000000000D+00 0.000000000000000D+00 0.283360626555191D+03
 0.279798166263664D+03 0.000000000000000D+00 0.000000000000000D+00 -.279798166263664D+03
 0.196675645645555D+03 -.112177279756892D+03 0.690836122131734D+02 -.114060381710829D+03
 0.691583686311166D+02 0.443680003522833D+02 0.284656621138485D+02 0.447668021739035D+02
 0.167563109681793D+03 0.138372069057465D+03 -.639080042000188D+02 0.696156105349864D+02
 0.113864488619474D+03 -.559949245902465D+02 -.389144592759959D+02 -.322030998061393D+00
 0.158971802409166D+02 -.145678650626105D+02 0.527318914899281D+01 0.356246029152690D+01
0.274542816693D-05 0.000000000000D+00 0.000000000000D+00 0.138232972084D-07 0.000000000000D+00  7 -3 3 23 -11 11 23 21 0 0.96011459D-02 0.18443018D+00 0.57387680D+05 0.57387680D+05 0.57387680D+05 0.11420680D+01  1  2  2  2  7  2        3 0.148200826877D-04 0.100000000000D+01
-.149263790011D-06 0.000000000000D+00 -.105431670488D-07 0.138232972084D-07 0.000000000000D+00  7 -3 3 23 -11 11 23 21 2 0.96011459D-02 0.18443018D+00 0.57387680D+05 0.57387680D+05 0.57387680D+05 0.11420680D+01  1  2  3  2  7  2        3 -.105094252477D-05 0.100000000000D+01
0.174051511155D-06 0.000000000000D+00 0.000000000000D+00 0.138232972084D-07 0.000000000000D+00  7 -3 3 23 -11 11 23 21 2 0.96011459D-02 0.18443018D+00 0.57387680D+05 0.57387680D+05 0.57387680D+05 0.11420680D+01  1  2 15  2  7  2        3 0.122546891353D-05 0.100000000000D+01
0.483942307604D-05 0.000000000000D+00 0.000000000000D+00 0.138232972084D-07 0.000000000000D+00  7 -3 3 23 -11 11 23 21 2 0.96011459D-02 0.19188498D+00 0.61185030D+05 0.61185030D+05 0.61185030D+05 0.11396625D+01  1  2 12  2  7  2        3 0.296088559477D-04 0.100000000000D+01
-.299597917457D-05 0.000000000000D+00 0.000000000000D+00 0.138232972084D-07 0.000000000000D+00  7 -3 3 23 -11 11 23 21 2 0.96011459D-02 0.18443018D+00 0.57387680D+05 0.57387680D+05 0.57387680D+05 0.11420680D+01  1  2  4  2  7  2        3 -.210942112462D-04 0.100000000000D+01
0.542113825640D-07 0.000000000000D+00 0.000000000000D+00 0.138232972084D-07 0.000000000000D+00  7 -3 21 23 -11 11 23 -3 2 0.96011459D-02 0.19188498D+00 0.61185030D+05 0.61185030D+05 0.61185030D+05 0.11396625D+01  1  2 12  4  7  2        3 0.446413103303D-05 0.100000000000D+01
  </mgrwgt>
  </event>
  <event>
  8     66 0.27784906E-05 0.16294116E+03 0.75467711E-02 0.95453759E-01
       -3 -1    0    0    0  501 0.00000000E+00 0.00000000E+00 0.74031215E+03 0.74031232E+03 0.50000000E+00 0.0000E+00 0.9000E+01
        3 -1    0    0  501    0 0.00000000E+00 0.00000000E+00 -.22601325E+03 0.22601380E+03 0.50000000E+00 0.0000E+00 0.9000E+01
       25  2    1    2    0    0 0.19474879E+03 -.17194374E+03 0.16094683E+02 0.39710346E+03 0.29990061E+03 0.0000E+00 0.0000E+00
       23  2    3    3    0    0 0.15732924E+03 -.89917567E+02 -.97548748E+02 0.22575995E+03 0.92812393E+02 0.0000E+00 0.0000E+00
       23  1    1    2    0    0 -.19474879E+03 0.17194374E+03 0.49820422E+03 0.56922266E+03 0.91188000E+02 0.0000E+00 0.9000E+01
      -13  1    4    4    0    0 0.10833466E+03 -.10024615E+03 -.95190416E+02 0.17563290E+03 0.10565837E+00 0.0000E+00 0.9000E+01
       13  1    4    4    0    0 0.48994580E+02 0.10328585E+02 -.23583312E+01 0.50127053E+02 0.10565837E+00 0.0000E+00 0.9000E+01
       23  1    3    3    0    0 0.37419547E+02 -.82026175E+02 0.11364343E+03 0.17134350E+03 0.91188000E+02 0.0000E+00 0.9000E+01
#aMCatNLO 1  0  0  2  1 0.27221988D+03 0.00000000D+00  -5  7  0 0.00000000D+00 0.00000000D+00 0.00000000D+00 0.00000000D+00 0.00000000D+00
  <mgrwgt>
 0.3908853549D-04    9    2    0
 0.409048532264030D+03 0.000000000000000D+00 0.000000000000000D+00 0.409048532264030D+03
 0.409048532264030D+03 0.000000000000000D+00 0.000000000000000D+00 -.409048532264030D+03
 0.359161342942724D+03 -.194748786928979D+03 0.171943741981629D+03 0.230629309723346D+03
 0.267297385329799D+03 0.108334737189456D+03 -.100246295361873D+03 -.222850077829151D+03
 0.606917570000332D+02 0.489945025306326D+02 0.103287283331858D+02 -.342978929461587D+02
 0.130946579255504D+03 0.374195472088902D+02 -.820261749529422D+02 0.265186610519644D+02
 0.000000000000000D+00 0.000000000000000D+00 0.000000000000000D+00 -.000000000000000D+00
 0.527840089868335D+03 0.000000000000000D+00 0.000000000000000D+00 0.527840089868335D+03
 0.622599899843407D+03 0.000000000000000D+00 0.000000000000000D+00 -.622599899843407D+03
 0.387492569402854D+03 -.283785416615887D+03 0.900621941277593D+02 0.230629309723346D+03
 0.277752589435569D+03 0.433388777134241D+02 -.160019015833262D+03 -.222850077829151D+03
 0.496371443763956D+02 0.358380543111931D+02 -.177045318632082D+01 -.342978929461587D+02
 0.147316322125014D+03 0.423738543866583D+01 -.112541781579537D+03 0.265186610519644D+02
 0.288241364371909D+03 0.200371099152604D+03 0.184269056471360D+03 -.947598099750718D+02
0.202501465164D-04 0.000000000000D+00 0.000000000000D+00 0.523846341119D-06 0.000000000000D+00  7 -3 3 23 -13 13 23 21 0 0.11389423D+00 0.34771324D-01 0.90370957D+05 0.90370957D+05 0.90370957D+05 0.11253483D+01  1  2  2  2  7  2        3 0.401056589384D-04 0.100000000000D+01
-.995253275874D-06 0.000000000000D+00 -.777658946091D-07 0.523846341119D-06 0.000000000000D+00  7 -3 3 23 -13 13 23 21 2 0.11389423D+00 0.34771324D-01 0.90370957D+05 0.90370957D+05 0.90370957D+05 0.11253483D+01  1  2  3  2  7  2        3 -.249623260669D-05 0.100000000000D+01
0.128269744195D-05 0.000000000000D+00 0.000000000000D+00 0.523846341119D-06 0.000000000000D+00  7 -3 3 23 -13 13 23 21 2 0.11389423D+00 0.34771324D-01 0.90370957D+05 0.90370957D+05 0.90370957D+05 0.11253483D+01  1  2 15  2  7  2        3 0.321718225575D-05 0.100000000000D+01
0.124191629559D-06 0.000000000000D+00 0.000000000000D+00 0.523846341119D-06 0.000000000000D+00  7 -3 3 23 -13 13 23 21 2 0.11389423D+00 0.55844932D-01 0.21630894D+06 0.21630894D+06 0.21630894D+06 0.10952202D+01  1  2 12  2  7  2        3 0.114085421645D-06 0.100000000000D+01
-.845111840712D-05 0.000000000000D+00 0.000000000000D+00 0.523846341119D-06 0.000000000000D+00  7 -3 3 23 -13 13 23 21 2 0.11389423D+00 0.34771324D-01 0.90370957D+05 0.90370957D+05 0.90370957D+05 0.11253483D+01  1  2  4  2  7  2        3 -.211965716087D-04 0.100000000000D+01
-.478291258838D-05 0.000000000000D+00 -.703331981801D-05 0.523846341119D-06 0.000000000000D+00  7 -3 3 23 -13 13 23 21 2 0.11389423D+00 0.66549630D-01 0.90370957D+05 0.90370957D+05 0.90370957D+05 0.11253483D+01  1  2  5  2  7  2        3 -.327080088251D-05 0.100000000000D+01
0.870825199613D-05 0.000000000000D+00 0.577351108663D-05 0.523846341119D-06 0.000000000000D+00  7 -3 3 23 -13 13 23 21 2 0.11389423D+00 0.34771324D-01 0.90370957D+05 0.90370957D+05 0.90370957D+05 0.11253483D+01  1  2  6  2  7  2        3 0.218414981462D-04 0.100000000000D+01
0.671323067659D-08 0.000000000000D+00 0.000000000000D+00 0.523846341119D-06 0.000000000000D+00  7 -3 21 23 -13 13 23 -3 2 0.11389423D+00 0.55844932D-01 0.21630894D+06 0.21630894D+06 0.21630894D+06 0.10952202D+01  1  2 12  4  7  2        3 0.900922214129D-07 0.100000000000D+01
0.678117505512D-07 0.000000000000D+00 -.495676515507D-06 0.523846341119D-06 0.000000000000D+00  7 -3 21 23 -13 13 23 -3 2 0.11389423D+00 0.66549630D-01 0.90370957D+05 0.90370957D+05 0.90370957D+05 0.11253483D+01  1  2  5  4  7  2        3 0.683623604454D-06 0.100000000000D+01
  </mgrwgt>
  </event>
  <event>
  9     66 0.27784906E-05 0.20309275E+03 0.75467711E-02 0.10523045E+00
       21 -1    0    0  502  501 0.00000000E+00 0.00000000E+00 0.33698547E+03 0.33698631E+03 0.75000000E+00 0.0000E+00 0.9000E+01
        1 -1    0    0  501    0 0.00000000E+00 0.00000000E+00 -.39958027E+03 0.39958040E+03 0.32000000E+00 0.0000E+00 0.9000E+01
       25  2    1    2    0    0 0.40288800E+02 -.16347461E+03 0.18779031E+03 0.39323429E+03 0.30169665E+03 0.0000E+00 0.0000E+00
       23  2    3    3    0    0 0.48577979E+01 -.17425304E+02 -.50167247E+02 0.97388369E+02 0.81489278E+02 0.0000E+00 0.0000E+00
       23  1    1    2    0    0 -.64560135E+02 0.17482412E+03 -.21312204E+03 0.29743527E+03 0.91188000E+02 0.0000E+00 0.9000E+01
      -11  1    4    4    0    0 -.41166163E+01 -.78428019E+01 -.71658730E+02 0.72204083E+02 0.51099893E-03 0.0000E+00 0.9000E+01
       11  1    4    4    0    0 0.89744142E+01 -.95825020E+01 0.21491483E+02 0.25184286E+02 0.51099893E-03 0.0000E+00 0.9000E+01
       23  1    3    3    0    0 0.35431002E+02 -.14604930E+03 0.23795756E+03 0.29584592E+03 0.91188000E+02 0.0000E+00 0.9000E+01
        1  1    1    2  502    0 0.24271335E+02 -.11349513E+02 -.37263075E+02 0.45897150E+02 0.32000000E+00 0.0000E+00 0.9000E+01
#aMCatNLO 2  0  0  1  2 0.26793827D+02 0.00000000D+00  -5  7  0 0.00000000D+00 0.00000000D+00 0.00000000D+00 0.00000000D+00 0.00000000D+00
  <mgrwgt>
 0.7418879070D-04    1    2    0
 0.344842293632806D+03 0.000000000000000D+00 0.000000000000000D+00 0.344842293632806D+03
 0.344842293632806D+03 0.000000000000000D+00 0.000000000000000D+00 -.344842293632806D+03
 0.284883279039687D+03 -.544516008605411D+02 0.170097270927665D+03 -.202349136195560D+03
 0.696594061327982D+02 -.166673699205471D+01 -.898838925971824D+01 -.690569598888426D+02
 0.264831407820275D+02 0.989738211161712D+01 -.100140907823927D+02 0.224302598919256D+02
 0.308658761311099D+03 0.462209557409787D+02 -.151094790885554D+03 0.248975836192477D+03
 0.000000000000000D+00 0.000000000000000D+00 -.000000000000000D+00 -.000000000000000D+00
 0.349580244332597D+03 0.000000000000000D+00 0.000000000000000D+00 0.349580244332597D+03
 0.385183844708600D+03 0.000000000000000D+00 0.000000000000000D+00 -.385183844708600D+03
 0.289813575065322D+03 -.645601354421552D+02 0.174824120019935D+03 -.202349136195560D+03
 0.696226958684111D+02 -.411661632343152D+01 -.784280185531331D+01 -.690569598888426D+02
 0.259900175973958D+02 0.897441423334160D+01 -.958250202515033D+01 0.224302598919256D+02
 0.304778564444255D+03 0.354310020867033D+02 -.146049303607001D+03 0.248975836192477D+03
 0.445592360658130D+02 0.242713354455419D+02 -.113495125324698D+02 -.356036003760033D+02
0.212491740931D-06 0.000000000000D+00 0.000000000000D+00 0.176205021161D-08 0.456443244370D-13  7 21 1 23 -11 11 23 1 2 0.51843908D-01 0.61473862D-01 0.46665510D+05 0.46665510D+05 0.46665510D+05 0.11499413D+01  1  2  1  3  7  1       -1 0.741887906985D-04 0.100000000000D+01
  </mgrwgt>
  </event>
  <event>
  8     66 0.27784906E-05 0.18895475E+03 0.75467711E-02 0.98977471E-01
       -1 -1    0    0    0  501 0.00000000E+00 0.00000000E+00 0.11154620E+03 0.11154666E+03 0.32000000E+00 0.0000E+00 0.9000E+01
        1 -1    0    0  501    0 0.00000000E+00 0.00000000E+00 -.84313658E+03 0.84313664E+03 0.32000000E+00 0.0000E+00 0.9000E+01
       25  2    1    2    0    0 -.66018445E+02 0.44627839E+02 -.12108420E+03 0.33228221E+03 0.29899834E+03 0.0000E+00 0.0000E+00
       23  2    3    3    0    0 -.99037968E+02 0.77836318E+02 -.15780209E+03 0.22339444E+03 0.95585379E+02 0.0000E+00 0.0000E+00
       23  1    1    2    0    0 0.66018445E+02 -.44627839E+02 -.61050617E+03 0.62240109E+03 0.91188000E+02 0.0000E+00 0.9000E+01
      -13  1    4    4    0    0 -.53742692E+02 -.10746919E+02 -.33715677E+02 0.64346960E+02 0.10565837E+00 0.0000E+00 0.9000E+01
       13  1    4    4    0    0 -.45295276E+02 0.88583237E+02 -.12408641E+03 0.15904748E+03 0.10565837E+00 0.0000E+00 0.9000E+01
       23  1    3    3    0    0 0.33019523E+02 -.33208479E+02 0.36717889E+02 0.10888777E+03 0.91188000E+02 0.0000E+00 0.9000E+01
#aMCatNLO 1  0  0  1  2 0.22371384D+03 0.00000000D+00  -5  7  0 0.00000000D+00 0.00000000D+00 0.00000000D+00 0.00000000D+00 0.00000000D+00
  <mgrwgt>
 0.4755450175D-03    3    2    0
 0.306673985170636D+03 0.000000000000000D+00 0.000000000000000D+00 0.306673985170636D+03
 0.306673985170636D+03 0.000000000000000D+00 0.000000000000000D+00 -.306673985170636D+03
 0.240573862201209D+03 0.660184447740750D+02 -.446278390418586D+02 -.207871240825836D+03
 0.599412912861199D+02 -.537426993973205D+02 -.107470315719529D+02 0.242730709826378D+02
 0.995512813269668D+02 -.452952715439447D+02 0.885833522454168D+02 -.343302993951624D+01
 0.213281535526975D+03 0.330195261671902D+02 -.332084816316053D+02 0.187031199782715D+03
 0.000000000000000D+00 -.000000000000000D+00 0.000000000000000D+00 -.000000000000000D+00
 0.387414787570774D+03 0.000000000000000D+00 0.000000000000000D+00 0.387414787570774D+03
 0.531624571722618D+03 0.000000000000000D+00 0.000000000000000D+00 -.531624571722618D+03
 0.284936978880731D+03 0.136226190720102D+03 -.105384072748664D+03 -.207871240825836D+03
 0.515464675016972D+02 -.388480414128118D+02 -.236365398348366D+02 0.242730709826378D+02
 0.723309209825242D+02 -.223319736459537D+02 0.687114210935196D+02 -.343302993951624D+01
 0.244058984941577D+03 0.941197824545258D+02 -.860832948095260D+02 0.187031199782715D+03
 0.266166006986862D+03 -.169165958115862D+03 0.146392486299507D+03 -.144209784151844D+03
0.756580255139D-05 0.000000000000D+00 0.000000000000D+00 0.127484172933D-07 0.000000000000D+00  7 -1 1 23 -13 13 23 21 0 0.17160995D-01 0.12971336D+00 0.35703897D+05 0.35703897D+05 0.35703897D+05 0.11603865D+01  1  2  2  1  7  1       -1 0.462084662384D-03 0.100000000000D+01
-.300468260260D-06 0.000000000000D+00 -.290546739189D-07 0.127484172933D-07 0.000000000000D+00  7 -1 1 23 -13 13 23 21 2 0.17160995D-01 0.12971336D+00 0.35703897D+05 0.35703897D+05 0.35703897D+05 0.11603865D+01  1  2  3  1  7  1       -1 -.247098696837D-04 0.100000000000D+01
0.464144133387D-06 0.000000000000D+00 0.000000000000D+00 0.127484172933D-07 0.000000000000D+00  7 -1 1 23 -13 13 23 21 2 0.17160995D-01 0.12971336D+00 0.35703897D+05 0.35703897D+05 0.35703897D+05 0.11603865D+01  1  2 15  1  7  1       -1 0.381702248369D-04 0.100000000000D+01
  </mgrwgt>
  </event>
  <event>
  8     66 0.27784906E-05 0.17313018E+03 0.75467711E-02 0.10295837E+00
       -1 -1    0    0    0  501 0.00000000E+00 0.00000000E+00 0.34397828E+03 0.34397843E+03 0.32000000E+00 0.0000E+00 0.9000E+01
        1 -1    0    0  501    0 0.00000000E+00 0.00000000E+00 -.25028500E+03 0.25028521E+03 0.32000000E+00 0.0000E+00 0.9000E+01
       25  2    1    2    0    0 -.63775429E+02 -.18581226E+03 0.13733269E+01 0.35882421E+03 0.30026560E+03 0.0000E+00 0.0000E+00
       23  2    3    3    0    0 -.10325989E+03 -.44820671E+02 -.82613532E+02 0.16697350E+03 0.91562318E+02 0.0000E+00 0.0000E+00
       23  1    1    2    0    0 0.63775429E+02 0.18581226E+03 0.92319953E+02 0.23543943E+03 0.91188000E+02 0.0000E+00 0.9000E+01
      -11  1    4    4    0    0 -.89479887E+02 -.19416659E+02 -.98094921E+02 0.13418744E+03 0.51099893E-03 0.0000E+00 0.9000E+01
       11  1    4    4    0    0 -.13780004E+02 -.25404012E+02 0.15481389E+02 0.32786060E+02 0.51099893E-03 0.0000E+00 0.9000E+01
       23  1    3    3    0    0 0.39484462E+02 -.14099159E+03 0.83986859E+02 0.19185071E+03 0.91188000E+02 0.0000E+00 0.9000E+01
#aMCatNLO 1  0  0  2  2 0.97505592D+03 0.00000000D+00  -5  7  0 0.00000000D+00 0.00000000D+00 0.00000000D+00 0.00000000D+00 0.00000000D+00
  <mgrwgt>
 0.2215090021D-05    1    2    0
 0.293415594527864D+03 0.000000000000000D+00 0.000000000000000D+00 0.293415594527864D+03
 0.293415594527864D+03 0.000000000000000D+00 0.000000000000000D+00 -.293415594527864D+03
 0.223681590210183D+03 0.637754291880768D+02 0.185812256347280D+03 0.558990382561758D+02
 0.151548785967515D+03 -.894798868967884D+02 -.194166588254180D+02 -.120761656701218D+03
 0.307295549512698D+02 -.137800039651049D+02 -.254040118170653D+02 0.104428550609116D+02
 0.180871257926761D+03 0.394844616738165D+02 -.140991585704797D+03 0.544197633841306D+02
 0.000000000000000D+00 0.000000000000000D+00 -.000000000000000D+00 -.000000000000000D+00
 0.304536482196028D+03 0.000000000000000D+00 0.000000000000000D+00 0.304536482196028D+03
 0.313682561707245D+03 0.000000000000000D+00 0.000000000000000D+00 -.313682561707245D+03
 0.230833808095748D+03 0.587237657526747D+02 0.195948494441381D+03 0.558990382561758D+02
 0.152860785716838D+03 -.928632149609108D+02 -.126279605586125D+02 -.120761656701218D+03
 0.299404563187425D+02 -.144543144036522D+02 -.240509978560494D+02 0.104428550609116D+02
 0.173925287169182D+03 0.355411129103897D+02 -.133079197544878D+03 0.544197633841306D+02
 0.306587066027625D+02 0.130526507014985D+02 -.261903384818416D+02 -.914607951121721D+01
0.343961541105D-07 0.000000000000D+00 0.000000000000D+00 0.446381678629D-06 0.000000000000D+00  7 -1 1 23 -11 11 23 21 2 0.52919763D-01 0.38505412D-01 0.64907146D+05 0.64907146D+05 0.64907146D+05 0.11374590D+01  1  2 14  2  7  2        1 0.221509002138D-05 0.100000000000D+01
  </mgrwgt>
  </event>
  <event>
  8     66 0.27784906E-05 0.18775319E+03 0.75467711E-02 0.92222286E-01
       -1 -1    0    0    0  501 0.00000000E+00 0.00000000E+00 0.30406415E+03 0.30406432E+03 0.32000000E+00 0.0000E+00 0.9000E+01
        1 -1    0    0  501    0 0.00000000E+00 0.00000000E+00 -.92358537E+03 0.92358542E+03 0.32000000E+00 0.0000E+00 0.9000E+01
       25  2    1    2    0    0 -.11121702E+03 0.42061556E+03 -.87616043E+02 0.53445060E+03 0.29778214E+03 0.0000E+00 0.0000E+00
       23  2    3    3    0    0 -.79082134E+02 0.33033374E+02 -.43803960E+02 0.13259571E+03 0.91201143E+02 0.0000E+00 0.0000E+00
       23  1    1    2    0    0 0.11121702E+03 -.42061556E+03 -.53190518E+03 0.69319914E+03 0.91188000E+02 0.0000E+00 0.9000E+01
      -13  1    4    4    0    0 -.18713217E+02 0.54051026E+02 -.37426412E+02 0.68355288E+02 0.10565837E+00 0.0000E+00 0.9000E+01
       13  1    4    4    0    0 -.60368918E+02 -.21017652E+02 -.63775477E+01 0.64240425E+02 0.10565837E+00 0.0000E+00 0.9000E+01
       23  1    3    3    0    0 -.32134885E+02 0.38758219E+03 -.43812083E+02 0.40185489E+03 0.91188000E+02 0.0000E+00 0.9000E+01
#aMCatNLO 1  0  0  1  2 0.24714623D+03 0.00000000D+00  -5  7  0 0.00000000D+00 0.00000000D+00 0.00000000D+00 0.00000000D+00 0.00000000D+00
  <mgrwgt>
 0.4905296161D-03    9    2    0
 0.529933330407324D+03 0.000000000000000D+00 0.000000000000000D+00 0.529933330407324D+03
 0.529933330407324D+03 0.000000000000000D+00 0.000000000000000D+00 -.529933330407324D+03
 0.492023397211641D+03 0.111217019629316D+03 -.420615559992566D+03 -.210914905344780D+03
 0.572995436109325D+02 -.187131607424087D+02 0.540511269864776D+02 -.339573033994233D+01
 0.706822249272095D+02 -.603689734618289D+02 -.210177529255271D+02 0.301631899139852D+02
 0.439861495064865D+03 -.321348854250785D+02 0.387582185931615D+03 0.184147445770737D+03
 0.000000000000000D+00 -.000000000000000D+00 -.000000000000000D+00 0.000000000000000D+00
 0.871801979221054D+03 0.000000000000000D+00 0.000000000000000D+00 0.871801979221054D+03
 0.590755737772079D+03 0.000000000000000D+00 0.000000000000000D+00 -.590755737772079D+03
 0.510330703358861D+03 0.224048784328994D+03 -.396786114160831D+03 -.210914905344780D+03
 0.571717444981143D+02 -.582749744493952D+01 0.567725079413027D+02 -.339573033994233D+01
 0.577923620592615D+02 -.459070040235882D+02 -.179634648155606D+02 0.301631899139852D+02
 0.463005975557965D+03 0.694979905638828D+02 0.409046488289630D+03 0.184147445770737D+03
 0.374256931518931D+03 -.241812273424349D+03 -.510694172545414D+02 0.281046241448974D+03
0.514940892738D-04 0.000000000000D+00 0.000000000000D+00 0.136621165017D-06 0.000000000000D+00  7 -1 1 23 -13 13 23 21 0 0.46779117D-01 0.14209007D+00 0.23285727D+06 0.23285727D+06 0.23285727D+06 0.10927876D+01  1  2  2  1  7  1       -1 0.492127439000D-03 0.100000000000D+01
-.283026998728D-05 0.000000000000D+00 -.197750861517D-06 0.136621165017D-06 0.000000000000D+00  7 -1 1 23 -13 13 23 21 2 0.46779117D-01 0.14209007D+00 0.23285727D+06 0.23285727D+06 0.23285727D+06 0.10927876D+01  1  2  3  1  7  1       -1 -.323012672339D-04 0.100000000000D+01
0.320181650764D-05 0.000000000000D+00 0.000000000000D+00 0.136621165017D-06 0.000000000000D+00  7 -1 1 23 -13 13 23 21 2 0.46779117D-01 0.14209007D+00 0.23285727D+06 0.23285727D+06 0.23285727D+06 0.10927876D+01  1  2 15  1  7  1       -1 0.365416483629D-04 0.100000000000D+01
0.288920205722D-04 0.000000000000D+00 0.000000000000D+00 0.136621165017D-06 0.000000000000D+00  7 -1 1 23 -13 13 23 21 2 0.78190064D-01 0.14209007D+00 0.38628154D+06 0.38628154D+06 0.38628154D+06 0.10765219D+01  1  2 12  1  7  1       -1 0.118198013023D-03 0.100000000000D+01
-.462281540518D-04 0.000000000000D+00 0.000000000000D+00 0.136621165017D-06 0.000000000000D+00  7 -1 1 23 -13 13 23 21 2 0.46779117D-01 0.14209007D+00 0.23285727D+06 0.23285727D+06 0.23285727D+06 0.10927876D+01  1  2  4  1  7  1       -1 -.527592054633D-03 0.100000000000D+01
-.498707005987D-04 0.000000000000D+00 -.170101312515D-04 0.136621165017D-06 0.000000000000D+00  7 -1 1 23 -13 13 23 21 2 0.83209972D-01 0.14209007D+00 0.23285727D+06 0.23285727D+06 0.23285727D+06 0.10927876D+01  1  2  5  1  7  1       -1 -.189274831218D-03 0.100000000000D+01
0.530933841539D-04 0.000000000000D+00 0.145325731351D-04 0.136621165017D-06 0.000000000000D+00  7 -1 1 23 -13 13 23 21 2 0.46779117D-01 0.14209007D+00 0.23285727D+06 0.23285727D+06 0.23285727D+06 0.10927876D+01  1  2  6  1  7  1       -1 0.605943460380D-03 0.100000000000D+01
0.166453144383D-05 0.000000000000D+00 0.000000000000D+00 0.136621165017D-06 0.000000000000D+00  7 21 1 23 -13 13 23 1 2 0.78190064D-01 0.14209007D+00 0.38628154D+06 0.38628154D+06 0.38628154D+06 0.10765219D+01  1  2 12  3  7  1       -1 0.515157240614D-04 0.100000000000D+01
-.227119363127D-05 0.000000000000D+00 -.107744873434D-05 0.136621165017D-06 0.000000000000D+00  7 21 1 23 -13 13 23 1 2 0.83209972D-01 0.14209007D+00 0.23285727D+06 0.23285727D+06 0.23285727D+06 0.10927876D+01  1  2  5  3  7  1       -1 -.646285156537D-04 0.100000000000D+01
  </mgrwgt>
  </event>
  <event>
  8     66 0.27784906E-05 0.90036284E+02 0.75467711E-02 0.10612477E+00
       -1 -1    0    0    0  501 0.00000000E+00 0.00000000E+00 0.79531613E+03 0.79531620E+03 0.32000000E+00 0.0000E+00 0.9000E+01
        1 -1    0    0  501    0 0.00000000E+00 0.00000000E+00 -.13399611E+03 0.13399649E+03 0.32000000E+00 0.0000E+00 0.9000E+01
       25  2    1    2    0    0 -.11206617E+03 -.46773446E+02 0.70125425E+03 0.77228856E+03 0.29987582E+03 0.0000E+00 0.0000E+00
       23  2    3    3    0    0 -.42607791E+02 0.52867966E+02 0.97227839E+02 0.14945950E+03 0.90963968E+02 0.0000E+00 0.0000E+00
       23  1    1    2    0    0 0.11206617E+03 0.46773446E+02 -.39934228E+02 0.15702412E+03 0.91188000E+02 0.0000E+00 0.9000E+01
      -11  1    4    4    0    0 -.39692137E+02 0.14319295E+02 -.27321315E+01 0.42284423E+02 0.51099893E-03 0.0000E+00 0.9000E+01
       11  1    4    4    0    0 -.29156538E+01 0.38548671E+02 0.99959971E+02 0.10717508E+03 0.51099893E-03 0.0000E+00 0.9000E+01
       23  1    3    3    0    0 -.69458379E+02 -.99641411E+02 0.60402641E+03 0.62282906E+03 0.91188000E+02 0.0000E+00 0.9000E+01
#aMCatNLO 1  0  0  1  2 0.20910816D+02 0.00000000D+00  -5  7  0 0.00000000D+00 0.00000000D+00 0.00000000D+00 0.00000000D+00 0.00000000D+00
  <mgrwgt>
 0.2803420058D-03    9    2    0
 0.326449799689424D+03 0.000000000000000D+00 0.000000000000000D+00 0.326449799689424D+03
 0.326449799689424D+03 0.000000000000000D+00 0.000000000000000D+00 -.326449799689424D+03
 0.263951478855823D+03 0.112066169890532D+03 0.467734456418443D+02 -.215890134547718D+03
 0.629534223879707D+02 -.396921367760714D+02 0.143192945383243D+02 -.467185773802308D+02
 0.512998120785906D+02 -.291565375645477D+01 0.385486712915611D+02 0.337219457345859D+02
 0.274694886056465D+03 -.694583793580056D+02 -.996414114717298D+02 0.228886766193363D+03
 0.000000000000000D+00 -.000000000000000D+00 -.000000000000000D+00 0.000000000000000D+00
 0.346840180795552D+03 0.000000000000000D+00 0.000000000000000D+00 0.346840180795552D+03
 0.332022695671906D+03 0.000000000000000D+00 0.000000000000000D+00 -.332022695671906D+03
 0.267968140680065D+03 0.119699031178529D+03 0.505496272530355D+02 -.215890134547718D+03
 0.620496351916302D+02 -.378983864347826D+02 0.152067110389351D+02 -.467185773802308D+02
 0.517898840675406D+02 -.143635251994125D+01 0.392805213692664D+02 0.337219457345859D+02
 0.271426715362371D+03 -.616217245761306D+02 -.957644077421974D+02 0.228886766193363D+03
 0.256285011658518D+02 -.187425676476749D+02 -.927245191903959D+01 0.148174851236468D+02
0.715850152864D-05 0.000000000000D+00 0.000000000000D+00 0.821438241847D-06 0.000000000000D+00  7 -1 1 23 -11 11 23 21 0 0.12235636D+00 0.20614820D-01 0.36978911D+05 0.36978911D+05 0.36978911D+05 0.11590009D+01  1  2  2  1  7  1       -1 0.145260224946D-03 0.100000000000D+01
-.262265658465D-06 0.000000000000D+00 -.274905307467D-07 0.821438241847D-06 0.000000000000D+00  7 -1 1 23 -11 11 23 21 2 0.12235636D+00 0.20614820D-01 0.36978911D+05 0.36978911D+05 0.36978911D+05 0.11590009D+01  1  2  3  1  7  1       -1 -.714880745091D-05 0.100000000000D+01
0.429804825337D-06 0.000000000000D+00 0.000000000000D+00 0.821438241847D-06 0.000000000000D+00  7 -1 1 23 -11 11 23 21 2 0.12235636D+00 0.20614820D-01 0.36978911D+05 0.36978911D+05 0.36978911D+05 0.11590009D+01  1  2 15  1  7  1       -1 0.117155709817D-04 0.100000000000D+01
0.271360454324D-04 0.000000000000D+00 0.000000000000D+00 0.821438241847D-06 0.000000000000D+00  7 -1 1 23 -11 11 23 21 2 0.13099976D+00 0.20614820D-01 0.41144263D+05 0.41144263D+05 0.41144263D+05 0.11548174D+01  1  2 12  1  7  1       -1 0.618710453641D-03 0.100000000000D+01
-.271383458026D-04 0.000000000000D+00 0.000000000000D+00 0.821438241847D-06 0.000000000000D+00  7 -1 1 23 -11 11 23 21 2 0.12235636D+00 0.20614820D-01 0.36978911D+05 0.36978911D+05 0.36978911D+05 0.11590009D+01  1  2  4  1  7  1       -1 -.739733939298D-03 0.100000000000D+01
-.692410638526D-04 0.000000000000D+00 -.118915794345D-04 0.821438241847D-06 0.000000000000D+00  7 -1 1 23 -11 11 23 21 2 0.13137624D+00 0.20614820D-01 0.36978911D+05 0.36978911D+05 0.36978911D+05 0.11590009D+01  1  2  5  1  7  1       -1 -.158256669784D-02 0.100000000000D+01
0.699399076113D-04 0.000000000000D+00 0.118615622324D-04 0.821438241847D-06 0.000000000000D+00  7 -1 1 23 -11 11 23 21 2 0.12235636D+00 0.20614820D-01 0.36978911D+05 0.36978911D+05 0.36978911D+05 0.11590009D+01  1  2  6  1  7  1       -1 0.190641403672D-02 0.100000000000D+01
0.350887146923D-06 0.000000000000D+00 0.000000000000D+00 0.821438241847D-06 0.000000000000D+00  7 21 1 23 -11 11 23 1 2 0.13099976D+00 0.20614820D-01 0.41144263D+05 0.41144263D+05 0.41144263D+05 0.11548174D+01  1  2 12  3  7  1       -1 0.545237454408D-04 0.100000000000D+01
-.811952282726D-06 0.000000000000D+00 -.142985044700D-06 0.821438241847D-06 0.000000000000D+00  7 21 1 23 -11 11 23 1 2 0.13137624D+00 0.20614820D-01 0.36978911D+05 0.36978911D+05 0.36978911D+05 0.11590009D+01  1  2  5  3  7  1       -1 -.126832581310D-03 0.100000000000D+01
  </mgrwgt>
  </event>
  <event>
  8     66 0.27784906E-05 0.38147050E+03 0.75467711E-02 0.87646789E-01
       -1 -1    0    0    0  501 0.00000000E+00 0.00000000E+00 0.22283996E+03 0.22284019E+03 0.32000000E+00 0.0000E+00 0.9000E+01
        1 -1    0    0  501    0 0.00000000E+00 0.00000000E+00 -.14663306E+04 0.14663306E+04 0.32000000E+00 0.0000E+00 0.9000E+01
       25  2    1    2    0    0 -.31917498E+02 0.32199418E+03 -.41121047E+02 0.44068899E+03 0.29633911E+03 0.0000E+00 0.0000E+00
       23  2    3    3    0    0 -.14534465E+02 0.32082597E+03 -.72992370E+02 0.34253316E+03 0.94130367E+02 0.0000E+00 0.0000E+00
       23  1    1    2    0    0 0.31917498E+02 -.32199418E+03 -.12023695E+04 0.12484818E+04 0.91188000E+02 0.0000E+00 0.9000E+01
      -13  1    4    4    0    0 0.98839874E+01 0.30425889E+03 -.72892220E+02 0.31302468E+03 0.10565837E+00 0.0000E+00 0.9000E+01
       13  1    4    4    0    0 -.24418452E+02 0.16567077E+02 -.10015048E+00 0.29508474E+02 0.10565837E+00 0.0000E+00 0.9000E+01
       23  1    3    3    0    0 -.17383033E+02 0.11682108E+01 0.31871323E+02 0.98155831E+02 0.91188000E+02 0.0000E+00 0.9000E+01
#aMCatNLO 1  0  0  2  2 0.86524831D+03 0.00000000D+00  -5  7  0 0.00000000D+00 0.00000000D+00 0.00000000D+00 0.00000000D+00 0.00000000D+00
  <mgrwgt>
 0.8530205212D-03    3    2    0
 0.571626852659325D+03 0.000000000000000D+00 0.000000000000000D+00 0.571626852659325D+03
 0.571626852659325D+03 0.000000000000000D+00 0.000000000000000D+00 -.571626852659325D+03
 0.536856960763239D+03 0.319174982441020D+02 -.321994179124326D+03 -.418570384633016D+03
 0.383214894353053D+03 0.988403044182518D+01 0.304259254225678D+03 0.232770847432150D+03
 0.434897569383003D+02 -.244184951771559D+02 0.165667141958040D+02 0.319474573728521D+02
 0.179692093264058D+03 -.173830335087713D+02 0.116821070284404D+01 0.153852079828014D+03
 0.000000000000000D+00 -.000000000000000D+00 -.000000000000000D+00 0.000000000000000D+00
 0.298949581873952D+04 0.000000000000000D+00 0.000000000000000D+00 0.298949581873952D+04
 0.799238928984884D+03 0.000000000000000D+00 0.000000000000000D+00 -.799238928984884D+03
 0.486230621033274D+03 0.226672296256547D+03 -.390316372236239D+02 -.418570384633016D+03
 0.674520542377133D+03 0.211234388902109D+03 0.596804597518830D+03 0.232770847432150D+03
 0.543914149104956D+02 -.578585004313926D+01 0.436383996344250D+02 0.319474573728521D+02
 0.218622979791449D+03 0.584401638190862D+02 0.111333017269294D+03 0.153852079828014D+03
 0.235496918961205D+04 -.490560998934603D+03 -.712744377198925D+03 0.219025688975464D+04
0.122301348219D-03 0.000000000000D+00 0.000000000000D+00 0.131859293367D-07 0.000000000000D+00  7 -1 1 23 -13 13 23 21 0 0.34283090D-01 0.22558934D+00 0.14551975D+06 0.14551975D+06 0.14551975D+06 0.11085926D+01  1  2  2  2  7  2        1 0.836962623792D-03 0.100000000000D+01
-.544314359054D-05 0.000000000000D+00 -.469669379846D-06 0.131859293367D-07 0.000000000000D+00  7 -1 1 23 -13 13 23 21 2 0.34283090D-01 0.22558934D+00 0.14551975D+06 0.14551975D+06 0.14551975D+06 0.11085926D+01  1  2  3  2  7  2        1 -.457792419381D-04 0.100000000000D+01
0.735242468638D-05 0.000000000000D+00 0.000000000000D+00 0.131859293367D-07 0.000000000000D+00  7 -1 1 23 -13 13 23 21 2 0.34283090D-01 0.22558934D+00 0.14551975D+06 0.14551975D+06 0.14551975D+06 0.11085926D+01  1  2 15  2  7  2        1 0.618371393205D-04 0.100000000000D+01
  </mgrwgt>
  </event>
  <event>
  8     66 0.27784906E-05 0.20717610E+03 0.75467711E-02 0.96881912E-01
       -1 -1    0    0    0  501 0.00000000E+00 0.00000000E+00 0.22332281E+03 0.22332304E+03 0.32000000E+00 0.0000E+00 0.9000E+01
        1 -1    0    0  501    0 0.00000000E+00 0.00000000E+00 -.87944949E+03 0.87944955E+03 0.32000000E+00 0.0000E+00 0.9000E+01
       25  2    1    2    0    0 -.22871166E+03 0.18328885E+03 -.67559599E+03 0.79520449E+03 0.30002734E+03 0.0000E+00 0.0000E+00
       23  2    3    3    0    0 -.15338941E+03 0.22545714E+03 -.52917729E+03 0.60231775E+03 0.91645161E+02 0.0000E+00 0.0000E+00
       23  1    1    2    0    0 0.22871166E+03 -.18328885E+03 0.19469317E+02 0.30756810E+03 0.91188000E+02 0.0000E+00 0.9000E+01
      -13  1    4    4    0    0 0.99689083E+01 0.31589633E+02 -.79020894E+02 0.85683119E+02 0.10565837E+00 0.0000E+00 0.9000E+01
       13  1    4    4    0    0 -.16335832E+03 0.19386751E+03 -.45015639E+03 0.51663463E+03 0.10565837E+00 0.0000E+00 0.9000E+01
       23  1    3    3    0    0 -.75322253E+02 -.42168288E+02 -.14641870E+03 0.19288674E+03 0.91188000E+02 0.0000E+00 0.9000E+01
#aMCatNLO 1  0  0  1  2 0.99216674D+02 0.00000000D+00  -5  7  0 0.00000000D+00 0.00000000D+00 0.00000000D+00 0.00000000D+00 0.00000000D+00
  <mgrwgt>
 0.3796569639D-03    9    2    0
 0.443171853663633D+03 0.000000000000000D+00 0.000000000000000D+00 0.443171853663633D+03
 0.443171853663633D+03 0.000000000000000D+00 0.000000000000000D+00 -.443171853663633D+03
 0.397082985936944D+03 0.228711664855666D+03 -.183288853978362D+03 0.251904380158121D+03
 0.481088433846835D+02 0.996913865801562D+01 0.315894174725214D+02 -.348881898351868D+02
 0.309553953534097D+03 -.163358550696960D+03 0.193867724363494D+03 -.177631471065516D+03
 0.131597924471542D+03 -.753222528167219D+02 -.421682878576530D+02 -.393847192574188D+02
 0.000000000000000D+00 0.000000000000000D+00 -.000000000000000D+00 0.000000000000000D+00
 0.544770650624353D+03 0.000000000000000D+00 0.000000000000000D+00 0.544770650624353D+03
 0.470840764324652D+03 0.000000000000000D+00 0.000000000000000D+00 -.470840764324652D+03
 0.375266390140513D+03 0.221918211682917D+03 -.140734156499764D+03 0.251904380158121D+03
 0.517252763415058D+02 0.909101479540962D+01 0.370900508575919D+02 -.348881898351868D+02
 0.335800113286895D+03 -.169034974823898D+03 0.229425268566644D+03 -.177631471065516D+03
 0.129087761431418D+03 -.776151995773989D+02 -.278050982905929D+02 -.393847192574188D+02
 0.123731873748674D+03 0.156409479229698D+02 -.979760646338787D+02 0.739298862997008D+02
0.163886503469D-04 0.000000000000D+00 0.000000000000D+00 0.162098985807D-05 0.000000000000D+00  7 -1 1 23 -13 13 23 21 0 0.34357378D-01 0.13529994D+00 0.12929751D+06 0.12929751D+06 0.12929751D+06 0.11126782D+01  1  2  2  1  7  1       -1 0.296141885898D-03 0.100000000000D+01
-.862115022738D-06 0.000000000000D+00 -.629367325627D-07 0.162098985807D-05 0.000000000000D+00  7 -1 1 23 -13 13 23 21 2 0.34357378D-01 0.13529994D+00 0.12929751D+06 0.12929751D+06 0.12929751D+06 0.11126782D+01  1  2  3  1  7  1       -1 -.192868375884D-04 0.100000000000D+01
0.104622435775D-05 0.000000000000D+00 0.000000000000D+00 0.162098985807D-05 0.000000000000D+00  7 -1 1 23 -13 13 23 21 2 0.34357378D-01 0.13529994D+00 0.12929751D+06 0.12929751D+06 0.12929751D+06 0.11126782D+01  1  2 15  1  7  1       -1 0.234056462730D-04 0.100000000000D+01
0.211354873224D-04 0.000000000000D+00 0.000000000000D+00 0.162098985807D-05 0.000000000000D+00  7 -1 1 23 -13 13 23 21 2 0.43126544D-01 0.13529994D+00 0.16952240D+06 0.16952240D+06 0.16952240D+06 0.11033830D+01  1  2 12  1  7  1       -1 0.311424725866D-03 0.100000000000D+01
-.222900240020D-04 0.000000000000D+00 0.000000000000D+00 0.162098985807D-05 0.000000000000D+00  7 -1 1 23 -13 13 23 21 2 0.34357378D-01 0.13529994D+00 0.12929751D+06 0.12929751D+06 0.12929751D+06 0.11126782D+01  1  2  4  1  7  1       -1 -.498662082703D-03 0.100000000000D+01
-.351791543347D-04 0.000000000000D+00 -.931954549593D-05 0.162098985807D-05 0.000000000000D+00  7 -1 1 23 -13 13 23 21 2 0.44474892D-01 0.13529994D+00 0.12929751D+06 0.12929751D+06 0.12929751D+06 0.11126782D+01  1  2  5  1  7  1       -1 -.503287575908D-03 0.100000000000D+01
0.366587542350D-04 0.000000000000D+00 0.901750232857D-05 0.162098985807D-05 0.000000000000D+00  7 -1 1 23 -13 13 23 21 2 0.34357378D-01 0.13529994D+00 0.12929751D+06 0.12929751D+06 0.12929751D+06 0.11126782D+01  1  2  6  1  7  1       -1 0.820112653737D-03 0.100000000000D+01
0.666477029926D-06 0.000000000000D+00 0.000000000000D+00 0.162098985807D-05 0.000000000000D+00  7 21 1 23 -13 13 23 1 2 0.43126544D-01 0.13529994D+00 0.16952240D+06 0.16952240D+06 0.16952240D+06 0.11033830D+01  1  2 12  3  7  1       -1 0.943216327571D-04 0.100000000000D+01
-.105434057572D-05 0.000000000000D+00 -.322900190271D-06 0.162098985807D-05 0.000000000000D+00  7 21 1 23 -13 13 23 1 2 0.44474892D-01 0.13529994D+00 0.12929751D+06 0.12929751D+06 0.12929751D+06 0.11126782D+01  1  2  5  3  7  1       -1 -.144513084457D-03 0.100000000000D+01
  </mgrwgt>
  </event>
  <event>
  7     66 0.27784906E-05 0.11955886E+03 0.75467711E-02 0.10037873E+00
       -1 -1    0    0    0  501 0.00000000E+00 0.00000000E+00 0.18547646E+03 0.18547674E+03 0.32000000E+00 0.0000E+00 0.9000E+01
        1 -1    0    0  501    0 0.00000000E+00 0.00000000E+00 -.49845655E+03 0.49845665E+03 0.32000000E+00 0.0000E+00 0.9000E+01
       25  2    1    2    0    0 -.16935360E+03 0.13735983E+03 -.22922237E+03 0.43317660E+03 0.29588968E+03 0.0000E+00 0.0000E+00
       23  1    1    2    0    0 0.16935360E+03 -.13735983E+03 -.83757716E+02 0.25075680E+03 0.91188000E+02 0.0000E+00 0.9000E+01
      -13  1    3    3    0    0 -.72412100E+01 0.31522055E+02 -.76081973E+02 0.82671354E+02 0.10565837E+00 0.0000E+00 0.9000E+01
       13  1    3    3    0    0 -.11485602E+03 -.30571071E+02 0.33344816E+01 0.11890175E+03 0.10565837E+00 0.0000E+00 0.9000E+01
       23  1    3    3    0    0 -.47256364E+02 0.13640885E+03 -.15647488E+03 0.23160349E+03 0.91188000E+02 0.0000E+00 0.9000E+01
#aMCatNLO 1  0  0  1  2 0.59391321D+02 0.00000000D+00  -5  7  0 0.00000000D+00 0.00000000D+00 0.00000000D+00 0.00000000D+00 0.00000000D+00
  <mgrwgt>
 0.4769711148D-03    9    2    0
 0.304059348542012D+03 0.000000000000000D+00 0.000000000000000D+00 0.304059348542012D+03
 0.304059348542012D+03 0.000000000000000D+00 0.000000000000000D+00 -.304059348542012D+03
 0.238911339785152D+03 0.169353604412000D+03 -.137359834089341D+03 0.348569876143763D+02
 0.538188800223122D+02 -.724131951043302D+01 0.315204661301057D+02 -.430173843177932D+02
 0.135441266852446D+03 -.114855679028355D+03 -.305719980144930D+02 0.649450744778436D+02
 0.179947210424113D+03 -.472566058732121D+02 0.136411365973729D+03 -.567846777744267D+02
 0.000000000000000D+00 0.000000000000000D+00 0.000000000000000D+00 0.000000000000000D+00
 0.369017493782051D+03 0.000000000000000D+00 0.000000000000000D+00 0.369017493782051D+03
 0.319390616441431D+03 0.000000000000000D+00 0.000000000000000D+00 -.319390616441431D+03
 0.240745620978411D+03 0.155236386916276D+03 -.155980310513578D+03 0.348569876143763D+02
 0.520491096083008D+02 -.103572159900155D+02 0.274106281286722D+02 -.430173843177932D+02
 0.145241878242935D+03 -.123116718335254D+03 -.414682307671861D+02 0.649450744778436D+02
 0.172975403170731D+03 -.576437902629612D+02 0.122710767955592D+03 -.567846777744267D+02
 0.773960982231044D+02 0.358813376719545D+02 0.473271451965002D+02 0.496268773406204D+02
0.630320837547D-05 0.000000000000D+00 0.000000000000D+00 0.578135600497D-11 0.000000000000D+00  7 -1 1 23 -13 13 23 21 0 0.28534869D-01 0.76685653D-01 0.77925840D+05 0.77925840D+05 0.77925840D+05 0.11307207D+01  1  2  2  1  7  1       -1 0.364488614335D-03 0.100000000000D+01
-.347068230567D-06 0.000000000000D+00 -.242059798347D-07 0.578135600497D-11 0.000000000000D+00  7 -1 1 23 -13 13 23 21 2 0.28534869D-01 0.76685653D-01 0.77925840D+05 0.77925840D+05 0.77925840D+05 0.11307207D+01  1  2  3  1  7  1       -1 -.256594805086D-04 0.100000000000D+01
0.395327295096D-06 0.000000000000D+00 0.000000000000D+00 0.578135600497D-11 0.000000000000D+00  7 -1 1 23 -13 13 23 21 2 0.28534869D-01 0.76685653D-01 0.77925840D+05 0.77925840D+05 0.77925840D+05 0.11307207D+01  1  2 15  1  7  1       -1 0.292273741289D-04 0.100000000000D+01
0.101756793573D-04 0.000000000000D+00 0.000000000000D+00 0.578135600497D-11 0.000000000000D+00  7 -1 1 23 -13 13 23 21 2 0.35240314D-01 0.76685653D-01 0.96163302D+05 0.96163302D+05 0.96163302D+05 0.11231190D+01  1  2 12  1  7  1       -1 0.520009548749D-03 0.100000000000D+01
-.104117739507D-04 0.000000000000D+00 0.000000000000D+00 0.578135600497D-11 0.000000000000D+00  7 -1 1 23 -13 13 23 21 2 0.28534869D-01 0.76685653D-01 0.77925840D+05 0.77925840D+05 0.77925840D+05 0.11307207D+01  1  2  4  1  7  1       -1 -.769764234288D-03 0.100000000000D+01
-.173697822183D-04 0.000000000000D+00 -.388344759017D-05 0.578135600497D-11 0.000000000000D+00  7 -1 1 23 -13 13 23 21 2 0.36124646D-01 0.76685653D-01 0.77925840D+05 0.77925840D+05 0.77925840D+05 0.11307207D+01  1  2  5  1  7  1       -1 -.864832035335D-03 0.100000000000D+01
0.178913377277D-04 0.000000000000D+00 0.377788803832D-05 0.578135600497D-11 0.000000000000D+00  7 -1 1 23 -13 13 23 21 2 0.28534869D-01 0.76685653D-01 0.77925840D+05 0.77925840D+05 0.77925840D+05 0.11307207D+01  1  2  6  1  7  1       -1 0.132274403493D-02 0.100000000000D+01
0.303409720185D-06 0.000000000000D+00 0.000000000000D+00 0.578135600497D-11 0.000000000000D+00  7 21 1 23 -13 13 23 1 2 0.35240314D-01 0.76685653D-01 0.96163302D+05 0.96163302D+05 0.96163302D+05 0.11231190D+01  1  2 12  3  7  1       -1 0.161247290142D-03 0.100000000000D+01
-.503889614438D-06 0.000000000000D+00 -.125873632331D-06 0.578135600497D-11 0.000000000000D+00  7 21 1 23 -13 13 23 1 2 0.36124646D-01 0.76685653D-01 0.77925840D+05 0.77925840D+05 0.77925840D+05 0.11307207D+01  1  2  5  3  7  1       -1 -.260489997343D-03 0.100000000000D+01
  </mgrwgt>
  </event>
  <event>
  8     66 0.27784906E-05 0.21676451E+03 0.75467711E-02 0.91975760E-01
       -1 -1    0    0    0  501 0.00000000E+00 0.00000000E+00 0.80457343E+02 0.80457980E+02 0.32000000E+00 0.0000E+00 0.9000E+01
        1 -1    0    0  501    0 0.00000000E+00 0.00000000E+00 -.91265760E+03 0.91265766E+03 0.32000000E+00 0.0000E+00 0.9000E+01
       25  2    1    2    0    0 0.11255337E+03 0.55425009E+02 -.75055027E+03 0.81783825E+03 0.29965563E+03 0.0000E+00 0.0000E+00
       23  2    3    3    0    0 -.53836403E+02 0.25041887E+02 -.30108840E+03 0.32902344E+03 0.11864546E+03 0.0000E+00 0.0000E+00
       23  1    1    2    0    0 -.11255337E+03 -.55425009E+02 -.81649986E+02 0.17527739E+03 0.91188000E+02 0.0000E+00 0.9000E+01
      -11  1    4    4    0    0 -.56165738E+02 -.47738228E+01 -.29253711E+03 0.29791835E+03 0.51099893E-03 0.0000E+00 0.9000E+01
       11  1    4    4    0    0 0.23293352E+01 0.29815709E+02 -.85512877E+01 0.31105094E+02 0.51099893E-03 0.0000E+00 0.9000E+01
       23  1    3    3    0    0 0.16638977E+03 0.30383122E+02 -.44946187E+03 0.48881481E+03 0.91188000E+02 0.0000E+00 0.9000E+01
#aMCatNLO 1  0  0  1  2 0.56447053D+03 0.00000000D+00  -5  7  0 0.00000000D+00 0.00000000D+00 0.00000000D+00 0.00000000D+00 0.00000000D+00
  <mgrwgt>
 0.4258466199D-03    3    2    0
 0.270980350040983D+03 0.000000000000000D+00 0.000000000000000D+00 0.270980350040983D+03
 0.270980350040983D+03 0.000000000000000D+00 0.000000000000000D+00 -.270980350040983D+03
 0.195810466973716D+03 -.112553366477631D+03 -.554250089367134D+02 0.119525293186765D+03
 0.967190198989387D+02 -.561657399258904D+02 -.477382190233537D+01 -.785950958599410D+02
 0.438677005174393D+02 0.232933219659728D+01 0.298157078423377D+02 0.320931912726983D+02
 0.205563512691872D+03 0.166389774206924D+03 0.303831229967110D+02 -.730233885995218D+02
 0.000000000000000D+00 0.000000000000000D+00 0.000000000000000D+00 -.000000000000000D+00
 0.455837698079912D+03 0.000000000000000D+00 0.000000000000000D+00 0.455837698079912D+03
 0.162483195324830D+04 0.000000000000000D+00 0.000000000000000D+00 -.162483195324830D+04
 0.384596660344217D+03 -.217114319341274D+03 -.279596882009650D+03 0.119525293186765D+03
 0.168884786375561D+03 -.104014544258473D+03 -.107358542084865D+03 -.785950958599410D+02
 0.341710135365624D+02 -.117294240069082D+02 -.325349836483731D+00 0.320931912726983D+02
 0.194874460270466D+03 0.942504532974616D+02 -.124278882729013D+03 -.730233885995218D+02
 0.129814273080141D+04 0.238607834309194D+03 0.511559656660013D+03 -.116899425516839D+04
0.471053086740D-05 0.000000000000D+00 0.000000000000D+00 0.679607364861D-09 0.000000000000D+00  7 -1 1 23 -11 11 23 21 0 0.12378106D-01 0.14040892D+00 0.46986853D+05 0.46986853D+05 0.46986853D+05 0.11496773D+01  1  2  2  1  7  1       -1 0.419803377200D-03 0.100000000000D+01
-.245839836858D-06 0.000000000000D+00 -.180896788421D-07 0.679607364861D-09 0.000000000000D+00  7 -1 1 23 -11 11 23 21 2 0.12378106D-01 0.14040892D+00 0.46986853D+05 0.46986853D+05 0.46986853D+05 0.11496773D+01  1  2  3  1  7  1       -1 -.289587805422D-04 0.100000000000D+01
0.297142750285D-06 0.000000000000D+00 0.000000000000D+00 0.679607364861D-09 0.000000000000D+00  7 -1 1 23 -11 11 23 21 2 0.12378106D-01 0.14040892D+00 0.46986853D+05 0.46986853D+05 0.46986853D+05 0.11496773D+01  1  2 15  1  7  1       -1 0.350020232896D-04 0.100000000000D+01
  </mgrwgt>
  </event>
  <event>
  8     66 0.27784906E-05 0.97004021E+02 0.75467711E-02 0.10218287E+00
       -1 -1    0    0    0  501 0.00000000E+00 0.00000000E+00 0.28055206E+03 0.28055224E+03 0.32000000E+00 0.0000E+00 0.9000E+01
        1 -1    0    0  501    0 0.00000000E+00 0.00000000E+00 -.31092152E+03 0.31092168E+03 0.32000000E+00 0.0000E+00 0.9000E+01
       25  2    1    2    0    0 -.98889509E+02 0.11868217E+03 -.15684614E+03 0.37198316E+03 0.29984357E+03 0.0000E+00 0.0000E+00
       23  2    3    3    0    0 0.47355503E+02 -.33330754E+02 -.69702570E+02 0.12620931E+03 0.87845648E+02 0.0000E+00 0.0000E+00
       23  1    1    2    0    0 0.98889509E+02 -.11868217E+03 0.12647668E+03 0.21949076E+03 0.91188000E+02 0.0000E+00 0.9000E+01
      -13  1    4    4    0    0 -.11370006E+02 0.41068745E+01 -.53308100E+02 0.54661761E+02 0.10565837E+00 0.0000E+00 0.9000E+01
       13  1    4    4    0    0 0.58725509E+02 -.37437629E+02 -.16394470E+02 0.71547545E+02 0.10565837E+00 0.0000E+00 0.9000E+01
       23  1    3    3    0    0 -.14624501E+03 0.15201293E+03 -.87143566E+02 0.24577385E+03 0.91188000E+02 0.0000E+00 0.9000E+01
#aMCatNLO 1  0  0  2  1 0.47022900D+02 0.00000000D+00  -5  7  0 0.00000000D+00 0.00000000D+00 0.00000000D+00 0.00000000D+00 0.00000000D+00
  <mgrwgt>
 0.4076632978D-03    9    2    0
 0.295346871557248D+03 0.000000000000000D+00 0.000000000000000D+00 0.295346871557248D+03
 0.295346871557248D+03 0.000000000000000D+00 0.000000000000000D+00 -.295346871557248D+03
 0.226283236137567D+03 0.988895093113744D+02 -.118682173840876D+03 0.137928453095978D+03
 0.519931895810083D+02 -.113701066832084D+02 0.410693418836868D+01 -.505682264706954D+02
 0.707991792733542D+02 0.587256100457942D+02 -.374376887002646D+02 -.127375812190518D+02
 0.241618138122567D+03 -.146245012673960D+03 0.152012928352772D+03 -.746226454062307D+02
 0.000000000000000D+00 -.000000000000000D+00 0.000000000000000D+00 -.000000000000000D+00
 0.306448615891958D+03 0.000000000000000D+00 0.000000000000000D+00 0.306448615891958D+03
 0.350649955314413D+03 0.000000000000000D+00 0.000000000000000D+00 -.350649955314413D+03
 0.239102167223665D+03 0.108023252857385D+03 -.134763918374740D+03 0.137928453095978D+03
 0.514263785954724D+02 -.934037432258694D+01 0.533192804980899D+00 -.505682264706954D+02
 0.759233919779296D+02 0.616052154836561D+02 -.425077981002864D+02 -.127375812190518D+02
 0.226110507286042D+03 -.137065280208287D+03 0.135850211318020D+03 -.746226454062307D+02
 0.645361261232616D+02 -.232228138101671D+02 0.408883123520249D+02 -.442013394224552D+02
0.550167649674D-05 0.000000000000D+00 0.000000000000D+00 0.676904146372D-07 0.000000000000D+00  7 -1 1 23 -13 13 23 21 0 0.43161882D-01 0.47834106D-01 0.60252188D+05 0.60252188D+05 0.60252188D+05 0.11402379D+01  1  2  2  2  7  2        1 0.296672971296D-03 0.100000000000D+01
-.292929383800D-06 0.000000000000D+00 -.211278863722D-07 0.676904146372D-07 0.000000000000D+00  7 -1 1 23 -13 13 23 21 2 0.43161882D-01 0.47834106D-01 0.60252188D+05 0.60252188D+05 0.60252188D+05 0.11402379D+01  1  2  3  2  7  2        1 -.205369893574D-04 0.100000000000D+01
0.347625439535D-06 0.000000000000D+00 0.000000000000D+00 0.676904146372D-07 0.000000000000D+00  7 -1 1 23 -13 13 23 21 2 0.43161882D-01 0.47834106D-01 0.60252188D+05 0.60252188D+05 0.60252188D+05 0.11402379D+01  1  2 15  2  7  2        1 0.243716757242D-04 0.100000000000D+01
0.125108306430D-04 0.000000000000D+00 0.000000000000D+00 0.676904146372D-07 0.000000000000D+00  7 -1 1 23 -13 13 23 21 2 0.43161882D-01 0.57573048D-01 0.72893673D+05 0.72893673D+05 0.72893673D+05 0.11331672D+01  1  2 12  2  7  2        1 0.677862163249D-03 0.100000000000D+01
-.127860365528D-04 0.000000000000D+00 0.000000000000D+00 0.676904146372D-07 0.000000000000D+00  7 -1 1 23 -13 13 23 21 2 0.43161882D-01 0.47834106D-01 0.60252188D+05 0.60252188D+05 0.60252188D+05 0.11402379D+01  1  2  4  2  7  2        1 -.896416375856D-03 0.100000000000D+01
-.206932343050D-04 0.000000000000D+00 -.416215383321D-05 0.676904146372D-07 0.000000000000D+00  7 -1 1 23 -13 13 23 21 2 0.43161882D-01 0.58411038D-01 0.60252188D+05 0.60252188D+05 0.60252188D+05 0.11402379D+01  1  2  5  2  7  2        1 -.111599583114D-02 0.100000000000D+01
0.211823176418D-04 0.000000000000D+00 0.408046429181D-05 0.676904146372D-07 0.000000000000D+00  7 -1 1 23 -13 13 23 21 2 0.43161882D-01 0.47834106D-01 0.60252188D+05 0.60252188D+05 0.60252188D+05 0.11402379D+01  1  2  6  2  7  2        1 0.148507133812D-02 0.100000000000D+01
0.337538125778D-06 0.000000000000D+00 0.000000000000D+00 0.676904146372D-07 0.000000000000D+00  7 -1 21 23 -13 13 23 -1 2 0.43161882D-01 0.57573048D-01 0.72893673D+05 0.72893673D+05 0.72893673D+05 0.11331672D+01  1  2 12  4  7  2        1 0.730483078671D-04 0.100000000000D+01
-.543805519671D-06 0.000000000000D+00 -.119000684498D-06 0.676904146372D-07 0.000000000000D+00  7 -1 21 23 -13 13 23 -1 2 0.43161882D-01 0.58411038D-01 0.60252188D+05 0.60252188D+05 0.60252188D+05 0.11402379D+01  1  2  5  4  7  2        1 -.116413962078D-03 0.100000000000D+01
  </mgrwgt>
  </event>
  <event>
  8     66 0.27784906E-05 0.28286064E+03 0.75467711E-02 0.10088465E+00
       -1 -1    0    0    0  501 0.00000000E+00 0.00000000E+00 0.13837271E+03 0.13837308E+03 0.32000000E+00 0.0000E+00 0.9000E+01
        1 -1    0    0  501    0 0.00000000E+00 0.00000000E+00 -.71335496E+03 0.71335503E+03 0.32000000E+00 0.0000E+00 0.9000E+01
       25  2    1    2    0    0 0.91103919E+02 0.20840624E+03 -.40937502E+03 0.55596791E+03 0.29963198E+03 0.0000E+00 0.0000E+00
       23  2    3    3    0    0 0.11582363E+03 0.19264066E+03 -.16470317E+03 0.29321483E+03 0.91226443E+02 0.0000E+00 0.0000E+00
       23  1    1    2    0    0 -.91103919E+02 -.20840624E+03 -.16560724E+03 0.29576020E+03 0.91188000E+02 0.0000E+00 0.9000E+01
      -13  1    4    4    0    0 0.10191097E+03 0.17366090E+03 -.10092358E+03 0.22523217E+03 0.10565837E+00 0.0000E+00 0.9000E+01
       13  1    4    4    0    0 0.13912662E+02 0.18979763E+02 -.63779594E+02 0.67982655E+02 0.10565837E+00 0.0000E+00 0.9000E+01
       23  1    3    3    0    0 -.24719712E+02 0.15765583E+02 -.24467185E+03 0.26275308E+03 0.91188000E+02 0.0000E+00 0.9000E+01
#aMCatNLO 1  0  0  1  1 0.30380076D+02 0.00000000D+00  -5  7  0 0.00000000D+00 0.00000000D+00 0.00000000D+00 0.00000000D+00 0.00000000D+00
  <mgrwgt>
 0.9422980192D-04    4    2    0
 0.314179955127831D+03 0.000000000000000D+00 0.000000000000000D+00 0.314179955127831D+03
 0.314179955127831D+03 0.000000000000000D+00 0.000000000000000D+00 -.314179955127831D+03
 0.249357173961273D+03 -.911039195284591D+02 -.208406243459273D+03 0.461590987314413D+02
 0.212947160520714D+03 0.101911087424582D+03 0.173661104340838D+03 0.692996700778205D+02
 0.337870887236816D+02 0.139125436866438D+02 0.189795557941402D+02 -.242442767358871D+02
 0.132268487049993D+03 -.247197115827664D+02 0.157655833242948D+02 -.912144920733748D+02
 0.000000000000000D+00 -.000000000000000D+00 0.000000000000000D+00 -.000000000000000D+00
 0.323866973852527D+03 0.000000000000000D+00 0.000000000000000D+00 0.323866973852527D+03
 0.339304089581511D+03 0.000000000000000D+00 0.000000000000000D+00 -.339304089581511D+03
 0.253346693280612D+03 -.822596767367344D+02 -.216730198264315D+03 0.461590987314413D+02
 0.211029463477609D+03 0.109370254630178D+03 0.166640744072039D+03 0.692996700778205D+02
 0.336874694786480D+02 0.150996468976852D+02 0.178622873393580D+02 -.242442767358871D+02
 0.131030266468614D+03 -.200874056575038D+02 0.114057861010556D+02 -.912144920733748D+02
 0.340771707285557D+02 -.221228191336246D+02 0.208213807518620D+02 -.154371157289844D+02
0.709727325771D-05 0.000000000000D+00 0.000000000000D+00 0.439500410526D-06 0.000000000000D+00  7 -1 1 23 -13 13 23 21 0 0.21288143D-01 0.10974695D+00 0.80010139D+05 0.80010139D+05 0.80010139D+05 0.11297578D+01  1  2  2  1  7  1       -1 0.395694558374D-03 0.100000000000D+01
-.389006375049D-06 0.000000000000D+00 -.272553980646D-07 0.439500410526D-06 0.000000000000D+00  7 -1 1 23 -13 13 23 21 2 0.21288143D-01 0.10974695D+00 0.80010139D+05 0.80010139D+05 0.80010139D+05 0.11297578D+01  1  2  3  1  7  1       -1 -.276819065176D-04 0.100000000000D+01
0.449967650000D-06 0.000000000000D+00 0.000000000000D+00 0.439500410526D-06 0.000000000000D+00  7 -1 1 23 -13 13 23 21 2 0.21288143D-01 0.10974695D+00 0.80010139D+05 0.80010139D+05 0.80010139D+05 0.11297578D+01  1  2 15  1  7  1       -1 0.320199442019D-04 0.100000000000D+01
-.429736428564D-05 0.000000000000D+00 0.000000000000D+00 0.439500410526D-06 0.000000000000D+00  7 -1 1 23 -13 13 23 21 2 0.21288143D-01 0.10974695D+00 0.80010139D+05 0.80010139D+05 0.80010139D+05 0.11297578D+01  1  2  4  1  7  1       -1 -.305802794137D-03 0.100000000000D+01
  </mgrwgt>
  </event>
  <event>
  8     66 0.27784906E-05 0.17782804E+03 0.75467711E-02 0.10630003E+00
       -1 -1    0    0    0  501 0.00000000E+00 0.00000000E+00 0.17818658E+03 0.17818687E+03 0.32000000E+00 0.0000E+00 0.9000E+01
        1 -1    0    0  501    0 0.00000000E+00 0.00000000E+00 -.10113476E+04 0.10113476E+04 0.32000000E+00 0.0000E+00 0.9000E+01
       25  2    1    2    0    0 -.16068745E+01 -.54814370E+02 -.96971023E+03 0.10164214E+04 0.29961197E+03 0.0000E+00 0.0000E+00
       23  2    3    3    0    0 -.17984459E+02 0.95686731E+02 -.41287669E+03 0.43221454E+03 0.82842371E+02 0.0000E+00 0.0000E+00
       23  1    1    2    0    0 0.16068745E+01 0.54814370E+02 0.13654924E+03 0.17311309E+03 0.91188000E+02 0.0000E+00 0.9000E+01
      -13  1    4    4    0    0 -.32073238E+02 0.97362065E+02 -.40042241E+03 0.41333543E+03 0.10565837E+00 0.0000E+00 0.9000E+01
       13  1    4    4    0    0 0.14088779E+02 -.16753333E+01 -.12454280E+02 0.18879107E+02 0.10565837E+00 0.0000E+00 0.9000E+01
       23  1    3    3    0    0 0.16377584E+02 -.15050110E+03 -.55683354E+03 0.58420685E+03 0.91188000E+02 0.0000E+00 0.9000E+01
#aMCatNLO 1  0  0  2  1 0.10687353D+01 0.00000000D+00  -5  7  0 0.00000000D+00 0.00000000D+00 0.00000000D+00 0.00000000D+00 0.00000000D+00
  <mgrwgt>
 0.1055892910D-02   10    2    0
 0.424510033379127D+03 0.000000000000000D+00 0.000000000000000D+00 0.424510033379127D+03
 0.424510033379127D+03 0.000000000000000D+00 0.000000000000000D+00 -.424510033379127D+03
 0.376541744992112D+03 0.160687447017647D+01 0.548143702184637D+02 0.361194182054051D+03
 0.186168347354791D+03 -.320733130143426D+02 0.973622258156150D+02 -.155404482346319D+03
 0.142289826622268D+02 0.140888544175435D+02 -.167549432448355D+01 0.107742636492654D+01
 0.272080991749125D+03 0.163775841266226D+02 -.150501101709595D+03 -.206867126072658D+03
 0.000000000000000D+00 -.000000000000000D+00 0.000000000000000D+00 -.000000000000000D+00
 0.424761720968851D+03 0.000000000000000D+00 0.000000000000000D+00 0.424761720968851D+03
 0.425646424443188D+03 0.000000000000000D+00 0.000000000000000D+00 -.425646424443188D+03
 0.376487922238578D+03 0.189005171335379D+01 0.544343164037893D+02 0.361194182054051D+03
 0.186046095062397D+03 -.319333415573586D+02 0.971743693142399D+02 -.155404482346319D+03
 0.142412814268912D+02 0.140995606768692D+02 -.168986325700071D+01 0.107742636492654D+01
 0.272245440685111D+03 0.165822783972908D+02 -.150775823073277D+03 -.206867126072658D+03
 0.138740599906135D+01 -.638549230155176D+00 0.857000612248825D+00 -.884703474337465D+00
0.154312130999D-04 0.000000000000D+00 0.000000000000D+00 0.328551773922D-07 0.000000000000D+00  7 -1 1 23 -13 13 23 21 0 0.27413346D-01 0.15559196D+00 0.39967157D+05 0.39967157D+05 0.39967157D+05 0.11559505D+01  1  2  2  2  7  2        1 0.330272989166D-03 0.100000000000D+01
-.266228430059D-06 0.000000000000D+00 -.592599214355D-07 0.328551773922D-07 0.000000000000D+00  7 -1 1 23 -13 13 23 21 2 0.27413346D-01 0.15559196D+00 0.39967157D+05 0.39967157D+05 0.39967157D+05 0.11559505D+01  1  2  3  2  7  2        1 -.761387743886D-05 0.100000000000D+01
0.950659741186D-06 0.000000000000D+00 0.000000000000D+00 0.328551773922D-07 0.000000000000D+00  7 -1 1 23 -13 13 23 21 2 0.27413346D-01 0.15559196D+00 0.39967157D+05 0.39967157D+05 0.39967157D+05 0.11559505D+01  1  2 15  2  7  2        1 0.271879556734D-04 0.100000000000D+01
-.186895321753D-02 0.000000000000D+00 0.000000000000D+00 0.328551773922D-07 0.000000000000D+00  7 -1 1 23 -13 13 23 21 2 0.27413346D-01 0.15559196D+00 0.39967157D+05 0.39967157D+05 0.39967157D+05 0.11559505D+01  1  2  4  2  7  2        1 -.534502672541D-01 0.100000000000D+01
-.746473589013D-02 0.000000000000D+00 -.613212400970D-03 0.328551773922D-07 0.000000000000D+00  7 -1 1 23 -13 13 23 21 2 0.27413346D-01 0.15605970D+00 0.39967157D+05 0.39967157D+05 0.39967157D+05 0.11559505D+01  1  2  5  2  7  2        1 -.212384277352D+00 0.100000000000D+01
0.746654567237D-02 0.000000000000D+00 0.613209638466D-03 0.328551773922D-07 0.000000000000D+00  7 -1 1 23 -13 13 23 21 2 0.27413346D-01 0.15559196D+00 0.39967157D+05 0.39967157D+05 0.39967157D+05 0.11559505D+01  1  2  6  2  7  2        1 0.213536036059D+00 0.100000000000D+01
0.186895829099D-02 0.000000000000D+00 0.000000000000D+00 0.328551773922D-07 0.204930529619D-06  7 -1 1 23 -13 13 23 21 2 0.27429599D-01 0.15600847D+00 0.40151559D+05 0.40151559D+05 0.40151559D+05 0.11557706D+01  1  2 11  2  7  2        1 0.531315666149D-01 0.100000000000D+01
0.169246944081D-10 0.000000000000D+00 0.000000000000D+00 0.328551773922D-07 0.000000000000D+00  7 -1 21 23 -13 13 23 -1 2 0.27413346D-01 0.15605452D+00 0.40151559D+05 0.40151559D+05 0.40151559D+05 0.11557706D+01  1  2 12  4  7  2        1 0.682073978270D-09 0.100000000000D+01
-.418032321822D-05 0.000000000000D+00 -.343574350050D-06 0.328551773922D-07 0.000000000000D+00  7 -1 21 23 -13 13 23 -1 2 0.27413346D-01 0.15605970D+00 0.39967157D+05 0.39967157D+05 0.39967157D+05 0.11559505D+01  1  2  5  4  7  2        1 -.168556758831D-03 0.100000000000D+01
0.103094603337D-05 0.000000000000D+00 0.000000000000D+00 0.328551773922D-07 0.102357271330D-09  7 -1 21 23 -13 13 23 -1 2 0.27429599D-01 0.15600847D+00 0.40151559D+05 0.40151559D+05 0.40151559D+05 0.11557706D+01  1  2 11  4  7  2        1 0.415438515390D-04 0.100000000000D+01
  </mgrwgt>
  </event>
  <event>
  8     66 0.27784906E-05 0.28376689E+03 0.75467711E-02 0.91436705E-01
       -1 -1    0    0    0  501 0.00000000E+00 0.00000000E+00 0.70763689E+02 0.70764413E+02 0.32000000E+00 0.0000E+00 0.9000E+01
        1 -1    0    0  501    0 0.00000000E+00 0.00000000E+00 -.18595893E+04 0.18595893E+04 0.32000000E+00 0.0000E+00 0.9000E+01
       25  2    1    2    0    0 -.15256904E+03 0.18371807E+03 -.58524622E+03 0.69992770E+03 0.30059275E+03 0.0000E+00 0.0000E+00
       23  2    3    3    0    0 -.12179617E+02 0.61463910E+02 -.42509290E+03 0.43797425E+03 0.84801626E+02 0.0000E+00 0.0000E+00
       23  1    1    2    0    0 0.15256904E+03 -.18371807E+03 -.12035794E+04 0.12304260E+04 0.91188000E+02 0.0000E+00 0.9000E+01
      -13  1    4    4    0    0 0.69601870E+01 0.78609678E+02 -.29538106E+03 0.30574157E+03 0.10565837E+00 0.0000E+00 0.9000E+01
       13  1    4    4    0    0 -.19139804E+02 -.17145768E+02 -.12971184E+03 0.13223268E+03 0.10565837E+00 0.0000E+00 0.9000E+01
       23  1    3    3    0    0 -.14038943E+03 0.12225416E+03 -.16015332E+03 0.26195345E+03 0.91188000E+02 0.0000E+00 0.9000E+01
#aMCatNLO 1  0  0  2  1 0.55586566D+03 0.00000000D+00  -5  7  0 0.00000000D+00 0.00000000D+00 0.00000000D+00 0.00000000D+00 0.00000000D+00
  <mgrwgt>
 0.6160659248D-03    3    2    0
 0.362756285002975D+03 0.000000000000000D+00 0.000000000000000D+00 0.362756285002975D+03
 0.362756285002975D+03 0.000000000000000D+00 0.000000000000000D+00 -.362756285002975D+03
 0.306216431676428D+03 0.152569044910783D+03 -.183718072614836D+03 -.168593024809289D+03
 0.851869964015909D+02 0.696022739969438D+01 0.786098261575161D+02 -.320760786561311D+02
 0.320103751978744D+02 -.191398445294800D+02 -.171459159420554D+02 -.190879029283994D+02
 0.302098766730058D+03 -.140389427780998D+03 0.122254162399375D+03 0.219757006393819D+03
 0.000000000000000D+00 -.000000000000000D+00 -.000000000000000D+00 0.000000000000000D+00
 0.876069990132938D+03 0.000000000000000D+00 0.000000000000000D+00 0.876069990132938D+03
 0.641312671906966D+03 0.000000000000000D+00 0.000000000000000D+00 -.641312671906966D+03
 0.246556826710318D+03 0.155041448485908D+03 0.368221271899480D+01 -.168593024809289D+03
 0.167609430968810D+03 0.809091666753883D+01 0.164312457212510D+03 -.320760786561311D+02
 0.269966628480641D+02 -.188759221895172D+02 0.285855351941132D+01 -.190879029283994D+02
 0.472814714523165D+03 -.136923451754852D+03 0.384964062512315D+03 0.219757006393819D+03
 0.603405026989546D+03 -.733299120907713D+01 -.555817285963231D+03 0.234757318225972D+03
0.249621733242D-04 0.000000000000D+00 0.000000000000D+00 0.136930081124D-07 0.000000000000D+00  7 -1 1 23 -13 13 23 21 0 0.10886779D-01 0.28609072D+00 0.80523647D+05 0.80523647D+05 0.80523647D+05 0.11295248D+01  1  2  2  2  7  2        1 0.607051410451D-03 0.100000000000D+01
-.128509915673D-05 0.000000000000D+00 -.958613182562D-07 0.136930081124D-07 0.000000000000D+00  7 -1 1 23 -13 13 23 21 2 0.10886779D-01 0.28609072D+00 0.80523647D+05 0.80523647D+05 0.80523647D+05 0.11295248D+01  1  2  3  2  7  2        1 -.398723007146D-04 0.100000000000D+01
0.157564032336D-05 0.000000000000D+00 0.000000000000D+00 0.136930081124D-07 0.000000000000D+00  7 -1 1 23 -13 13 23 21 2 0.10886779D-01 0.28609072D+00 0.80523647D+05 0.80523647D+05 0.80523647D+05 0.11295248D+01  1  2 15  2  7  2        1 0.488868150463D-04 0.100000000000D+01
  </mgrwgt>
  </event>
  <event>
  8     66 0.27784906E-05 0.61303953E+03 0.75467711E-02 0.90086430E-01
       -1 -1    0    0    0  501 0.00000000E+00 0.00000000E+00 0.32194769E+03 0.32194785E+03 0.32000000E+00 0.0000E+00 0.9000E+01
        1 -1    0    0  501    0 0.00000000E+00 0.00000000E+00 -.18854343E+04 0.18854343E+04 0.32000000E+00 0.0000E+00 0.9000E+01
       25  2    1    2    0    0 -.12491884E+03 -.58152737E+03 -.14488626E+04 0.15948197E+04 0.30077977E+03 0.0000E+00 0.0000E+00
       23  2    3    3    0    0 -.12601395E+03 -.24621781E+03 -.43864307E+03 0.52650688E+03 0.91098959E+02 0.0000E+00 0.0000E+00
       23  1    1    2    0    0 0.12491884E+03 0.58152737E+03 -.11462404E+03 0.61256242E+03 0.91188000E+02 0.0000E+00 0.9000E+01
      -11  1    4    4    0    0 -.10201347E+03 -.20889668E+03 -.29167457E+03 0.37298609E+03 0.51099893E-03 0.0000E+00 0.9000E+01
       11  1    4    4    0    0 -.24000473E+02 -.37321133E+02 -.14696851E+03 0.15352079E+03 0.51099893E-03 0.0000E+00 0.9000E+01
       23  1    3    3    0    0 0.10951052E+01 -.33530956E+03 -.10102195E+04 0.10683129E+04 0.91188000E+02 0.0000E+00 0.9000E+01
#aMCatNLO 1  0  0  2  2 0.27815177D+03 0.00000000D+00  -5  7  0 0.00000000D+00 0.00000000D+00 0.00000000D+00 0.00000000D+00 0.00000000D+00
  <mgrwgt>
 0.4808639589D-03    4    2    0
 0.779109373422437D+03 0.000000000000000D+00 0.000000000000000D+00 0.779109373422437D+03
 0.779109373422437D+03 0.000000000000000D+00 0.000000000000000D+00 -.779109373422437D+03
 0.752748113492369D+03 0.124918840352307D+03 0.581527370985705D+03 0.452256200777623D+03
 0.235713739642592D+03 -.102013472780632D+03 -.208896679959377D+03 -.389409235827880D+02
 0.700131187830020D+02 -.240004727367560D+02 -.373211330948781D+02 -.541566905806604D+02
 0.499743774926911D+03 0.109510516508151D+01 -.335309557931450D+03 -.359158586614175D+03
 0.000000000000000D+00 -.000000000000000D+00 -.000000000000000D+00 0.000000000000000D+00
 0.103903652091605D+04 0.000000000000000D+00 0.000000000000000D+00 0.103903652091605D+04
 0.869539700268967D+03 0.000000000000000D+00 0.000000000000000D+00 -.869539700268967D+03
 0.867391791078808D+03 0.189439806000941D+03 0.709669047265991D+03 0.452256200777623D+03
 0.197944595625694D+03 -.847433256321395D+02 -.174597354415078D+03 -.389409235827880D+02
 0.632427847727816D+02 -.186936473499224D+02 -.267815279609610D+02 -.541566905806604D+02
 0.454270812667129D+03 0.390880848212080D+02 -.259853711121416D+03 -.359158586614175D+03
 0.325726237040601D+03 -.125090917840087D+03 -.248436453768535D+03 0.169496820647081D+03
0.339994000900D-03 0.000000000000D+00 0.000000000000D+00 0.232050873886D-05 0.000000000000D+00  7 -1 1 23 -11 11 23 21 0 0.49530428D-01 0.29006683D+00 0.37581747D+06 0.37581747D+06 0.37581747D+06 0.10773855D+01  1  2  2  2  7  2        1 0.612782425030D-03 0.100000000000D+01
-.175687921862D-04 0.000000000000D+00 -.130566648593D-05 0.232050873886D-05 0.000000000000D+00  7 -1 1 23 -11 11 23 21 2 0.49530428D-01 0.29006683D+00 0.37581747D+06 0.37581747D+06 0.37581747D+06 0.10773855D+01  1  2  3  2  7  2        1 -.367552331099D-04 0.100000000000D+01
0.212294143016D-04 0.000000000000D+00 0.000000000000D+00 0.232050873886D-05 0.000000000000D+00  7 -1 1 23 -11 11 23 21 2 0.49530428D-01 0.29006683D+00 0.37581747D+06 0.37581747D+06 0.37581747D+06 0.10773855D+01  1  2 15  2  7  2        1 0.444135295797D-04 0.100000000000D+01
-.667168979264D-04 0.000000000000D+00 0.000000000000D+00 0.232050873886D-05 0.000000000000D+00  7 -1 1 23 -11 11 23 21 2 0.49530428D-01 0.29006683D+00 0.37581747D+06 0.37581747D+06 0.37581747D+06 0.10773855D+01  1  2  4  2  7  2        1 -.139576762572D-03 0.100000000000D+01
  </mgrwgt>
  </event>
  <event>
  8     66 0.27784906E-05 0.22567562E+03 0.75467711E-02 0.97045008E-01
       -1 -1    0    0    0  501 0.00000000E+00 0.00000000E+00 0.11166319E+04 0.11166320E+04 0.32000000E+00 0.0000E+00 0.9000E+01
        1 -1    0    0  501    0 0.00000000E+00 0.00000000E+00 -.70036782E+02 0.70037513E+02 0.32000000E+00 0.0000E+00 0.9000E+01
       25  2    1    2    0    0 0.18469002E+03 0.68886795E+01 0.69857052E+03 0.78220163E+03 0.29946747E+03 0.0000E+00 0.0000E+00
       23  2    3    3    0    0 0.71092211E+02 -.33204028E+02 0.57293516E+03 0.58570384E+03 0.92939128E+02 0.0000E+00 0.0000E+00
       23  1    1    2    0    0 -.18469002E+03 -.68886795E+01 0.34802463E+03 0.40446786E+03 0.91188000E+02 0.0000E+00 0.9000E+01
      -11  1    4    4    0    0 0.45644987E+02 0.74144266E+01 0.46870770E+03 0.47098338E+03 0.51099893E-03 0.0000E+00 0.9000E+01
       11  1    4    4    0    0 0.25447225E+02 -.40618455E+02 0.10422746E+03 0.11472046E+03 0.51099893E-03 0.0000E+00 0.9000E+01
       23  1    3    3    0    0 0.11359780E+03 0.40092708E+02 0.12563536E+03 0.19649779E+03 0.91188000E+02 0.0000E+00 0.9000E+01
#aMCatNLO 1  0  0  1  2 0.29798583D+03 0.00000000D+00  -5  7  0 0.00000000D+00 0.00000000D+00 0.00000000D+00 0.00000000D+00 0.00000000D+00
  <mgrwgt>
 0.3771101655D-03    5    2    0
 0.279652942554272D+03 0.000000000000000D+00 0.000000000000000D+00 0.279652942554272D+03
 0.279652942554272D+03 0.000000000000000D+00 0.000000000000000D+00 -.279652942554272D+03
 0.206915005958857D+03 -.184690016020364D+03 -.688867954332782D+01 -.184583970999875D+02
 0.122212919594393D+03 0.456449867048197D+02 0.741442657874864D+01 0.113126297486530D+03
 0.483658659625387D+02 0.254472246138229D+02 -.406184546109794D+02 0.646814461617253D+01
 0.181812093592756D+03 0.113597804701722D+03 0.400927075755586D+02 -.101136045002715D+03
 0.000000000000000D+00 0.000000000000000D+00 -.000000000000000D+00 0.000000000000000D+00
 0.149093992097292D+04 0.000000000000000D+00 0.000000000000000D+00 0.149093992097292D+04
 0.335774527061640D+03 0.000000000000000D+00 0.000000000000000D+00 -.335774527061640D+03
 0.320233392715839D+03 -.301725926100510D+03 0.534315221717117D+02 -.184583970999875D+02
 0.118669298367145D+03 -.783496253173244D+01 0.349779438227280D+02 0.113126297486530D+03
 0.328365329868739D+02 0.741891098216144D+01 -.313266781459686D+02 0.646814461617253D+01
 0.161994653432503D+03 0.372668595049667D+02 0.794336073747305D+02 -.101136045002715D+03
 0.119298057053220D+04 0.264875118145114D+03 -.136516395223202D+03 0.115516539391128D+04
0.200569171909D-04 0.000000000000D+00 0.000000000000D+00 0.632873907801D-07 0.000000000000D+00  7 -1 1 23 -11 11 23 21 0 0.17178959D+00 0.10774949D-01 0.50929484D+05 0.50929484D+05 0.50929484D+05 0.11465924D+01  1  2  2  1  7  1       -1 0.370836389827D-03 0.100000000000D+01
-.105196743153D-05 0.000000000000D+00 -.770238431206D-07 0.632873907801D-07 0.000000000000D+00  7 -1 1 23 -11 11 23 21 2 0.17178959D+00 0.10774949D-01 0.50929484D+05 0.50929484D+05 0.50929484D+05 0.11465924D+01  1  2  3  1  7  1       -1 -.255704638059D-04 0.100000000000D+01
0.131361498190D-05 0.000000000000D+00 0.000000000000D+00 0.632873907801D-07 0.000000000000D+00  7 -1 1 23 -11 11 23 21 2 0.17178959D+00 0.10774949D-01 0.50929484D+05 0.50929484D+05 0.50929484D+05 0.11465924D+01  1  2 15  1  7  1       -1 0.319304033020D-04 0.100000000000D+01
-.327602328781D-04 0.000000000000D+00 -.733253273094D-05 0.632873907801D-07 0.000000000000D+00  7 -1 1 23 -11 11 23 21 2 0.91925837D+00 0.10774949D-01 0.50929484D+05 0.50929484D+05 0.50929484D+05 0.11465924D+01  1  2  5  1  7  1       -1 -.860768436769D-07 0.100000000000D+01
-.702295265133D-05 0.000000000000D+00 -.150382739318D-05 0.632873907801D-07 0.000000000000D+00  7 21 1 23 -11 11 23 1 2 0.91925837D+00 0.10774949D-01 0.50929484D+05 0.50929484D+05 0.50929484D+05 0.11465924D+01  1  2  5  3  7  1       -1 -.869349516408D-10 0.100000000000D+01
  </mgrwgt>
  </event>
  <event>
  8     66 0.27784906E-05 0.18672418E+03 0.75467711E-02 0.96915485E-01
       -1 -1    0    0    0  501 0.00000000E+00 0.00000000E+00 0.28666462E+02 0.28668248E+02 0.32000000E+00 0.0000E+00 0.9000E+01
        1 -1    0    0  501    0 0.00000000E+00 0.00000000E+00 -.38705486E+04 0.38705486E+04 0.32000000E+00 0.0000E+00 0.9000E+01
       25  2    1    2    0    0 -.85924220E+02 -.13659817E+02 -.86864103E+03 0.92330566E+03 0.30064354E+03 0.0000E+00 0.0000E+00
       23  2    3    3    0    0 0.16767427E+01 -.65113851E+02 -.68726693E+03 0.69629627E+03 0.90829720E+02 0.0000E+00 0.0000E+00
       23  1    1    2    0    0 0.85924220E+02 0.13659817E+02 -.29732411E+04 0.29759112E+04 0.91188000E+02 0.0000E+00 0.9000E+01
      -11  1    4    4    0    0 0.43714309E+02 -.49535266E+02 -.45105672E+03 0.45586933E+03 0.51099893E-03 0.0000E+00 0.9000E+01
       11  1    4    4    0    0 -.42037567E+02 -.15578586E+02 -.23621022E+03 0.24042694E+03 0.51099893E-03 0.0000E+00 0.9000E+01
       23  1    3    3    0    0 -.87600963E+02 0.51454034E+02 -.18137410E+03 0.22700939E+03 0.91188000E+02 0.0000E+00 0.9000E+01
#aMCatNLO 1  0  0  1  2 0.31961366D+03 0.00000000D+00  -5  7  0 0.00000000D+00 0.00000000D+00 0.00000000D+00 0.00000000D+00 0.00000000D+00
  <mgrwgt>
 0.2060277951D-03    3    2    0
 0.333104255111944D+03 0.000000000000000D+00 0.000000000000000D+00 0.333104255111944D+03
 0.333104255111944D+03 0.000000000000000D+00 0.000000000000000D+00 -.333104255111944D+03
 0.271508461031143D+03 0.859242202620879D+02 0.136598169268158D+02 -.240482911745051D+03
 0.669859821426017D+02 0.437143094900905D+02 -.495352655752280D+02 -.110651892801326D+02
 0.450084094517812D+02 -.420375667961683D+02 -.155785856889495D+02 0.398842916057623D+01
 0.282705657598363D+03 -.876009629560102D+02 0.514540343373617D+02 0.247559671864607D+03
 0.000000000000000D+00 -.000000000000000D+00 -.000000000000000D+00 -.000000000000000D+00
 0.507418409030158D+03 0.000000000000000D+00 0.000000000000000D+00 0.507418409030158D+03
 0.554562627749298D+03 0.000000000000000D+00 0.000000000000000D+00 -.554562627749298D+03
 0.338713409372473D+03 0.199844739932350D+03 0.929600528437753D+02 -.240482911745051D+03
 0.779312465028936D+02 0.707684791244066D+02 -.307028195791206D+02 -.110651892801326D+02
 0.290979526561627D+02 -.282028688089825D+02 -.594823272532885D+01 0.398842916057623D+01
 0.293166500888467D+03 0.199069103935037D+02 0.126290418021560D+03 0.247559671864607D+03
 0.323071927359460D+03 -.262317260641278D+03 -.182599418560886D+03 -.471442187191399D+02
0.597698039106D-04 0.000000000000D+00 0.000000000000D+00 0.389198681216D-06 0.000000000000D+00  7 -1 1 23 -11 11 23 21 0 0.44103634D-02 0.59546916D+00 0.34865918D+05 0.34865918D+05 0.34865918D+05 0.11613272D+01  1  2  2  1  7  1       -1 0.198502504099D-03 0.100000000000D+01
-.196790426018D-05 0.000000000000D+00 -.229531784768D-06 0.389198681216D-06 0.000000000000D+00  7 -1 1 23 -11 11 23 21 2 0.44103634D-02 0.59546916D+00 0.34865918D+05 0.34865918D+05 0.34865918D+05 0.11613272D+01  1  2  3  1  7  1       -1 -.881449221700D-05 0.100000000000D+01
0.364798427480D-05 0.000000000000D+00 0.000000000000D+00 0.389198681216D-06 0.000000000000D+00  7 -1 1 23 -11 11 23 21 2 0.44103634D-02 0.59546916D+00 0.34865918D+05 0.34865918D+05 0.34865918D+05 0.11613272D+01  1  2 15  1  7  1       -1 0.163397832144D-04 0.100000000000D+01
  </mgrwgt>
  </event>
  <event>
  8     66 0.27784906E-05 0.80611400E+02 0.75467711E-02 0.97287902E-01
       -1 -1    0    0    0  501 0.00000000E+00 0.00000000E+00 0.83614201E+02 0.83614814E+02 0.32000000E+00 0.0000E+00 0.9000E+01
        1 -1    0    0  501    0 0.00000000E+00 0.00000000E+00 -.20781311E+04 0.20781311E+04 0.32000000E+00 0.0000E+00 0.9000E+01
       25  2    1    2    0    0 0.15517551E+03 0.31457784E+03 -.95465155E+03 0.10605312E+04 0.30054656E+03 0.0000E+00 0.0000E+00
       23  2    3    3    0    0 0.40773442E+02 0.17572296E+03 -.22027927E+03 0.29896283E+03 0.91185453E+02 0.0000E+00 0.0000E+00
       23  1    1    2    0    0 -.15517551E+03 -.31457784E+03 -.10398653E+04 0.11012147E+04 0.91188000E+02 0.0000E+00 0.9000E+01
      -13  1    4    4    0    0 0.35357682E+02 0.11469243E+02 -.32007065E+02 0.49052753E+02 0.10565837E+00 0.0000E+00 0.9000E+01
       13  1    4    4    0    0 0.54157596E+01 0.16425372E+03 -.18827220E+03 0.24991008E+03 0.10565837E+00 0.0000E+00 0.9000E+01
       23  1    3    3    0    0 0.11440206E+03 0.13885488E+03 -.73437229E+03 0.76156839E+03 0.91188000E+02 0.0000E+00 0.9000E+01
#aMCatNLO 1  0  0  2  1 0.28921442D+02 0.00000000D+00  -5  7  0 0.00000000D+00 0.00000000D+00 0.00000000D+00 0.00000000D+00 0.00000000D+00
  <mgrwgt>
 0.7704312588D-03    9    2    0
 0.416847645863050D+03 0.000000000000000D+00 0.000000000000000D+00 0.416847645863050D+03
 0.416847645863050D+03 0.000000000000000D+00 0.000000000000000D+00 -.416847645863050D+03
 0.367661219821631D+03 -.155175505192651D+03 -.314577841598563D+03 -.618131489258155D+02
 0.506189658496735D+02 0.353577222289048D+02 0.114690383095157D+02 0.343594578352000D+02
 0.197590386739504D+03 0.541571952735437D+01 0.164253924358961D+03 0.109696304616649D+03
 0.217824719315292D+03 0.114402063436392D+03 0.138854878930086D+03 -.822426135260336D+02
 0.000000000000000D+00 0.000000000000000D+00 -.000000000000000D+00 -.000000000000000D+00
 0.430906423814924D+03 0.000000000000000D+00 0.000000000000000D+00 0.430906423814924D+03
 0.432242663858632D+03 0.000000000000000D+00 0.000000000000000D+00 -.432242663858632D+03
 0.361768873574394D+03 -.162172124141911D+03 -.304040792188254D+03 -.618131489258155D+02
 0.503023696117966D+02 0.343896950876239D+02 0.129269067302726D+02 0.343594578352000D+02
 0.202352237583279D+03 0.157951072641799D+01 0.170031332272250D+03 0.109696304616649D+03
 0.219773312128690D+03 0.110204667816607D+03 0.145176241485491D+03 -.822426135260336D+02
 0.289522947753970D+02 0.159982505112627D+02 -.240936882997592D+02 -.133624004370803D+01
0.171284369526D-04 0.000000000000D+00 0.000000000000D+00 0.549484965861D-06 0.000000000000D+00  7 -1 1 23 -13 13 23 21 0 0.12863772D-01 0.31971252D+00 0.14655286D+06 0.14655286D+06 0.14655286D+06 0.11083496D+01  1  2  2  2  7  2        1 0.226905416484D-03 0.100000000000D+01
-.943191091391D-06 0.000000000000D+00 -.657777079189D-07 0.549484965861D-06 0.000000000000D+00  7 -1 1 23 -13 13 23 21 2 0.12863772D-01 0.31971252D+00 0.14655286D+06 0.14655286D+06 0.14655286D+06 0.11083496D+01  1  2  3  2  7  2        1 -.153490088353D-04 0.100000000000D+01
0.107851226653D-05 0.000000000000D+00 0.000000000000D+00 0.549484965861D-06 0.000000000000D+00  7 -1 1 23 -13 13 23 21 2 0.12863772D-01 0.31971252D+00 0.14655286D+06 0.14655286D+06 0.14655286D+06 0.11083496D+01  1  2 15  2  7  2        1 0.175511563448D-04 0.100000000000D+01
0.348230441031D-04 0.000000000000D+00 0.000000000000D+00 0.549484965861D-06 0.000000000000D+00  7 -1 1 23 -13 13 23 21 2 0.12863772D-01 0.33672353D+00 0.15838531D+06 0.15838531D+06 0.15838531D+06 0.11056925D+01  1  2 12  2  7  2        1 0.474853016681D-03 0.100000000000D+01
-.276205969301D-04 0.000000000000D+00 0.000000000000D+00 0.549484965861D-06 0.000000000000D+00  7 -1 1 23 -13 13 23 21 2 0.12863772D-01 0.31971252D+00 0.14655286D+06 0.14655286D+06 0.14655286D+06 0.11083496D+01  1  2  4  2  7  2        1 -.449483450582D-03 0.100000000000D+01
-.194904375107D-03 0.000000000000D+00 -.321051529508D-04 0.549484965861D-06 0.000000000000D+00  7 -1 1 23 -13 13 23 21 2 0.12863772D-01 0.33698748D+00 0.14655286D+06 0.14655286D+06 0.14655286D+06 0.11083496D+01  1  2  5  2  7  2        1 -.267121834312D-02 0.100000000000D+01
0.196366309243D-03 0.000000000000D+00 0.320607507721D-04 0.549484965861D-06 0.000000000000D+00  7 -1 1 23 -13 13 23 21 2 0.12863772D-01 0.31971252D+00 0.14655286D+06 0.14655286D+06 0.14655286D+06 0.11083496D+01  1  2  6  2  7  2        1 0.319556476205D-02 0.100000000000D+01
0.389194779942D-06 0.000000000000D+00 0.000000000000D+00 0.549484965861D-06 0.000000000000D+00  7 -1 21 23 -13 13 23 -1 2 0.12863772D-01 0.33672353D+00 0.15838531D+06 0.15838531D+06 0.15838531D+06 0.11056925D+01  1  2 12  4  7  2        1 0.237868950185D-05 0.100000000000D+01
-.174888075369D-05 0.000000000000D+00 -.293217690282D-06 0.549484965861D-06 0.000000000000D+00  7 -1 21 23 -13 13 23 -1 2 0.12863772D-01 0.33698748D+00 0.14655286D+06 0.14655286D+06 0.14655286D+06 0.11083496D+01  1  2  5  4  7  2        1 -.107709797556D-04 0.100000000000D+01
  </mgrwgt>
  </event>
  <event>
  8     66 0.27784906E-05 0.57980344E+03 0.75467711E-02 0.83778826E-01
       -1 -1    0    0    0  501 0.00000000E+00 0.00000000E+00 0.20497425E+04 0.20497426E+04 0.32000000E+00 0.0000E+00 0.9000E+01
        1 -1    0    0  501    0 0.00000000E+00 0.00000000E+00 -.99118918E+03 0.99118923E+03 0.32000000E+00 0.0000E+00 0.9000E+01
       25  2    1    2    0    0 -.68503455E+03 0.84312051E+03 0.14903011E+04 0.18683936E+04 0.29962082E+03 0.0000E+00 0.0000E+00
       23  2    3    3    0    0 -.56536673E+03 0.66358478E+03 0.12933608E+04 0.15623638E+04 0.90632815E+02 0.0000E+00 0.0000E+00
       23  1    1    2    0    0 0.68503455E+03 -.84312051E+03 -.43174773E+03 0.11725382E+04 0.91188000E+02 0.0000E+00 0.9000E+01
      -11  1    4    4    0    0 -.48369562E+02 0.81813782E+02 0.10303819E+03 0.14017838E+03 0.51099893E-03 0.0000E+00 0.9000E+01
       11  1    4    4    0    0 -.51699717E+03 0.58177099E+03 0.11903226E+04 0.14221854E+04 0.51099893E-03 0.0000E+00 0.9000E+01
       23  1    3    3    0    0 -.11966782E+03 0.17953574E+03 0.19694033E+03 0.30602976E+03 0.91188000E+02 0.0000E+00 0.9000E+01
#aMCatNLO 1  0  0  1  2 0.68368829D+03 0.00000000D+00  -5  7  0 0.00000000D+00 0.00000000D+00 0.00000000D+00 0.00000000D+00 0.00000000D+00
  <mgrwgt>
 0.1880996151D-03    9    2    0
 0.142537108996456D+04 0.000000000000000D+00 0.000000000000000D+00 0.142537108996456D+04
 0.142537108996456D+04 0.000000000000000D+00 0.000000000000000D+00 -.142537108996456D+04
 0.141108404163907D+04 0.685034548230728D+03 -.843120514647142D+03 -.895945526656574D+03
 0.111269783546032D+03 -.483695624552152D+02 0.818137816520135D+02 0.578606540757058D+02
 0.107507054323244D+04 -.516997169292324D+03 0.581770994976984D+03 0.741642170641145D+03
 0.253317811511564D+03 -.119667816483188D+03 0.179535738018145D+03 0.964427019397237D+02
 0.000000000000000D+00 0.000000000000000D+00 -.000000000000000D+00 0.000000000000000D+00
 0.237798024034870D+04 0.000000000000000D+00 0.000000000000000D+00 0.237798024034870D+04
 0.159389634975389D+04 0.000000000000000D+00 0.000000000000000D+00 -.159389634975389D+04
 0.120749779371802D+04 0.417265155020810D+03 -.687682393376047D+03 -.895945526656574D+03
 0.134308167690899D+03 -.734817274066994D+02 0.963912047634312D+02 0.578606540757058D+02
 0.128283545067956D+04 -.758110526419749D+03 0.721735487542692D+03 0.741642170641145D+03
 0.306938478129131D+03 -.176958172924797D+03 0.212792359566575D+03 0.964427019397237D+02
 0.104029669988498D+04 0.591285271730436D+03 -.343236658496652D+03 0.784083890594817D+03
0.729543476824D-02 0.000000000000D+00 0.000000000000D+00 0.147023846708D-04 0.000000000000D+00  7 -1 1 23 -11 11 23 21 0 0.31534501D+00 0.15249065D+00 0.12075093D+07 0.12075093D+07 0.12075093D+07 0.10424559D+01  1  2  2  1  7  1       -1 0.176806994303D-03 0.100000000000D+01
-.371950421712D-03 0.000000000000D+00 -.280163904421D-04 0.147023846708D-04 0.000000000000D+00  7 -1 1 23 -11 11 23 21 2 0.31534501D+00 0.15249065D+00 0.12075093D+07 0.12075093D+07 0.12075093D+07 0.10424559D+01  1  2  3  1  7  1       -1 -.979599823887D-05 0.100000000000D+01
0.467717812669D-03 0.000000000000D+00 0.000000000000D+00 0.147023846708D-04 0.000000000000D+00  7 -1 1 23 -11 11 23 21 2 0.31534501D+00 0.15249065D+00 0.12075093D+07 0.12075093D+07 0.12075093D+07 0.10424559D+01  1  2 15  1  7  1       -1 0.123182085615D-04 0.100000000000D+01
0.183811114588D-02 0.000000000000D+00 0.000000000000D+00 0.147023846708D-04 0.000000000000D+00  7 -1 1 23 -11 11 23 21 2 0.53423033D+00 0.15249065D+00 0.21793711D+07 0.21793711D+07 0.21793711D+07 0.10260584D+01  1  2 12  1  7  1       -1 0.424929971291D-06 0.100000000000D+01
-.496827130949D-02 0.000000000000D+00 0.000000000000D+00 0.147023846708D-04 0.000000000000D+00  7 -1 1 23 -11 11 23 21 2 0.31534501D+00 0.15249065D+00 0.12075093D+07 0.12075093D+07 0.12075093D+07 0.10424559D+01  1  2  4  1  7  1       -1 -.130848559800D-03 0.100000000000D+01
-.495014056508D-02 0.000000000000D+00 -.178938655877D-02 0.147023846708D-04 0.000000000000D+00  7 -1 1 23 -11 11 23 21 2 0.53918059D+00 0.15249065D+00 0.12075093D+07 0.12075093D+07 0.12075093D+07 0.10424559D+01  1  2  5  1  7  1       -1 -.115422052064D-05 0.100000000000D+01
0.535128687927D-02 0.000000000000D+00 0.155960155163D-02 0.147023846708D-04 0.000000000000D+00  7 -1 1 23 -11 11 23 21 2 0.31534501D+00 0.15249065D+00 0.12075093D+07 0.12075093D+07 0.12075093D+07 0.10424559D+01  1  2  6  1  7  1       -1 0.140935979058D-03 0.100000000000D+01
0.108134818706D-03 0.000000000000D+00 0.000000000000D+00 0.147023846708D-04 0.000000000000D+00  7 21 1 23 -11 11 23 1 2 0.53423033D+00 0.15249065D+00 0.21793711D+07 0.21793711D+07 0.21793711D+07 0.10260584D+01  1  2 12  3  7  1       -1 0.616100225501D-06 0.100000000000D+01
-.208292744018D-03 0.000000000000D+00 -.106772896989D-03 0.147023846708D-04 0.000000000000D+00  7 21 1 23 -11 11 23 1 2 0.53918059D+00 0.15249065D+00 0.12075093D+07 0.12075093D+07 0.12075093D+07 0.10424559D+01  1  2  5  3  7  1       -1 -.120381850808D-05 0.100000000000D+01
  </mgrwgt>
  </event>
  <event>
  9     66 -.27784906E-05 0.26908996E+03 0.75467711E-02 0.10174221E+00
       -1 -1    0    0    0  501 0.00000000E+00 0.00000000E+00 0.11996330E+03 0.11996373E+03 0.32000000E+00 0.0000E+00 0.9000E+01
        1 -1    0    0  502    0 0.00000000E+00 0.00000000E+00 -.80003124E+03 0.80003130E+03 0.32000000E+00 0.0000E+00 0.9000E+01
       25  2    1    2    0    0 0.18472588E+03 -.38524796E+02 -.57368268E+03 0.67778920E+03 0.30769882E+03 0.0000E+00 0.0000E+00
       23  2    3    3    0    0 0.49590787E+00 0.65323412E+02 -.29783466E+03 0.31843907E+03 0.91818080E+02 0.0000E+00 0.0000E+00
       23  1    1    2    0    0 -.16757223E+03 0.48254859E+02 -.89285501E+02 0.21609289E+03 0.91188000E+02 0.0000E+00 0.9000E+01
      -13  1    4    4    0    0 -.24678419E+02 -.13927048E+02 -.57038021E+02 0.63689356E+02 0.10565837E+00 0.0000E+00 0.9000E+01
       13  1    4    4    0    0 0.25174327E+02 0.79250460E+02 -.24079664E+03 0.25474971E+03 0.10565837E+00 0.0000E+00 0.9000E+01
       23  1    3    3    0    0 0.18422998E+03 -.10384821E+03 -.27584802E+03 0.35935013E+03 0.91188000E+02 0.0000E+00 0.9000E+01
       21  1    1    2  502  501 -.17153655E+02 -.97300636E+01 -.17099752E+02 0.26112948E+02 0.75000000E+00 0.0000E+00 0.9000E+01
#aMCatNLO 2  0  0  2  1 0.19721106D+02 0.00000000D+00  -5  7  0 0.00000000D+00 0.00000000D+00 0.00000000D+00 0.00000000D+00 0.00000000D+00
  <mgrwgt>
 -.1848104751D-03    3    2    0
 0.299628704804904D+03 0.000000000000000D+00 0.000000000000000D+00 0.299628704804904D+03
 0.299628704804904D+03 0.000000000000000D+00 0.000000000000000D+00 -.299628704804904D+03
 0.227570230762127D+03 -.174025595629348D+03 0.445944195703782D+02 0.105827162837143D+03
 0.328325322340802D+02 -.256044163740128D+02 -.144524566232639D+02 -.146121707011921D+02
 0.111592744279962D+03 0.219531876060093D+02 0.774232812509622D+02 -.773086906511986D+02
 0.227261902333638D+03 0.177676824397352D+03 -.107565244198077D+03 -.139063014847527D+02
 0.000000000000000D+00 -.000000000000000D+00 -.000000000000000D+00 0.000000000000000D+00
 0.311485494251844D+03 0.000000000000000D+00 0.000000000000000D+00 0.311485494251844D+03
 0.308105062397244D+03 0.000000000000000D+00 0.000000000000000D+00 -.308105062397244D+03
 0.223436045436209D+03 -.167572348305958D+03 0.482548934849006D+02 0.105827162837143D+03
 0.318827212567898D+02 -.246784347227312D+02 -.139272122757310D+02 -.146121707011921D+02
 0.113538674782009D+03 0.251744925060633D+02 0.792505012483472D+02 -.773086906511986D+02
 0.230724383625548D+03 0.184229945562158D+03 -.103848118868705D+03 -.139063014847527D+02
 0.200087315485313D+02 -.171536550395321D+02 -.973006358881228D+01 0.338043185460035D+01
-.620926467186D-05 0.000000000000D+00 0.000000000000D+00 0.440749126890D-08 0.000000000000D+00  7 -1 1 23 -13 13 23 21 2 0.17752997D-01 0.12536913D+00 0.77924960D+05 0.77924960D+05 0.77924960D+05 0.11307211D+01  1  2 13  2  7  2        1 -.481925317988D-03 0.100000000000D+01
-.123619934620D-05 0.000000000000D+00 0.000000000000D+00 0.440749126890D-08 0.000000000000D+00  7 -1 1 23 -13 13 23 21 2 0.17752997D-01 0.11969292D+00 0.72409404D+05 0.72409404D+05 0.72409404D+05 0.11334123D+01  1  2  8  2  7  2        1 -.103707116910D-03 0.100000000000D+01
0.533547079617D-05 0.000000000000D+00 0.000000000000D+00 0.440749126890D-08 0.773901673422D-10  7 -1 1 23 -13 13 23 21 2 0.18455511D-01 0.12307897D+00 0.77924960D+05 0.77924960D+05 0.77924960D+05 0.11307211D+01  1  2  1  2  7  2        1 0.400821959805D-03 0.100000000000D+01
  </mgrwgt>
  </event>
  <event>
  9     66 0.27784906E-05 0.17902933E+03 0.75467711E-02 0.10765980E+00
       21 -1    0    0  502  501 0.00000000E+00 0.00000000E+00 0.99604184E+02 0.99607007E+02 0.75000000E+00 0.0000E+00 0.9000E+01
        1 -1    0    0  501    0 0.00000000E+00 0.00000000E+00 -.41481258E+03 0.41481271E+03 0.32000000E+00 0.0000E+00 0.9000E+01
       25  2    1    2    0    0 0.15989570E+02 -.12928087E+02 -.25583178E+03 0.39562686E+03 0.30107791E+03 0.0000E+00 0.0000E+00
       23  2    3    3    0    0 0.62983288E+02 0.81381495E+02 -.47813455E+02 0.14524798E+03 0.90669773E+02 0.0000E+00 0.0000E+00
       23  1    1    2    0    0 -.14171373E+02 0.61124924E+01 -.45165370E+02 0.10292401E+03 0.91188000E+02 0.0000E+00 0.9000E+01
      -13  1    4    4    0    0 0.12587652E+02 0.74181324E+02 0.24106873E+00 0.75242190E+02 0.10565837E+00 0.0000E+00 0.9000E+01
       13  1    4    4    0    0 0.50395636E+02 0.72001706E+01 -.48054524E+02 0.70005793E+02 0.10565837E+00 0.0000E+00 0.9000E+01
       23  1    3    3    0    0 -.46993717E+02 -.94309582E+02 -.20801832E+03 0.25037887E+03 0.91188000E+02 0.0000E+00 0.9000E+01
        1  1    1    2  502    0 -.18181971E+01 0.68155946E+01 -.14211250E+02 0.15868844E+02 0.32000000E+00 0.0000E+00 0.9000E+01
#aMCatNLO 2  0  0  1  2 0.70539471D+01 0.00000000D+00  -5  7  0 0.00000000D+00 0.00000000D+00 0.00000000D+00 0.00000000D+00 0.00000000D+00
  <mgrwgt>
 0.3695813252D-04    1    2    0
 0.198685636089971D+03 0.000000000000000D+00 0.000000000000000D+00 0.198685636089971D+03
 0.198685636089971D+03 0.000000000000000D+00 0.000000000000000D+00 -.198685636089971D+03
 0.950940567177368D+02 -.146156730549946D+02 0.774684496523434D+01 0.213072000335633D+02
 0.957903244281791D+02 0.121525619809670D+02 0.758089113243847D+02 0.572809781268278D+02
 0.513263410719742D+02 0.501629821107359D+02 0.808052113286372D+01 -.726455035194551D+01
 0.155160549962052D+03 -.476998710367083D+02 -.916362774224828D+02 -.713236278084456D+02
 0.000000000000000D+00 -.000000000000000D+00 0.000000000000000D+00 -.000000000000000D+00
 0.200381505823436D+03 0.000000000000000D+00 0.000000000000000D+00 0.200381505823436D+03
 0.206190075585923D+03 0.000000000000000D+00 0.000000000000000D+00 -.206190075585923D+03
 0.949092918834280D+02 -.141810212050762D+02 0.611753268275879D+01 0.213072000335633D+02
 0.945607685796052D+02 0.125880093313371D+02 0.741766170721858D+02 0.572809781268278D+02
 0.514253564749078D+02 0.503980369966093D+02 0.719940717307890D+01 -.726455035194551D+01
 0.156538459478941D+03 -.469868280715779D+02 -.943091514968430D+02 -.713236278084456D+02
 0.913770499247662D+01 -.181819705129236D+01 0.681559456881947D+01 -.580856976248735D+01
0.103701485235D-07 0.000000000000D+00 0.000000000000D+00 0.207779543559D-07 0.483870714733D-11  7 21 1 23 -13 13 23 1 2 0.15323734D-01 0.63816660D-01 0.33312292D+05 0.33312292D+05 0.33312292D+05 0.11631393D+01  1  2  1  3  7  1       -1 0.369581325191D-04 0.100000000000D+01
  </mgrwgt>
  </event>
  <event>
  8     66 0.27784906E-05 0.17058191E+03 0.75467711E-02 0.10198392E+00
       -1 -1    0    0    0  501 0.00000000E+00 0.00000000E+00 0.14102470E+03 0.14102506E+03 0.32000000E+00 0.0000E+00 0.9000E+01
        1 -1    0    0  501    0 0.00000000E+00 0.00000000E+00 -.34597300E+03 0.34597315E+03 0.32000000E+00 0.0000E+00 0.9000E+01
       25  2    1    2    0    0 -.44183883E+02 0.72258388E+02 -.11100028E+03 0.33106562E+03 0.30018310E+03 0.0000E+00 0.0000E+00
       23  2    3    3    0    0 0.95694241E+02 0.53040728E+01 -.50480035E+02 0.14125855E+03 0.90665454E+02 0.0000E+00 0.0000E+00
       23  1    1    2    0    0 0.44183883E+02 -.72258388E+02 -.93948018E+02 0.15593259E+03 0.91188000E+02 0.0000E+00 0.9000E+01
      -11  1    4    4    0    0 0.46966816E+02 0.47944022E+02 -.23468228E+02 0.71100413E+02 0.51099893E-03 0.0000E+00 0.9000E+01
       11  1    4    4    0    0 0.48727425E+02 -.42639949E+02 -.27011806E+02 0.70158142E+02 0.51099893E-03 0.0000E+00 0.9000E+01
       23  1    3    3    0    0 -.13987812E+03 0.66954315E+02 -.60520249E+02 0.18980706E+03 0.91188000E+02 0.0000E+00 0.9000E+01
#aMCatNLO 1  0  0  1  2 0.10081014D+03 0.00000000D+00  -5  7  0 0.00000000D+00 0.00000000D+00 0.00000000D+00 0.00000000D+00 0.00000000D+00
  <mgrwgt>
 0.3317350306D-03    9    2    0
 0.220886535457208D+03 0.000000000000000D+00 0.000000000000000D+00 0.220886535457208D+03
 0.220886535457208D+03 0.000000000000000D+00 0.000000000000000D+00 -.220886535457208D+03
 0.128311132799486D+03 0.441838832226138D+02 -.722583877621873D+02 -.312250751426963D+02
 0.674916647238091D+02 0.469668155666831D+02 0.479440216350222D+02 0.711433989747153D+01
 0.648089874690016D+02 0.487274251705131D+02 -.426399488037271D+02 0.277085889658599D+01
 0.181161285922120D+03 -.139878123959810D+03 0.669543149308922D+02 0.213398763486388D+02
 0.000000000000000D+00 -.000000000000000D+00 -.000000000000000D+00 0.000000000000000D+00
 0.299477761113331D+03 0.000000000000000D+00 0.000000000000000D+00 0.299477761113331D+03
 0.261409815568674D+03 0.000000000000000D+00 0.000000000000000D+00 -.261409815568674D+03
 0.117044405428581D+03 0.488179375964667D+02 -.450105004336813D+02 -.312250751426963D+02
 0.818092259980085D+02 0.497866762907009D+02 0.645245882601465D+02 0.711433989747153D+01
 0.587467998008260D+02 0.510610355733904D+02 -.289184970907288D+02 0.277085889658599D+01
 0.195528834346924D+03 -.132763540315085D+03 0.108787525743976D+03 0.213398763486388D+02
 0.107758311107666D+03 -.169021091454726D+02 -.993831164797123D+02 0.380679455446573D+02
0.179088238337D-05 0.000000000000D+00 0.000000000000D+00 0.121463587616D-06 0.000000000000D+00  7 -1 1 23 -11 11 23 21 0 0.21696146D-01 0.53226654D-01 0.47571794D+05 0.47571794D+05 0.47571794D+05 0.11492020D+01  1  2  2  1  7  1       -1 0.263494918369D-03 0.100000000000D+01
-.994741032966D-07 0.000000000000D+00 -.687745990230D-08 0.121463587616D-06 0.000000000000D+00  7 -1 1 23 -11 11 23 21 2 0.21696146D-01 0.53226654D-01 0.47571794D+05 0.47571794D+05 0.47571794D+05 0.11492020D+01  1  2  3  1  7  1       -1 -.193289359064D-04 0.100000000000D+01
0.117687909146D-06 0.000000000000D+00 0.000000000000D+00 0.121463587616D-06 0.000000000000D+00  7 -1 1 23 -11 11 23 21 2 0.21696146D-01 0.53226654D-01 0.47571794D+05 0.47571794D+05 0.47571794D+05 0.11492020D+01  1  2 15  1  7  1       -1 0.228680830231D-04 0.100000000000D+01
0.702086494132D-06 0.000000000000D+00 0.000000000000D+00 0.121463587616D-06 0.000000000000D+00  7 -1 1 23 -11 11 23 21 2 0.30836230D-01 0.53226654D-01 0.75118236D+05 0.75118236D+05 0.75118236D+05 0.11320635D+01  1  2 12  1  7  1       -1 0.746740449109D-04 0.100000000000D+01
-.957516010287D-06 0.000000000000D+00 0.000000000000D+00 0.121463587616D-06 0.000000000000D+00  7 -1 1 23 -11 11 23 21 2 0.21696146D-01 0.53226654D-01 0.47571794D+05 0.47571794D+05 0.47571794D+05 0.11492020D+01  1  2  4  1  7  1       -1 -.186056118918D-03 0.100000000000D+01
-.145163702623D-05 0.000000000000D+00 -.681637338581D-06 0.121463587616D-06 0.000000000000D+00  7 -1 1 23 -11 11 23 21 2 0.34392697D-01 0.53226654D-01 0.47571794D+05 0.47571794D+05 0.47571794D+05 0.11492020D+01  1  2  5  1  7  1       -1 -.132705583726D-03 0.100000000000D+01
0.165351646498D-05 0.000000000000D+00 0.615186641728D-06 0.121463587616D-06 0.000000000000D+00  7 -1 1 23 -11 11 23 21 2 0.21696146D-01 0.53226654D-01 0.47571794D+05 0.47571794D+05 0.47571794D+05 0.11492020D+01  1  2  6  1  7  1       -1 0.321296827141D-03 0.100000000000D+01
0.304264451519D-07 0.000000000000D+00 0.000000000000D+00 0.121463587616D-06 0.000000000000D+00  7 21 1 23 -11 11 23 1 2 0.30836230D-01 0.53226654D-01 0.75118236D+05 0.75118236D+05 0.75118236D+05 0.11320635D+01  1  2 12  3  7  1       -1 0.352374939883D-04 0.100000000000D+01
-.488737828987D-07 0.000000000000D+00 -.360615581527D-07 0.121463587616D-06 0.000000000000D+00  7 21 1 23 -11 11 23 1 2 0.34392697D-01 0.53226654D-01 0.47571794D+05 0.47571794D+05 0.47571794D+05 0.11492020D+01  1  2  5  3  7  1       -1 -.477456983111D-04 0.100000000000D+01
  </mgrwgt>
  </event>
  <event>
  9     66 0.27784906E-05 0.20844109E+03 0.75467711E-02 0.10329713E+00
       21 -1    0    0  502  501 0.00000000E+00 0.00000000E+00 0.19581586E+03 0.19581729E+03 0.75000000E+00 0.0000E+00 0.9000E+01
        1 -1    0    0  501    0 0.00000000E+00 0.00000000E+00 -.52618074E+03 0.52618084E+03 0.32000000E+00 0.0000E+00 0.9000E+01
       25  2    1    2    0    0 0.83432053E+01 -.11424436E+03 -.19523071E+03 0.38329763E+03 0.30932291E+03 0.0000E+00 0.0000E+00
       23  2    3    3    0    0 0.88976594E+02 -.15436246E+03 -.10198270E+03 0.22479953E+03 0.91595596E+02 0.0000E+00 0.0000E+00
       23  1    1    2    0    0 -.48768521E+02 0.51884189E+02 0.59687579E+02 0.13018524E+03 0.91188000E+02 0.0000E+00 0.9000E+01
      -13  1    4    4    0    0 0.57606727E+02 -.85761344E+02 -.10758561E+03 0.14915836E+03 0.10565837E+00 0.0000E+00 0.9000E+01
       13  1    4    4    0    0 0.31369867E+02 -.68601119E+02 0.56029096E+01 0.75641165E+02 0.10565837E+00 0.0000E+00 0.9000E+01
       23  1    3    3    0    0 -.80633389E+02 0.40118105E+02 -.93248011E+02 0.15849810E+03 0.91188000E+02 0.0000E+00 0.9000E+01
        1  1    1    2  502    0 0.40425316E+02 0.62360168E+02 -.19482176E+03 0.20851526E+03 0.32000000E+00 0.0000E+00 0.9000E+01
#aMCatNLO 2  0  0  1  2 0.74316867D+02 0.00000000D+00  -5  7  0 0.00000000D+00 0.00000000D+00 0.00000000D+00 0.00000000D+00 0.00000000D+00
  <mgrwgt>
 0.3779103416D-04    1    2    0
 0.244831432161064D+03 0.000000000000000D+00 0.000000000000000D+00 0.244831432161064D+03
 0.244831432161064D+03 0.000000000000000D+00 0.000000000000000D+00 -.244831432161064D+03
 0.155622829184910D+03 -.361714160302810D+02 0.713179434686205D+02 0.975120157790142D+02
 0.120467709699871D+03 0.676896917011139D+02 -.702071188954501D+02 -.707215326059943D+02
 0.747243844393848D+02 0.377181515145213D+02 -.588073024865003D+02 0.265099198496308D+02
 0.138847940997961D+03 -.692364271853542D+02 0.576964779133300D+02 -.533004030226507D+02
 0.000000000000000D+00 0.000000000000000D+00 0.000000000000000D+00 -.000000000000000D+00
 0.256607336813412D+03 0.000000000000000D+00 0.000000000000000D+00 0.256607336813412D+03
 0.401527741540792D+03 0.000000000000000D+00 0.000000000000000D+00 -.401527741540792D+03
 0.151308625019587D+03 -.487690225409889D+02 0.518848521288045D+02 0.975120157790142D+02
 0.125200090727880D+03 0.576065730120859D+02 -.857613566236673D+02 -.707215326059943D+02
 0.799554954985363D+02 0.313695149186669D+02 -.686007211605691D+02 0.265099198496308D+02
 0.138806136583141D+03 -.806323814531427D+02 0.401170575685159D+02 -.533004030226507D+02
 0.162864730525059D+03 0.404253160633787D+02 0.623601680869160D+02 -.144920404727380D+03
0.537519232084D-07 0.000000000000D+00 0.000000000000D+00 0.109842774495D-08 0.162520695479D-13  7 21 1 23 -13 13 23 1 2 0.30125616D-01 0.80950954D-01 0.61733319D+05 0.61733319D+05 0.61733319D+05 0.11393287D+01  1  2  1  3  7  1       -1 0.377910341568D-04 0.100000000000D+01
  </mgrwgt>
  </event>
  <event>
  8     66 0.27784906E-05 0.24661031E+03 0.75467711E-02 0.98789007E-01
       -3 -1    0    0    0  501 0.00000000E+00 0.00000000E+00 0.65977002E+02 0.65978897E+02 0.50000000E+00 0.0000E+00 0.9000E+01
        3 -1    0    0  501    0 0.00000000E+00 0.00000000E+00 -.14273558E+04 0.14273558E+04 0.50000000E+00 0.0000E+00 0.9000E+01
       25  2    1    2    0    0 0.45197146E+02 0.18271654E+03 -.53928411E+03 0.64505237E+03 0.29972838E+03 0.0000E+00 0.0000E+00
       23  2    3    3    0    0 0.77349347E+02 0.88707305E+02 -.86198620E+02 0.17232284E+03 0.91722692E+02 0.0000E+00 0.0000E+00
       23  1    1    2    0    0 -.45197146E+02 -.18271654E+03 -.82209464E+03 0.84828236E+03 0.91188000E+02 0.0000E+00 0.9000E+01
      -13  1    4    4    0    0 0.14273136E+02 0.84825030E+02 -.50041326E+02 0.99514590E+02 0.10565837E+00 0.0000E+00 0.9000E+01
       13  1    4    4    0    0 0.63076212E+02 0.38822755E+01 -.36157294E+02 0.72808252E+02 0.10565837E+00 0.0000E+00 0.9000E+01
       23  1    3    3    0    0 -.32152202E+02 0.94009234E+02 -.45308549E+03 0.47272953E+03 0.91188000E+02 0.0000E+00 0.9000E+01
#aMCatNLO 1  0  0  1  2 0.17395797D+03 0.00000000D+00  -5  7  0 0.00000000D+00 0.00000000D+00 0.00000000D+00 0.00000000D+00 0.00000000D+00
  <mgrwgt>
 0.1329752105D-04    4    2    0
 0.306878044158169D+03 0.000000000000000D+00 0.000000000000000D+00 0.306878044158169D+03
 0.306878044158169D+03 0.000000000000000D+00 0.000000000000000D+00 -.306878044158169D+03
 0.240465791143821D+03 -.451971456987460D+02 -.182716538893849D+03 -.118660986856518D+03
 0.131132585709589D+03 0.142730711893684D+02 0.848251364715196D+02 0.989784355114489D+02
 0.969494135820909D+02 0.630762760105676D+02 0.388216847871151D+01 0.735221120918931D+02
 0.145208297880837D+03 -.321522015011900D+02 0.940092339436179D+02 -.538395607468244D+02
 0.000000000000000D+00 -.000000000000000D+00 -.000000000000000D+00 -.000000000000000D+00
 0.377480247382897D+03 0.000000000000000D+00 0.000000000000000D+00 0.377480247382897D+03
 0.448257477627539D+03 0.000000000000000D+00 0.000000000000000D+00 -.448257477627539D+03
 0.221348925182714D+03 0.156647859846563D+02 -.162340013594415D+03 -.118660986856518D+03
 0.147767038729909D+03 0.510288723560883D+02 0.971309488514262D+02 0.989784355114489D+02
 0.118070594424683D+03 0.914134696408802D+02 0.133694378924836D+02 0.735221120918931D+02
 0.150745970491001D+03 0.685120793178739D+01 0.107067543745704D+03 -.538395607468244D+02
 0.187805196182129D+03 -.164958335913412D+03 -.552279168951989D+02 -.707772302446414D+02
0.644602347493D-05 0.000000000000D+00 0.000000000000D+00 0.331292748474D-06 0.000000000000D+00  7 -3 3 23 -13 13 23 21 0 0.10150461D-01 0.21959335D+00 0.60816647D+05 0.60816647D+05 0.60816647D+05 0.11398885D+01  1  2  2  1  7  1       -3 0.166928441513D-04 0.100000000000D+01
-.337298005080D-06 0.000000000000D+00 -.247544274207D-07 0.331292748474D-06 0.000000000000D+00  7 -3 3 23 -13 13 23 21 2 0.10150461D-01 0.21959335D+00 0.60816647D+05 0.60816647D+05 0.60816647D+05 0.11398885D+01  1  2  3  1  7  1       -3 -.113495067440D-05 0.100000000000D+01
0.404106916093D-06 0.000000000000D+00 0.000000000000D+00 0.331292748474D-06 0.000000000000D+00  7 -3 3 23 -13 13 23 21 2 0.10150461D-01 0.21959335D+00 0.60816647D+05 0.60816647D+05 0.60816647D+05 0.11398885D+01  1  2 15  1  7  1       -3 0.135975134760D-05 0.100000000000D+01
-.107587100755D-05 0.000000000000D+00 0.000000000000D+00 0.331292748474D-06 0.000000000000D+00  7 -3 3 23 -13 13 23 21 2 0.10150461D-01 0.21959335D+00 0.60816647D+05 0.60816647D+05 0.60816647D+05 0.11398885D+01  1  2  4  1  7  1       -3 -.362012376949D-05 0.100000000000D+01
  </mgrwgt>
  </event>
  <event>
  9     66 -.27784906E-05 0.38911106E+03 0.75467711E-02 0.97425590E-01
       -1 -1    0    0    0  502 0.00000000E+00 0.00000000E+00 0.53367318E+03 0.53367327E+03 0.32000000E+00 0.0000E+00 0.9000E+01
        1 -1    0    0  501    0 0.00000000E+00 0.00000000E+00 -.42658032E+03 0.42658044E+03 0.32000000E+00 0.0000E+00 0.9000E+01
       25  2    1    2    0    0 -.25413696E+03 -.24207098E+03 0.26839717E+03 0.53493311E+03 0.30155006E+03 0.0000E+00 0.0000E+00
       23  2    3    3    0    0 -.54671198E+02 -.12444173E+03 0.23409353E+03 0.28370568E+03 0.84937916E+02 0.0000E+00 0.0000E+00
       23  1    1    2    0    0 0.26248642E+03 0.24481623E+03 -.17454667E+03 0.40940921E+03 0.91188000E+02 0.0000E+00 0.9000E+01
      -11  1    4    4    0    0 -.65520175E+02 -.46870793E+02 0.13732505E+03 0.15921034E+03 0.51099893E-03 0.0000E+00 0.9000E+01
       11  1    4    4    0    0 0.10848977E+02 -.77570934E+02 0.96768480E+02 0.12449534E+03 0.51099893E-03 0.0000E+00 0.9000E+01
       23  1    3    3    0    0 -.19946576E+03 -.11762925E+03 0.34303640E+02 0.25122743E+03 0.91188000E+02 0.0000E+00 0.9000E+01
       21  1    1    2  501  502 -.83494613E+01 -.27452550E+01 0.13242361E+02 0.15911397E+02 0.75000000E+00 0.0000E+00 0.9000E+01
#aMCatNLO 2  0  0  1  2 0.87891939D+01 0.00000000D+00  -5  7  0 0.00000000D+00 0.00000000D+00 0.00000000D+00 0.00000000D+00 0.00000000D+00
  <mgrwgt>
 -.2499798929D-03    3    2    0
 0.469813058547569D+03 0.000000000000000D+00 0.000000000000000D+00 0.469813058547569D+03
 0.469813058547569D+03 0.000000000000000D+00 0.000000000000000D+00 -.469813058547569D+03
 0.425850259920284D+03 0.258688962888154D+03 0.243567652222440D+03 -.216305367018189D+03
 0.147012485159483D+03 -.668232668764071D+02 -.472992426863053D+02 0.122106934438768D+03
 0.115585136112876D+03 0.982251796980420D+01 -.779084278808366D+02 0.848157927281323D+02
 0.251178235902495D+03 -.201688213981551D+03 -.118359981655298D+03 0.938263985128924D+01
 0.000000000000000D+00 -.000000000000000D+00 -.000000000000000D+00 0.000000000000000D+00
 0.483017321538381D+03 0.000000000000000D+00 0.000000000000000D+00 0.483017321538381D+03
 0.471298486092329D+03 0.000000000000000D+00 0.000000000000000D+00 -.471298486092329D+03
 0.428879202700483D+03 0.262486417190603D+03 0.244816233437591D+03 -.216305367018189D+03
 0.146286937325367D+03 -.655201748425770D+02 -.468707934923269D+02 0.122106934438768D+03
 0.115449854064032D+03 0.108489770493515D+02 -.775709340171137D+02 0.848157927281323D+02
 0.249051228844220D+03 -.199465758086220D+03 -.117629250891632D+03 0.938263985128924D+01
 0.146485846966073D+02 -.834946131115735D+01 -.274525503651843D+01 0.117188354460516D+02
-.601376608454D-04 0.000000000000D+00 0.000000000000D+00 0.565585755140D-08 0.000000000000D+00  7 -1 1 23 -11 11 23 21 2 0.82226121D-01 0.65419585D-01 0.15479717D+06 0.15479717D+06 0.15479717D+06 0.11064746D+01  1  2 13  1  7  1       -1 -.770524370205D-03 0.100000000000D+01
-.321151139147D-03 0.000000000000D+00 0.000000000000D+00 0.565585755140D-08 0.000000000000D+00  7 -1 1 23 -11 11 23 21 2 0.79857492D-01 0.65419585D-01 0.15140742D+06 0.15140742D+06 0.15140742D+06 0.11072320D+01  1  2  8  1  7  1       -1 -.437636391060D-02 0.100000000000D+01
0.382644001336D-03 0.000000000000D+00 0.000000000000D+00 0.565585755140D-08 0.478320644291D-09  7 -1 1 23 -11 11 23 21 2 0.82101915D-01 0.65626425D-01 0.15479717D+06 0.15479717D+06 0.15479717D+06 0.11064746D+01  1  2  1  1  7  1       -1 0.489690838788D-02 0.100000000000D+01
  </mgrwgt>
  </event>
  <event>
  8     66 0.27784906E-05 0.83102183E+02 0.75467711E-02 0.10462645E+00
       -1 -1    0    0    0  501 0.00000000E+00 0.00000000E+00 0.45112480E+02 0.45113615E+02 0.32000000E+00 0.0000E+00 0.9000E+01
        1 -1    0    0  501    0 0.00000000E+00 0.00000000E+00 -.14482336E+04 0.14482336E+04 0.32000000E+00 0.0000E+00 0.9000E+01
       25  2    1    2    0    0 0.23252940E+01 -.13359210E+03 -.72263191E+03 0.79389527E+03 0.30036738E+03 0.0000E+00 0.0000E+00
       23  2    3    3    0    0 0.98063132E+02 -.71293677E+02 -.19954239E+03 0.25077031E+03 0.91484509E+02 0.0000E+00 0.0000E+00
       23  1    1    2    0    0 -.23252940E+01 0.13359210E+03 -.68048918E+03 0.69945195E+03 0.91188000E+02 0.0000E+00 0.9000E+01
      -13  1    4    4    0    0 0.79839415E+02 -.17506345E+02 -.16543315E+03 0.18452355E+03 0.10565837E+00 0.0000E+00 0.9000E+01
       13  1    4    4    0    0 0.18223717E+02 -.53787332E+02 -.34109246E+02 0.66246757E+02 0.10565837E+00 0.0000E+00 0.9000E+01
       23  1    3    3    0    0 -.95737838E+02 -.62298423E+02 -.52308952E+03 0.54312496E+03 0.91188000E+02 0.0000E+00 0.9000E+01
#aMCatNLO 1  0  0  2  1 0.49179906D+01 0.00000000D+00  -5  7  0 0.00000000D+00 0.00000000D+00 0.00000000D+00 0.00000000D+00 0.00000000D+00
  <mgrwgt>
 0.4293093698D-03   11    2    0
 0.255605715366892D+03 0.000000000000000D+00 0.000000000000000D+00 0.255605715366892D+03
 0.255605715366892D+03 0.000000000000000D+00 0.000000000000000D+00 -.255605715366892D+03
 0.175496677784782D+03 -.232529408015537D+01 0.133592102506520D+03 -.680556810620833D+02
 0.849648181389930D+02 0.798394950734622D+02 -.175062970019435D+02 0.231992438041955D+02
 0.998999931250984D+02 0.182236356097927D+02 -.537873810300450D+02 0.821877446672249D+02
 0.150849941684911D+03 -.957378366030995D+02 -.622984244745314D+02 -.373313074093371D+02
 0.000000000000000D+00 0.000000000000000D+00 -.000000000000000D+00 -.000000000000000D+00
 0.256085872778537D+03 0.000000000000000D+00 0.000000000000000D+00 0.256085872778537D+03
 0.268528659706762D+03 0.000000000000000D+00 0.000000000000000D+00 -.268528659706762D+03
 0.176335854914035D+03 -.363517669752193D+01 0.134663625934465D+03 -.680556810620833D+02
 0.842676114989201D+02 0.792094378806921D+02 -.169908912441698D+02 0.231992438041955D+02
 0.994412866377380D+02 0.174814823038377D+02 -.531802772759266D+02 0.821877446672249D+02
 0.151190333327839D+03 -.968623412159873D+02 -.613785458368836D+02 -.373313074093371D+02
 0.133794461067665D+02 0.380659772897948D+01 -.311391157748510D+01 -.124427869282248D+02
0.156145890539D-05 0.000000000000D+00 0.000000000000D+00 0.173773865922D-06 0.000000000000D+00  7 -1 1 23 -13 13 23 21 0 0.69404715D-02 0.22280526D+00 0.49829046D+05 0.49829046D+05 0.49829046D+05 0.11474262D+01  1  2  2  2  7  2        1 0.140662702131D-03 0.100000000000D+01
-.848123741210D-07 0.000000000000D+00 -.599641333827D-08 0.173773865922D-06 0.000000000000D+00  7 -1 1 23 -13 13 23 21 2 0.69404715D-02 0.22280526D+00 0.49829046D+05 0.49829046D+05 0.49829046D+05 0.11474262D+01  1  2  3  2  7  2        1 -.100590548387D-04 0.100000000000D+01
0.101300304782D-06 0.000000000000D+00 0.000000000000D+00 0.173773865922D-06 0.000000000000D+00  7 -1 1 23 -13 13 23 21 2 0.69404715D-02 0.22280526D+00 0.49829046D+05 0.49829046D+05 0.49829046D+05 0.11474262D+01  1  2 15  2  7  2        1 0.120145831495D-04 0.100000000000D+01
0.882925480266D-05 0.000000000000D+00 0.000000000000D+00 0.173773865922D-06 0.000000000000D+00  7 -1 1 23 -13 13 23 21 2 0.69404715D-02 0.23427328D+00 0.50870976D+05 0.50870976D+05 0.50870976D+05 0.11466363D+01  1  2 12  2  7  2        1 0.934173001027D-03 0.100000000000D+01
-.403040117130D-04 0.000000000000D+00 0.000000000000D+00 0.173773865922D-06 0.000000000000D+00  7 -1 1 23 -13 13 23 21 2 0.69404715D-02 0.22280526D+00 0.49829046D+05 0.49829046D+05 0.49829046D+05 0.11474262D+01  1  2  4  2  7  2        1 -.478020180714D-02 0.100000000000D+01
-.645137474947D-04 0.000000000000D+00 -.351050435332D-05 0.173773865922D-06 0.000000000000D+00  7 -1 1 23 -13 13 23 21 2 0.69404715D-02 0.23424100D+00 0.49829046D+05 0.49829046D+05 0.49829046D+05 0.11474262D+01  1  2  5  2  7  2        1 -.683887467223D-02 0.100000000000D+01
0.646128970103D-04 0.000000000000D+00 0.350611160826D-05 0.173773865922D-06 0.000000000000D+00  7 -1 1 23 -13 13 23 21 2 0.69404715D-02 0.22280526D+00 0.49829046D+05 0.49829046D+05 0.49829046D+05 0.11474262D+01  1  2  6  2  7  2        1 0.766332367241D-02 0.100000000000D+01
0.314103876202D-04 0.000000000000D+00 0.000000000000D+00 0.173773865922D-06 0.504353227712D-07  7 -1 1 23 -13 13 23 21 2 0.69535093D-02 0.23406987D+00 0.50870976D+05 0.50870976D+05 0.50870976D+05 0.11466363D+01  1  2 11  2  7  2        1 0.332062562597D-02 0.100000000000D+01
0.154916079545D-06 0.000000000000D+00 0.000000000000D+00 0.173773865922D-06 0.000000000000D+00  7 -1 21 23 -13 13 23 -1 2 0.69404715D-02 0.23427328D+00 0.50870976D+05 0.50870976D+05 0.50870976D+05 0.11466363D+01  1  2 12  4  7  2        1 0.134909448376D-04 0.100000000000D+01
-.568334043588D-06 0.000000000000D+00 -.306078986702D-07 0.173773865922D-06 0.000000000000D+00  7 -1 21 23 -13 13 23 -1 2 0.69404715D-02 0.23424100D+00 0.49829046D+05 0.49829046D+05 0.49829046D+05 0.11474262D+01  1  2  5  4  7  2        1 -.496476245724D-04 0.100000000000D+01
0.273212785985D-06 0.000000000000D+00 0.000000000000D+00 0.173773865922D-06 0.435464548503D-09  7 -1 21 23 -13 13 23 -1 2 0.69535093D-02 0.23406987D+00 0.50870976D+05 0.50870976D+05 0.50870976D+05 0.11466363D+01  1  2 11  4  7  2        1 0.238019990464D-04 0.100000000000D+01
  </mgrwgt>
  </event>
</LesHouchesEvents>
